Generated by trjconv : CNT in water t= 366.00000
33518
    1C        C    1   2.839   2.767   4.746
    1C        C    2   2.896   2.717   4.866
    1C        C    3   2.839   2.770   4.983
    1C        C    4   2.852   2.777   4.263
    1C        C    5   2.904   2.732   4.386
    1C        C    6   2.844   2.772   4.507
    1C        C    7   3.011   2.638   4.626
    1C        C    8   2.892   2.714   4.627
    1C        C    9   3.081   2.610   4.746
    1C        C   10   3.011   2.637   4.866
    1C        C   11   3.182   2.490   4.975
    1C        C   12   3.061   2.560   4.972
    1C        C   13   2.852   2.774   3.774
    1C        C   14   2.906   2.727   3.896
    1C        C   15   2.849   2.774   4.017
    1C        C   16   3.017   2.646   4.139
    1C        C   17   2.903   2.729   4.140
    1C        C   18   3.082   2.618   4.261
    1C        C   19   3.021   2.653   4.384
    1C        C   20   3.211   2.560   4.504
    1C        C   21   3.079   2.611   4.506
    1C        C   22   3.279   2.536   4.625
    1C        C   23   3.210   2.550   4.748
    1C        C   24   3.413   2.473   4.866
    1C        C   25   3.273   2.499   4.865
    1C        C   26   3.491   2.480   4.982
    1C        C   27   2.850   2.773   3.283
    1C        C   28   2.907   2.730   3.405
    1C        C   29   2.858   2.780   3.528
    1C        C   30   3.019   2.645   3.652
    1C        C   31   2.906   2.730   3.651
    1C        C   32   3.083   2.610   3.773
    1C        C   33   3.020   2.644   3.895
    1C        C   34   3.211   2.557   4.017
    1C        C   35   3.078   2.607   4.018
    1C        C   36   3.277   2.537   4.140
    1C        C   37   3.213   2.564   4.263
    1C        C   38   3.419   2.504   4.382
    1C        C   39   3.281   2.537   4.384
    1C        C   40   3.489   2.499   4.505
    1C        C   41   3.417   2.507   4.626
    1C        C   42   3.630   2.484   4.745
    1C        C   43   3.488   2.479   4.745
    1C        C   44   3.704   2.495   4.865
    1C        C   45   3.630   2.480   4.984
    1C        C   46   2.841   2.758   2.795
    1C        C   47   2.895   2.712   2.917
    1C        C   48   2.848   2.767   3.038
    1C        C   49   3.019   2.644   3.162
    1C        C   50   2.905   2.727   3.162
    1C        C   51   3.081   2.611   3.284
    1C        C   52   3.021   2.646   3.407
    1C        C   53   3.208   2.549   3.526
    1C        C   54   3.080   2.608   3.530
    1C        C   55   3.275   2.526   3.649
    1C        C   56   3.212   2.552   3.773
    1C        C   57   3.416   2.502   3.895
    1C        C   58   3.279   2.533   3.896
    1C        C   59   3.485   2.500   4.018
    1C        C   60   3.415   2.505   4.141
    1C        C   61   3.630   2.499   4.260
    1C        C   62   3.488   2.491   4.260
    1C        C   63   3.703   2.506   4.380
    1C        C   64   3.630   2.497   4.500
    1C        C   65   3.835   2.544   4.623
    1C        C   66   3.700   2.503   4.623
    1C        C   67   3.904   2.570   4.743
    1C        C   68   3.838   2.537   4.864
    1C        C   69   4.053   2.588   4.977
    1C        C   70   3.923   2.535   4.975
    1C        C   71   2.823   2.735   2.309
    1C        C   72   2.883   2.696   2.430
    1C        C   73   2.832   2.749   2.551
    1C        C   74   3.011   2.634   2.672
    1C        C   75   2.895   2.714   2.672
    1C        C   76   3.074   2.602   2.795
    1C        C   77   3.014   2.635   2.918
    1C        C   78   3.211   2.554   3.037
    1C        C   79   3.080   2.608   3.040
    1C        C   80   3.275   2.527   3.160
    1C        C   81   3.208   2.550   3.283
    1C        C   82   3.413   2.492   3.403
    1C        C   83   3.275   2.525   3.404
    1C        C   84   3.482   2.489   3.527
    1C        C   85   3.415   2.503   3.650
    1C        C   86   3.627   2.498   3.770
    1C        C   87   3.486   2.498   3.772
    1C        C   88   3.696   2.510   3.893
    1C        C   89   3.626   2.505   4.016
    1C        C   90   3.835   2.547   4.137
    1C        C   91   3.698   2.513   4.137
    1C        C   92   3.903   2.572   4.258
    1C        C   93   3.838   2.547   4.381
    1C        C   94   4.027   2.643   4.499
    1C        C   95   3.904   2.572   4.503
    1C        C   96   4.091   2.675   4.620
    1C        C   97   4.034   2.628   4.741
    1C        C   98   4.188   2.772   4.860
    1C        C   99   4.101   2.658   4.862
    1C        C  100   4.216   2.847   4.975
    1C        C  101   2.816   2.730   2.073
    1C        C  102   2.995   2.599   2.190
    1C        C  103   2.877   2.680   2.189
    1C        C  104   3.066   2.577   2.312
    1C        C  105   3.001   2.618   2.431
    1C        C  106   3.202   2.540   2.550
    1C        C  107   3.069   2.590   2.551
    1C        C  108   3.272   2.521   2.671
    1C        C  109   3.203   2.545   2.793
    1C        C  110   3.412   2.496   2.915
    1C        C  111   3.274   2.526   2.914
    1C        C  112   3.484   2.494   3.037
    1C        C  113   3.413   2.499   3.159
    1C        C  114   3.624   2.497   3.280
    1C        C  115   3.483   2.488   3.281
    1C        C  116   3.691   2.509   3.404
    1C        C  117   3.623   2.499   3.527
    1C        C  118   3.833   2.546   3.648
    1C        C  119   3.697   2.507   3.647
    1C        C  120   3.899   2.572   3.770
    1C        C  121   3.833   2.544   3.892
    1C        C  122   4.024   2.639   4.012
    1C        C  123   3.902   2.567   4.013
    1C        C  124   4.084   2.678   4.134
    1C        C  125   4.027   2.639   4.257
    1C        C  126   4.198   2.769   4.376
    1C        C  127   4.088   2.681   4.377
    1C        C  128   4.247   2.820   4.499
    1C        C  129   4.195   2.770   4.620
    1C        C  130   4.333   2.935   4.739
    1C        C  131   4.245   2.823   4.741
    1C        C  132   4.358   3.004   4.860
    1C        C  133   4.286   2.967   4.974
    1C        C  134   3.172   2.470   2.083
    1C        C  135   3.039   2.514   2.084
    1C        C  136   3.262   2.483   2.189
    1C        C  137   3.198   2.526   2.308
    1C        C  138   3.405   2.484   2.427
    1C        C  139   3.265   2.503   2.430
    1C        C  140   3.478   2.485   2.548
    1C        C  141   3.410   2.492   2.671
    1C        C  142   3.623   2.491   2.791
    1C        C  143   3.481   2.486   2.793
    1C        C  144   3.693   2.503   2.913
    1C        C  145   3.625   2.495   3.037
    1C        C  146   3.833   2.542   3.157
    1C        C  147   3.697   2.503   3.158
    1C        C  148   3.895   2.565   3.282
    1C        C  149   3.829   2.539   3.404
    1C        C  150   4.024   2.629   3.523
    1C        C  151   3.898   2.565   3.524
    1C        C  152   4.084   2.671   3.644
    1C        C  153   4.025   2.635   3.767
    1C        C  154   4.193   2.765   3.888
    1C        C  155   4.081   2.678   3.889
    1C        C  156   4.245   2.814   4.009
    1C        C  157   4.193   2.769   4.133
    1C        C  158   4.340   2.925   4.251
    1C        C  159   4.248   2.818   4.253
    1C        C  160   4.379   2.985   4.373
    1C        C  161   4.333   2.933   4.496
    1C        C  162   4.441   3.117   4.617
    1C        C  163   4.379   2.990   4.617
    1C        C  164   4.471   3.183   4.737
    1C        C  165   4.435   3.122   4.859
    1C        C  166   4.515   3.322   4.973
    1C        C  167   4.480   3.187   4.975
    1C        C  168   3.475   2.434   2.074
    1C        C  169   3.400   2.453   2.190
    1C        C  170   3.619   2.464   2.306
    1C        C  171   3.477   2.455   2.309
    1C        C  172   3.693   2.483   2.424
    1C        C  173   3.620   2.482   2.545
    1C        C  174   3.825   2.535   2.666
    1C        C  175   3.689   2.497   2.667
    1C        C  176   3.893   2.558   2.788
    1C        C  177   3.831   2.533   2.912
    1C        C  178   4.025   2.621   3.033
    1C        C  179   3.900   2.557   3.034
    1C        C  180   4.087   2.658   3.155
    1C        C  181   4.024   2.624   3.276
    1C        C  182   4.195   2.749   3.396
    1C        C  183   4.084   2.662   3.399
    1C        C  184   4.243   2.803   3.518
    1C        C  185   4.194   2.760   3.643
    1C        C  186   4.334   2.921   3.763
    1C        C  187   4.244   2.812   3.764
    1C        C  188   4.373   2.981   3.885
    1C        C  189   4.333   2.924   4.009
    1C        C  190   4.446   3.108   4.129
    1C        C  191   4.379   2.984   4.129
    1C        C  192   4.473   3.174   4.250
    1C        C  193   4.441   3.112   4.373
    1C        C  194   4.498   3.319   4.493
    1C        C  195   4.465   3.181   4.493
    1C        C  196   4.516   3.390   4.613
    1C        C  197   4.507   3.321   4.736
    1C        C  198   4.553   3.536   4.855
    1C        C  199   4.534   3.395   4.854
    1C        C  200   4.583   3.621   4.967
    1C        C  201   3.615   2.419   2.073
    1C        C  202   3.828   2.509   2.185
    1C        C  203   3.694   2.460   2.185
    1C        C  204   3.899   2.539   2.305
    1C        C  205   3.830   2.517   2.426
    1C        C  206   4.022   2.619   2.547
    1C        C  207   3.896   2.555   2.546
    1C        C  208   4.083   2.659   2.667
    1C        C  209   4.019   2.624   2.788
    1C        C  210   4.192   2.749   2.907
    1C        C  211   4.082   2.660   2.909
    1C        C  212   4.245   2.798   3.028
    1C        C  213   4.194   2.750   3.150
    1C        C  214   4.335   2.907   3.272
    1C        C  215   4.242   2.800   3.273
    1C        C  216   4.370   2.972   3.392
    1C        C  217   4.328   2.916   3.515
    1C        C  218   4.429   3.102   3.639
    1C        C  219   4.368   2.975   3.637
    1C        C  220   4.459   3.170   3.760
    1C        C  221   4.440   3.105   3.884
    1C        C  222   4.505   3.309   4.004
    1C        C  223   4.469   3.172   4.005
    1C        C  224   4.522   3.380   4.124
    1C        C  225   4.507   3.312   4.247
    1C        C  226   4.520   3.525   4.368
    1C        C  227   4.512   3.384   4.368
    1C        C  228   4.522   3.598   4.489
    1C        C  229   4.529   3.531   4.613
    1C        C  230   4.493   3.742   4.733
    1C        C  231   4.531   3.605   4.733
    1C        C  232   4.490   3.819   4.851
    1C        C  233   4.551   3.757   4.961
    1C        C  234   4.018   2.608   2.061
    1C        C  235   3.894   2.545   2.067
    1C        C  236   4.083   2.645   2.179
    1C        C  237   4.024   2.607   2.302
    1C        C  238   4.194   2.738   2.420
    1C        C  239   4.082   2.651   2.423
    1C        C  240   4.251   2.787   2.540
    1C        C  241   4.197   2.742   2.662
    1C        C  242   4.330   2.908   2.784
    1C        C  243   4.242   2.798   2.784
    1C        C  244   4.371   2.966   2.906
    1C        C  245   4.331   2.910   3.030
    1C        C  246   4.434   3.096   3.147
    1C        C  247   4.377   2.967   3.151
    1C        C  248   4.456   3.163   3.270
    1C        C  249   4.432   3.099   3.393
    1C        C  250   4.495   3.301   3.515
    1C        C  251   4.457   3.165   3.516
    1C        C  252   4.506   3.373   3.636
    1C        C  253   4.492   3.308   3.760
    1C        C  254   4.524   3.519   3.879
    1C        C  255   4.511   3.378   3.881
    1C        C  256   4.521   3.591   4.001
    1C        C  257   4.522   3.522   4.124
    1C        C  258   4.495   3.734   4.243
    1C        C  259   4.518   3.594   4.245
    1C        C  260   4.473   3.802   4.364
    1C        C  261   4.488   3.736   4.488
    1C        C  262   4.421   3.938   4.602
    1C        C  263   4.469   3.806   4.609
    1C        C  264   4.398   4.008   4.723
    1C        C  265   4.433   3.948   4.847
    1C        C  266   4.321   4.135   4.961
    1C        C  267   4.394   4.017   4.962
    1C        C  268   4.263   2.772   2.065
    1C        C  269   4.199   2.725   2.181
    1C        C  270   4.342   2.892   2.301
    1C        C  271   4.249   2.784   2.299
    1C        C  272   4.381   2.958   2.419
    1C        C  273   4.340   2.897   2.540
    1C        C  274   4.442   3.085   2.662
    1C        C  275   4.376   2.961   2.661
    1C        C  276   4.474   3.153   2.782
    1C        C  277   4.439   3.089   2.903
    1C        C  278   4.500   3.295   3.027
    1C        C  279   4.462   3.159   3.024
    1C        C  280   4.520   3.365   3.148
    1C        C  281   4.505   3.296   3.271
    1C        C  282   4.525   3.509   3.390
    1C        C  283   4.512   3.368   3.392
    1C        C  284   4.518   3.582   3.510
    1C        C  285   4.521   3.514   3.633
    1C        C  286   4.490   3.723   3.754
    1C        C  287   4.522   3.586   3.755
    1C        C  288   4.481   3.795   3.876
    1C        C  289   4.499   3.731   4.000
    1C        C  290   4.430   3.935   4.116
    1C        C  291   4.482   3.803   4.120
    1C        C  292   4.396   3.998   4.238
    1C        C  293   4.426   3.936   4.361
    1C        C  294   4.321   4.125   4.481
    1C        C  295   4.390   4.002   4.480
    1C        C  296   4.279   4.186   4.601
    1C        C  297   4.321   4.127   4.722
    1C        C  298   4.199   4.312   4.841
    1C        C  299   4.286   4.198   4.841
    1C        C  300   4.168   4.400   4.949
    1C        C  301   4.349   2.881   2.064
    1C        C  302   4.467   3.069   2.174
    1C        C  303   4.395   2.945   2.180
    1C        C  304   4.480   3.143   2.295
    1C        C  305   4.449   3.082   2.419
    1C        C  306   4.503   3.288   2.536
    1C        C  307   4.472   3.150   2.540
    1C        C  308   4.510   3.361   2.657
    1C        C  309   4.504   3.291   2.779
    1C        C  310   4.523   3.501   2.900
    1C        C  311   4.512   3.360   2.902
    1C        C  312   4.525   3.574   3.020
    1C        C  313   4.527   3.506   3.144
    1C        C  314   4.489   3.715   3.266
    1C        C  315   4.515   3.576   3.266
    1C        C  316   4.477   3.788   3.386
    1C        C  317   4.494   3.722   3.509
    1C        C  318   4.426   3.923   3.628
    1C        C  319   4.474   3.791   3.631
    1C        C  320   4.392   3.987   3.749
    1C        C  321   4.420   3.923   3.872
    1C        C  322   4.321   4.114   3.992
    1C        C  323   4.393   3.992   3.992
    1C        C  324   4.277   4.170   4.113
    1C        C  325   4.319   4.117   4.237
    1C        C  326   4.183   4.282   4.355
    1C        C  327   4.282   4.181   4.357
    1C        C  328   4.133   4.338   4.474
    1C        C  329   4.184   4.291   4.597
    1C        C  330   4.029   4.439   4.713
    1C        C  331   4.143   4.354   4.717
    1C        C  332   3.971   4.490   4.831
    1C        C  333   4.054   4.482   4.943
    1C        C  334   4.551   3.266   2.064
    1C        C  335   4.532   3.127   2.061
    1C        C  336   4.539   3.351   2.174
    1C        C  337   4.520   3.279   2.294
    1C        C  338   4.531   3.496   2.411
    1C        C  339   4.520   3.355   2.413
    1C        C  340   4.525   3.571   2.531
    1C        C  341   4.519   3.502   2.654
    1C        C  342   4.493   3.710   2.775
    1C        C  343   4.514   3.570   2.777
    1C        C  344   4.478   3.779   2.897
    1C        C  345   4.495   3.712   3.020
    1C        C  346   4.420   3.911   3.137
    1C        C  347   4.476   3.781   3.142
    1C        C  348   4.391   3.977   3.258
    1C        C  349   4.429   3.921   3.382
    1C        C  350   4.323   4.105   3.504
    1C        C  351   4.397   3.985   3.504
    1C        C  352   4.275   4.163   3.623
    1C        C  353   4.317   4.107   3.746
    1C        C  354   4.179   4.267   3.866
    1C        C  355   4.275   4.164   3.868
    1C        C  356   4.125   4.317   3.987
    1C        C  357   4.180   4.273   4.110
    1C        C  358   4.011   4.402   4.232
    1C        C  359   4.128   4.323   4.231
    1C        C  360   3.950   4.447   4.351
    1C        C  361   4.019   4.421   4.472
    1C        C  362   3.830   4.518   4.594
    1C        C  363   3.961   4.467   4.593
    1C        C  364   3.764   4.550   4.714
    1C        C  365   3.841   4.545   4.833
    1C        C  366   3.632   4.592   4.952
    1C        C  367   3.770   4.571   4.951
    1C        C  368   4.517   3.565   2.051
    1C        C  369   4.531   3.492   2.170
    1C        C  370   4.511   3.707   2.287
    1C        C  371   4.531   3.568   2.289
    1C        C  372   4.489   3.779   2.407
    1C        C  373   4.502   3.711   2.530
    1C        C  374   4.423   3.908   2.650
    1C        C  375   4.475   3.776   2.652
    1C        C  376   4.388   3.971   2.771
    1C        C  377   4.423   3.909   2.894
    1C        C  378   4.319   4.096   3.014
    1C        C  379   4.395   3.977   3.014
    1C        C  380   4.273   4.152   3.136
    1C        C  381   4.317   4.098   3.259
    1C        C  382   4.177   4.257   3.378
    1C        C  383   4.279   4.159   3.380
    1C        C  384   4.122   4.308   3.497
    1C        C  385   4.175   4.263   3.620
    1C        C  386   4.007   4.390   3.743
    1C        C  387   4.123   4.309   3.744
    1C        C  388   3.948   4.432   3.864
    1C        C  389   4.009   4.397   3.986
    1C        C  390   3.819   4.488   4.105
    1C        C  391   3.950   4.436   4.109
    1C        C  392   3.753   4.515   4.227
    1C        C  393   3.819   4.499   4.351
    1C        C  394   3.618   4.558   4.474
    1C        C  395   3.756   4.527   4.474
    1C        C  396   3.549   4.572   4.596
    1C        C  397   3.624   4.569   4.716
    1C        C  398   3.417   4.547   4.837
    1C        C  399   3.553   4.583   4.837
    1C        C  400   3.348   4.514   4.955
    1C        C  401   4.504   3.704   2.049
    1C        C  402   4.459   3.916   2.167
    1C        C  403   4.498   3.780   2.166
    1C        C  404   4.415   3.977   2.286
    1C        C  405   4.440   3.911   2.409
    1C        C  406   4.327   4.096   2.526
    1C        C  407   4.404   3.977   2.528
    1C        C  408   4.281   4.153   2.647
    1C        C  409   4.317   4.093   2.770
    1C        C  410   4.178   4.254   2.890
    1C        C  411   4.274   4.150   2.892
    1C        C  412   4.125   4.298   3.014
    1C        C  413   4.173   4.251   3.138
    1C        C  414   4.001   4.381   3.252
    1C        C  415   4.118   4.302   3.258
    1C        C  416   3.946   4.424   3.374
    1C        C  417   4.006   4.389   3.498
    1C        C  418   3.815   4.480   3.620
    1C        C  419   3.943   4.420   3.620
    1C        C  420   3.747   4.505   3.741
    1C        C  421   3.815   4.479   3.863
    1C        C  422   3.609   4.532   3.988
    1C        C  423   3.747   4.501   3.984
    1C        C  424   3.541   4.544   4.112
    1C        C  425   3.614   4.540   4.233
    1C        C  426   3.403   4.557   4.357
    1C        C  427   3.544   4.562   4.354
    1C        C  428   3.333   4.551   4.480
    1C        C  429   3.407   4.566   4.599
    1C        C  430   3.199   4.518   4.724
    1C        C  431   3.338   4.550   4.720
    1C        C  432   3.129   4.492   4.846
    1C        C  433   3.211   4.490   4.960
    1C        C  434   4.384   4.118   2.052
    1C        C  435   4.456   3.998   2.053
    1C        C  436   4.300   4.157   2.160
    1C        C  437   4.337   4.096   2.283
    1C        C  438   4.187   4.251   2.401
    1C        C  439   4.290   4.154   2.403
    1C        C  440   4.123   4.290   2.521
    1C        C  441   4.176   4.247   2.645
    1C        C  442   4.002   4.369   2.766
    1C        C  443   4.122   4.293   2.767
    1C        C  444   3.942   4.409   2.887
    1C        C  445   4.008   4.377   3.008
    1C        C  446   3.814   4.473   3.129
    1C        C  447   3.942   4.414   3.127
    1C        C  448   3.748   4.496   3.252
    1C        C  449   3.816   4.480   3.375
    1C        C  450   3.611   4.532   3.498
    1C        C  451   3.750   4.505   3.497
    1C        C  452   3.542   4.543   3.621
    1C        C  453   3.609   4.536   3.745
    1C        C  454   3.397   4.544   3.868
    1C        C  455   3.538   4.546   3.866
    1C        C  456   3.329   4.536   3.991
    1C        C  457   3.400   4.545   4.113
    1C        C  458   3.195   4.504   4.236
    1C        C  459   3.331   4.541   4.236
    1C        C  460   3.129   4.488   4.360
    1C        C  461   3.196   4.517   4.481
    1C        C  462   3.004   4.428   4.606
    1C        C  463   3.131   4.491   4.604
    1C        C  464   2.937   4.399   4.726
    1C        C  465   2.995   4.444   4.848
    1C        C  466   2.803   4.337   4.960
    1C        C  467   2.907   4.432   4.961
    1C        C  468   4.126   4.289   2.042
    1C        C  469   4.186   4.245   2.160
    1C        C  470   4.009   4.371   2.279
    1C        C  471   4.125   4.289   2.280
    1C        C  472   3.943   4.400   2.400
    1C        C  473   4.003   4.364   2.523
    1C        C  474   3.814   4.466   2.642
    1C        C  475   3.941   4.403   2.644
    1C        C  476   3.748   4.496   2.763
    1C        C  477   3.815   4.470   2.885
    1C        C  478   3.610   4.526   3.010
    1C        C  479   3.748   4.496   3.007
    1C        C  480   3.538   4.536   3.131
    1C        C  481   3.610   4.527   3.253
    1C        C  482   3.399   4.536   3.379
    1C        C  483   3.540   4.534   3.376
    1C        C  484   3.329   4.528   3.501
    1C        C  485   3.401   4.541   3.622
    1C        C  486   3.193   4.502   3.745
    1C        C  487   3.330   4.536   3.744
    1C        C  488   3.126   4.481   3.868
    1C        C  489   3.191   4.504   3.991
    1C        C  490   3.002   4.415   4.117
    1C        C  491   3.128   4.478   4.115
    1C        C  492   2.945   4.382   4.242
    1C        C  493   3.004   4.422   4.363
    1C        C  494   2.832   4.299   4.484
    1C        C  495   2.943   4.386   4.486
    1C        C  496   2.778   4.255   4.607
    1C        C  497   2.823   4.313   4.727
    1C        C  498   2.666   4.164   4.842
    1C        C  499   2.759   4.270   4.845
    1C        C  500   2.604   4.114   4.957
    1C        C  501   4.002   4.353   2.040
    1C        C  502   3.815   4.463   2.157
    1C        C  503   3.942   4.400   2.158
    1C        C  504   3.746   4.484   2.278
    1C        C  505   3.813   4.455   2.399
    1C        C  506   3.608   4.515   2.520
    1C        C  507   3.746   4.484   2.520
    1C        C  508   3.537   4.520   2.643
    1C        C  509   3.609   4.519   2.764
    1C        C  510   3.399   4.527   2.887
    1C        C  511   3.540   4.531   2.887
    1C        C  512   3.328   4.523   3.009
    1C        C  513   3.397   4.536   3.132
    1C        C  514   3.192   4.500   3.256
    1C        C  515   3.330   4.530   3.256
    1C        C  516   3.124   4.474   3.377
    1C        C  517   3.191   4.496   3.499
    1C        C  518   3.001   4.411   3.627
    1C        C  519   3.124   4.480   3.623
    1C        C  520   2.946   4.367   3.749
    1C        C  521   3.004   4.410   3.871
    1C        C  522   2.837   4.283   3.997
    1C        C  523   2.946   4.372   3.994
    1C        C  524   2.792   4.230   4.120
    1C        C  525   2.840   4.287   4.240
    1C        C  526   2.700   4.132   4.367
    1C        C  527   2.784   4.245   4.363
    1C        C  528   2.661   4.072   4.489
    1C        C  529   2.694   4.141   4.607
    1C        C  530   2.585   3.957   4.730
    1C        C  531   2.639   4.088   4.726
    1C        C  532   2.542   3.902   4.854
    1C        C  533   2.532   3.993   4.964
    1C        C  534   3.620   4.559   2.041
    1C        C  535   3.754   4.518   2.044
    1C        C  536   3.535   4.540   2.155
    1C        C  537   3.607   4.517   2.276
    1C        C  538   3.396   4.514   2.400
    1C        C  539   3.537   4.518   2.398
    1C        C  540   3.323   4.509   2.521
    1C        C  541   3.396   4.518   2.642
    1C        C  542   3.189   4.489   2.765
    1C        C  543   3.327   4.519   2.765
    1C        C  544   3.125   4.464   2.889
    1C        C  545   3.192   4.485   3.011
    1C        C  546   3.002   4.400   3.136
    1C        C  547   3.126   4.467   3.135
    1C        C  548   2.942   4.367   3.260
    1C        C  549   3.001   4.406   3.382
    1C        C  550   2.835   4.277   3.507
    1C        C  551   2.942   4.369   3.505
    1C        C  552   2.784   4.226   3.629
    1C        C  553   2.836   4.278   3.750
    1C        C  554   2.709   4.115   3.875
    1C        C  555   2.788   4.232   3.875
    1C        C  556   2.669   4.060   3.999
    1C        C  557   2.705   4.119   4.122
    1C        C  558   2.604   3.939   4.243
    1C        C  559   2.660   4.069   4.247
    1C        C  560   2.572   3.876   4.366
    1C        C  561   2.595   3.947   4.486
    1C        C  562   2.530   3.748   4.613
    1C        C  563   2.568   3.884   4.610
    1C        C  564   2.510   3.681   4.736
    1C        C  565   2.517   3.761   4.854
    1C        C  566   2.529   3.546   4.977
    1C        C  567   2.518   3.684   4.972
    1C        C  568   3.328   4.481   2.039
    1C        C  569   3.395   4.518   2.157
    1C        C  570   3.184   4.480   2.282
    1C        C  571   3.323   4.510   2.279
    1C        C  572   3.116   4.458   2.404
    1C        C  573   3.184   4.484   2.525
    1C        C  574   2.988   4.405   2.652
    1C        C  575   3.115   4.466   2.647
    1C        C  576   2.931   4.364   2.775
    1C        C  577   3.001   4.397   2.893
    1C        C  578   2.832   4.269   3.019
    1C        C  579   2.941   4.359   3.015
    1C        C  580   2.784   4.222   3.143
    1C        C  581   2.834   4.276   3.264
    1C        C  582   2.701   4.111   3.385
    1C        C  583   2.785   4.225   3.386
    1C        C  584   2.665   4.051   3.508
    1C        C  585   2.699   4.114   3.630
    1C        C  586   2.602   3.930   3.756
    1C        C  587   2.665   4.057   3.754
    1C        C  588   2.577   3.867   3.880
    1C        C  589   2.608   3.932   4.002
    1C        C  590   2.532   3.735   4.127
    1C        C  591   2.576   3.869   4.124
    1C        C  592   2.520   3.667   4.250
    1C        C  593   2.532   3.741   4.370
    1C        C  594   2.511   3.533   4.499
    1C        C  595   2.523   3.674   4.494
    1C        C  596   2.515   3.463   4.621
    1C        C  597   2.511   3.539   4.740
    1C        C  598   2.529   3.327   4.865
    1C        C  599   2.518   3.467   4.862
    1C        C  600   2.535   3.249   4.982
    1C        C  601   3.196   4.444   2.046
    1C        C  602   2.983   4.394   2.163
    1C        C  603   3.118   4.441   2.163
    1C        C  604   2.923   4.361   2.288
    1C        C  605   2.989   4.397   2.408
    1C        C  606   2.822   4.270   2.531
    1C        C  607   2.928   4.364   2.531
    1C        C  608   2.774   4.219   2.654
    1C        C  609   2.825   4.271   2.775
    1C        C  610   2.694   4.106   2.897
    1C        C  611   2.777   4.219   2.898
    1C        C  612   2.657   4.050   3.022
    1C        C  613   2.698   4.110   3.143
    1C        C  614   2.596   3.924   3.267
    1C        C  615   2.661   4.049   3.265
    1C        C  616   2.568   3.863   3.391
    1C        C  617   2.602   3.925   3.514
    1C        C  618   2.530   3.726   3.637
    1C        C  619   2.571   3.861   3.636
    1C        C  620   2.519   3.660   3.762
    1C        C  621   2.534   3.732   3.882
    1C        C  622   2.500   3.524   4.012
    1C        C  623   2.518   3.664   4.005
    1C        C  624   2.504   3.453   4.134
    1C        C  625   2.511   3.526   4.255
    1C        C  626   2.531   3.318   4.380
    1C        C  627   2.512   3.458   4.379
    1C        C  628   2.546   3.249   4.502
    1C        C  629   2.537   3.323   4.622
    1C        C  630   2.597   3.121   4.745
    1C        C  631   2.550   3.255   4.745
    1C        C  632   2.616   3.050   4.867
    1C        C  633   2.559   3.111   4.983
    1C        C  634   2.784   4.303   2.053
    1C        C  635   2.895   4.388   2.050
    1C        C  636   2.754   4.230   2.168
    1C        C  637   2.812   4.272   2.290
    1C        C  638   2.677   4.110   2.412
    1C        C  639   2.764   4.221   2.412
    1C        C  640   2.645   4.045   2.533
    1C        C  641   2.692   4.104   2.653
    1C        C  642   2.594   3.918   2.777
    1C        C  643   2.655   4.045   2.776
    1C        C  644   2.569   3.855   2.901
    1C        C  645   2.596   3.922   3.022
    1C        C  646   2.533   3.720   3.146
    1C        C  647   2.573   3.856   3.145
    1C        C  648   2.515   3.656   3.271
    1C        C  649   2.526   3.728   3.392
    1C        C  650   2.507   3.518   3.518
    1C        C  651   2.512   3.659   3.514
    1C        C  652   2.508   3.451   3.643
    1C        C  653   2.505   3.520   3.767
    1C        C  654   2.530   3.313   3.892
    1C        C  655   2.506   3.452   3.891
    1C        C  656   2.544   3.246   4.015
    1C        C  657   2.523   3.313   4.138
    1C        C  658   2.592   3.113   4.261
    1C        C  659   2.535   3.243   4.260
    1C        C  660   2.618   3.046   4.383
    1C        C  661   2.585   3.113   4.503
    1C        C  662   2.707   2.938   4.626
    1C        C  663   2.625   3.053   4.624
    1C        C  664   2.747   2.876   4.747
    1C        C  665   2.696   2.932   4.867
    1C        C  666   2.739   2.866   4.983
    1C        C  667   2.677   4.024   2.054
    1C        C  668   2.695   4.101   2.170
    1C        C  669   2.594   3.912   2.292
    1C        C  670   2.651   4.042   2.290
    1C        C  671   2.558   3.849   2.414
    1C        C  672   2.582   3.919   2.535
    1C        C  673   2.518   3.717   2.660
    1C        C  674   2.559   3.852   2.657
    1C        C  675   2.510   3.648   2.783
    1C        C  676   2.532   3.718   2.903
    1C        C  677   2.502   3.509   3.028
    1C        C  678   2.517   3.649   3.025
    1C        C  679   2.505   3.443   3.153
    1C        C  680   2.504   3.515   3.274
    1C        C  681   2.521   3.305   3.403
    1C        C  682   2.502   3.445   3.397
    1C        C  683   2.544   3.241   3.527
    1C        C  684   2.531   3.312   3.648
    1C        C  685   2.603   3.113   3.773
    1C        C  686   2.549   3.243   3.770
    1C        C  687   2.638   3.052   3.896
    1C        C  688   2.604   3.118   4.017
    1C        C  689   2.711   2.936   4.142
    1C        C  690   2.636   3.056   4.140
    1C        C  691   2.756   2.881   4.264
    1C        C  692   2.707   2.937   4.384
    1C        C  693   2.751   2.879   4.506
    1C        C  694   2.630   3.892   2.057
    1C        C  695   2.534   3.702   2.176
    1C        C  696   2.580   3.835   2.175
    1C        C  697   2.506   3.641   2.300
    1C        C  698   2.512   3.716   2.419
    1C        C  699   2.488   3.504   2.542
    1C        C  700   2.496   3.645   2.540
    1C        C  701   2.493   3.433   2.664
    1C        C  702   2.489   3.508   2.784
    1C        C  703   2.522   3.298   2.911
    1C        C  704   2.498   3.437   2.906
    1C        C  705   2.542   3.232   3.034
    1C        C  706   2.528   3.304   3.156
    1C        C  707   2.594   3.108   3.278
    1C        C  708   2.540   3.238   3.280
    1C        C  709   2.631   3.050   3.402
    1C        C  710   2.603   3.112   3.526
    1C        C  711   2.714   2.934   3.650
    1C        C  712   2.634   3.051   3.650
    1C        C  713   2.755   2.877   3.773
    1C        C  714   2.715   2.934   3.896
    1C        C  715   2.756   2.880   4.020
    1C        C  716   2.450   3.498   2.061
    1C        C  717   2.488   3.633   2.063
    1C        C  718   2.463   3.424   2.183
    1C        C  719   2.484   3.500   2.301
    1C        C  720   2.515   3.290   2.423
    1C        C  721   2.490   3.429   2.422
    1C        C  722   2.531   3.221   2.545
    1C        C  723   2.514   3.293   2.665
    1C        C  724   2.590   3.098   2.789
    1C        C  725   2.536   3.229   2.789
    1C        C  726   2.624   3.038   2.913
    1C        C  727   2.596   3.102   3.036
    1C        C  728   2.712   2.927   3.159
    1C        C  729   2.627   3.040   3.159
    1C        C  730   2.754   2.877   3.285
    1C        C  731   2.708   2.932   3.406
    1C        C  732   2.759   2.880   3.528
    1C        C  733   2.488   3.198   2.072
    1C        C  734   2.492   3.284   2.183
    1C        C  735   2.578   3.084   2.303
    1C        C  736   2.526   3.217   2.303
    1C        C  737   2.612   3.022   2.425
    1C        C  738   2.579   3.088   2.546
    1C        C  739   2.695   2.912   2.670
    1C        C  740   2.615   3.029   2.669
    1C        C  741   2.743   2.860   2.792
    1C        C  742   2.703   2.921   2.913
    1C        C  743   2.752   2.871   3.036
    1C        C  744   2.542   3.069   2.071
    1C        C  745   2.686   2.899   2.185
    1C        C  746   2.607   3.017   2.183
    1C        C  747   2.728   2.841   2.307
    1C        C  748   2.685   2.901   2.427
    1C        C  749   2.734   2.851   2.550
    1C        C  750   2.731   2.840   2.066
    1C        C  751   3.668   2.312   1.986
    1C        O  752   3.716   2.209   2.040
    1C        O  753   3.649   2.317   1.847
    1C        C  754   4.627   3.050   1.978
    1C        O  755   4.594   3.044   1.856
    1C        O  756   4.766   3.068   1.985
    1C        C  757   4.436   4.220   1.958
    1C        O  758   4.506   4.315   2.003
    1C        O  759   4.389   4.228   1.826
    1C        C  760   3.596   4.679   1.959
    1C        O  761   3.609   4.794   2.009
    1C        O  762   3.619   4.665   1.821
    1C        C  763   2.907   4.467   1.925
    1C        O  764   2.936   4.407   1.818
    1C        O  765   2.873   4.602   1.918
    1C        C  766   2.338   3.466   1.970
    1C        O  767   2.330   3.508   1.851
    1C        O  768   2.220   3.403   2.010
    1C        C  769   4.681   3.582   5.071
    1C        O  770   4.677   3.628   5.188
    1C        O  771   4.816   3.589   5.035
    1C        C  772   4.274   4.441   5.043
    1C        O  773   4.265   4.430   5.168
    1C        O  774   4.401   4.483   5.003
    1C        C  775   4.142   2.530   5.080
    1C        O  776   4.229   2.444   5.051
    1C        O  777   4.147   2.572   5.213
    1C        C  778   2.894   4.526   5.074
    1C        O  779   2.813   4.621   5.076
    1C        O  780   2.926   4.479   5.203
    1C        C  781   2.457   3.041   5.064
    1C        O  782   2.350   3.007   5.008
    1C        O  783   2.489   2.966   5.177
    1C        C  784   2.423   4.000   5.064
    1C        O  785   2.301   4.021   5.042
    1C        O  786   2.447   3.987   5.201
    1C        C  787   2.945   2.416   2.025
    1C        O  788   2.884   2.436   1.917
    1C        O  789   2.925   2.284   2.066
    1C        C  790   3.194   2.372   5.063
    1C        O  791   3.157   2.256   5.031
    1C        O  792   3.143   2.389   5.193
    1C        H  793   4.267   3.039   5.052
    1C        H  794   4.226   2.786   5.062
    1C        H  795   4.514   3.122   5.052
    1C        H  796   4.545   3.366   5.065
    1C        H  797   4.552   3.805   5.057
    1C        H  798   4.401   3.960   5.053
    1C        H  799   4.318   4.191   5.052
    1C        H  800   4.050   4.562   5.014
    1C        H  801   3.830   4.602   5.034
    1C        H  802   3.597   4.634   5.044
    1C        H  803   3.398   4.520   5.049
    1C        H  804   3.168   4.495   5.058
    1C        H  805   3.893   2.484   5.064
    1C        H  806   3.680   2.463   5.077
    1C        H  807   3.018   2.585   5.067
    1C        H  808   3.447   2.476   5.080
    1C        H  809   2.902   2.761   5.069
    1C        H  810   2.699   2.894   5.079
    1C        H  811   2.484   3.296   5.064
    1C        H  812   2.568   3.513   5.071
    1C        H  813   2.528   3.738   5.064
    1C        H  814   2.616   4.169   5.048
    1C        H  815   2.724   4.354   5.031
    1C        H  816   2.668   2.845   1.980
    1C        H  817   2.826   2.667   1.987
    1C        H  818   3.220   2.483   1.988
    1C        H  819   3.429   2.451   1.979
    1C        H  820   3.859   2.517   1.970
    1C        H  821   4.083   2.588   1.978
    1C        H  822   4.275   2.701   1.985
    1C        H  823   4.341   2.954   1.986
    1C        H  824   4.608   3.303   1.981
    1C        H  825   4.555   3.527   1.959
    1C        H  826   4.510   3.755   1.956
    1C        H  827   3.816   4.573   1.977
    1C        H  828   3.940   4.327   1.957
    1C        H  829   4.174   4.277   1.947
    1C        H  830   4.548   4.006   2.001
    1C        H  831   2.641   3.837   1.966
    1C        H  832   2.719   4.063   1.963
    1C        H  833   2.712   4.305   1.974
    1C        H  834   3.379   4.456   1.948
    1C        H  835   3.164   4.376   1.969
    1C        H  836   2.531   3.019   1.977
    1C        H  837   2.470   3.243   1.977
    1C        H  838   2.449   3.692   1.982
    2V3OU   H29  839   2.808   3.551   3.949
    2V3OU   C27  840   2.791   3.504   4.050
    2V3OU   H27  841   2.737   3.571   4.121
    2V3OU   H28  842   2.742   3.405   4.032
    2V3OU   O11  843   2.917   3.478   4.114
    2V3OU   C15  844   2.928   3.399   4.226
    2V3OU   C13  845   3.055   3.375   4.282
    2V3OU   C14  846   3.081   3.270   4.371
    2V3OU   C16  847   2.979   3.189   4.418
    2V3OU    H6  848   2.994   3.106   4.489
    2V3OU   C12  849   3.214   3.230   4.421
    2V3OU    O2  850   3.238   3.121   4.478
    2V3OU   C10  851   3.328   3.309   4.373
    2V3OU    C8  852   3.458   3.270   4.404
    2V3OU   O10  853   3.493   3.149   4.455
    2V3OU   H26  854   3.410   3.115   4.494
    2V3OU    C6  855   3.566   3.351   4.357
    2V3OU    C5  856   3.541   3.467   4.285
    2V3OU    C4  857   3.706   3.300   4.354
    2V3OU    H4  858   3.725   3.231   4.442
    2V3OU    H5  859   3.714   3.229   4.267
    2V3OU    C2  860   3.817   3.405   4.354
    2V3OU    O6  861   3.803   3.471   4.480
    2V3OU   H21  862   3.774   3.562   4.460
    2V3OU    C3  863   3.785   3.497   4.237
    2V3OU    H2  864   3.864   3.576   4.227
    2V3OU    H3  865   3.785   3.440   4.141
    2V3OU   C25  866   3.947   3.327   4.333
    2V3OU    O7  867   4.004   3.303   4.227
    2V3OU   C26  868   4.026   3.287   4.457
    2V3OU   H22  869   4.067   3.382   4.500
    2V3OU   H23  870   4.113   3.223   4.428
    2V3OU    O8  871   3.960   3.207   4.553
    2V3OU   H24  872   3.921   3.273   4.613
    2V3OU    C1  873   3.650   3.565   4.253
    2V3OU    H1  874   3.628   3.620   4.157
    2V3OU    O3  875   3.651   3.658   4.361
    2V3OU   C19  876   3.617   3.795   4.336
    2V3OU    H9  877   3.521   3.809   4.278
    2V3OU    O4  878   3.717   3.843   4.248
    2V3OU   C20  879   3.843   3.873   4.309
    2V3OU   H10  880   3.909   3.785   4.338
    2V3OU   C24  881   3.611   3.861   4.474
    2V3OU   H16  882   3.540   3.797   4.533
    2V3OU   H17  883   3.568   3.963   4.456
    2V3OU   C23  884   3.751   3.875   4.535
    2V3OU   H15  885   3.788   3.768   4.548
    2V3OU    N1  886   3.736   3.960   4.651
    2V3OU   H19  887   3.805   3.922   4.713
    2V3OU   H20  888   3.646   3.936   4.687
    2V3OU   C21  889   3.848   3.952   4.440
    2V3OU   H11  890   3.957   3.942   4.468
    2V3OU    O5  891   3.820   4.091   4.434
    2V3OU   H18  892   3.781   4.113   4.521
    2V3OU   C22  893   3.913   3.948   4.196
    2V3OU   H12  894   3.860   4.043   4.171
    2V3OU   H13  895   3.912   3.890   4.100
    2V3OU   H14  896   4.022   3.962   4.219
    2V3OU   C11  897   3.161   3.476   4.277
    2V3OU    O1  898   3.139   3.591   4.234
    2V3OU    C9  899   3.299   3.428   4.300
    2V3OU    C7  900   3.406   3.509   4.263
    2V3OU    O9  901   3.385   3.617   4.179
    2V3OU   H25  902   3.289   3.629   4.180
    2V3OU   C17  903   2.827   3.316   4.279
    2V3OU    H7  904   2.729   3.361   4.261
    2V3OU   C18  905   2.850   3.215   4.371
    2V3OU    H8  906   2.788   3.174   4.452
    3SOL     OW  907   2.869   4.399   5.458
    3SOL    HW1  908   2.915   4.422   5.372
    3SOL    HW2  909   2.850   4.301   5.461
    4SOL     OW  910   6.799   0.169   0.116
    4SOL    HW1  911   6.852   0.254   0.113
    4SOL    HW2  912   6.704   0.190   0.136
    5SOL     OW  913   5.118   1.673   2.476
    5SOL    HW1  914   5.051   1.684   2.403
    5SOL    HW2  915   5.115   1.753   2.537
    6SOL     OW  916   5.633   1.959   2.980
    6SOL    HW1  917   5.583   1.979   2.896
    6SOL    HW2  918   5.666   2.044   3.020
    7SOL     OW  919   0.916   4.166   4.791
    7SOL    HW1  920   0.867   4.098   4.845
    7SOL    HW2  921   0.896   4.153   4.694
    8SOL     OW  922   2.526   2.416   5.121
    8SOL    HW1  923   2.491   2.500   5.080
    8SOL    HW2  924   2.572   2.438   5.207
    9SOL     OW  925   6.695   1.713   6.187
    9SOL    HW1  926   6.724   1.782   6.120
    9SOL    HW2  927   6.775   1.680   6.237
   10SOL     OW  928   3.916   5.059   4.013
   10SOL    HW1  929   3.898   5.157   4.018
   10SOL    HW2  930   3.981   5.041   3.939
   11SOL     OW  931   2.233   0.557   0.176
   11SOL    HW1  932   2.264   0.636   0.229
   11SOL    HW2  933   2.135   0.567   0.157
   12SOL     OW  934   2.558   4.627   3.959
   12SOL    HW1  935   2.582   4.666   4.049
   12SOL    HW2  936   2.497   4.690   3.911
   13SOL     OW  937   3.713   6.427   2.864
   13SOL    HW1  938   3.802   6.422   2.909
   13SOL    HW2  939   3.644   6.385   2.923
   14SOL     OW  940   4.625   4.968   5.709
   14SOL    HW1  941   4.573   4.940   5.628
   14SOL    HW2  942   4.667   4.887   5.750
   15SOL     OW  943   0.142   6.066   6.784
   15SOL    HW1  944   0.154   6.021   6.872
   15SOL    HW2  945   0.052   6.043   6.747
   16SOL     OW  946   5.485   2.618   6.140
   16SOL    HW1  947   5.481   2.544   6.207
   16SOL    HW2  948   5.474   2.579   6.048
   17SOL     OW  949   6.181   0.409   5.953
   17SOL    HW1  950   6.194   0.508   5.948
   17SOL    HW2  951   6.259   0.368   6.001
   18SOL     OW  952   3.110   1.633   5.202
   18SOL    HW1  953   3.030   1.604   5.148
   18SOL    HW2  954   3.081   1.660   5.293
   19SOL     OW  955   0.592   2.116   2.668
   19SOL    HW1  956   0.690   2.102   2.656
   19SOL    HW2  957   0.562   2.194   2.613
   20SOL     OW  958   6.032   1.782   5.667
   20SOL    HW1  959   6.001   1.830   5.749
   20SOL    HW2  960   5.964   1.794   5.594
   21SOL     OW  961   3.047   6.782   2.384
   21SOL    HW1  962   3.034   6.845   2.460
   21SOL    HW2  963   2.990   6.700   2.398
   22SOL     OW  964   1.145   5.936   5.561
   22SOL    HW1  965   1.099   5.847   5.549
   22SOL    HW2  966   1.188   5.963   5.475
   23SOL     OW  967   4.564   5.015   2.468
   23SOL    HW1  968   4.626   4.939   2.487
   23SOL    HW2  969   4.474   4.995   2.506
   24SOL     OW  970   3.793   0.587   1.810
   24SOL    HW1  971   3.704   0.546   1.789
   24SOL    HW2  972   3.843   0.528   1.874
   25SOL     OW  973   3.158   6.870   3.947
   25SOL    HW1  974   3.072   6.823   3.970
   25SOL    HW2  975   3.144   6.969   3.952
   26SOL     OW  976   1.351   2.038   6.979
   26SOL    HW1  977   1.258   2.006   6.994
   26SOL    HW2  978   1.381   2.093   0.033
   27SOL     OW  979   0.648   1.233   2.593
   27SOL    HW1  980   0.735   1.191   2.569
   27SOL    HW2  981   0.595   1.171   2.650
   28SOL     OW  982   1.046   0.632   4.588
   28SOL    HW1  983   0.952   0.653   4.613
   28SOL    HW2  984   1.108   0.678   4.651
   29SOL     OW  985   6.075   1.031   1.133
   29SOL    HW1  986   6.089   1.119   1.088
   29SOL    HW2  987   6.022   1.044   1.217
   30SOL     OW  988   3.704   0.491   4.959
   30SOL    HW1  989   3.706   0.504   4.860
   30SOL    HW2  990   3.797   0.488   4.994
   31SOL     OW  991   0.162   1.848   5.066
   31SOL    HW1  992   0.213   1.911   5.125
   31SOL    HW2  993   0.180   1.870   4.970
   32SOL     OW  994   1.373   1.553   2.052
   32SOL    HW1  995   1.315   1.512   2.123
   32SOL    HW2  996   1.374   1.653   2.064
   33SOL     OW  997   0.186   3.642   5.304
   33SOL    HW1  998   0.230   3.658   5.215
   33SOL    HW2  999   0.202   3.721   5.363
   34SOL     OW 1000   2.210   5.234   4.890
   34SOL    HW1 1001   2.243   5.320   4.929
   34SOL    HW2 1002   2.181   5.250   4.795
   35SOL     OW 1003   3.755   2.091   5.609
   35SOL    HW1 1004   3.829   2.028   5.631
   35SOL    HW2 1005   3.667   2.043   5.614
   36SOL     OW 1006   5.084   1.399   4.075
   36SOL    HW1 1007   4.995   1.353   4.079
   36SOL    HW2 1008   5.149   1.343   4.024
   37SOL     OW 1009   2.011   1.251   3.794
   37SOL    HW1 1010   2.002   1.336   3.742
   37SOL    HW2 1011   2.046   1.271   3.885
   38SOL     OW 1012   2.185   4.485   1.710
   38SOL    HW1 1013   2.142   4.395   1.718
   38SOL    HW2 1014   2.258   4.494   1.778
   39SOL     OW 1015   6.140   4.541   6.626
   39SOL    HW1 1016   6.173   4.447   6.641
   39SOL    HW2 1017   6.219   4.602   6.616
   40SOL     OW 1018   3.445   0.078   6.081
   40SOL    HW1 1019   3.532   0.068   6.032
   40SOL    HW2 1020   3.382   0.007   6.051
   41SOL     OW 1021   6.070   3.984   2.682
   41SOL    HW1 1022   6.103   3.971   2.588
   41SOL    HW2 1023   5.973   3.959   2.686
   42SOL     OW 1024   2.846   6.710   4.690
   42SOL    HW1 1025   2.856   6.708   4.590
   42SOL    HW2 1026   2.809   6.622   4.720
   43SOL     OW 1027   3.904   6.607   4.623
   43SOL    HW1 1028   3.979   6.629   4.685
   43SOL    HW2 1029   3.857   6.691   4.596
   44SOL     OW 1030   6.023   3.121   5.332
   44SOL    HW1 1031   5.953   3.130   5.261
   44SOL    HW2 1032   6.112   3.106   5.289
   45SOL     OW 1033   4.140   5.599   2.039
   45SOL    HW1 1034   4.045   5.576   2.020
   45SOL    HW2 1035   4.181   5.529   2.098
   46SOL     OW 1036   0.618   2.883   4.468
   46SOL    HW1 1037   0.615   2.788   4.435
   46SOL    HW2 1038   0.707   2.923   4.447
   47SOL     OW 1039   5.493   4.163   1.561
   47SOL    HW1 1040   5.484   4.258   1.531
   47SOL    HW2 1041   5.442   4.103   1.499
   48SOL     OW 1042   0.407   3.053   6.829
   48SOL    HW1 1043   0.426   3.112   6.750
   48SOL    HW2 1044   0.388   3.110   6.909
   49SOL     OW 1045   4.942   2.802   0.707
   49SOL    HW1 1046   4.853   2.824   0.668
   49SOL    HW2 1047   5.002   2.769   0.634
   50SOL     OW 1048   6.101   1.413   6.074
   50SOL    HW1 1049   6.114   1.466   5.990
   50SOL    HW2 1050   6.174   1.345   6.082
   51SOL     OW 1051   2.436   5.249   2.512
   51SOL    HW1 1052   2.467   5.202   2.430
   51SOL    HW2 1053   2.368   5.193   2.559
   52SOL     OW 1054   5.755   2.543   1.079
   52SOL    HW1 1055   5.684   2.482   1.114
   52SOL    HW2 1056   5.712   2.619   1.031
   53SOL     OW 1057   5.122   0.247   3.235
   53SOL    HW1 1058   5.122   0.246   3.135
   53SOL    HW2 1059   5.065   0.172   3.269
   54SOL     OW 1060   5.950   6.584   0.531
   54SOL    HW1 1061   5.868   6.538   0.495
   54SOL    HW2 1062   5.988   6.644   0.460
   55SOL     OW 1063   2.006   2.427   6.256
   55SOL    HW1 1064   1.992   2.489   6.179
   55SOL    HW2 1065   2.042   2.340   6.223
   56SOL     OW 1066   1.729   1.629   0.819
   56SOL    HW1 1067   1.796   1.685   0.868
   56SOL    HW2 1068   1.663   1.592   0.885
   57SOL     OW 1069   3.654   0.438   6.796
   57SOL    HW1 1070   3.629   0.432   6.700
   57SOL    HW2 1071   3.577   0.409   6.853
   58SOL     OW 1072   0.686   1.112   6.555
   58SOL    HW1 1073   0.627   1.070   6.624
   58SOL    HW2 1074   0.630   1.161   6.489
   59SOL     OW 1075   6.160   3.299   6.314
   59SOL    HW1 1076   6.190   3.211   6.350
   59SOL    HW2 1077   6.118   3.286   6.224
   60SOL     OW 1078   5.761   1.420   3.662
   60SOL    HW1 1079   5.746   1.481   3.584
   60SOL    HW2 1080   5.675   1.377   3.689
   61SOL     OW 1081   0.583   1.148   4.521
   61SOL    HW1 1082   0.673   1.104   4.513
   61SOL    HW2 1083   0.521   1.108   4.454
   62SOL     OW 1084   1.075   1.454   1.819
   62SOL    HW1 1085   0.981   1.421   1.809
   62SOL    HW2 1086   1.138   1.386   1.779
   63SOL     OW 1087   4.264   6.940   4.092
   63SOL    HW1 1088   4.178   6.888   4.090
   63SOL    HW2 1089   4.320   6.915   4.013
   64SOL     OW 1090   1.161   3.656   6.532
   64SOL    HW1 1091   1.097   3.727   6.558
   64SOL    HW2 1092   1.150   3.576   6.592
   65SOL     OW 1093   7.015   6.930   5.621
   65SOL    HW1 1094   6.929   6.963   5.583
   65SOL    HW2 1095   0.012   6.981   5.705
   66SOL     OW 1096   3.043   0.440   2.865
   66SOL    HW1 1097   3.120   0.433   2.802
   66SOL    HW2 1098   2.967   0.487   2.819
   67SOL     OW 1099   0.319   2.594   6.646
   67SOL    HW1 1100   0.307   2.593   6.745
   67SOL    HW2 1101   0.398   2.651   6.623
   68SOL     OW 1102   6.989   1.560   5.970
   68SOL    HW1 1103   7.024   1.636   5.916
   68SOL    HW2 1104   6.962   1.594   6.060
   69SOL     OW 1105   1.713   4.584   6.208
   69SOL    HW1 1106   1.740   4.623   6.120
   69SOL    HW2 1107   1.770   4.504   6.228
   70SOL     OW 1108   5.342   3.927   4.907
   70SOL    HW1 1109   5.408   3.887   4.843
   70SOL    HW2 1110   5.376   3.918   5.000
   71SOL     OW 1111   4.783   1.998   4.348
   71SOL    HW1 1112   4.690   1.993   4.311
   71SOL    HW2 1113   4.827   2.082   4.314
   72SOL     OW 1114   0.180   0.912   3.009
   72SOL    HW1 1115   0.240   0.864   3.073
   72SOL    HW2 1116   0.097   0.942   3.057
   73SOL     OW 1117   3.106   0.508   0.060
   73SOL    HW1 1118   3.194   0.552   0.045
   73SOL    HW2 1119   3.032   0.570   0.035
   74SOL     OW 1120   2.098   1.849   6.195
   74SOL    HW1 1121   2.099   1.782   6.270
   74SOL    HW2 1122   2.004   1.862   6.163
   75SOL     OW 1123   4.500   1.939   1.190
   75SOL    HW1 1124   4.487   1.841   1.205
   75SOL    HW2 1125   4.567   1.974   1.255
   76SOL     OW 1126   2.852   4.443   6.145
   76SOL    HW1 1127   2.835   4.365   6.085
   76SOL    HW2 1128   2.817   4.526   6.102
   77SOL     OW 1129   2.015   5.379   4.416
   77SOL    HW1 1130   2.108   5.413   4.408
   77SOL    HW2 1131   1.965   5.434   4.482
   78SOL     OW 1132   3.937   0.908   0.737
   78SOL    HW1 1133   3.879   0.858   0.802
   78SOL    HW2 1134   4.033   0.889   0.758
   79SOL     OW 1135   2.210   5.694   2.057
   79SOL    HW1 1136   2.222   5.599   2.029
   79SOL    HW2 1137   2.196   5.751   1.976
   80SOL     OW 1138   4.797   2.026   4.858
   80SOL    HW1 1139   4.747   2.113   4.860
   80SOL    HW2 1140   4.802   1.993   4.764
   81SOL     OW 1141   1.761   0.396   0.633
   81SOL    HW1 1142   1.825   0.453   0.683
   81SOL    HW2 1143   1.671   0.400   0.676
   82SOL     OW 1144   0.406   6.226   2.247
   82SOL    HW1 1145   0.481   6.245   2.183
   82SOL    HW2 1146   0.443   6.182   2.329
   83SOL     OW 1147   6.843   1.878   6.017
   83SOL    HW1 1148   6.803   1.955   5.967
   83SOL    HW2 1149   6.887   1.816   5.953
   84SOL     OW 1150   5.953   3.222   3.656
   84SOL    HW1 1151   5.976   3.152   3.724
   84SOL    HW2 1152   6.033   3.238   3.597
   85SOL     OW 1153   1.814   6.840   3.810
   85SOL    HW1 1154   1.816   6.926   3.860
   85SOL    HW2 1155   1.754   6.775   3.857
   86SOL     OW 1156   6.100   1.021   6.707
   86SOL    HW1 1157   6.108   1.068   6.620
   86SOL    HW2 1158   6.005   0.991   6.720
   87SOL     OW 1159   4.315   4.310   6.975
   87SOL    HW1 1160   4.345   4.314   0.045
   87SOL    HW2 1161   4.302   4.402   6.939
   88SOL     OW 1162   2.835   2.290   5.566
   88SOL    HW1 1163   2.744   2.255   5.545
   88SOL    HW2 1164   2.861   2.262   5.658
   89SOL     OW 1165   3.059   3.836   2.086
   89SOL    HW1 1166   3.102   3.903   2.026
   89SOL    HW2 1167   3.002   3.774   2.032
   90SOL     OW 1168   4.502   4.665   2.949
   90SOL    HW1 1169   4.602   4.672   2.955
   90SOL    HW2 1170   4.475   4.651   2.854
   91SOL     OW 1171   6.214   6.029   5.862
   91SOL    HW1 1172   6.184   6.094   5.932
   91SOL    HW2 1173   6.203   6.071   5.771
   92SOL     OW 1174   5.127   3.725   0.407
   92SOL    HW1 1175   5.217   3.740   0.367
   92SOL    HW2 1176   5.123   3.633   0.447
   93SOL     OW 1177   3.204   3.393   1.101
   93SOL    HW1 1178   3.105   3.396   1.097
   93SOL    HW2 1179   3.236   3.432   1.187
   94SOL     OW 1180   2.354   6.942   6.888
   94SOL    HW1 1181   2.453   6.950   6.876
   94SOL    HW2 1182   2.326   6.849   6.863
   95SOL     OW 1183   0.571   0.389   4.380
   95SOL    HW1 1184   0.503   0.418   4.313
   95SOL    HW2 1185   0.632   0.465   4.401
   96SOL     OW 1186   5.060   5.207   0.041
   96SOL    HW1 1187   5.115   5.282   0.077
   96SOL    HW2 1188   5.028   5.230   6.974
   97SOL     OW 1189   1.904   4.901   5.199
   97SOL    HW1 1190   1.858   4.845   5.130
   97SOL    HW2 1191   2.002   4.905   5.179
   98SOL     OW 1192   0.698   2.720   1.558
   98SOL    HW1 1193   0.728   2.736   1.465
   98SOL    HW2 1194   0.687   2.622   1.574
   99SOL     OW 1195   3.716   3.727   2.949
   99SOL    HW1 1196   3.729   3.636   2.908
   99SOL    HW2 1197   3.699   3.794   2.877
  100SOL     OW 1198   6.794   0.114   3.873
  100SOL    HW1 1199   6.803   0.029   3.821
  100SOL    HW2 1200   6.866   0.117   3.943
  101SOL     OW 1201   1.061   4.819   2.445
  101SOL    HW1 1202   1.029   4.909   2.478
  101SOL    HW2 1203   1.040   4.750   2.514
  102SOL     OW 1204   2.266   6.081   2.388
  102SOL    HW1 1205   2.283   6.036   2.300
  102SOL    HW2 1206   2.264   6.013   2.461
  103SOL     OW 1207   1.615   1.175   2.273
  103SOL    HW1 1208   1.572   1.184   2.183
  103SOL    HW2 1209   1.556   1.216   2.343
  104SOL     OW 1210   1.386   4.821   2.038
  104SOL    HW1 1211   1.340   4.812   2.126
  104SOL    HW2 1212   1.451   4.898   2.042
  105SOL     OW 1213   5.194   1.135   6.436
  105SOL    HW1 1214   5.228   1.085   6.357
  105SOL    HW2 1215   5.204   1.079   6.518
  106SOL     OW 1216   5.000   5.184   1.488
  106SOL    HW1 1217   5.085   5.135   1.509
  106SOL    HW2 1218   4.932   5.119   1.455
  107SOL     OW 1219   6.379   1.028   0.385
  107SOL    HW1 1220   6.401   1.121   0.412
  107SOL    HW2 1221   6.322   1.029   0.302
  108SOL     OW 1222   2.789   0.176   4.662
  108SOL    HW1 1223   2.741   0.094   4.692
  108SOL    HW2 1224   2.735   0.257   4.685
  109SOL     OW 1225   3.221   0.850   2.657
  109SOL    HW1 1226   3.209   0.823   2.753
  109SOL    HW2 1227   3.215   0.769   2.599
  110SOL     OW 1228   2.432   4.399   5.198
  110SOL    HW1 1229   2.368   4.326   5.224
  110SOL    HW2 1230   2.505   4.405   5.266
  111SOL     OW 1231   6.663   1.126   2.575
  111SOL    HW1 1232   6.617   1.199   2.625
  111SOL    HW2 1233   6.721   1.074   2.638
  112SOL     OW 1234   4.276   6.132   6.597
  112SOL    HW1 1235   4.290   6.221   6.555
  112SOL    HW2 1236   4.189   6.130   6.645
  113SOL     OW 1237   6.694   5.161   2.794
  113SOL    HW1 1238   6.631   5.199   2.862
  113SOL    HW2 1239   6.728   5.072   2.826
  114SOL     OW 1240   1.181   4.863   3.149
  114SOL    HW1 1241   1.209   4.767   3.144
  114SOL    HW2 1242   1.193   4.896   3.243
  115SOL     OW 1243   5.694   1.569   3.452
  115SOL    HW1 1244   5.693   1.506   3.375
  115SOL    HW2 1245   5.601   1.600   3.472
  116SOL     OW 1246   0.222   6.212   1.109
  116SOL    HW1 1247   0.233   6.144   1.181
  116SOL    HW2 1248   0.158   6.178   1.040
  117SOL     OW 1249   2.947   1.591   0.207
  117SOL    HW1 1250   2.892   1.510   0.189
  117SOL    HW2 1251   2.909   1.669   0.156
  118SOL     OW 1252   1.546   1.365   3.442
  118SOL    HW1 1253   1.509   1.443   3.492
  118SOL    HW2 1254   1.613   1.397   3.375
  119SOL     OW 1255   0.127   6.895   0.212
  119SOL    HW1 1256   0.180   6.819   0.251
  119SOL    HW2 1257   0.077   6.863   0.132
  120SOL     OW 1258   4.757   0.178   4.842
  120SOL    HW1 1259   4.747   0.146   4.936
  120SOL    HW2 1260   4.828   0.125   4.796
  121SOL     OW 1261   0.968   3.797   0.179
  121SOL    HW1 1262   1.025   3.728   0.135
  121SOL    HW2 1263   1.024   3.855   0.237
  122SOL     OW 1264   1.047   4.420   0.238
  122SOL    HW1 1265   1.027   4.339   0.184
  122SOL    HW2 1266   1.146   4.438   0.237
  123SOL     OW 1267   1.670   0.781   1.503
  123SOL    HW1 1268   1.632   0.695   1.538
  123SOL    HW2 1269   1.600   0.829   1.450
  124SOL     OW 1270   3.214   2.553   0.370
  124SOL    HW1 1271   3.124   2.519   0.399
  124SOL    HW2 1272   3.202   2.637   0.317
  125SOL     OW 1273   3.073   2.567   6.797
  125SOL    HW1 1274   3.099   2.555   6.893
  125SOL    HW2 1275   3.056   2.663   6.779
  126SOL     OW 1276   2.916   3.403   3.550
  126SOL    HW1 1277   2.818   3.391   3.533
  126SOL    HW2 1278   2.965   3.404   3.463
  127SOL     OW 1279   6.750   5.995   5.487
  127SOL    HW1 1280   6.677   6.002   5.419
  127SOL    HW2 1281   6.713   6.021   5.577
  128SOL     OW 1282   4.980   3.680   2.272
  128SOL    HW1 1283   4.931   3.594   2.286
  128SOL    HW2 1284   4.928   3.740   2.211
  129SOL     OW 1285   2.055   5.250   0.952
  129SOL    HW1 1286   2.149   5.230   0.979
  129SOL    HW2 1287   2.047   5.246   0.852
  130SOL     OW 1288   5.947   1.563   4.158
  130SOL    HW1 1289   5.968   1.658   4.136
  130SOL    HW2 1290   5.893   1.523   4.084
  131SOL     OW 1291   6.390   0.969   3.923
  131SOL    HW1 1292   6.309   1.026   3.908
  131SOL    HW2 1293   6.379   0.882   3.875
  132SOL     OW 1294   3.552   3.978   1.601
  132SOL    HW1 1295   3.536   3.920   1.522
  132SOL    HW2 1296   3.479   3.965   1.668
  133SOL     OW 1297   5.196   1.023   3.440
  133SOL    HW1 1298   5.179   1.097   3.506
  133SOL    HW2 1299   5.294   1.005   3.435
  134SOL     OW 1300   6.787   0.736   2.274
  134SOL    HW1 1301   6.693   0.733   2.309
  134SOL    HW2 1302   6.850   0.752   2.350
  135SOL     OW 1303   5.035   3.421   4.592
  135SOL    HW1 1304   4.988   3.439   4.678
  135SOL    HW2 1305   4.978   3.363   4.534
  136SOL     OW 1306   2.357   6.124   5.034
  136SOL    HW1 1307   2.260   6.112   5.010
  136SOL    HW2 1308   2.365   6.136   5.133
  137SOL     OW 1309   4.080   1.182   4.759
  137SOL    HW1 1310   4.065   1.269   4.712
  137SOL    HW2 1311   3.996   1.156   4.807
  138SOL     OW 1312   0.454   5.745   3.558
  138SOL    HW1 1313   0.469   5.665   3.500
  138SOL    HW2 1314   0.527   5.811   3.544
  139SOL     OW 1315   2.047   5.489   6.662
  139SOL    HW1 1316   1.967   5.536   6.626
  139SOL    HW2 1317   2.128   5.547   6.652
  140SOL     OW 1318   1.754   0.067   3.096
  140SOL    HW1 1319   1.775   7.021   3.028
  140SOL    HW2 1320   1.668   0.112   3.072
  141SOL     OW 1321   6.441   3.546   0.283
  141SOL    HW1 1322   6.500   3.465   0.281
  141SOL    HW2 1323   6.486   3.620   0.232
  142SOL     OW 1324   1.659   4.330   1.531
  142SOL    HW1 1325   1.668   4.429   1.540
  142SOL    HW2 1326   1.750   4.288   1.525
  143SOL     OW 1327   5.593   6.478   1.430
  143SOL    HW1 1328   5.683   6.481   1.385
  143SOL    HW2 1329   5.577   6.386   1.466
  144SOL     OW 1330   3.174   4.999   3.902
  144SOL    HW1 1331   3.108   5.073   3.914
  144SOL    HW2 1332   3.146   4.940   3.827
  145SOL     OW 1333   0.705   4.492   2.373
  145SOL    HW1 1334   0.606   4.506   2.374
  145SOL    HW2 1335   0.748   4.550   2.442
  146SOL     OW 1336   5.815   1.233   5.878
  146SOL    HW1 1337   5.817   1.328   5.910
  146SOL    HW2 1338   5.729   1.216   5.830
  147SOL     OW 1339   5.046   1.388   4.843
  147SOL    HW1 1340   5.007   1.458   4.783
  147SOL    HW2 1341   5.016   1.298   4.813
  148SOL     OW 1342   1.446   4.744   1.642
  148SOL    HW1 1343   1.481   4.717   1.732
  148SOL    HW2 1344   1.347   4.755   1.647
  149SOL     OW 1345   2.439   2.166   5.124
  149SOL    HW1 1346   2.405   2.141   5.214
  149SOL    HW2 1347   2.451   2.266   5.119
  150SOL     OW 1348   4.029   1.757   5.477
  150SOL    HW1 1349   4.037   1.697   5.557
  150SOL    HW2 1350   4.120   1.777   5.441
  151SOL     OW 1351   4.114   1.880   0.936
  151SOL    HW1 1352   4.023   1.852   0.965
  151SOL    HW2 1353   4.136   1.837   0.849
  152SOL     OW 1354   0.415   1.649   6.761
  152SOL    HW1 1355   0.389   1.631   6.667
  152SOL    HW2 1356   0.410   1.748   6.779
  153SOL     OW 1357   2.954   1.104   3.149
  153SOL    HW1 1358   2.951   1.202   3.132
  153SOL    HW2 1359   2.929   1.054   3.066
  154SOL     OW 1360   6.353   2.121   0.765
  154SOL    HW1 1361   6.331   2.132   0.862
  154SOL    HW2 1362   6.344   2.024   0.740
  155SOL     OW 1363   0.113   0.258   1.618
  155SOL    HW1 1364   0.069   0.306   1.542
  155SOL    HW2 1365   0.044   0.219   1.678
  156SOL     OW 1366   5.575   0.882   0.800
  156SOL    HW1 1367   5.558   0.813   0.870
  156SOL    HW2 1368   5.574   0.973   0.841
  157SOL     OW 1369   5.685   3.391   0.249
  157SOL    HW1 1370   5.746   3.348   0.183
  157SOL    HW2 1371   5.687   3.340   0.335
  158SOL     OW 1372   1.256   2.484   2.179
  158SOL    HW1 1373   1.269   2.537   2.094
  158SOL    HW2 1374   1.336   2.494   2.237
  159SOL     OW 1375   4.973   5.112   0.736
  159SOL    HW1 1376   4.942   5.190   0.792
  159SOL    HW2 1377   4.993   5.034   0.796
  160SOL     OW 1378   6.439   0.168   0.994
  160SOL    HW1 1379   6.497   0.140   1.070
  160SOL    HW2 1380   6.462   0.261   0.966
  161SOL     OW 1381   1.215   6.708   1.141
  161SOL    HW1 1382   1.238   6.805   1.129
  161SOL    HW2 1383   1.123   6.692   1.106
  162SOL     OW 1384   2.467   6.360   0.205
  162SOL    HW1 1385   2.417   6.364   0.119
  162SOL    HW2 1386   2.408   6.324   0.277
  163SOL     OW 1387   6.991   4.931   2.878
  163SOL    HW1 1388   6.979   4.993   2.800
  163SOL    HW2 1389   0.040   4.866   2.859
  164SOL     OW 1390   1.632   1.951   3.260
  164SOL    HW1 1391   1.613   2.044   3.229
  164SOL    HW2 1392   1.560   1.890   3.228
  165SOL     OW 1393   0.050   5.305   2.327
  165SOL    HW1 1394   6.974   5.299   2.328
  165SOL    HW2 1395   0.079   5.396   2.353
  166SOL     OW 1396   6.231   4.074   1.113
  166SOL    HW1 1397   6.271   4.071   1.021
  166SOL    HW2 1398   6.300   4.050   1.181
  167SOL     OW 1399   5.414   1.611   6.821
  167SOL    HW1 1400   5.444   1.542   6.887
  167SOL    HW2 1401   5.474   1.608   6.741
  168SOL     OW 1402   4.159   3.166   1.883
  168SOL    HW1 1403   4.171   3.202   1.976
  168SOL    HW2 1404   4.245   3.174   1.833
  169SOL     OW 1405   6.245   2.870   0.557
  169SOL    HW1 1406   6.241   2.956   0.506
  169SOL    HW2 1407   6.202   2.797   0.502
  170SOL     OW 1408   0.998   5.899   3.170
  170SOL    HW1 1409   1.070   5.968   3.160
  170SOL    HW2 1410   1.032   5.823   3.225
  171SOL     OW 1411   1.720   3.109   7.006
  171SOL    HW1 1412   1.735   3.173   6.930
  171SOL    HW2 1413   1.683   3.159   0.060
  172SOL     OW 1414   5.630   2.323   1.746
  172SOL    HW1 1415   5.590   2.413   1.764
  172SOL    HW2 1416   5.661   2.283   1.832
  173SOL     OW 1417   5.763   1.113   5.055
  173SOL    HW1 1418   5.740   1.083   4.962
  173SOL    HW2 1419   5.789   1.033   5.110
  174SOL     OW 1420   5.242   5.096   5.472
  174SOL    HW1 1421   5.278   5.145   5.393
  174SOL    HW2 1422   5.275   5.002   5.472
  175SOL     OW 1423   2.314   0.897   0.566
  175SOL    HW1 1424   2.249   0.973   0.564
  175SOL    HW2 1425   2.407   0.933   0.564
  176SOL     OW 1426   5.157   4.814   3.054
  176SOL    HW1 1427   5.181   4.903   3.092
  176SOL    HW2 1428   5.143   4.821   2.956
  177SOL     OW 1429   5.136   2.005   5.061
  177SOL    HW1 1430   5.148   1.951   4.977
  177SOL    HW2 1431   5.068   1.961   5.119
  178SOL     OW 1432   2.316   5.694   5.207
  178SOL    HW1 1433   2.395   5.721   5.152
  178SOL    HW2 1434   2.234   5.741   5.173
  179SOL     OW 1435   4.043   5.794   0.412
  179SOL    HW1 1436   4.095   5.721   0.459
  179SOL    HW2 1437   3.955   5.758   0.383
  180SOL     OW 1438   3.444   0.074   1.127
  180SOL    HW1 1439   3.494   0.158   1.145
  180SOL    HW2 1440   3.429   0.025   1.213
  181SOL     OW 1441   2.837   2.394   5.230
  181SOL    HW1 1442   2.841   2.418   5.133
  181SOL    HW2 1443   2.929   2.399   5.269
  182SOL     OW 1444   5.433   3.466   0.840
  182SOL    HW1 1445   5.366   3.492   0.909
  182SOL    HW2 1446   5.396   3.486   0.749
  183SOL     OW 1447   4.185   2.226   4.296
  183SOL    HW1 1448   4.201   2.195   4.390
  183SOL    HW2 1449   4.114   2.171   4.254
  184SOL     OW 1450   0.880   6.258   3.257
  184SOL    HW1 1451   0.925   6.227   3.174
  184SOL    HW2 1452   0.783   6.232   3.254
  185SOL     OW 1453   0.944   1.848   4.374
  185SOL    HW1 1454   0.872   1.823   4.309
  185SOL    HW2 1455   1.033   1.817   4.340
  186SOL     OW 1456   6.056   6.326   4.055
  186SOL    HW1 1457   6.154   6.344   4.063
  186SOL    HW2 1458   6.019   6.301   4.144
  187SOL     OW 1459   4.318   5.457   2.694
  187SOL    HW1 1460   4.367   5.543   2.686
  187SOL    HW2 1461   4.247   5.465   2.765
  188SOL     OW 1462   1.621   2.218   3.196
  188SOL    HW1 1463   1.558   2.293   3.215
  188SOL    HW2 1464   1.708   2.255   3.163
  189SOL     OW 1465   6.394   5.125   6.593
  189SOL    HW1 1466   6.431   5.210   6.631
  189SOL    HW2 1467   6.303   5.141   6.555
  190SOL     OW 1468   6.240   5.297   6.738
  190SOL    HW1 1469   6.299   5.378   6.744
  190SOL    HW2 1470   6.263   5.234   6.812
  191SOL     OW 1471   6.671   1.377   5.975
  191SOL    HW1 1472   6.737   1.340   5.910
  191SOL    HW2 1473   6.696   1.470   5.999
  192SOL     OW 1474   0.563   4.077   1.674
  192SOL    HW1 1475   0.597   3.985   1.691
  192SOL    HW2 1476   0.494   4.074   1.602
  193SOL     OW 1477   3.593   4.383   5.992
  193SOL    HW1 1478   3.513   4.411   5.938
  193SOL    HW2 1479   3.637   4.305   5.949
  194SOL     OW 1480   4.017   6.836   1.704
  194SOL    HW1 1481   4.071   6.856   1.622
  194SOL    HW2 1482   4.023   6.912   1.769
  195SOL     OW 1483   2.782   0.866   2.619
  195SOL    HW1 1484   2.863   0.854   2.561
  195SOL    HW2 1485   2.710   0.910   2.566
  196SOL     OW 1486   2.396   1.026   6.595
  196SOL    HW1 1487   2.412   0.932   6.563
  196SOL    HW2 1488   2.309   1.029   6.645
  197SOL     OW 1489   2.102   6.044   6.323
  197SOL    HW1 1490   2.069   6.026   6.231
  197SOL    HW2 1491   2.031   6.021   6.389
  198SOL     OW 1492   4.675   5.514   0.951
  198SOL    HW1 1493   4.602   5.517   0.882
  198SOL    HW2 1494   4.636   5.531   1.041
  199SOL     OW 1495   6.749   1.646   2.294
  199SOL    HW1 1496   6.705   1.655   2.205
  199SOL    HW2 1497   6.680   1.650   2.366
  200SOL     OW 1498   1.564   3.299   2.107
  200SOL    HW1 1499   1.524   3.388   2.131
  200SOL    HW2 1500   1.548   3.235   2.182
  201SOL     OW 1501   2.491   0.513   6.370
  201SOL    HW1 1502   2.587   0.489   6.386
  201SOL    HW2 1503   2.478   0.536   6.274
  202SOL     OW 1504   5.119   6.855   4.891
  202SOL    HW1 1505   5.103   6.940   4.842
  202SOL    HW2 1506   5.170   6.792   4.833
  203SOL     OW 1507   5.123   2.551   5.863
  203SOL    HW1 1508   5.072   2.466   5.856
  203SOL    HW2 1509   5.220   2.533   5.848
  204SOL     OW 1510   0.995   0.135   0.359
  204SOL    HW1 1511   1.056   0.101   0.288
  204SOL    HW2 1512   0.907   0.160   0.319
  205SOL     OW 1513   0.954   1.417   0.970
  205SOL    HW1 1514   1.038   1.453   1.010
  205SOL    HW2 1515   0.948   1.442   0.873
  206SOL     OW 1516   0.431   4.563   1.390
  206SOL    HW1 1517   0.462   4.545   1.297
  206SOL    HW2 1518   0.334   4.584   1.390
  207SOL     OW 1519   4.235   0.485   5.281
  207SOL    HW1 1520   4.149   0.533   5.266
  207SOL    HW2 1521   4.240   0.405   5.221
  208SOL     OW 1522   4.978   4.757   5.987
  208SOL    HW1 1523   4.981   4.837   6.046
  208SOL    HW2 1524   5.070   4.719   5.977
  209SOL     OW 1525   0.516   5.702   5.801
  209SOL    HW1 1526   0.591   5.754   5.760
  209SOL    HW2 1527   0.479   5.753   5.879
  210SOL     OW 1528   4.322   2.331   2.199
  210SOL    HW1 1529   4.298   2.282   2.115
  210SOL    HW2 1530   4.385   2.405   2.177
  211SOL     OW 1531   0.858   0.618   2.852
  211SOL    HW1 1532   0.824   0.687   2.788
  211SOL    HW2 1533   0.900   0.543   2.802
  212SOL     OW 1534   1.557   4.898   2.711
  212SOL    HW1 1535   1.633   4.851   2.665
  212SOL    HW2 1536   1.593   4.950   2.789
  213SOL     OW 1537   4.898   1.159   6.376
  213SOL    HW1 1538   4.838   1.238   6.362
  213SOL    HW2 1539   4.993   1.190   6.387
  214SOL     OW 1540   1.706   6.040   3.060
  214SOL    HW1 1541   1.728   6.010   3.153
  214SOL    HW2 1542   1.761   6.121   3.038
  215SOL     OW 1543   3.892   3.663   1.757
  215SOL    HW1 1544   3.813   3.725   1.762
  215SOL    HW2 1545   3.910   3.640   1.662
  216SOL     OW 1546   1.295   0.030   5.311
  216SOL    HW1 1547   1.262   6.987   5.377
  216SOL    HW2 1548   1.231   0.037   5.235
  217SOL     OW 1549   1.631   2.930   4.269
  217SOL    HW1 1550   1.671   2.985   4.343
  217SOL    HW2 1551   1.677   2.953   4.183
  218SOL     OW 1552   2.057   2.417   4.893
  218SOL    HW1 1553   2.009   2.404   4.807
  218SOL    HW2 1554   2.100   2.507   4.895
  219SOL     OW 1555   3.581   3.995   6.509
  219SOL    HW1 1556   3.549   3.968   6.419
  219SOL    HW2 1557   3.518   4.061   6.549
  220SOL     OW 1558   2.761   5.806   0.148
  220SOL    HW1 1559   2.706   5.864   0.088
  220SOL    HW2 1560   2.715   5.796   0.236
  221SOL     OW 1561   5.211   3.862   3.697
  221SOL    HW1 1562   5.251   3.778   3.733
  221SOL    HW2 1563   5.244   3.877   3.604
  222SOL     OW 1564   1.539   5.475   5.426
  222SOL    HW1 1565   1.497   5.562   5.451
  222SOL    HW2 1566   1.617   5.491   5.366
  223SOL     OW 1567   0.504   3.475   1.427
  223SOL    HW1 1568   0.576   3.507   1.488
  223SOL    HW2 1569   0.545   3.426   1.350
  224SOL     OW 1570   2.892   2.099   2.950
  224SOL    HW1 1571   2.905   2.003   2.976
  224SOL    HW2 1572   2.919   2.113   2.855
  225SOL     OW 1573   5.824   0.960   6.881
  225SOL    HW1 1574   5.726   0.956   6.860
  225SOL    HW2 1575   5.844   1.045   6.930
  226SOL     OW 1576   0.127   0.228   0.113
  226SOL    HW1 1577   0.049   0.287   0.093
  226SOL    HW2 1578   0.145   0.230   0.212
  227SOL     OW 1579   1.175   4.313   3.378
  227SOL    HW1 1580   1.111   4.250   3.423
  227SOL    HW2 1581   1.166   4.404   3.417
  228SOL     OW 1582   3.828   0.267   4.567
  228SOL    HW1 1583   3.737   0.224   4.563
  228SOL    HW2 1584   3.863   0.280   4.474
  229SOL     OW 1585   5.858   6.035   1.619
  229SOL    HW1 1586   5.865   6.134   1.629
  229SOL    HW2 1587   5.863   5.992   1.709
  230SOL     OW 1588   1.965   4.361   3.749
  230SOL    HW1 1589   2.023   4.310   3.686
  230SOL    HW2 1590   2.011   4.447   3.774
  231SOL     OW 1591   6.159   2.792   5.882
  231SOL    HW1 1592   6.105   2.710   5.900
  231SOL    HW2 1593   6.207   2.819   5.965
  232SOL     OW 1594   1.289   3.466   6.161
  232SOL    HW1 1595   1.350   3.487   6.084
  232SOL    HW2 1596   1.298   3.536   6.231
  233SOL     OW 1597   1.963   0.792   5.071
  233SOL    HW1 1598   1.980   0.716   5.007
  233SOL    HW2 1599   2.051   0.828   5.103
  234SOL     OW 1600   2.891   5.160   6.347
  234SOL    HW1 1601   2.840   5.245   6.358
  234SOL    HW2 1602   2.975   5.177   6.296
  235SOL     OW 1603   3.708   3.207   2.999
  235SOL    HW1 1604   3.782   3.140   3.007
  235SOL    HW2 1605   3.621   3.159   2.986
  236SOL     OW 1606   6.794   2.948   6.903
  236SOL    HW1 1607   6.811   3.020   6.836
  236SOL    HW2 1608   6.788   2.860   6.857
  237SOL     OW 1609   0.434   6.736   1.103
  237SOL    HW1 1610   0.363   6.772   1.042
  237SOL    HW2 1611   0.464   6.809   1.165
  238SOL     OW 1612   5.997   3.166   1.320
  238SOL    HW1 1613   5.968   3.149   1.225
  238SOL    HW2 1614   6.027   3.079   1.361
  239SOL     OW 1615   6.315   5.638   0.043
  239SOL    HW1 1616   6.250   5.589   0.101
  239SOL    HW2 1617   6.265   5.693   7.001
  240SOL     OW 1618   0.706   3.457   5.926
  240SOL    HW1 1619   0.729   3.482   5.832
  240SOL    HW2 1620   0.691   3.540   5.980
  241SOL     OW 1621   0.786   0.984   3.529
  241SOL    HW1 1622   0.743   0.913   3.473
  241SOL    HW2 1623   0.827   0.942   3.610
  242SOL     OW 1624   1.371   3.009   5.340
  242SOL    HW1 1625   1.413   2.962   5.262
  242SOL    HW2 1626   1.322   3.090   5.307
  243SOL     OW 1627   4.774   0.032   6.256
  243SOL    HW1 1628   4.795   0.093   6.332
  243SOL    HW2 1629   4.675   0.027   6.243
  244SOL     OW 1630   4.576   2.575   4.218
  244SOL    HW1 1631   4.507   2.503   4.223
  244SOL    HW2 1632   4.637   2.558   4.140
  245SOL     OW 1633   6.618   2.575   4.549
  245SOL    HW1 1634   6.536   2.626   4.572
  245SOL    HW2 1635   6.593   2.486   4.510
  246SOL     OW 1636   5.162   4.119   3.724
  246SOL    HW1 1637   5.252   4.163   3.732
  246SOL    HW2 1638   5.174   4.020   3.717
  247SOL     OW 1639   2.726   1.476   2.950
  247SOL    HW1 1640   2.649   1.531   2.918
  247SOL    HW2 1641   2.692   1.390   2.987
  248SOL     OW 1642   4.553   2.327   4.452
  248SOL    HW1 1643   4.540   2.247   4.394
  248SOL    HW2 1644   4.649   2.353   4.452
  249SOL     OW 1645   3.071   6.607   5.034
  249SOL    HW1 1646   3.088   6.648   4.945
  249SOL    HW2 1647   2.981   6.633   5.067
  250SOL     OW 1648   5.600   1.776   5.710
  250SOL    HW1 1649   5.566   1.865   5.681
  250SOL    HW2 1650   5.610   1.775   5.810
  251SOL     OW 1651   4.257   3.356   6.148
  251SOL    HW1 1652   4.292   3.300   6.073
  251SOL    HW2 1653   4.190   3.304   6.200
  252SOL     OW 1654   0.377   1.438   5.401
  252SOL    HW1 1655   0.317   1.458   5.324
  252SOL    HW2 1656   0.389   1.339   5.407
  253SOL     OW 1657   1.823   4.147   1.057
  253SOL    HW1 1658   1.880   4.223   1.027
  253SOL    HW2 1659   1.789   4.097   0.977
  254SOL     OW 1660   6.379   2.789   4.342
  254SOL    HW1 1661   6.471   2.775   4.304
  254SOL    HW2 1662   6.373   2.744   4.431
  255SOL     OW 1663   3.225   2.194   3.759
  255SOL    HW1 1664   3.311   2.221   3.715
  255SOL    HW2 1665   3.242   2.169   3.854
  256SOL     OW 1666   6.417   5.485   6.829
  256SOL    HW1 1667   6.499   5.514   6.780
  256SOL    HW2 1668   6.396   5.551   6.902
  257SOL     OW 1669   3.267   5.518   5.916
  257SOL    HW1 1670   3.316   5.500   6.001
  257SOL    HW2 1671   3.328   5.564   5.852
  258SOL     OW 1672   4.868   4.212   5.033
  258SOL    HW1 1673   4.815   4.186   4.953
  258SOL    HW2 1674   4.911   4.301   5.017
  259SOL     OW 1675   1.654   2.850   2.661
  259SOL    HW1 1676   1.629   2.946   2.678
  259SOL    HW2 1677   1.721   2.821   2.729
  260SOL     OW 1678   4.872   0.812   6.970
  260SOL    HW1 1679   4.859   0.878   0.020
  260SOL    HW2 1680   4.898   0.861   6.887
  261SOL     OW 1681   0.897   3.501   1.671
  261SOL    HW1 1682   0.895   3.422   1.732
  261SOL    HW2 1683   0.805   3.516   1.633
  262SOL     OW 1684   1.280   3.463   2.516
  262SOL    HW1 1685   1.198   3.453   2.461
  262SOL    HW2 1686   1.266   3.536   2.584
  263SOL     OW 1687   0.252   2.036   4.220
  263SOL    HW1 1688   0.287   2.105   4.283
  263SOL    HW2 1689   0.178   1.985   4.265
  264SOL     OW 1690   0.442   3.223   5.262
  264SOL    HW1 1691   0.364   3.257   5.210
  264SOL    HW2 1692   0.492   3.155   5.208
  265SOL     OW 1693   4.802   4.183   4.086
  265SOL    HW1 1694   4.758   4.272   4.081
  265SOL    HW2 1695   4.843   4.170   4.176
  266SOL     OW 1696   3.423   2.010   7.021
  266SOL    HW1 1697   3.411   2.063   0.081
  266SOL    HW2 1698   3.466   2.067   6.952
  267SOL     OW 1699   1.703   2.617   0.278
  267SOL    HW1 1700   1.685   2.697   0.221
  267SOL    HW2 1701   1.621   2.593   0.329
  268SOL     OW 1702   4.617   4.543   4.326
  268SOL    HW1 1703   4.602   4.464   4.386
  268SOL    HW2 1704   4.646   4.621   4.382
  269SOL     OW 1705   1.527   1.774   6.488
  269SOL    HW1 1706   1.495   1.696   6.543
  269SOL    HW2 1707   1.627   1.774   6.486
  270SOL     OW 1708   5.278   0.965   2.487
  270SOL    HW1 1709   5.348   0.992   2.421
  270SOL    HW2 1710   5.274   1.032   2.561
  271SOL     OW 1711   2.247   1.062   1.108
  271SOL    HW1 1712   2.324   0.999   1.118
  271SOL    HW2 1713   2.279   1.156   1.124
  272SOL     OW 1714   3.917   5.319   4.399
  272SOL    HW1 1715   3.976   5.387   4.443
  272SOL    HW2 1716   3.865   5.270   4.469
  273SOL     OW 1717   1.313   5.327   4.959
  273SOL    HW1 1718   1.246   5.366   4.896
  273SOL    HW2 1719   1.308   5.373   5.047
  274SOL     OW 1720   5.210   2.679   3.598
  274SOL    HW1 1721   5.302   2.642   3.585
  274SOL    HW2 1722   5.174   2.712   3.511
  275SOL     OW 1723   0.618   6.083   6.124
  275SOL    HW1 1724   0.520   6.063   6.126
  275SOL    HW2 1725   0.643   6.141   6.202
  276SOL     OW 1726   6.782   5.482   3.750
  276SOL    HW1 1727   6.700   5.426   3.766
  276SOL    HW2 1728   6.863   5.431   3.780
  277SOL     OW 1729   2.907   0.884   5.387
  277SOL    HW1 1730   2.940   0.829   5.463
  277SOL    HW2 1731   2.972   0.958   5.368
  278SOL     OW 1732   5.466   4.454   2.561
  278SOL    HW1 1733   5.537   4.392   2.526
  278SOL    HW2 1734   5.377   4.408   2.556
  279SOL     OW 1735   0.124   3.014   3.564
  279SOL    HW1 1736   0.219   3.045   3.573
  279SOL    HW2 1737   0.090   2.986   3.653
  280SOL     OW 1738   4.941   6.484   3.790
  280SOL    HW1 1739   4.988   6.569   3.770
  280SOL    HW2 1740   5.007   6.408   3.792
  281SOL     OW 1741   3.998   5.837   3.976
  281SOL    HW1 1742   3.946   5.831   4.061
  281SOL    HW2 1743   4.093   5.808   3.992
  282SOL     OW 1744   4.103   1.594   5.672
  282SOL    HW1 1745   4.104   1.614   5.770
  282SOL    HW2 1746   4.196   1.596   5.637
  283SOL     OW 1747   5.940   0.267   5.118
  283SOL    HW1 1748   5.987   0.180   5.104
  283SOL    HW2 1749   5.980   0.337   5.059
  284SOL     OW 1750   0.324   4.884   4.758
  284SOL    HW1 1751   0.421   4.904   4.745
  284SOL    HW2 1752   0.290   4.830   4.681
  285SOL     OW 1753   5.747   6.882   0.183
  285SOL    HW1 1754   5.647   6.889   0.184
  285SOL    HW2 1755   5.781   6.907   0.092
  286SOL     OW 1756   3.395   5.146   4.833
  286SOL    HW1 1757   3.323   5.146   4.902
  286SOL    HW2 1758   3.396   5.059   4.785
  287SOL     OW 1759   1.741   5.960   6.242
  287SOL    HW1 1760   1.705   6.036   6.297
  287SOL    HW2 1761   1.732   5.982   6.145
  288SOL     OW 1762   4.513   0.637   1.131
  288SOL    HW1 1763   4.468   0.569   1.072
  288SOL    HW2 1764   4.485   0.622   1.226
  289SOL     OW 1765   1.260   5.627   5.709
  289SOL    HW1 1766   1.168   5.640   5.672
  289SOL    HW2 1767   1.328   5.639   5.637
  290SOL     OW 1768   4.345   0.604   2.697
  290SOL    HW1 1769   4.340   0.505   2.681
  290SOL    HW2 1770   4.254   0.644   2.688
  291SOL     OW 1771   4.310   0.713   4.038
  291SOL    HW1 1772   4.321   0.664   3.952
  291SOL    HW2 1773   4.306   0.648   4.113
  292SOL     OW 1774   3.859   0.456   3.762
  292SOL    HW1 1775   3.801   0.482   3.685
  292SOL    HW2 1776   3.923   0.385   3.732
  293SOL     OW 1777   4.389   6.704   2.571
  293SOL    HW1 1778   4.364   6.658   2.485
  293SOL    HW2 1779   4.328   6.782   2.586
  294SOL     OW 1780   5.647   6.735   5.754
  294SOL    HW1 1781   5.551   6.761   5.742
  294SOL    HW2 1782   5.652   6.637   5.777
  295SOL     OW 1783   1.246   2.314   4.987
  295SOL    HW1 1784   1.206   2.297   5.077
  295SOL    HW2 1785   1.292   2.231   4.955
  296SOL     OW 1786   6.332   1.651   1.396
  296SOL    HW1 1787   6.404   1.604   1.345
  296SOL    HW2 1788   6.341   1.750   1.383
  297SOL     OW 1789   5.257   5.369   3.831
  297SOL    HW1 1790   5.219   5.442   3.774
  297SOL    HW2 1791   5.191   5.343   3.901
  298SOL     OW 1792   4.625   0.756   0.719
  298SOL    HW1 1793   4.543   0.813   0.708
  298SOL    HW2 1794   4.600   0.668   0.758
  299SOL     OW 1795   3.393   1.884   0.390
  299SOL    HW1 1796   3.414   1.974   0.351
  299SOL    HW2 1797   3.316   1.843   0.341
  300SOL     OW 1798   3.299   1.299   2.078
  300SOL    HW1 1799   3.285   1.398   2.069
  300SOL    HW2 1800   3.224   1.250   2.034
  301SOL     OW 1801   5.201   6.473   1.472
  301SOL    HW1 1802   5.178   6.528   1.391
  301SOL    HW2 1803   5.278   6.515   1.519
  302SOL     OW 1804   6.914   6.644   1.474
  302SOL    HW1 1805   6.874   6.601   1.555
  302SOL    HW2 1806   6.933   6.741   1.494
  303SOL     OW 1807   5.911   5.748   2.383
  303SOL    HW1 1808   5.859   5.696   2.315
  303SOL    HW2 1809   5.865   5.835   2.400
  304SOL     OW 1810   1.484   0.031   5.990
  304SOL    HW1 1811   1.576   0.007   6.021
  304SOL    HW2 1812   1.490   0.079   5.903
  305SOL     OW 1813   1.337   3.201   1.385
  305SOL    HW1 1814   1.355   3.140   1.308
  305SOL    HW2 1815   1.421   3.249   1.411
  306SOL     OW 1816   0.104   0.800   2.174
  306SOL    HW1 1817   0.080   0.707   2.144
  306SOL    HW2 1818   0.161   0.793   2.256
  307SOL     OW 1819   3.235   3.369   0.623
  307SOL    HW1 1820   3.273   3.395   0.712
  307SOL    HW2 1821   3.258   3.274   0.604
  308SOL     OW 1822   5.555   1.969   4.509
  308SOL    HW1 1823   5.609   1.886   4.496
  308SOL    HW2 1824   5.602   2.030   4.573
  309SOL     OW 1825   0.780   6.979   0.152
  309SOL    HW1 1826   0.757   6.986   0.055
  309SOL    HW2 1827   0.859   6.919   0.163
  310SOL     OW 1828   5.959   6.532   4.249
  310SOL    HW1 1829   6.042   6.569   4.291
  310SOL    HW2 1830   5.984   6.461   4.183
  311SOL     OW 1831   2.675   4.946   2.525
  311SOL    HW1 1832   2.624   5.007   2.465
  311SOL    HW2 1833   2.655   4.968   2.620
  312SOL     OW 1834   4.578   2.424   3.722
  312SOL    HW1 1835   4.504   2.447   3.659
  312SOL    HW2 1836   4.620   2.338   3.693
  313SOL     OW 1837   3.491   3.467   2.481
  313SOL    HW1 1838   3.398   3.451   2.513
  313SOL    HW2 1839   3.489   3.498   2.386
  314SOL     OW 1840   1.907   5.759   5.468
  314SOL    HW1 1841   1.865   5.668   5.474
  314SOL    HW2 1842   1.945   5.784   5.557
  315SOL     OW 1843   6.859   1.171   3.018
  315SOL    HW1 1844   6.898   1.256   2.983
  315SOL    HW2 1845   6.881   1.162   3.115
  316SOL     OW 1846   4.589   1.928   5.204
  316SOL    HW1 1847   4.612   1.977   5.288
  316SOL    HW2 1848   4.527   1.984   5.149
  317SOL     OW 1849   1.480   1.589   1.796
  317SOL    HW1 1850   1.414   1.632   1.735
  317SOL    HW2 1851   1.437   1.572   1.885
  318SOL     OW 1852   6.941   6.904   6.417
  318SOL    HW1 1853   6.979   6.811   6.410
  318SOL    HW2 1854   6.884   6.922   6.336
  319SOL     OW 1855   0.181   2.395   3.123
  319SOL    HW1 1856   0.163   2.492   3.102
  319SOL    HW2 1857   0.222   2.351   3.044
  320SOL     OW 1858   6.018   2.192   6.837
  320SOL    HW1 1859   5.945   2.261   6.836
  320SOL    HW2 1860   6.078   2.209   6.915
  321SOL     OW 1861   3.743   3.465   0.237
  321SOL    HW1 1862   3.798   3.506   0.164
  321SOL    HW2 1863   3.750   3.521   0.319
  322SOL     OW 1864   3.563   3.196   5.317
  322SOL    HW1 1865   3.467   3.195   5.291
  322SOL    HW2 1866   3.617   3.155   5.243
  323SOL     OW 1867   0.954   2.619   4.010
  323SOL    HW1 1868   0.953   2.537   3.952
  323SOL    HW2 1869   0.934   2.699   3.953
  324SOL     OW 1870   2.670   0.011   3.281
  324SOL    HW1 1871   2.619   6.995   3.205
  324SOL    HW2 1872   2.606   0.055   3.344
  325SOL     OW 1873   1.551   3.395   2.464
  325SOL    HW1 1874   1.583   3.344   2.544
  325SOL    HW2 1875   1.457   3.425   2.479
  326SOL     OW 1876   1.909   4.579   6.528
  326SOL    HW1 1877   1.849   4.565   6.607
  326SOL    HW2 1878   1.901   4.673   6.496
  327SOL     OW 1879   2.593   4.682   2.576
  327SOL    HW1 1880   2.609   4.771   2.534
  327SOL    HW2 1881   2.578   4.613   2.505
  328SOL     OW 1882   2.382   4.448   1.520
  328SOL    HW1 1883   2.303   4.462   1.579
  328SOL    HW2 1884   2.423   4.537   1.497
  329SOL     OW 1885   2.885   4.140   7.010
  329SOL    HW1 1886   2.972   4.149   6.961
  329SOL    HW2 1887   2.831   4.066   6.969
  330SOL     OW 1888   4.128   6.064   0.015
  330SOL    HW1 1889   4.041   6.017   0.028
  330SOL    HW2 1890   4.113   6.163   0.015
  331SOL     OW 1891   5.302   4.757   1.024
  331SOL    HW1 1892   5.273   4.759   0.928
  331SOL    HW2 1893   5.297   4.849   1.062
  332SOL     OW 1894   5.551   1.924   3.867
  332SOL    HW1 1895   5.609   1.954   3.791
  332SOL    HW2 1896   5.461   1.898   3.832
  333SOL     OW 1897   3.853   0.909   5.206
  333SOL    HW1 1898   3.919   0.962   5.259
  333SOL    HW2 1899   3.902   0.851   5.141
  334SOL     OW 1900   3.706   2.648   1.602
  334SOL    HW1 1901   3.662   2.561   1.581
  334SOL    HW2 1902   3.751   2.683   1.520
  335SOL     OW 1903   4.541   0.028   6.560
  335SOL    HW1 1904   4.513   0.104   6.619
  335SOL    HW2 1905   4.610   0.060   6.495
  336SOL     OW 1906   3.058   1.774   2.469
  336SOL    HW1 1907   2.987   1.843   2.457
  336SOL    HW2 1908   3.147   1.819   2.479
  337SOL     OW 1909   1.667   2.309   6.048
  337SOL    HW1 1910   1.654   2.213   6.024
  337SOL    HW2 1911   1.688   2.318   6.145
  338SOL     OW 1912   3.953   3.292   0.688
  338SOL    HW1 1913   3.885   3.273   0.618
  338SOL    HW2 1914   3.910   3.336   0.766
  339SOL     OW 1915   4.439   4.893   4.152
  339SOL    HW1 1916   4.506   4.859   4.086
  339SOL    HW2 1917   4.422   4.824   4.222
  340SOL     OW 1918   5.267   3.683   5.223
  340SOL    HW1 1919   5.312   3.616   5.164
  340SOL    HW2 1920   5.319   3.768   5.223
  341SOL     OW 1921   5.949   5.763   4.503
  341SOL    HW1 1922   5.891   5.684   4.521
  341SOL    HW2 1923   5.898   5.847   4.521
  342SOL     OW 1924   4.662   3.397   1.069
  342SOL    HW1 1925   4.735   3.458   1.100
  342SOL    HW2 1926   4.694   3.302   1.072
  343SOL     OW 1927   0.267   6.287   2.605
  343SOL    HW1 1928   0.347   6.238   2.571
  343SOL    HW2 1929   0.184   6.241   2.574
  344SOL     OW 1930   0.830   2.062   2.163
  344SOL    HW1 1931   0.856   2.082   2.068
  344SOL    HW2 1932   0.911   2.035   2.214
  345SOL     OW 1933   6.744   2.118   4.053
  345SOL    HW1 1934   6.668   2.109   4.118
  345SOL    HW2 1935   6.707   2.122   3.960
  346SOL     OW 1936   1.646   0.262   2.390
  346SOL    HW1 1937   1.606   0.185   2.440
  346SOL    HW2 1938   1.603   0.347   2.421
  347SOL     OW 1939   2.526   5.776   6.326
  347SOL    HW1 1940   2.477   5.862   6.340
  347SOL    HW2 1941   2.593   5.763   6.399
  348SOL     OW 1942   4.365   5.262   3.088
  348SOL    HW1 1943   4.343   5.251   3.185
  348SOL    HW2 1944   4.417   5.346   3.075
  349SOL     OW 1945   6.881   4.175   2.312
  349SOL    HW1 1946   6.824   4.157   2.232
  349SOL    HW2 1947   6.858   4.109   2.384
  350SOL     OW 1948   3.016   3.142   0.133
  350SOL    HW1 1949   3.027   3.240   0.144
  350SOL    HW2 1950   2.919   3.121   0.117
  351SOL     OW 1951   2.915   3.223   0.539
  351SOL    HW1 1952   2.983   3.203   0.610
  351SOL    HW2 1953   2.834   3.264   0.580
  352SOL     OW 1954   4.100   6.527   3.866
  352SOL    HW1 1955   4.002   6.524   3.881
  352SOL    HW2 1956   4.126   6.460   3.797
  353SOL     OW 1957   3.095   0.209   6.109
  353SOL    HW1 1958   3.183   0.256   6.097
  353SOL    HW2 1959   3.081   0.189   6.206
  354SOL     OW 1960   5.068   2.503   0.445
  354SOL    HW1 1961   5.079   2.600   0.467
  354SOL    HW2 1962   5.057   2.492   0.346
  355SOL     OW 1963   1.878   3.030   2.436
  355SOL    HW1 1964   1.868   2.937   2.471
  355SOL    HW2 1965   1.909   3.090   2.510
  356SOL     OW 1966   1.954   0.703   4.637
  356SOL    HW1 1967   1.903   0.782   4.604
  356SOL    HW2 1968   1.919   0.620   4.593
  357SOL     OW 1969   0.725   5.922   4.490
  357SOL    HW1 1970   0.813   5.962   4.463
  357SOL    HW2 1971   0.699   5.957   4.580
  358SOL     OW 1972   4.421   6.499   0.713
  358SOL    HW1 1973   4.459   6.507   0.621
  358SOL    HW2 1974   4.346   6.434   0.712
  359SOL     OW 1975   3.454   0.910   1.615
  359SOL    HW1 1976   3.531   0.945   1.561
  359SOL    HW2 1977   3.370   0.954   1.586
  360SOL     OW 1978   1.544   4.214   4.458
  360SOL    HW1 1979   1.514   4.234   4.551
  360SOL    HW2 1980   1.555   4.115   4.447
  361SOL     OW 1981   6.848   6.281   2.939
  361SOL    HW1 1982   6.880   6.252   3.029
  361SOL    HW2 1983   6.849   6.381   2.934
  362SOL     OW 1984   3.462   3.802   0.652
  362SOL    HW1 1985   3.377   3.854   0.664
  362SOL    HW2 1986   3.504   3.827   0.565
  363SOL     OW 1987   6.145   4.432   3.174
  363SOL    HW1 1988   6.138   4.459   3.078
  363SOL    HW2 1989   6.114   4.338   3.185
  364SOL     OW 1990   0.614   5.059   6.466
  364SOL    HW1 1991   0.669   5.142   6.466
  364SOL    HW2 1992   0.609   5.022   6.558
  365SOL     OW 1993   4.070   1.428   1.434
  365SOL    HW1 1994   4.012   1.504   1.464
  365SOL    HW2 1995   4.151   1.423   1.493
  366SOL     OW 1996   5.302   2.400   6.948
  366SOL    HW1 1997   5.315   2.483   7.003
  366SOL    HW2 1998   5.223   2.349   6.983
  367SOL     OW 1999   5.689   2.396   6.087
  367SOL    HW1 2000   5.713   2.427   5.994
  367SOL    HW2 2001   5.605   2.343   6.084
  368SOL     OW 2002   6.682   2.298   5.690
  368SOL    HW1 2003   6.587   2.329   5.698
  368SOL    HW2 2004   6.702   2.276   5.595
  369SOL     OW 2005   6.046   4.466   2.903
  369SOL    HW1 2006   5.958   4.513   2.909
  369SOL    HW2 2007   6.033   4.367   2.904
  370SOL     OW 2008   1.034   1.831   3.924
  370SOL    HW1 2009   0.945   1.866   3.952
  370SOL    HW2 2010   1.056   1.750   3.978
  371SOL     OW 2011   2.215   4.201   6.720
  371SOL    HW1 2012   2.196   4.209   6.818
  371SOL    HW2 2013   2.153   4.261   6.669
  372SOL     OW 2014   1.733   0.082   5.199
  372SOL    HW1 2015   1.718   7.017   5.157
  372SOL    HW2 2016   1.831   0.102   5.200
  373SOL     OW 2017   5.275   6.278   5.144
  373SOL    HW1 2018   5.354   6.329   5.110
  373SOL    HW2 2019   5.226   6.334   5.211
  374SOL     OW 2020   2.486   2.233   2.978
  374SOL    HW1 2021   2.572   2.253   3.025
  374SOL    HW2 2022   2.501   2.161   2.910
  375SOL     OW 2023   0.704   4.615   4.510
  375SOL    HW1 2024   0.783   4.677   4.516
  375SOL    HW2 2025   0.663   4.605   4.601
  376SOL     OW 2026   1.526   2.090   5.127
  376SOL    HW1 2027   1.480   2.172   5.162
  376SOL    HW2 2028   1.466   2.044   5.061
  377SOL     OW 2029   2.154   2.213   6.967
  377SOL    HW1 2030   2.054   2.211   6.965
  377SOL    HW2 2031   2.190   2.169   6.885
  378SOL     OW 2032   3.789   1.693   6.590
  378SOL    HW1 2033   3.877   1.707   6.546
  378SOL    HW2 2034   3.794   1.725   6.685
  379SOL     OW 2035   5.074   2.580   6.886
  379SOL    HW1 2036   5.141   2.508   6.870
  379SOL    HW2 2037   5.122   2.668   6.898
  380SOL     OW 2038   3.141   1.307   0.745
  380SOL    HW1 2039   3.131   1.402   0.772
  380SOL    HW2 2040   3.228   1.293   0.699
  381SOL     OW 2041   1.509   3.957   4.321
  381SOL    HW1 2042   1.572   3.885   4.291
  381SOL    HW2 2043   1.455   3.922   4.398
  382SOL     OW 2044   5.927   0.742   0.064
  382SOL    HW1 2045   5.912   0.643   0.066
  382SOL    HW2 2046   5.854   0.785   0.010
  383SOL     OW 2047   4.226   3.193   0.397
  383SOL    HW1 2048   4.199   3.167   0.304
  383SOL    HW2 2049   4.325   3.187   0.407
  384SOL     OW 2050   0.116   5.376   4.271
  384SOL    HW1 2051   0.040   5.413   4.325
  384SOL    HW2 2052   0.163   5.305   4.323
  385SOL     OW 2053   3.486   6.246   6.018
  385SOL    HW1 2054   3.584   6.250   5.999
  385SOL    HW2 2055   3.453   6.152   6.006
  386SOL     OW 2056   3.924   0.339   4.049
  386SOL    HW1 2057   3.886   0.327   4.140
  386SOL    HW2 2058   3.851   0.362   3.984
  387SOL     OW 2059   1.166   5.588   1.990
  387SOL    HW1 2060   1.112   5.515   2.033
  387SOL    HW2 2061   1.218   5.637   2.060
  388SOL     OW 2062   1.680   2.145   6.526
  388SOL    HW1 2063   1.658   2.139   6.623
  388SOL    HW2 2064   1.716   2.058   6.494
  389SOL     OW 2065   3.390   3.252   2.183
  389SOL    HW1 2066   3.457   3.188   2.219
  389SOL    HW2 2067   3.420   3.346   2.202
  390SOL     OW 2068   3.213   0.912   3.521
  390SOL    HW1 2069   3.133   0.855   3.503
  390SOL    HW2 2070   3.294   0.872   3.479
  391SOL     OW 2071   2.236   2.651   6.623
  391SOL    HW1 2072   2.181   2.602   6.690
  391SOL    HW2 2073   2.331   2.620   6.628
  392SOL     OW 2074   1.080   4.052   0.254
  392SOL    HW1 2075   1.030   4.104   0.185
  392SOL    HW2 2076   1.178   4.055   0.234
  393SOL     OW 2077   0.012   4.521   5.525
  393SOL    HW1 2078   0.005   4.602   5.583
  393SOL    HW2 2079   6.951   4.508   5.476
  394SOL     OW 2080   0.220   1.044   6.874
  394SOL    HW1 2081   0.304   1.080   6.916
  394SOL    HW2 2082   0.206   1.087   6.785
  395SOL     OW 2083   5.041   4.048   3.344
  395SOL    HW1 2084   5.124   4.058   3.289
  395SOL    HW2 2085   5.020   4.135   3.389
  396SOL     OW 2086   4.171   3.733   1.841
  396SOL    HW1 2087   4.215   3.822   1.844
  396SOL    HW2 2088   4.087   3.739   1.786
  397SOL     OW 2089   3.922   2.289   5.650
  397SOL    HW1 2090   3.876   2.332   5.572
  397SOL    HW2 2091   3.875   2.204   5.673
  398SOL     OW 2092   0.308   6.490   1.981
  398SOL    HW1 2093   0.330   6.558   1.911
  398SOL    HW2 2094   0.379   6.419   1.983
  399SOL     OW 2095   4.927   6.636   2.780
  399SOL    HW1 2096   4.910   6.643   2.682
  399SOL    HW2 2097   4.960   6.544   2.802
  400SOL     OW 2098   6.525   6.224   5.479
  400SOL    HW1 2099   6.533   6.320   5.454
  400SOL    HW2 2100   6.589   6.203   5.553
  401SOL     OW 2101   5.024   0.774   5.237
  401SOL    HW1 2102   5.122   0.774   5.214
  401SOL    HW2 2103   4.991   0.680   5.244
  402SOL     OW 2104   5.908   0.131   2.934
  402SOL    HW1 2105   5.988   0.178   2.972
  402SOL    HW2 2106   5.935   0.041   2.900
  403SOL     OW 2107   4.174   2.204   5.022
  403SOL    HW1 2108   4.145   2.163   5.108
  403SOL    HW2 2109   4.196   2.301   5.036
  404SOL     OW 2110   1.939   6.156   4.195
  404SOL    HW1 2111   1.959   6.062   4.224
  404SOL    HW2 2112   1.850   6.159   4.149
  405SOL     OW 2113   1.635   3.642   1.803
  405SOL    HW1 2114   1.549   3.622   1.755
  405SOL    HW2 2115   1.680   3.720   1.759
  406SOL     OW 2116   0.554   3.856   3.949
  406SOL    HW1 2117   0.637   3.908   3.929
  406SOL    HW2 2118   0.543   3.783   3.882
  407SOL     OW 2119   1.896   0.420   3.533
  407SOL    HW1 2120   1.807   0.437   3.577
  407SOL    HW2 2121   1.967   0.421   3.603
  408SOL     OW 2122   1.079   1.388   3.252
  408SOL    HW1 2123   1.023   1.423   3.327
  408SOL    HW2 2124   1.024   1.385   3.168
  409SOL     OW 2125   6.173   2.856   0.849
  409SOL    HW1 2126   6.256   2.807   0.873
  409SOL    HW2 2127   6.096   2.791   0.844
  410SOL     OW 2128   2.191   0.327   7.016
  410SOL    HW1 2129   2.143   0.368   6.938
  410SOL    HW2 2130   2.233   0.398   0.047
  411SOL     OW 2131   6.029   6.827   6.553
  411SOL    HW1 2132   6.002   6.769   6.477
  411SOL    HW2 2133   6.033   6.772   6.637
  412SOL     OW 2134   5.166   6.731   3.608
  412SOL    HW1 2135   5.235   6.756   3.676
  412SOL    HW2 2136   5.096   6.801   3.603
  413SOL     OW 2137   5.293   5.143   2.026
  413SOL    HW1 2138   5.203   5.174   2.059
  413SOL    HW2 2139   5.285   5.050   1.991
  414SOL     OW 2140   3.619   4.912   3.983
  414SOL    HW1 2141   3.575   4.938   4.069
  414SOL    HW2 2142   3.718   4.918   3.992
  415SOL     OW 2143   1.018   6.287   6.649
  415SOL    HW1 2144   0.979   6.242   6.569
  415SOL    HW2 2145   1.046   6.218   6.716
  416SOL     OW 2146   5.091   5.293   4.006
  416SOL    HW1 2147   5.124   5.233   4.078
  416SOL    HW2 2148   5.020   5.246   3.953
  417SOL     OW 2149   2.347   5.323   0.767
  417SOL    HW1 2150   2.330   5.373   0.682
  417SOL    HW2 2151   2.424   5.364   0.815
  418SOL     OW 2152   4.080   5.780   1.813
  418SOL    HW1 2153   4.070   5.753   1.909
  418SOL    HW2 2154   4.153   5.726   1.770
  419SOL     OW 2155   1.680   0.389   1.347
  419SOL    HW1 2156   1.649   0.452   1.418
  419SOL    HW2 2157   1.609   0.321   1.329
  420SOL     OW 2158   6.203   2.317   0.624
  420SOL    HW1 2159   6.232   2.238   0.678
  420SOL    HW2 2160   6.256   2.397   0.651
  421SOL     OW 2161   6.794   4.729   6.066
  421SOL    HW1 2162   6.801   4.772   5.976
  421SOL    HW2 2163   6.885   4.714   6.103
  422SOL     OW 2164   5.179   4.509   0.602
  422SOL    HW1 2165   5.162   4.593   0.549
  422SOL    HW2 2166   5.137   4.431   0.555
  423SOL     OW 2167   0.821   2.914   0.089
  423SOL    HW1 2168   0.830   2.834   0.149
  423SOL    HW2 2169   0.725   2.942   0.085
  424SOL     OW 2170   2.749   3.380   1.372
  424SOL    HW1 2171   2.780   3.308   1.434
  424SOL    HW2 2172   2.800   3.464   1.390
  425SOL     OW 2173   6.575   1.438   2.120
  425SOL    HW1 2174   6.559   1.348   2.079
  425SOL    HW2 2175   6.568   1.509   2.050
  426SOL     OW 2176   4.694   2.512   3.983
  426SOL    HW1 2177   4.618   2.517   3.919
  426SOL    HW2 2178   4.767   2.574   3.953
  427SOL     OW 2179   5.513   5.228   2.914
  427SOL    HW1 2180   5.536   5.131   2.925
  427SOL    HW2 2181   5.532   5.256   2.820
  428SOL     OW 2182   4.392   0.249   4.720
  428SOL    HW1 2183   4.462   0.254   4.649
  428SOL    HW2 2184   4.429   0.201   4.800
  429SOL     OW 2185   2.906   3.605   1.455
  429SOL    HW1 2186   3.002   3.615   1.430
  429SOL    HW2 2187   2.890   3.646   1.545
  430SOL     OW 2188   0.043   0.075   3.901
  430SOL    HW1 2189   0.047   0.035   3.993
  430SOL    HW2 2190   0.120   0.042   3.847
  431SOL     OW 2191   4.120   7.007   0.872
  431SOL    HW1 2192   4.037   6.989   0.925
  431SOL    HW2 2193   4.105   0.063   0.814
  432SOL     OW 2194   6.649   1.819   1.594
  432SOL    HW1 2195   6.608   1.731   1.615
  432SOL    HW2 2196   6.715   1.808   1.519
  433SOL     OW 2197   3.383   6.257   4.582
  433SOL    HW1 2198   3.400   6.354   4.565
  433SOL    HW2 2199   3.287   6.237   4.565
  434SOL     OW 2200   3.660   5.849   1.996
  434SOL    HW1 2201   3.725   5.899   2.054
  434SOL    HW2 2202   3.573   5.899   1.992
  435SOL     OW 2203   4.659   2.104   5.395
  435SOL    HW1 2204   4.589   2.167   5.428
  435SOL    HW2 2205   4.717   2.077   5.472
  436SOL     OW 2206   3.429   6.102   1.050
  436SOL    HW1 2207   3.419   6.156   1.134
  436SOL    HW2 2208   3.489   6.150   0.986
  437SOL     OW 2209   0.773   0.106   6.501
  437SOL    HW1 2210   0.844   0.036   6.493
  437SOL    HW2 2211   0.707   0.079   6.571
  438SOL     OW 2212   2.049   2.951   1.971
  438SOL    HW1 2213   2.010   2.981   1.884
  438SOL    HW2 2214   2.074   2.855   1.966
  439SOL     OW 2215   5.888   4.517   3.319
  439SOL    HW1 2216   5.928   4.590   3.375
  439SOL    HW2 2217   5.961   4.467   3.272
  440SOL     OW 2218   1.375   1.280   5.013
  440SOL    HW1 2219   1.429   1.234   4.942
  440SOL    HW2 2220   1.432   1.349   5.058
  441SOL     OW 2221   1.337   2.718   4.065
  441SOL    HW1 2222   1.281   2.795   4.034
  441SOL    HW2 2223   1.328   2.707   4.164
  442SOL     OW 2224   2.613   4.966   6.513
  442SOL    HW1 2225   2.552   5.041   6.486
  442SOL    HW2 2226   2.576   4.879   6.481
  443SOL     OW 2227   0.167   4.272   4.159
  443SOL    HW1 2228   0.110   4.295   4.237
  443SOL    HW2 2229   0.241   4.211   4.188
  444SOL     OW 2230   5.386   1.966   5.978
  444SOL    HW1 2231   5.315   1.898   5.961
  444SOL    HW2 2232   5.475   1.921   5.981
  445SOL     OW 2233   1.358   5.044   2.987
  445SOL    HW1 2234   1.345   5.138   3.020
  445SOL    HW2 2235   1.294   4.984   3.035
  446SOL     OW 2236   4.102   4.969   3.843
  446SOL    HW1 2237   4.128   4.915   3.923
  446SOL    HW2 2238   4.131   4.922   3.760
  447SOL     OW 2239   0.651   2.889   6.807
  447SOL    HW1 2240   0.578   2.956   6.816
  447SOL    HW2 2241   0.635   2.813   6.870
  448SOL     OW 2242   3.141   0.813   4.465
  448SOL    HW1 2243   3.161   0.718   4.442
  448SOL    HW2 2244   3.226   0.865   4.472
  449SOL     OW 2245   4.332   0.724   4.571
  449SOL    HW1 2246   4.384   0.656   4.624
  449SOL    HW2 2247   4.334   0.812   4.619
  450SOL     OW 2248   1.343   5.937   4.164
  450SOL    HW1 2249   1.407   5.998   4.117
  450SOL    HW2 2250   1.346   5.847   4.120
  451SOL     OW 2251   2.162   2.038   3.680
  451SOL    HW1 2252   2.075   2.055   3.633
  451SOL    HW2 2253   2.228   2.109   3.655
  452SOL     OW 2254   6.094   6.406   1.212
  452SOL    HW1 2255   6.180   6.396   1.162
  452SOL    HW2 2256   6.095   6.492   1.263
  453SOL     OW 2257   3.565   0.864   4.878
  453SOL    HW1 2258   3.646   0.873   4.936
  453SOL    HW2 2259   3.592   0.868   4.782
  454SOL     OW 2260   6.566   4.639   6.159
  454SOL    HW1 2261   6.655   4.684   6.150
  454SOL    HW2 2262   6.566   4.554   6.106
  455SOL     OW 2263   5.864   2.907   3.289
  455SOL    HW1 2264   5.960   2.919   3.313
  455SOL    HW2 2265   5.818   2.996   3.288
  456SOL     OW 2266   5.464   6.467   4.523
  456SOL    HW1 2267   5.365   6.474   4.511
  456SOL    HW2 2268   5.500   6.396   4.463
  457SOL     OW 2269   1.785   3.809   3.510
  457SOL    HW1 2270   1.769   3.827   3.607
  457SOL    HW2 2271   1.876   3.769   3.498
  458SOL     OW 2272   4.112   5.533   3.546
  458SOL    HW1 2273   4.134   5.437   3.530
  458SOL    HW2 2274   4.016   5.541   3.573
  459SOL     OW 2275   2.018   0.022   5.266
  459SOL    HW1 2276   2.079   0.054   5.194
  459SOL    HW2 2277   2.032   0.076   5.349
  460SOL     OW 2278   1.765   0.058   3.902
  460SOL    HW1 2279   1.714   0.100   3.827
  460SOL    HW2 2280   1.750   0.111   3.986
  461SOL     OW 2281   6.076   6.914   5.772
  461SOL    HW1 2282   6.108   7.002   5.739
  461SOL    HW2 2283   6.153   6.861   5.807
  462SOL     OW 2284   3.485   2.701   6.105
  462SOL    HW1 2285   3.418   2.630   6.128
  462SOL    HW2 2286   3.498   2.703   6.006
  463SOL     OW 2287   6.627   5.756   3.156
  463SOL    HW1 2288   6.663   5.831   3.212
  463SOL    HW2 2289   6.696   5.730   3.088
  464SOL     OW 2290   2.019   2.591   6.044
  464SOL    HW1 2291   1.923   2.611   6.024
  464SOL    HW2 2292   2.059   2.539   5.969
  465SOL     OW 2293   0.894   2.619   5.096
  465SOL    HW1 2294   0.859   2.557   5.166
  465SOL    HW2 2295   0.844   2.706   5.099
  466SOL     OW 2296   1.306   5.704   3.087
  466SOL    HW1 2297   1.375   5.679   3.018
  466SOL    HW2 2298   1.352   5.720   3.174
  467SOL     OW 2299   1.612   1.280   0.249
  467SOL    HW1 2300   1.672   1.277   0.169
  467SOL    HW2 2301   1.553   1.360   0.243
  468SOL     OW 2302   3.650   6.404   0.003
  468SOL    HW1 2303   3.660   6.463   0.084
  468SOL    HW2 2304   3.739   6.391   6.985
  469SOL     OW 2305   3.204   4.303   0.496
  469SOL    HW1 2306   3.192   4.318   0.398
  469SOL    HW2 2307   3.167   4.214   0.521
  470SOL     OW 2308   4.432   0.267   2.184
  470SOL    HW1 2309   4.367   0.331   2.142
  470SOL    HW2 2310   4.457   0.198   2.117
  471SOL     OW 2311   2.148   2.464   4.006
  471SOL    HW1 2312   2.081   2.534   4.029
  471SOL    HW2 2313   2.101   2.380   3.978
  472SOL     OW 2314   5.224   3.583   6.491
  472SOL    HW1 2315   5.205   3.569   6.394
  472SOL    HW2 2316   5.174   3.515   6.545
  473SOL     OW 2317   1.135   3.159   2.637
  473SOL    HW1 2318   1.201   3.152   2.712
  473SOL    HW2 2319   1.157   3.238   2.579
  474SOL     OW 2320   5.381   5.447   4.335
  474SOL    HW1 2321   5.418   5.455   4.243
  474SOL    HW2 2322   5.343   5.356   4.349
  475SOL     OW 2323   5.925   0.742   6.431
  475SOL    HW1 2324   5.989   0.696   6.370
  475SOL    HW2 2325   5.837   0.753   6.385
  476SOL     OW 2326   6.661   3.698   3.340
  476SOL    HW1 2327   6.696   3.727   3.430
  476SOL    HW2 2328   6.659   3.777   3.279
  477SOL     OW 2329   1.773   4.604   4.164
  477SOL    HW1 2330   1.848   4.652   4.210
  477SOL    HW2 2331   1.751   4.521   4.215
  478SOL     OW 2332   3.241   0.439   1.622
  478SOL    HW1 2333   3.219   0.511   1.556
  478SOL    HW2 2334   3.179   0.446   1.700
  479SOL     OW 2335   4.223   2.252   5.963
  479SOL    HW1 2336   4.191   2.306   5.885
  479SOL    HW2 2337   4.273   2.310   6.026
  480SOL     OW 2338   2.305   1.546   0.113
  480SOL    HW1 2339   2.216   1.563   0.071
  480SOL    HW2 2340   2.377   1.576   0.050
  481SOL     OW 2341   1.736   0.328   0.158
  481SOL    HW1 2342   1.782   0.241   0.177
  481SOL    HW2 2343   1.672   0.349   0.231
  482SOL     OW 2344   4.570   5.091   3.169
  482SOL    HW1 2345   4.486   5.140   3.149
  482SOL    HW2 2346   4.631   5.094   3.090
  483SOL     OW 2347   6.840   1.341   2.279
  483SOL    HW1 2348   6.762   1.394   2.246
  483SOL    HW2 2349   6.862   1.369   2.373
  484SOL     OW 2350   1.399   3.248   5.096
  484SOL    HW1 2351   1.425   3.289   5.009
  484SOL    HW2 2352   1.318   3.295   5.132
  485SOL     OW 2353   3.843   5.268   2.838
  485SOL    HW1 2354   3.897   5.262   2.922
  485SOL    HW2 2355   3.902   5.252   2.759
  486SOL     OW 2356   6.947   1.989   0.430
  486SOL    HW1 2357   6.985   1.910   0.477
  486SOL    HW2 2358   6.849   1.995   0.450
  487SOL     OW 2359   1.462   0.867   1.336
  487SOL    HW1 2360   1.464   0.812   1.252
  487SOL    HW2 2361   1.383   0.928   1.334
  488SOL     OW 2362   0.248   1.386   2.456
  488SOL    HW1 2363   0.162   1.390   2.406
  488SOL    HW2 2364   0.301   1.469   2.439
  489SOL     OW 2365   2.956   6.260   6.243
  489SOL    HW1 2366   2.994   6.202   6.315
  489SOL    HW2 2367   2.953   6.355   6.274
  490SOL     OW 2368   6.731   5.971   3.326
  490SOL    HW1 2369   6.643   6.017   3.340
  490SOL    HW2 2370   6.787   5.981   3.408
  491SOL     OW 2371   0.336   3.273   2.359
  491SOL    HW1 2372   0.397   3.210   2.312
  491SOL    HW2 2373   0.272   3.220   2.416
  492SOL     OW 2374   2.424   0.525   5.706
  492SOL    HW1 2375   2.426   0.435   5.749
  492SOL    HW2 2376   2.500   0.534   5.642
  493SOL     OW 2377   4.861   6.057   5.084
  493SOL    HW1 2378   4.868   6.156   5.089
  493SOL    HW2 2379   4.861   6.019   5.177
  494SOL     OW 2380   6.868   0.886   6.891
  494SOL    HW1 2381   6.937   0.854   6.825
  494SOL    HW2 2382   6.804   0.813   6.911
  495SOL     OW 2383   4.969   6.166   3.584
  495SOL    HW1 2384   5.002   6.203   3.498
  495SOL    HW2 2385   5.033   6.189   3.657
  496SOL     OW 2386   4.956   3.818   1.709
  496SOL    HW1 2387   4.976   3.756   1.785
  496SOL    HW2 2388   5.042   3.858   1.676
  497SOL     OW 2389   3.449   1.160   4.356
  497SOL    HW1 2390   3.512   1.223   4.401
  497SOL    HW2 2391   3.469   1.066   4.385
  498SOL     OW 2392   1.996   3.906   1.554
  498SOL    HW1 2393   1.999   3.912   1.454
  498SOL    HW2 2394   2.089   3.906   1.589
  499SOL     OW 2395   2.615   6.947   4.300
  499SOL    HW1 2396   2.593   6.926   4.205
  499SOL    HW2 2397   2.681   7.023   4.303
  500SOL     OW 2398   0.273   3.643   4.326
  500SOL    HW1 2399   0.250   3.555   4.286
  500SOL    HW2 2400   0.348   3.685   4.275
  501SOL     OW 2401   2.718   5.781   0.435
  501SOL    HW1 2402   2.654   5.715   0.395
  501SOL    HW2 2403   2.671   5.834   0.506
  502SOL     OW 2404   6.892   3.701   0.209
  502SOL    HW1 2405   6.916   3.774   0.145
  502SOL    HW2 2406   6.959   3.626   0.201
  503SOL     OW 2407   6.373   5.587   6.486
  503SOL    HW1 2408   6.316   5.669   6.475
  503SOL    HW2 2409   6.313   5.507   6.490
  504SOL     OW 2410   1.839   5.532   2.953
  504SOL    HW1 2411   1.863   5.550   3.048
  504SOL    HW2 2412   1.895   5.457   2.918
  505SOL     OW 2413   3.220   6.370   5.088
  505SOL    HW1 2414   3.153   6.444   5.085
  505SOL    HW2 2415   3.306   6.401   5.048
  506SOL     OW 2416   1.743   5.200   4.770
  506SOL    HW1 2417   1.810   5.201   4.845
  506SOL    HW2 2418   1.661   5.250   4.799
  507SOL     OW 2419   3.407   6.725   3.147
  507SOL    HW1 2420   3.472   6.660   3.188
  507SOL    HW2 2421   3.314   6.695   3.164
  508SOL     OW 2422   7.010   3.822   2.265
  508SOL    HW1 2423   0.072   3.817   2.316
  508SOL    HW2 2424   6.963   3.734   2.271
  509SOL     OW 2425   3.332   0.842   1.895
  509SOL    HW1 2426   3.311   0.919   1.835
  509SOL    HW2 2427   3.340   0.758   1.841
  510SOL     OW 2428   6.172   4.672   0.236
  510SOL    HW1 2429   6.220   4.591   0.200
  510SOL    HW2 2430   6.080   4.676   0.196
  511SOL     OW 2431   0.772   1.177   5.623
  511SOL    HW1 2432   0.769   1.155   5.526
  511SOL    HW2 2433   0.731   1.103   5.676
  512SOL     OW 2434   6.267   2.559   6.898
  512SOL    HW1 2435   6.208   2.637   6.921
  512SOL    HW2 2436   6.347   2.592   6.849
  513SOL     OW 2437   5.994   6.253   3.411
  513SOL    HW1 2438   5.953   6.302   3.334
  513SOL    HW2 2439   6.008   6.157   3.385
  514SOL     OW 2440   6.367   2.433   3.991
  514SOL    HW1 2441   6.305   2.456   4.066
  514SOL    HW2 2442   6.348   2.340   3.960
  515SOL     OW 2443   1.688   0.866   6.892
  515SOL    HW1 2444   1.654   0.842   6.983
  515SOL    HW2 2445   1.656   0.957   6.868
  516SOL     OW 2446   2.607   4.806   1.622
  516SOL    HW1 2447   2.599   4.789   1.721
  516SOL    HW2 2448   2.638   4.900   1.607
  517SOL     OW 2449   4.463   5.445   2.465
  517SOL    HW1 2450   4.536   5.377   2.462
  517SOL    HW2 2451   4.410   5.434   2.549
  518SOL     OW 2452   2.284   2.553   2.741
  518SOL    HW1 2453   2.302   2.479   2.676
  518SOL    HW2 2454   2.368   2.578   2.789
  519SOL     OW 2455   0.868   0.968   4.772
  519SOL    HW1 2456   0.960   0.985   4.735
  519SOL    HW2 2457   0.815   1.053   4.770
  520SOL     OW 2458   6.249   4.408   0.118
  520SOL    HW1 2459   6.274   4.443   0.028
  520SOL    HW2 2460   6.209   4.316   0.109
  521SOL     OW 2461   6.769   3.762   5.503
  521SOL    HW1 2462   6.751   3.739   5.598
  521SOL    HW2 2463   6.688   3.744   5.448
  522SOL     OW 2464   3.416   2.926   5.312
  522SOL    HW1 2465   3.509   2.931   5.277
  522SOL    HW2 2466   3.379   2.834   5.298
  523SOL     OW 2467   0.574   5.230   1.625
  523SOL    HW1 2468   0.634   5.309   1.611
  523SOL    HW2 2469   0.509   5.250   1.698
  524SOL     OW 2470   0.387   1.183   1.153
  524SOL    HW1 2471   0.482   1.158   1.175
  524SOL    HW2 2472   0.326   1.117   1.196
  525SOL     OW 2473   1.659   3.216   6.412
  525SOL    HW1 2474   1.716   3.234   6.493
  525SOL    HW2 2475   1.699   3.264   6.333
  526SOL     OW 2476   4.494   6.026   4.308
  526SOL    HW1 2477   4.530   6.001   4.218
  526SOL    HW2 2478   4.406   5.979   4.323
  527SOL     OW 2479   6.487   2.915   0.022
  527SOL    HW1 2480   6.562   2.967   7.005
  527SOL    HW2 2481   6.492   2.921   0.121
  528SOL     OW 2482   1.217   1.306   3.483
  528SOL    HW1 2483   1.265   1.366   3.548
  528SOL    HW2 2484   1.173   1.362   3.413
  529SOL     OW 2485   1.327   6.812   3.914
  529SOL    HW1 2486   1.364   6.776   3.829
  529SOL    HW2 2487   1.294   6.736   3.971
  530SOL     OW 2488   3.202   2.946   5.041
  530SOL    HW1 2489   3.247   2.910   4.959
  530SOL    HW2 2490   3.200   3.046   5.038
  531SOL     OW 2491   0.619   0.080   2.955
  531SOL    HW1 2492   0.679   0.160   2.943
  531SOL    HW2 2493   0.545   0.084   2.889
  532SOL     OW 2494   1.234   2.406   6.972
  532SOL    HW1 2495   1.290   2.430   0.027
  532SOL    HW2 2496   1.167   2.337   6.999
  533SOL     OW 2497   4.678   0.292   3.584
  533SOL    HW1 2498   4.764   0.269   3.629
  533SOL    HW2 2499   4.696   0.324   3.491
  534SOL     OW 2500   5.079   6.099   2.590
  534SOL    HW1 2501   5.157   6.079   2.650
  534SOL    HW2 2502   5.103   6.073   2.496
  535SOL     OW 2503   0.708   3.581   4.730
  535SOL    HW1 2504   0.615   3.614   4.713
  535SOL    HW2 2505   0.714   3.546   4.824
  536SOL     OW 2506   6.794   5.153   1.596
  536SOL    HW1 2507   6.894   5.151   1.600
  536SOL    HW2 2508   6.761   5.065   1.561
  537SOL     OW 2509   1.862   6.438   3.883
  537SOL    HW1 2510   1.927   6.492   3.937
  537SOL    HW2 2511   1.835   6.490   3.802
  538SOL     OW 2512   1.122   4.244   2.645
  538SOL    HW1 2513   1.177   4.162   2.661
  538SOL    HW2 2514   1.182   4.324   2.643
  539SOL     OW 2515   1.028   6.534   0.649
  539SOL    HW1 2516   1.009   6.571   0.740
  539SOL    HW2 2517   1.022   6.608   0.581
  540SOL     OW 2518   0.994   0.380   2.702
  540SOL    HW1 2519   1.020   0.465   2.657
  540SOL    HW2 2520   1.045   0.304   2.662
  541SOL     OW 2521   3.870   6.230   4.273
  541SOL    HW1 2522   3.858   6.252   4.177
  541SOL    HW2 2523   3.781   6.220   4.317
  542SOL     OW 2524   6.474   0.419   0.044
  542SOL    HW1 2525   6.545   0.488   0.060
  542SOL    HW2 2526   6.506   0.331   0.080
  543SOL     OW 2527   1.681   4.428   5.677
  543SOL    HW1 2528   1.775   4.457   5.694
  543SOL    HW2 2529   1.677   4.328   5.676
  544SOL     OW 2530   2.480   3.910   0.562
  544SOL    HW1 2531   2.484   3.811   0.552
  544SOL    HW2 2532   2.551   3.953   0.506
  545SOL     OW 2533   2.571   0.392   3.039
  545SOL    HW1 2534   2.471   0.384   3.046
  545SOL    HW2 2535   2.614   0.321   3.095
  546SOL     OW 2536   1.603   3.317   0.757
  546SOL    HW1 2537   1.509   3.316   0.791
  546SOL    HW2 2538   1.658   3.253   0.811
  547SOL     OW 2539   2.991   1.508   6.929
  547SOL    HW1 2540   3.069   1.480   6.872
  547SOL    HW2 2541   2.985   1.447   7.008
  548SOL     OW 2542   3.550   2.854   2.774
  548SOL    HW1 2543   3.628   2.899   2.730
  548SOL    HW2 2544   3.468   2.912   2.764
  549SOL     OW 2545   4.709   3.529   1.316
  549SOL    HW1 2546   4.757   3.564   1.397
  549SOL    HW2 2547   4.728   3.587   1.238
  550SOL     OW 2548   6.079   4.261   3.452
  550SOL    HW1 2549   6.062   4.225   3.361
  550SOL    HW2 2550   6.055   4.358   3.454
  551SOL     OW 2551   1.259   0.556   1.425
  551SOL    HW1 2552   1.227   0.644   1.461
  551SOL    HW2 2553   1.185   0.488   1.433
  552SOL     OW 2554   4.815   4.802   0.050
  552SOL    HW1 2555   4.733   4.750   0.077
  552SOL    HW2 2556   4.816   4.812   6.974
  553SOL     OW 2557   1.852   6.702   2.134
  553SOL    HW1 2558   1.810   6.620   2.174
  553SOL    HW2 2559   1.888   6.679   2.043
  554SOL     OW 2560   5.674   6.803   5.391
  554SOL    HW1 2561   5.754   6.854   5.362
  554SOL    HW2 2562   5.685   6.775   5.486
  555SOL     OW 2563   2.483   5.451   2.673
  555SOL    HW1 2564   2.396   5.459   2.721
  555SOL    HW2 2565   2.477   5.379   2.604
  556SOL     OW 2566   5.478   2.604   3.576
  556SOL    HW1 2567   5.532   2.687   3.565
  556SOL    HW2 2568   5.539   2.525   3.577
  557SOL     OW 2569   0.406   4.840   0.232
  557SOL    HW1 2570   0.436   4.758   0.281
  557SOL    HW2 2571   0.400   4.820   0.134
  558SOL     OW 2572   3.021   3.613   4.802
  558SOL    HW1 2573   2.962   3.553   4.857
  558SOL    HW2 2574   3.117   3.595   4.825
  559SOL     OW 2575   6.791   5.563   6.721
  559SOL    HW1 2576   6.869   5.516   6.678
  559SOL    HW2 2577   6.713   5.562   6.659
  560SOL     OW 2578   4.458   5.566   0.494
  560SOL    HW1 2579   4.366   5.530   0.507
  560SOL    HW2 2580   4.506   5.509   0.427
  561SOL     OW 2581   6.201   1.063   0.192
  561SOL    HW1 2582   6.102   1.080   0.194
  561SOL    HW2 2583   6.235   1.078   0.100
  562SOL     OW 2584   4.846   0.745   5.900
  562SOL    HW1 2585   4.869   0.842   5.888
  562SOL    HW2 2586   4.922   0.689   5.868
  563SOL     OW 2587   2.166   0.083   2.947
  563SOL    HW1 2588   2.172   0.041   2.856
  563SOL    HW2 2589   2.161   0.011   3.017
  564SOL     OW 2590   2.780   1.616   6.498
  564SOL    HW1 2591   2.755   1.696   6.443
  564SOL    HW2 2592   2.702   1.588   6.553
  565SOL     OW 2593   3.733   3.588   5.766
  565SOL    HW1 2594   3.734   3.576   5.666
  565SOL    HW2 2595   3.813   3.542   5.805
  566SOL     OW 2596   6.195   4.112   4.565
  566SOL    HW1 2597   6.254   4.192   4.568
  566SOL    HW2 2598   6.202   4.069   4.475
  567SOL     OW 2599   3.792   4.063   2.417
  567SOL    HW1 2600   3.756   4.156   2.426
  567SOL    HW2 2601   3.719   3.997   2.433
  568SOL     OW 2602   3.572   2.323   0.193
  568SOL    HW1 2603   3.512   2.392   0.151
  568SOL    HW2 2604   3.630   2.282   0.123
  569SOL     OW 2605   1.323   3.487   0.226
  569SOL    HW1 2606   1.391   3.477   0.154
  569SOL    HW2 2607   1.342   3.422   0.300
  570SOL     OW 2608   2.113   6.484   6.683
  570SOL    HW1 2609   2.038   6.509   6.623
  570SOL    HW2 2610   2.167   6.411   6.641
  571SOL     OW 2611   2.878   7.001   2.735
  571SOL    HW1 2612   2.810   6.928   2.724
  571SOL    HW2 2613   2.844   0.060   2.692
  572SOL     OW 2614   2.352   4.947   5.890
  572SOL    HW1 2615   2.443   4.907   5.905
  572SOL    HW2 2616   2.361   5.044   5.872
  573SOL     OW 2617   4.833   1.218   5.263
  573SOL    HW1 2618   4.918   1.167   5.275
  573SOL    HW2 2619   4.767   1.189   5.332
  574SOL     OW 2620   2.699   2.373   3.678
  574SOL    HW1 2621   2.781   2.345   3.729
  574SOL    HW2 2622   2.644   2.434   3.734
  575SOL     OW 2623   5.924   2.939   0.150
  575SOL    HW1 2624   5.882   2.856   0.187
  575SOL    HW2 2625   6.012   2.916   0.109
  576SOL     OW 2626   1.276   2.301   2.466
  576SOL    HW1 2627   1.271   2.332   2.561
  576SOL    HW2 2628   1.185   2.306   2.425
  577SOL     OW 2629   2.061   1.053   3.363
  577SOL    HW1 2630   1.968   1.069   3.331
  577SOL    HW2 2631   2.104   0.983   3.306
  578SOL     OW 2632   6.772   4.376   3.240
  578SOL    HW1 2633   6.713   4.308   3.284
  578SOL    HW2 2634   6.800   4.342   3.150
  579SOL     OW 2635   2.256   3.370   1.392
  579SOL    HW1 2636   2.306   3.453   1.365
  579SOL    HW2 2637   2.301   3.290   1.351
  580SOL     OW 2638   0.573   4.920   6.709
  580SOL    HW1 2639   0.545   4.825   6.695
  580SOL    HW2 2640   0.659   4.921   6.761
  581SOL     OW 2641   3.163   3.402   2.028
  581SOL    HW1 2642   3.087   3.348   1.991
  581SOL    HW2 2643   3.209   3.350   2.100
  582SOL     OW 2644   5.977   5.105   2.265
  582SOL    HW1 2645   6.049   5.159   2.309
  582SOL    HW2 2646   5.895   5.107   2.321
  583SOL     OW 2647   2.196   5.490   6.226
  583SOL    HW1 2648   2.137   5.568   6.246
  583SOL    HW2 2649   2.150   5.428   6.162
  584SOL     OW 2650   1.330   4.665   6.078
  584SOL    HW1 2651   1.283   4.686   5.992
  584SOL    HW2 2652   1.423   4.701   6.075
  585SOL     OW 2653   5.675   2.775   6.220
  585SOL    HW1 2654   5.764   2.729   6.225
  585SOL    HW2 2655   5.605   2.708   6.195
  586SOL     OW 2656   3.353   0.814   6.374
  586SOL    HW1 2657   3.355   0.715   6.360
  586SOL    HW2 2658   3.264   0.842   6.409
  587SOL     OW 2659   2.730   2.325   4.952
  587SOL    HW1 2660   2.642   2.347   4.995
  587SOL    HW2 2661   2.714   2.278   4.866
  588SOL     OW 2662   2.380   5.045   0.775
  588SOL    HW1 2663   2.356   5.142   0.780
  588SOL    HW2 2664   2.326   5.001   0.704
  589SOL     OW 2665   3.784   5.387   1.395
  589SOL    HW1 2666   3.771   5.382   1.494
  589SOL    HW2 2667   3.880   5.372   1.373
  590SOL     OW 2668   5.869   2.677   1.293
  590SOL    HW1 2669   5.833   2.616   1.222
  590SOL    HW2 2670   5.950   2.724   1.259
  591SOL     OW 2671   4.219   6.188   4.065
  591SOL    HW1 2672   4.261   6.127   3.997
  591SOL    HW2 2673   4.287   6.254   4.097
  592SOL     OW 2674   3.997   0.306   1.192
  592SOL    HW1 2675   3.951   0.385   1.152
  592SOL    HW2 2676   3.956   0.285   1.281
  593SOL     OW 2677   4.687   2.166   3.647
  593SOL    HW1 2678   4.674   2.129   3.739
  593SOL    HW2 2679   4.698   2.091   3.582
  594SOL     OW 2680   4.756   1.937   6.427
  594SOL    HW1 2681   4.657   1.935   6.415
  594SOL    HW2 2682   4.798   1.862   6.376
  595SOL     OW 2683   5.462   0.048   3.637
  595SOL    HW1 2684   5.504   6.983   3.627
  595SOL    HW2 2685   5.533   0.118   3.641
  596SOL     OW 2686   1.543   3.994   2.132
  596SOL    HW1 2687   1.543   4.094   2.125
  596SOL    HW2 2688   1.449   3.961   2.122
  597SOL     OW 2689   4.556   0.000   5.764
  597SOL    HW1 2690   4.621   7.001   5.837
  597SOL    HW2 2691   4.471   6.974   5.778
  598SOL     OW 2692   3.144   4.028   6.895
  598SOL    HW1 2693   3.127   3.975   6.812
  598SOL    HW2 2694   3.179   3.968   6.967
  599SOL     OW 2695   1.998   6.389   3.232
  599SOL    HW1 2696   2.068   6.447   3.191
  599SOL    HW2 2697   2.010   6.386   3.331
  600SOL     OW 2698   1.222   1.046   1.289
  600SOL    HW1 2699   1.226   1.133   1.241
  600SOL    HW2 2700   1.140   0.996   1.261
  601SOL     OW 2701   3.587   6.667   4.352
  601SOL    HW1 2702   3.640   6.632   4.275
  601SOL    HW2 2703   3.539   6.592   4.397
  602SOL     OW 2704   1.352   2.486   0.174
  602SOL    HW1 2705   1.327   2.520   0.265
  602SOL    HW2 2706   1.411   2.553   0.129
  603SOL     OW 2707   4.230   1.690   3.516
  603SOL    HW1 2708   4.260   1.785   3.509
  603SOL    HW2 2709   4.219   1.652   3.424
  604SOL     OW 2710   0.695   3.808   1.498
  604SOL    HW1 2711   0.627   3.828   1.428
  604SOL    HW2 2712   0.772   3.871   1.488
  605SOL     OW 2713   6.889   5.268   3.075
  605SOL    HW1 2714   6.861   5.175   3.098
  605SOL    HW2 2715   6.842   5.334   3.134
  606SOL     OW 2716   5.004   0.252   5.745
  606SOL    HW1 2717   5.040   0.177   5.801
  606SOL    HW2 2718   4.912   0.274   5.775
  607SOL     OW 2719   5.358   0.685   5.742
  607SOL    HW1 2720   5.289   0.743   5.784
  607SOL    HW2 2721   5.325   0.590   5.737
  608SOL     OW 2722   4.122   6.325   7.003
  608SOL    HW1 2723   4.170   6.387   6.941
  608SOL    HW2 2724   4.068   6.378   0.044
  609SOL     OW 2725   3.508   3.562   3.919
  609SOL    HW1 2726   3.488   3.586   4.014
  609SOL    HW2 2727   3.489   3.465   3.905
  610SOL     OW 2728   5.093   2.285   2.159
  610SOL    HW1 2729   5.003   2.296   2.116
  610SOL    HW2 2730   5.085   2.221   2.236
  611SOL     OW 2731   1.635   0.469   6.567
  611SOL    HW1 2732   1.592   0.505   6.650
  611SOL    HW2 2733   1.603   0.521   6.488
  612SOL     OW 2734   4.078   6.047   5.638
  612SOL    HW1 2735   4.083   5.970   5.702
  612SOL    HW2 2736   4.039   6.016   5.552
  613SOL     OW 2737   4.348   6.819   5.380
  613SOL    HW1 2738   4.443   6.850   5.374
  613SOL    HW2 2739   4.287   6.898   5.379
  614SOL     OW 2740   5.864   4.374   1.225
  614SOL    HW1 2741   5.935   4.305   1.238
  614SOL    HW2 2742   5.904   4.456   1.185
  615SOL     OW 2743   0.841   1.980   1.138
  615SOL    HW1 2744   0.809   1.898   1.090
  615SOL    HW2 2745   0.787   1.992   1.222
  616SOL     OW 2746   6.146   1.627   2.878
  616SOL    HW1 2747   6.215   1.687   2.838
  616SOL    HW2 2748   6.111   1.564   2.808
  617SOL     OW 2749   6.891   3.337   6.739
  617SOL    HW1 2750   6.848   3.390   6.665
  617SOL    HW2 2751   6.877   3.239   6.722
  618SOL     OW 2752   6.518   3.444   0.745
  618SOL    HW1 2753   6.484   3.374   0.682
  618SOL    HW2 2754   6.539   3.528   0.695
  619SOL     OW 2755   4.257   6.920   6.787
  619SOL    HW1 2756   4.308   6.895   6.869
  619SOL    HW2 2757   4.253   7.020   6.779
  620SOL     OW 2758   5.848   2.902   0.800
  620SOL    HW1 2759   5.773   2.944   0.851
  620SOL    HW2 2760   5.904   2.973   0.757
  621SOL     OW 2761   1.538   0.119   5.422
  621SOL    HW1 2762   1.609   0.082   5.361
  621SOL    HW2 2763   1.448   0.101   5.383
  622SOL     OW 2764   0.353   1.609   5.008
  622SOL    HW1 2765   0.392   1.701   5.017
  622SOL    HW2 2766   0.294   1.590   5.086
  623SOL     OW 2767   0.291   6.586   5.511
  623SOL    HW1 2768   0.231   6.611   5.435
  623SOL    HW2 2769   0.327   6.668   5.554
  624SOL     OW 2770   6.661   0.822   0.565
  624SOL    HW1 2771   6.572   0.840   0.607
  624SOL    HW2 2772   6.712   0.907   0.557
  625SOL     OW 2773   1.748   2.127   1.134
  625SOL    HW1 2774   1.737   2.217   1.176
  625SOL    HW2 2775   1.744   2.056   1.204
  626SOL     OW 2776   0.438   5.931   2.801
  626SOL    HW1 2777   0.441   5.842   2.847
  626SOL    HW2 2778   0.355   5.937   2.747
  627SOL     OW 2779   6.587   6.387   0.899
  627SOL    HW1 2780   6.665   6.421   0.846
  627SOL    HW2 2781   6.610   6.299   0.940
  628SOL     OW 2782   5.701   3.937   5.094
  628SOL    HW1 2783   5.754   4.022   5.088
  628SOL    HW2 2784   5.762   3.863   5.122
  629SOL     OW 2785   0.656   1.181   6.960
  629SOL    HW1 2786   0.682   1.271   6.923
  629SOL    HW2 2787   0.646   1.116   6.885
  630SOL     OW 2788   0.530   2.657   0.553
  630SOL    HW1 2789   0.464   2.588   0.582
  630SOL    HW2 2790   0.611   2.613   0.516
  631SOL     OW 2791   3.874   1.450   4.459
  631SOL    HW1 2792   3.823   1.536   4.468
  631SOL    HW2 2793   3.928   1.434   4.541
  632SOL     OW 2794   4.460   2.801   0.306
  632SOL    HW1 2795   4.554   2.779   0.332
  632SOL    HW2 2796   4.450   2.791   0.207
  633SOL     OW 2797   3.438   4.302   6.884
  633SOL    HW1 2798   3.526   4.342   6.861
  633SOL    HW2 2799   3.369   4.375   6.892
  634SOL     OW 2800   3.214   3.418   2.789
  634SOL    HW1 2801   3.266   3.486   2.839
  634SOL    HW2 2802   3.250   3.411   2.695
  635SOL     OW 2803   4.671   6.642   0.207
  635SOL    HW1 2804   4.765   6.609   0.211
  635SOL    HW2 2805   4.670   6.742   0.218
  636SOL     OW 2806   2.860   6.841   5.817
  636SOL    HW1 2807   2.940   6.781   5.822
  636SOL    HW2 2808   2.787   6.804   5.875
  637SOL     OW 2809   6.961   2.842   2.275
  637SOL    HW1 2810   6.974   2.806   2.368
  637SOL    HW2 2811   6.915   2.773   2.219
  638SOL     OW 2812   5.644   3.663   3.608
  638SOL    HW1 2813   5.693   3.743   3.574
  638SOL    HW2 2814   5.706   3.585   3.615
  639SOL     OW 2815   4.977   4.392   2.944
  639SOL    HW1 2816   4.891   4.344   2.959
  639SOL    HW2 2817   4.991   4.459   3.017
  640SOL     OW 2818   6.856   4.718   3.039
  640SOL    HW1 2819   6.867   4.781   2.962
  640SOL    HW2 2820   6.819   4.631   3.005
  641SOL     OW 2821   0.908   4.713   4.781
  641SOL    HW1 2822   0.903   4.627   4.832
  641SOL    HW2 2823   0.880   4.789   4.840
  642SOL     OW 2824   1.335   3.252   4.461
  642SOL    HW1 2825   1.325   3.168   4.409
  642SOL    HW2 2826   1.311   3.236   4.557
  643SOL     OW 2827   6.184   0.366   6.396
  643SOL    HW1 2828   6.101   0.346   6.447
  643SOL    HW2 2829   6.161   0.385   6.300
  644SOL     OW 2830   1.457   0.420   4.903
  644SOL    HW1 2831   1.406   0.468   4.975
  644SOL    HW2 2832   1.393   0.367   4.847
  645SOL     OW 2833   3.178   5.655   4.365
  645SOL    HW1 2834   3.250   5.601   4.321
  645SOL    HW2 2835   3.209   5.681   4.457
  646SOL     OW 2836   3.812   0.531   4.597
  646SOL    HW1 2837   3.897   0.574   4.567
  646SOL    HW2 2838   3.825   0.432   4.604
  647SOL     OW 2839   5.735   1.679   4.919
  647SOL    HW1 2840   5.663   1.667   4.851
  647SOL    HW2 2841   5.825   1.678   4.874
  648SOL     OW 2842   6.622   4.138   3.579
  648SOL    HW1 2843   6.568   4.115   3.497
  648SOL    HW2 2844   6.630   4.237   3.586
  649SOL     OW 2845   2.078   3.523   0.750
  649SOL    HW1 2846   2.018   3.443   0.746
  649SOL    HW2 2847   2.110   3.537   0.843
  650SOL     OW 2848   6.384   5.045   0.388
  650SOL    HW1 2849   6.337   5.132   0.376
  650SOL    HW2 2850   6.319   4.970   0.381
  651SOL     OW 2851   1.482   0.472   5.939
  651SOL    HW1 2852   1.471   0.567   5.966
  651SOL    HW2 2853   1.392   0.431   5.923
  652SOL     OW 2854   4.521   0.040   3.130
  652SOL    HW1 2855   4.620   0.033   3.124
  652SOL    HW2 2856   4.486   0.086   3.048
  653SOL     OW 2857   0.582   5.965   0.108
  653SOL    HW1 2858   0.541   6.053   0.085
  653SOL    HW2 2859   0.516   5.892   0.089
  654SOL     OW 2860   0.285   6.418   6.521
  654SOL    HW1 2861   0.204   6.476   6.508
  654SOL    HW2 2862   0.368   6.471   6.505
  655SOL     OW 2863   6.746   5.590   1.842
  655SOL    HW1 2864   6.651   5.613   1.818
  655SOL    HW2 2865   6.788   5.669   1.887
  656SOL     OW 2866   1.769   6.607   0.105
  656SOL    HW1 2867   1.796   6.555   0.024
  656SOL    HW2 2868   1.677   6.581   0.132
  657SOL     OW 2869   3.086   4.020   1.077
  657SOL    HW1 2870   3.111   4.082   1.003
  657SOL    HW2 2871   3.123   4.054   1.163
  658SOL     OW 2872   1.415   4.035   5.385
  658SOL    HW1 2873   1.342   4.068   5.326
  658SOL    HW2 2874   1.492   4.004   5.330
  659SOL     OW 2875   2.510   6.535   4.915
  659SOL    HW1 2876   2.530   6.439   4.895
  659SOL    HW2 2877   2.524   6.553   5.012
  660SOL     OW 2878   4.854   4.810   2.880
  660SOL    HW1 2879   4.922   4.776   2.944
  660SOL    HW2 2880   4.818   4.897   2.912
  661SOL     OW 2881   4.885   3.872   4.503
  661SOL    HW1 2882   4.886   3.893   4.405
  661SOL    HW2 2883   4.894   3.773   4.515
  662SOL     OW 2884   4.468   0.906   5.659
  662SOL    HW1 2885   4.526   0.886   5.580
  662SOL    HW2 2886   4.430   0.998   5.651
  663SOL     OW 2887   0.277   4.267   0.407
  663SOL    HW1 2888   0.347   4.300   0.344
  663SOL    HW2 2889   0.206   4.218   0.356
  664SOL     OW 2890   1.530   5.476   6.667
  664SOL    HW1 2891   1.560   5.415   6.594
  664SOL    HW2 2892   1.539   5.429   6.755
  665SOL     OW 2893   4.063   5.385   0.721
  665SOL    HW1 2894   4.127   5.393   0.797
  665SOL    HW2 2895   4.040   5.289   0.706
  666SOL     OW 2896   4.460   2.309   0.905
  666SOL    HW1 2897   4.470   2.353   0.816
  666SOL    HW2 2898   4.364   2.311   0.933
  667SOL     OW 2899   6.847   4.200   4.002
  667SOL    HW1 2900   6.902   4.281   3.980
  667SOL    HW2 2901   6.907   4.127   4.033
  668SOL     OW 2902   4.964   5.782   6.697
  668SOL    HW1 2903   4.924   5.871   6.674
  668SOL    HW2 2904   4.949   5.763   6.794
  669SOL     OW 2905   2.790   6.080   2.974
  669SOL    HW1 2906   2.757   6.074   2.880
  669SOL    HW2 2907   2.857   6.154   2.981
  670SOL     OW 2908   3.192   3.047   1.879
  670SOL    HW1 2909   3.205   2.993   1.795
  670SOL    HW2 2910   3.100   3.087   1.879
  671SOL     OW 2911   2.530   5.937   6.780
  671SOL    HW1 2912   2.564   5.843   6.774
  671SOL    HW2 2913   2.598   5.999   6.743
  672SOL     OW 2914   0.762   4.172   2.043
  672SOL    HW1 2915   0.800   4.146   1.954
  672SOL    HW2 2916   0.732   4.267   2.040
  673SOL     OW 2917   5.015   0.131   1.242
  673SOL    HW1 2918   5.000   0.048   1.190
  673SOL    HW2 2919   4.933   0.188   1.240
  674SOL     OW 2920   6.637   3.355   4.166
  674SOL    HW1 2921   6.542   3.330   4.183
  674SOL    HW2 2922   6.661   3.331   4.072
  675SOL     OW 2923   0.257   1.102   5.225
  675SOL    HW1 2924   0.338   1.105   5.283
  675SOL    HW2 2925   0.269   1.031   5.155
  676SOL     OW 2926   3.165   5.092   3.454
  676SOL    HW1 2927   3.256   5.100   3.411
  676SOL    HW2 2928   3.095   5.098   3.383
  677SOL     OW 2929   5.778   1.256   6.233
  677SOL    HW1 2930   5.733   1.200   6.302
  677SOL    HW2 2931   5.796   1.347   6.271
  678SOL     OW 2932   1.591   1.350   5.416
  678SOL    HW1 2933   1.654   1.370   5.491
  678SOL    HW2 2934   1.643   1.316   5.338
  679SOL     OW 2935   4.707   1.258   4.255
  679SOL    HW1 2936   4.801   1.225   4.263
  679SOL    HW2 2937   4.660   1.247   4.342
  680SOL     OW 2938   5.921   5.302   6.182
  680SOL    HW1 2939   5.865   5.284   6.263
  680SOL    HW2 2940   5.874   5.367   6.123
  681SOL     OW 2941   6.570   0.442   0.915
  681SOL    HW1 2942   6.621   0.506   0.858
  681SOL    HW2 2943   6.524   0.492   0.989
  682SOL     OW 2944   1.664   6.907   6.719
  682SOL    HW1 2945   1.716   6.838   6.770
  682SOL    HW2 2946   1.711   6.926   6.633
  683SOL     OW 2947   3.543   0.854   6.152
  683SOL    HW1 2948   3.491   0.853   6.237
  683SOL    HW2 2949   3.513   0.931   6.095
  684SOL     OW 2950   6.228   1.153   6.442
  684SOL    HW1 2951   6.285   1.157   6.524
  684SOL    HW2 2952   6.173   1.236   6.436
  685SOL     OW 2953   5.109   6.355   5.398
  685SOL    HW1 2954   5.040   6.423   5.374
  685SOL    HW2 2955   5.118   6.351   5.498
  686SOL     OW 2956   5.576   3.428   2.818
  686SOL    HW1 2957   5.495   3.462   2.867
  686SOL    HW2 2958   5.547   3.390   2.730
  687SOL     OW 2959   6.863   2.808   5.051
  687SOL    HW1 2960   6.830   2.838   5.141
  687SOL    HW2 2961   6.947   2.857   5.028
  688SOL     OW 2962   1.520   3.596   0.520
  688SOL    HW1 2963   1.477   3.510   0.493
  688SOL    HW2 2964   1.452   3.670   0.515
  689SOL     OW 2965   0.832   4.193   5.539
  689SOL    HW1 2966   0.871   4.155   5.455
  689SOL    HW2 2967   0.807   4.289   5.524
  690SOL     OW 2968   0.687   3.070   3.554
  690SOL    HW1 2969   0.621   2.996   3.566
  690SOL    HW2 2970   0.710   3.078   3.457
  691SOL     OW 2971   2.255   1.520   6.374
  691SOL    HW1 2972   2.248   1.449   6.304
  691SOL    HW2 2973   2.174   1.577   6.373
  692SOL     OW 2974   3.519   6.362   3.867
  692SOL    HW1 2975   3.541   6.301   3.943
  692SOL    HW2 2976   3.466   6.440   3.901
  693SOL     OW 2977   6.494   1.403   3.082
  693SOL    HW1 2978   6.432   1.324   3.085
  693SOL    HW2 2979   6.521   1.428   3.175
  694SOL     OW 2980   3.014   6.140   2.347
  694SOL    HW1 2981   2.979   6.224   2.388
  694SOL    HW2 2982   3.108   6.124   2.379
  695SOL     OW 2983   4.369   5.045   6.031
  695SOL    HW1 2984   4.295   5.059   6.096
  695SOL    HW2 2985   4.413   4.957   6.049
  696SOL     OW 2986   3.528   5.203   1.569
  696SOL    HW1 2987   3.526   5.269   1.645
  696SOL    HW2 2988   3.466   5.127   1.590
  697SOL     OW 2989   1.704   2.586   4.857
  697SOL    HW1 2990   1.605   2.596   4.848
  697SOL    HW2 2991   1.745   2.676   4.874
  698SOL     OW 2992   5.480   0.213   5.846
  698SOL    HW1 2993   5.508   0.299   5.887
  698SOL    HW2 2994   5.534   0.196   5.763
  699SOL     OW 2995   0.585   4.103   0.161
  699SOL    HW1 2996   0.544   4.047   0.234
  699SOL    HW2 2997   0.676   4.067   0.139
  700SOL     OW 2998   3.286   1.883   4.043
  700SOL    HW1 2999   3.366   1.866   4.100
  700SOL    HW2 3000   3.258   1.979   4.051
  701SOL     OW 3001   0.035   4.119   5.719
  701SOL    HW1 3002   6.999   4.084   5.647
  701SOL    HW2 3003   0.130   4.102   5.694
  702SOL     OW 3004   5.732   5.998   5.657
  702SOL    HW1 3005   5.728   6.007   5.756
  702SOL    HW2 3006   5.827   6.008   5.627
  703SOL     OW 3007   4.274   3.954   6.612
  703SOL    HW1 3008   4.291   3.973   6.709
  703SOL    HW2 3009   4.176   3.948   6.595
  704SOL     OW 3010   1.790   1.655   6.290
  704SOL    HW1 3011   1.806   1.619   6.198
  704SOL    HW2 3012   1.870   1.637   6.347
  705SOL     OW 3013   5.207   0.083   3.734
  705SOL    HW1 3014   5.305   0.076   3.721
  705SOL    HW2 3015   5.161   0.011   3.682
  706SOL     OW 3016   4.242   1.917   3.155
  706SOL    HW1 3017   4.168   1.972   3.192
  706SOL    HW2 3018   4.215   1.877   3.067
  707SOL     OW 3019   4.661   0.250   2.610
  707SOL    HW1 3020   4.599   0.186   2.657
  707SOL    HW2 3021   4.608   0.307   2.548
  708SOL     OW 3022   4.251   0.363   1.625
  708SOL    HW1 3023   4.295   0.377   1.536
  708SOL    HW2 3024   4.321   0.342   1.693
  709SOL     OW 3025   1.457   5.541   0.551
  709SOL    HW1 3026   1.518   5.499   0.484
  709SOL    HW2 3027   1.504   5.547   0.639
  710SOL     OW 3028   3.980   3.133   2.790
  710SOL    HW1 3029   3.926   3.087   2.720
  710SOL    HW2 3030   3.959   3.094   2.880
  711SOL     OW 3031   0.730   1.742   6.026
  711SOL    HW1 3032   0.662   1.781   6.089
  711SOL    HW2 3033   0.822   1.765   6.058
  712SOL     OW 3034   2.305   4.126   0.609
  712SOL    HW1 3035   2.252   4.130   0.693
  712SOL    HW2 3036   2.345   4.035   0.598
  713SOL     OW 3037   3.175   3.411   0.127
  713SOL    HW1 3038   3.234   3.371   0.057
  713SOL    HW2 3039   3.230   3.462   0.193
  714SOL     OW 3040   6.895   5.189   4.975
  714SOL    HW1 3041   6.801   5.189   5.010
  714SOL    HW2 3042   6.899   5.133   4.892
  715SOL     OW 3043   5.324   6.045   0.793
  715SOL    HW1 3044   5.245   6.057   0.854
  715SOL    HW2 3045   5.297   5.988   0.715
  716SOL     OW 3046   0.916   6.733   0.817
  716SOL    HW1 3047   0.906   6.734   0.917
  716SOL    HW2 3048   0.992   6.792   0.790
  717SOL     OW 3049   5.625   5.036   5.972
  717SOL    HW1 3050   5.573   4.954   5.996
  717SOL    HW2 3051   5.590   5.114   6.024
  718SOL     OW 3052   4.747   1.841   5.479
  718SOL    HW1 3053   4.805   1.767   5.447
  718SOL    HW2 3054   4.775   1.868   5.571
  719SOL     OW 3055   6.386   2.492   1.134
  719SOL    HW1 3056   6.461   2.510   1.070
  719SOL    HW2 3057   6.417   2.509   1.227
  720SOL     OW 3058   3.795   1.088   5.897
  720SOL    HW1 3059   3.849   1.010   5.865
  720SOL    HW2 3060   3.726   1.055   5.963
  721SOL     OW 3061   1.640   0.192   4.308
  721SOL    HW1 3062   1.725   0.138   4.303
  721SOL    HW2 3063   1.638   0.243   4.394
  722SOL     OW 3064   3.134   7.016   5.344
  722SOL    HW1 3065   3.167   6.964   5.265
  722SOL    HW2 3066   3.175   0.082   5.343
  723SOL     OW 3067   2.153   3.324   2.682
  723SOL    HW1 3068   2.193   3.363   2.599
  723SOL    HW2 3069   2.152   3.224   2.675
  724SOL     OW 3070   1.410   1.718   4.656
  724SOL    HW1 3071   1.412   1.749   4.751
  724SOL    HW2 3072   1.477   1.771   4.603
  725SOL     OW 3073   2.884   5.253   1.563
  725SOL    HW1 3074   2.910   5.325   1.628
  725SOL    HW2 3075   2.932   5.268   1.477
  726SOL     OW 3076   3.885   4.289   1.111
  726SOL    HW1 3077   3.898   4.221   1.039
  726SOL    HW2 3078   3.895   4.245   1.201
  727SOL     OW 3079   4.987   5.315   5.909
  727SOL    HW1 3080   5.061   5.311   5.842
  727SOL    HW2 3081   4.919   5.246   5.888
  728SOL     OW 3082   0.251   3.368   5.155
  728SOL    HW1 3083   0.175   3.376   5.089
  728SOL    HW2 3084   0.279   3.460   5.184
  729SOL     OW 3085   2.282   1.190   0.364
  729SOL    HW1 3086   2.187   1.211   0.341
  729SOL    HW2 3087   2.306   1.099   0.329
  730SOL     OW 3088   5.742   0.146   3.651
  730SOL    HW1 3089   5.842   0.150   3.663
  730SOL    HW2 3090   5.715   0.212   3.581
  731SOL     OW 3091   6.152   3.663   6.107
  731SOL    HW1 3092   6.241   3.620   6.126
  731SOL    HW2 3093   6.106   3.612   6.035
  732SOL     OW 3094   0.554   3.388   1.131
  732SOL    HW1 3095   0.604   3.462   1.086
  732SOL    HW2 3096   0.460   3.387   1.096
  733SOL     OW 3097   5.831   4.179   5.064
  733SOL    HW1 3098   5.807   4.261   5.116
  733SOL    HW2 3099   5.802   4.190   4.969
  734SOL     OW 3100   6.670   4.587   2.614
  734SOL    HW1 3101   6.628   4.565   2.526
  734SOL    HW2 3102   6.699   4.683   2.614
  735SOL     OW 3103   3.637   3.137   0.807
  735SOL    HW1 3104   3.625   3.182   0.718
  735SOL    HW2 3105   3.562   3.072   0.821
  736SOL     OW 3106   6.497   6.247   2.646
  736SOL    HW1 3107   6.407   6.211   2.621
  736SOL    HW2 3108   6.531   6.307   2.574
  737SOL     OW 3109   4.242   2.077   6.492
  737SOL    HW1 3110   4.236   2.026   6.578
  737SOL    HW2 3111   4.168   2.144   6.487
  738SOL     OW 3112   2.206   4.160   2.521
  738SOL    HW1 3113   2.172   4.071   2.550
  738SOL    HW2 3114   2.206   4.165   2.421
  739SOL     OW 3115   4.129   6.466   4.949
  739SOL    HW1 3116   4.195   6.532   4.986
  739SOL    HW2 3117   4.178   6.382   4.923
  740SOL     OW 3118   4.893   6.753   0.392
  740SOL    HW1 3119   4.861   6.658   0.386
  740SOL    HW2 3120   4.915   6.774   0.488
  741SOL     OW 3121   2.097   6.375   3.498
  741SOL    HW1 3122   2.071   6.353   3.592
  741SOL    HW2 3123   2.140   6.465   3.496
  742SOL     OW 3124   2.308   6.493   1.801
  742SOL    HW1 3125   2.209   6.478   1.799
  742SOL    HW2 3126   2.334   6.556   1.727
  743SOL     OW 3127   1.609   3.847   4.690
  743SOL    HW1 3128   1.636   3.752   4.710
  743SOL    HW2 3129   1.637   3.906   4.766
  744SOL     OW 3130   5.782   0.014   6.153
  744SOL    HW1 3131   5.874   7.008   6.127
  744SOL    HW2 3132   5.787   0.105   6.193
  745SOL     OW 3133   0.875   4.838   4.543
  745SOL    HW1 3134   0.904   4.802   4.632
  745SOL    HW2 3135   0.956   4.862   4.490
  746SOL     OW 3136   0.584   5.368   6.176
  746SOL    HW1 3137   0.629   5.364   6.087
  746SOL    HW2 3138   0.597   5.459   6.215
  747SOL     OW 3139   4.541   5.602   4.831
  747SOL    HW1 3140   4.485   5.684   4.843
  747SOL    HW2 3141   4.537   5.547   4.914
  748SOL     OW 3142   3.629   5.476   2.988
  748SOL    HW1 3143   3.564   5.552   2.985
  748SOL    HW2 3144   3.704   5.499   3.050
  749SOL     OW 3145   6.419   3.665   4.727
  749SOL    HW1 3146   6.335   3.704   4.689
  749SOL    HW2 3147   6.445   3.715   4.810
  750SOL     OW 3148   2.181   3.153   0.699
  750SOL    HW1 3149   2.218   3.099   0.624
  750SOL    HW2 3150   2.249   3.218   0.731
  751SOL     OW 3151   3.827   1.835   6.002
  751SOL    HW1 3152   3.831   1.736   6.015
  751SOL    HW2 3153   3.913   1.867   5.962
  752SOL     OW 3154   4.123   2.450   1.681
  752SOL    HW1 3155   4.039   2.418   1.724
  752SOL    HW2 3156   4.143   2.392   1.601
  753SOL     OW 3157   1.930   3.161   4.336
  753SOL    HW1 3158   1.934   3.240   4.274
  753SOL    HW2 3159   1.842   3.160   4.383
  754SOL     OW 3160   5.351   2.742   6.848
  754SOL    HW1 3161   5.341   2.828   6.798
  754SOL    HW2 3162   5.391   2.673   6.788
  755SOL     OW 3163   1.571   5.595   5.962
  755SOL    HW1 3164   1.517   5.520   6.003
  755SOL    HW2 3165   1.513   5.676   5.953
  756SOL     OW 3166   3.768   0.147   1.138
  756SOL    HW1 3167   3.697   0.216   1.154
  756SOL    HW2 3168   3.858   0.191   1.139
  757SOL     OW 3169   0.107   6.435   3.051
  757SOL    HW1 3170   0.081   6.404   2.960
  757SOL    HW2 3171   0.086   6.363   3.118
  758SOL     OW 3172   4.021   0.757   1.864
  758SOL    HW1 3173   4.098   0.710   1.820
  758SOL    HW2 3174   3.965   0.802   1.795
  759SOL     OW 3175   0.319   0.726   0.602
  759SOL    HW1 3176   0.361   0.674   0.528
  759SOL    HW2 3177   0.241   0.675   0.639
  760SOL     OW 3178   4.221   0.431   6.248
  760SOL    HW1 3179   4.302   0.410   6.302
  760SOL    HW2 3180   4.214   0.530   6.235
  761SOL     OW 3181   5.767   3.883   5.690
  761SOL    HW1 3182   5.768   3.794   5.645
  761SOL    HW2 3183   5.721   3.875   5.778
  762SOL     OW 3184   1.930   0.041   4.832
  762SOL    HW1 3185   1.846   0.070   4.784
  762SOL    HW2 3186   1.911   6.982   4.883
  763SOL     OW 3187   3.774   4.999   6.437
  763SOL    HW1 3188   3.834   5.018   6.515
  763SOL    HW2 3189   3.712   4.924   6.460
  764SOL     OW 3190   4.314   0.571   3.609
  764SOL    HW1 3191   4.274   0.535   3.693
  764SOL    HW2 3192   4.379   0.644   3.632
  765SOL     OW 3193   1.257   6.210   1.701
  765SOL    HW1 3194   1.354   6.219   1.724
  765SOL    HW2 3195   1.242   6.239   1.606
  766SOL     OW 3196   1.188   2.532   1.076
  766SOL    HW1 3197   1.127   2.610   1.095
  766SOL    HW2 3198   1.239   2.509   1.159
  767SOL     OW 3199   6.296   5.751   2.835
  767SOL    HW1 3200   6.339   5.676   2.784
  767SOL    HW2 3201   6.286   5.831   2.775
  768SOL     OW 3202   2.501   6.673   2.220
  768SOL    HW1 3203   2.493   6.615   2.301
  768SOL    HW2 3204   2.586   6.724   2.223
  769SOL     OW 3205   3.449   0.914   4.483
  769SOL    HW1 3206   3.448   0.976   4.562
  769SOL    HW2 3207   3.501   0.832   4.505
  770SOL     OW 3208   1.660   4.527   3.006
  770SOL    HW1 3209   1.739   4.552   2.950
  770SOL    HW2 3210   1.684   4.533   3.103
  771SOL     OW 3211   2.847   5.858   2.529
  771SOL    HW1 3212   2.805   5.880   2.441
  771SOL    HW2 3213   2.777   5.819   2.590
  772SOL     OW 3214   6.621   5.044   0.523
  772SOL    HW1 3215   6.525   5.051   0.496
  772SOL    HW2 3216   6.676   5.105   0.467
  773SOL     OW 3217   6.985   4.105   3.340
  773SOL    HW1 3218   6.976   4.006   3.355
  773SOL    HW2 3219   7.022   4.148   3.422
  774SOL     OW 3220   0.942   1.395   2.669
  774SOL    HW1 3221   0.989   1.470   2.622
  774SOL    HW2 3222   0.898   1.430   2.752
  775SOL     OW 3223   1.090   1.806   3.244
  775SOL    HW1 3224   1.005   1.754   3.240
  775SOL    HW2 3225   1.087   1.870   3.321
  776SOL     OW 3226   6.594   0.850   5.540
  776SOL    HW1 3227   6.604   0.823   5.636
  776SOL    HW2 3228   6.674   0.822   5.488
  777SOL     OW 3229   3.052   5.904   1.192
  777SOL    HW1 3230   3.055   5.999   1.161
  777SOL    HW2 3231   3.136   5.883   1.242
  778SOL     OW 3232   3.399   1.784   2.789
  778SOL    HW1 3233   3.317   1.727   2.794
  778SOL    HW2 3234   3.469   1.748   2.850
  779SOL     OW 3235   0.577   2.030   2.942
  779SOL    HW1 3236   0.651   2.064   3.000
  779SOL    HW2 3237   0.579   2.077   2.854
  780SOL     OW 3238   6.240   3.790   4.146
  780SOL    HW1 3239   6.270   3.866   4.088
  780SOL    HW2 3240   6.290   3.707   4.121
  781SOL     OW 3241   5.396   1.897   6.530
  781SOL    HW1 3242   5.416   1.899   6.627
  781SOL    HW2 3243   5.479   1.913   6.478
  782SOL     OW 3244   0.681   3.711   6.743
  782SOL    HW1 3245   0.616   3.783   6.768
  782SOL    HW2 3246   0.677   3.696   6.644
  783SOL     OW 3247   4.301   4.637   0.950
  783SOL    HW1 3248   4.324   4.664   0.856
  783SOL    HW2 3249   4.247   4.553   0.949
  784SOL     OW 3250   5.416   6.512   6.601
  784SOL    HW1 3251   5.470   6.592   6.627
  784SOL    HW2 3252   5.331   6.510   6.654
  785SOL     OW 3253   6.683   2.772   3.083
  785SOL    HW1 3254   6.593   2.814   3.068
  785SOL    HW2 3255   6.672   2.690   3.140
  786SOL     OW 3256   1.501   1.334   1.166
  786SOL    HW1 3257   1.488   1.392   1.247
  786SOL    HW2 3258   1.573   1.267   1.184
  787SOL     OW 3259   2.994   0.944   6.431
  787SOL    HW1 3260   2.928   0.987   6.369
  787SOL    HW2 3261   2.956   0.858   6.466
  788SOL     OW 3262   2.770   1.908   4.915
  788SOL    HW1 3263   2.823   1.984   4.954
  788SOL    HW2 3264   2.688   1.894   4.969
  789SOL     OW 3265   5.201   3.829   0.755
  789SOL    HW1 3266   5.158   3.743   0.786
  789SOL    HW2 3267   5.299   3.826   0.774
  790SOL     OW 3268   2.478   0.739   3.958
  790SOL    HW1 3269   2.571   0.705   3.952
  790SOL    HW2 3270   2.475   0.834   3.928
  791SOL     OW 3271   3.507   6.447   3.047
  791SOL    HW1 3272   3.446   6.478   2.974
  791SOL    HW2 3273   3.452   6.417   3.126
  792SOL     OW 3274   0.438   0.519   1.782
  792SOL    HW1 3275   0.493   0.589   1.736
  792SOL    HW2 3276   0.356   0.560   1.821
  793SOL     OW 3277   4.459   6.239   2.756
  793SOL    HW1 3278   4.418   6.181   2.686
  793SOL    HW2 3279   4.543   6.280   2.721
  794SOL     OW 3280   2.934   3.402   4.945
  794SOL    HW1 3281   2.847   3.377   4.986
  794SOL    HW2 3282   2.971   3.325   4.894
  795SOL     OW 3283   3.167   5.909   5.258
  795SOL    HW1 3284   3.135   5.998   5.223
  795SOL    HW2 3285   3.251   5.923   5.310
  796SOL     OW 3286   1.139   2.090   6.232
  796SOL    HW1 3287   1.227   2.045   6.250
  796SOL    HW2 3288   1.065   2.030   6.261
  797SOL     OW 3289   4.967   2.524   2.291
  797SOL    HW1 3290   4.898   2.587   2.256
  797SOL    HW2 3291   4.924   2.437   2.317
  798SOL     OW 3292   5.091   6.887   1.503
  798SOL    HW1 3293   5.042   6.972   1.526
  798SOL    HW2 3294   5.026   6.820   1.468
  799SOL     OW 3295   5.891   1.511   4.408
  799SOL    HW1 3296   5.944   1.435   4.445
  799SOL    HW2 3297   5.909   1.519   4.310
  800SOL     OW 3298   5.566   0.953   2.383
  800SOL    HW1 3299   5.636   0.978   2.450
  800SOL    HW2 3300   5.550   1.030   2.321
  801SOL     OW 3301   2.101   3.295   3.746
  801SOL    HW1 3302   2.002   3.289   3.733
  801SOL    HW2 3303   2.127   3.391   3.760
  802SOL     OW 3304   4.501   0.383   0.996
  802SOL    HW1 3305   4.405   0.398   0.972
  802SOL    HW2 3306   4.559   0.429   0.929
  803SOL     OW 3307   0.378   5.470   4.775
  803SOL    HW1 3308   0.313   5.407   4.732
  803SOL    HW2 3309   0.406   5.434   4.863
  804SOL     OW 3310   6.081   6.186   6.823
  804SOL    HW1 3311   6.093   6.235   6.736
  804SOL    HW2 3312   6.042   6.096   6.805
  805SOL     OW 3313   3.151   1.957   5.247
  805SOL    HW1 3314   3.122   2.039   5.296
  805SOL    HW2 3315   3.073   1.920   5.196
  806SOL     OW 3316   4.517   1.050   4.468
  806SOL    HW1 3317   4.422   1.070   4.447
  806SOL    HW2 3318   4.533   1.064   4.566
  807SOL     OW 3319   0.671   1.675   4.471
  807SOL    HW1 3320   0.636   1.762   4.506
  807SOL    HW2 3321   0.616   1.600   4.506
  808SOL     OW 3322   4.512   3.589   6.483
  808SOL    HW1 3323   4.495   3.506   6.430
  808SOL    HW2 3324   4.472   3.581   6.574
  809SOL     OW 3325   0.817   4.910   1.255
  809SOL    HW1 3326   0.765   4.951   1.330
  809SOL    HW2 3327   0.773   4.824   1.227
  810SOL     OW 3328   3.530   2.675   1.064
  810SOL    HW1 3329   3.581   2.596   1.099
  810SOL    HW2 3330   3.531   2.674   0.964
  811SOL     OW 3331   3.969   5.837   4.262
  811SOL    HW1 3332   4.035   5.903   4.298
  811SOL    HW2 3333   3.913   5.802   4.337
  812SOL     OW 3334   0.893   1.384   1.233
  812SOL    HW1 3335   0.871   1.372   1.136
  812SOL    HW2 3336   0.990   1.408   1.242
  813SOL     OW 3337   4.087   5.090   4.447
  813SOL    HW1 3338   4.155   5.149   4.405
  813SOL    HW2 3339   3.995   5.125   4.426
  814SOL     OW 3340   5.650   6.145   3.235
  814SOL    HW1 3341   5.708   6.098   3.168
  814SOL    HW2 3342   5.614   6.229   3.195
  815SOL     OW 3343   0.021   3.225   3.350
  815SOL    HW1 3344   6.997   3.280   3.282
  815SOL    HW2 3345   7.004   3.134   3.354
  816SOL     OW 3346   6.992   6.580   0.209
  816SOL    HW1 3347   0.063   6.577   0.179
  816SOL    HW2 3348   6.937   6.517   0.153
  817SOL     OW 3349   2.544   4.084   1.534
  817SOL    HW1 3350   2.473   4.043   1.477
  817SOL    HW2 3351   2.509   4.166   1.579
  818SOL     OW 3352   6.277   3.193   1.615
  818SOL    HW1 3353   6.269   3.208   1.714
  818SOL    HW2 3354   6.307   3.278   1.571
  819SOL     OW 3355   5.655   3.383   3.218
  819SOL    HW1 3356   5.594   3.411   3.292
  819SOL    HW2 3357   5.621   3.420   3.131
  820SOL     OW 3358   2.803   2.301   6.515
  820SOL    HW1 3359   2.818   2.369   6.443
  820SOL    HW2 3360   2.820   2.343   6.604
  821SOL     OW 3361   2.110   4.468   0.725
  821SOL    HW1 3362   2.195   4.429   0.690
  821SOL    HW2 3363   2.131   4.539   0.792
  822SOL     OW 3364   1.202   4.479   4.825
  822SOL    HW1 3365   1.192   4.568   4.780
  822SOL    HW2 3366   1.157   4.480   4.914
  823SOL     OW 3367   4.771   4.285   6.715
  823SOL    HW1 3368   4.846   4.320   6.771
  823SOL    HW2 3369   4.793   4.298   6.618
  824SOL     OW 3370   5.254   0.994   5.244
  824SOL    HW1 3371   5.353   0.986   5.234
  824SOL    HW2 3372   5.220   1.065   5.182
  825SOL     OW 3373   1.367   3.828   1.392
  825SOL    HW1 3374   1.293   3.813   1.458
  825SOL    HW2 3375   1.389   3.742   1.346
  826SOL     OW 3376   5.469   3.124   6.895
  826SOL    HW1 3377   5.423   3.112   6.983
  826SOL    HW2 3378   5.559   3.165   6.910
  827SOL     OW 3379   3.434   5.959   6.029
  827SOL    HW1 3380   3.448   5.884   5.963
  827SOL    HW2 3381   3.391   5.923   6.111
  828SOL     OW 3382   5.785   6.944   5.676
  828SOL    HW1 3383   5.734   6.861   5.701
  828SOL    HW2 3384   5.883   6.928   5.689
  829SOL     OW 3385   3.163   3.937   4.309
  829SOL    HW1 3386   3.116   3.999   4.371
  829SOL    HW2 3387   3.097   3.875   4.267
  830SOL     OW 3388   4.928   4.776   6.367
  830SOL    HW1 3389   5.019   4.776   6.327
  830SOL    HW2 3390   4.934   4.796   6.465
  831SOL     OW 3391   6.478   1.487   5.287
  831SOL    HW1 3392   6.429   1.401   5.268
  831SOL    HW2 3393   6.421   1.564   5.261
  832SOL     OW 3394   2.513   1.097   0.929
  832SOL    HW1 3395   2.569   1.067   0.852
  832SOL    HW2 3396   2.550   1.061   1.014
  833SOL     OW 3397   0.464   5.144   6.251
  833SOL    HW1 3398   0.493   5.237   6.232
  833SOL    HW2 3399   0.531   5.100   6.312
  834SOL     OW 3400   2.792   3.300   1.111
  834SOL    HW1 3401   2.871   3.349   1.075
  834SOL    HW2 3402   2.771   3.334   1.203
  835SOL     OW 3403   3.264   0.285   4.318
  835SOL    HW1 3404   3.245   0.199   4.365
  835SOL    HW2 3405   3.296   0.267   4.225
  836SOL     OW 3406   3.451   6.782   6.965
  836SOL    HW1 3407   3.431   6.686   6.944
  836SOL    HW2 3408   3.491   6.826   6.884
  837SOL     OW 3409   5.444   6.523   6.902
  837SOL    HW1 3410   5.350   6.510   6.872
  837SOL    HW2 3411   5.463   6.621   6.909
  838SOL     OW 3412   1.334   0.058   5.032
  838SOL    HW1 3413   1.383   0.008   5.103
  838SOL    HW2 3414   1.393   0.129   4.994
  839SOL     OW 3415   2.643   2.351   2.062
  839SOL    HW1 3416   2.603   2.382   1.976
  839SOL    HW2 3417   2.742   2.342   2.052
  840SOL     OW 3418   6.030   7.019   6.021
  840SOL    HW1 3419   6.070   6.941   5.972
  840SOL    HW2 3420   5.976   0.049   5.957
  841SOL     OW 3421   4.928   4.981   0.494
  841SOL    HW1 3422   4.943   5.028   0.581
  841SOL    HW2 3423   4.909   5.048   0.422
  842SOL     OW 3424   4.862   4.799   4.297
  842SOL    HW1 3425   4.930   4.872   4.306
  842SOL    HW2 3426   4.825   4.778   4.388
  843SOL     OW 3427   3.526   1.771   6.559
  843SOL    HW1 3428   3.608   1.714   6.566
  843SOL    HW2 3429   3.479   1.751   6.474
  844SOL     OW 3430   4.883   6.955   1.060
  844SOL    HW1 3431   4.834   0.011   1.024
  844SOL    HW2 3432   4.858   6.875   1.006
  845SOL     OW 3433   6.089   3.535   4.964
  845SOL    HW1 3434   6.088   3.501   4.871
  845SOL    HW2 3435   6.133   3.625   4.966
  846SOL     OW 3436   3.466   1.577   0.225
  846SOL    HW1 3437   3.527   1.577   0.305
  846SOL    HW2 3438   3.378   1.537   0.251
  847SOL     OW 3439   0.292   3.568   0.066
  847SOL    HW1 3440   0.283   3.590   6.993
  847SOL    HW2 3441   0.375   3.514   0.080
  848SOL     OW 3442   6.358   1.132   6.689
  848SOL    HW1 3443   6.277   1.099   6.736
  848SOL    HW2 3444   6.376   1.227   6.713
  849SOL     OW 3445   1.050   4.610   5.742
  849SOL    HW1 3446   1.072   4.534   5.803
  849SOL    HW2 3447   1.044   4.576   5.648
  850SOL     OW 3448   5.240   1.185   3.972
  850SOL    HW1 3449   5.191   1.112   4.019
  850SOL    HW2 3450   5.204   1.196   3.879
  851SOL     OW 3451   0.308   1.244   1.513
  851SOL    HW1 3452   0.297   1.227   1.611
  851SOL    HW2 3453   0.306   1.342   1.496
  852SOL     OW 3454   1.824   2.462   0.585
  852SOL    HW1 3455   1.864   2.391   0.527
  852SOL    HW2 3456   1.769   2.523   0.529
  853SOL     OW 3457   1.729   4.246   2.371
  853SOL    HW1 3458   1.748   4.180   2.298
  853SOL    HW2 3459   1.684   4.326   2.332
  854SOL     OW 3460   4.788   5.886   2.729
  854SOL    HW1 3461   4.785   5.921   2.635
  854SOL    HW2 3462   4.822   5.792   2.728
  855SOL     OW 3463   0.057   0.163   0.684
  855SOL    HW1 3464   0.113   0.242   0.661
  855SOL    HW2 3465   6.992   0.194   0.717
  856SOL     OW 3466   1.787   2.014   5.201
  856SOL    HW1 3467   1.697   2.042   5.169
  856SOL    HW2 3468   1.821   2.081   5.267
  857SOL     OW 3469   5.819   4.796   1.374
  857SOL    HW1 3470   5.783   4.724   1.433
  857SOL    HW2 3471   5.743   4.850   1.336
  858SOL     OW 3472   2.528   4.332   1.294
  858SOL    HW1 3473   2.439   4.374   1.315
  858SOL    HW2 3474   2.548   4.262   1.362
  859SOL     OW 3475   4.761   5.022   6.824
  859SOL    HW1 3476   4.746   5.076   6.906
  859SOL    HW2 3477   4.749   5.079   6.743
  860SOL     OW 3478   4.489   4.471   1.274
  860SOL    HW1 3479   4.446   4.404   1.335
  860SOL    HW2 3480   4.481   4.440   1.180
  861SOL     OW 3481   2.235   0.590   4.884
  861SOL    HW1 3482   2.275   0.655   4.819
  861SOL    HW2 3483   2.305   0.522   4.910
  862SOL     OW 3484   6.756   4.737   5.448
  862SOL    HW1 3485   6.843   4.783   5.430
  862SOL    HW2 3486   6.769   4.638   5.447
  863SOL     OW 3487   1.332   1.011   0.487
  863SOL    HW1 3488   1.393   0.936   0.461
  863SOL    HW2 3489   1.366   1.053   0.571
  864SOL     OW 3490   5.095   4.361   4.071
  864SOL    HW1 3491   5.180   4.406   4.043
  864SOL    HW2 3492   5.017   4.408   4.030
  865SOL     OW 3493   1.710   6.467   5.137
  865SOL    HW1 3494   1.616   6.455   5.168
  865SOL    HW2 3495   1.718   6.433   5.043
  866SOL     OW 3496   1.898   2.768   1.138
  866SOL    HW1 3497   1.820   2.827   1.116
  866SOL    HW2 3498   1.978   2.825   1.159
  867SOL     OW 3499   4.253   2.926   1.175
  867SOL    HW1 3500   4.304   2.850   1.215
  867SOL    HW2 3501   4.196   2.892   1.100
  868SOL     OW 3502   5.705   6.126   1.180
  868SOL    HW1 3503   5.744   6.214   1.205
  868SOL    HW2 3504   5.657   6.087   1.259
  869SOL     OW 3505   6.984   5.443   2.860
  869SOL    HW1 3506   6.949   5.423   2.768
  869SOL    HW2 3507   6.968   5.363   2.919
  870SOL     OW 3508   5.723   3.592   0.059
  870SOL    HW1 3509   5.642   3.623   0.010
  870SOL    HW2 3510   5.698   3.521   0.125
  871SOL     OW 3511   5.632   3.630   2.087
  871SOL    HW1 3512   5.713   3.688   2.099
  871SOL    HW2 3513   5.569   3.646   2.163
  872SOL     OW 3514   6.222   4.146   4.084
  872SOL    HW1 3515   6.202   4.126   4.180
  872SOL    HW2 3516   6.141   4.130   4.029
  873SOL     OW 3517   5.135   0.164   3.980
  873SOL    HW1 3518   5.092   0.250   4.006
  873SOL    HW2 3519   5.138   0.157   3.880
  874SOL     OW 3520   1.490   4.425   5.397
  874SOL    HW1 3521   1.562   4.460   5.337
  874SOL    HW2 3522   1.530   4.397   5.484
  875SOL     OW 3523   4.350   3.652   1.404
  875SOL    HW1 3524   4.410   3.702   1.467
  875SOL    HW2 3525   4.369   3.554   1.410
  876SOL     OW 3526   0.308   5.547   3.286
  876SOL    HW1 3527   0.251   5.575   3.363
  876SOL    HW2 3528   0.348   5.627   3.242
  877SOL     OW 3529   3.567   4.896   6.932
  877SOL    HW1 3530   3.662   4.865   6.942
  877SOL    HW2 3531   3.524   4.902   7.021
  878SOL     OW 3532   4.341   6.391   6.256
  878SOL    HW1 3533   4.386   6.431   6.176
  878SOL    HW2 3534   4.297   6.305   6.230
  879SOL     OW 3535   3.648   1.995   2.177
  879SOL    HW1 3536   3.679   2.075   2.126
  879SOL    HW2 3537   3.549   1.986   2.169
  880SOL     OW 3538   3.023   4.729   0.136
  880SOL    HW1 3539   3.083   4.760   0.062
  880SOL    HW2 3540   2.934   4.705   0.098
  881SOL     OW 3541   4.159   4.609   5.345
  881SOL    HW1 3542   4.217   4.555   5.284
  881SOL    HW2 3543   4.193   4.603   5.439
  882SOL     OW 3544   1.473   1.266   4.072
  882SOL    HW1 3545   1.543   1.226   4.131
  882SOL    HW2 3546   1.389   1.279   4.125
  883SOL     OW 3547   4.819   5.354   4.926
  883SOL    HW1 3548   4.768   5.317   4.849
  883SOL    HW2 3549   4.859   5.279   4.979
  884SOL     OW 3550   0.364   3.599   1.720
  884SOL    HW1 3551   0.348   3.506   1.688
  884SOL    HW2 3552   0.277   3.643   1.743
  885SOL     OW 3553   5.354   5.842   6.818
  885SOL    HW1 3554   5.341   5.904   6.896
  885SOL    HW2 3555   5.442   5.862   6.775
  886SOL     OW 3556   4.098   0.322   0.517
  886SOL    HW1 3557   4.109   0.421   0.525
  886SOL    HW2 3558   4.108   0.295   0.421
  887SOL     OW 3559   4.604   6.664   4.778
  887SOL    HW1 3560   4.698   6.685   4.751
  887SOL    HW2 3561   4.571   6.732   4.844
  888SOL     OW 3562   6.182   6.523   3.734
  888SOL    HW1 3563   6.223   6.604   3.775
  888SOL    HW2 3564   6.253   6.454   3.718
  889SOL     OW 3565   0.542   6.532   6.467
  889SOL    HW1 3566   0.578   6.541   6.374
  889SOL    HW2 3567   0.577   6.606   6.523
  890SOL     OW 3568   2.719   4.735   2.084
  890SOL    HW1 3569   2.786   4.681   2.032
  890SOL    HW2 3570   2.667   4.792   2.021
  891SOL     OW 3571   5.646   3.757   1.497
  891SOL    HW1 3572   5.636   3.792   1.590
  891SOL    HW2 3573   5.570   3.696   1.476
  892SOL     OW 3574   3.707   4.049   0.614
  892SOL    HW1 3575   3.724   4.124   0.550
  892SOL    HW2 3576   3.649   3.980   0.570
  893SOL     OW 3577   2.586   1.269   1.859
  893SOL    HW1 3578   2.672   1.259   1.809
  893SOL    HW2 3579   2.511   1.284   1.795
  894SOL     OW 3580   1.908   3.835   4.230
  894SOL    HW1 3581   1.847   3.868   4.302
  894SOL    HW2 3582   1.987   3.896   4.223
  895SOL     OW 3583   2.131   6.334   4.759
  895SOL    HW1 3584   2.154   6.401   4.830
  895SOL    HW2 3585   2.131   6.242   4.799
  896SOL     OW 3586   5.269   5.957   2.754
  896SOL    HW1 3587   5.246   5.869   2.796
  896SOL    HW2 3588   5.364   5.957   2.725
  897SOL     OW 3589   5.038   1.232   0.429
  897SOL    HW1 3590   4.959   1.238   0.368
  897SOL    HW2 3591   5.009   1.204   0.520
  898SOL     OW 3592   4.338   6.136   3.267
  898SOL    HW1 3593   4.244   6.119   3.296
  898SOL    HW2 3594   4.353   6.095   3.177
  899SOL     OW 3595   0.753   5.042   6.927
  899SOL    HW1 3596   0.812   5.055   7.007
  899SOL    HW2 3597   0.738   4.945   6.911
  900SOL     OW 3598   5.248   5.914   1.483
  900SOL    HW1 3599   5.312   5.862   1.540
  900SOL    HW2 3600   5.266   6.012   1.493
  901SOL     OW 3601   0.132   1.291   4.781
  901SOL    HW1 3602   0.213   1.232   4.774
  901SOL    HW2 3603   0.105   1.299   4.876
  902SOL     OW 3604   0.624   1.346   6.057
  902SOL    HW1 3605   0.668   1.408   6.121
  902SOL    HW2 3606   0.547   1.393   6.013
  903SOL     OW 3607   6.465   3.993   6.854
  903SOL    HW1 3608   6.459   4.090   6.876
  903SOL    HW2 3609   6.527   3.980   6.776
  904SOL     OW 3610   1.778   2.240   4.266
  904SOL    HW1 3611   1.733   2.193   4.190
  904SOL    HW2 3612   1.732   2.217   4.352
  905SOL     OW 3613   4.667   3.012   6.428
  905SOL    HW1 3614   4.678   2.930   6.372
  905SOL    HW2 3615   4.583   3.059   6.401
  906SOL     OW 3616   0.511   3.910   6.299
  906SOL    HW1 3617   0.458   3.971   6.240
  906SOL    HW2 3618   0.516   3.819   6.257
  907SOL     OW 3619   5.675   3.063   3.724
  907SOL    HW1 3620   5.742   3.103   3.661
  907SOL    HW2 3621   5.635   3.135   3.780
  908SOL     OW 3622   1.602   6.687   3.950
  908SOL    HW1 3623   1.523   6.733   3.991
  908SOL    HW2 3624   1.667   6.662   4.021
  909SOL     OW 3625   2.585   1.127   1.248
  909SOL    HW1 3626   2.516   1.075   1.298
  909SOL    HW2 3627   2.632   1.189   1.311
  910SOL     OW 3628   2.374   0.498   0.446
  910SOL    HW1 3629   2.358   0.589   0.408
  910SOL    HW2 3630   2.349   0.429   0.378
  911SOL     OW 3631   6.478   5.518   1.401
  911SOL    HW1 3632   6.437   5.572   1.327
  911SOL    HW2 3633   6.464   5.564   1.488
  912SOL     OW 3634   6.840   0.592   5.231
  912SOL    HW1 3635   6.768   0.536   5.271
  912SOL    HW2 3636   6.806   0.637   5.149
  913SOL     OW 3637   2.248   0.748   3.702
  913SOL    HW1 3638   2.156   0.711   3.716
  913SOL    HW2 3639   2.295   0.695   3.631
  914SOL     OW 3640   2.631   5.696   5.618
  914SOL    HW1 3641   2.600   5.713   5.712
  914SOL    HW2 3642   2.730   5.702   5.615
  915SOL     OW 3643   0.933   3.594   1.176
  915SOL    HW1 3644   0.979   3.680   1.197
  915SOL    HW2 3645   0.940   3.532   1.255
  916SOL     OW 3646   1.523   2.454   2.686
  916SOL    HW1 3647   1.584   2.375   2.681
  916SOL    HW2 3648   1.430   2.424   2.708
  917SOL     OW 3649   4.212   0.620   1.729
  917SOL    HW1 3650   4.223   0.677   1.647
  917SOL    HW2 3651   4.226   0.524   1.705
  918SOL     OW 3652   2.592   5.988   0.031
  918SOL    HW1 3653   2.572   5.995   6.958
  918SOL    HW2 3654   2.616   6.079   0.067
  919SOL     OW 3655   1.160   6.134   1.950
  919SOL    HW1 3656   1.212   6.168   1.872
  919SOL    HW2 3657   1.191   6.179   2.034
  920SOL     OW 3658   1.727   0.259   2.709
  920SOL    HW1 3659   1.633   0.254   2.678
  920SOL    HW2 3660   1.768   0.167   2.706
  921SOL     OW 3661   5.117   4.694   3.891
  921SOL    HW1 3662   5.121   4.655   3.800
  921SOL    HW2 3663   5.028   4.675   3.933
  922SOL     OW 3664   3.463   2.552   6.559
  922SOL    HW1 3665   3.484   2.635   6.507
  922SOL    HW2 3666   3.406   2.492   6.503
  923SOL     OW 3667   3.104   5.691   0.709
  923SOL    HW1 3668   3.076   5.656   0.620
  923SOL    HW2 3669   3.201   5.713   0.708
  924SOL     OW 3670   5.447   3.578   2.308
  924SOL    HW1 3671   5.359   3.536   2.288
  924SOL    HW2 3672   5.441   3.628   2.395
  925SOL     OW 3673   6.790   1.649   5.565
  925SOL    HW1 3674   6.749   1.571   5.517
  925SOL    HW2 3675   6.881   1.667   5.527
  926SOL     OW 3676   5.894   0.753   6.732
  926SOL    HW1 3677   5.852   0.832   6.778
  926SOL    HW2 3678   5.916   0.777   6.638
  927SOL     OW 3679   5.392   4.225   4.254
  927SOL    HW1 3680   5.340   4.227   4.168
  927SOL    HW2 3681   5.490   4.228   4.233
  928SOL     OW 3682   2.311   0.339   0.666
  928SOL    HW1 3683   2.217   0.312   0.645
  928SOL    HW2 3684   2.346   0.400   0.595
  929SOL     OW 3685   7.003   2.245   1.061
  929SOL    HW1 3686   6.929   2.311   1.042
  929SOL    HW2 3687   7.007   2.178   0.987
  930SOL     OW 3688   6.614   5.629   4.618
  930SOL    HW1 3689   6.628   5.567   4.541
  930SOL    HW2 3690   6.615   5.577   4.703
  931SOL     OW 3691   0.093   3.855   3.830
  931SOL    HW1 3692   0.004   3.849   3.874
  931SOL    HW2 3693   0.160   3.891   3.895
  932SOL     OW 3694   2.864   6.676   1.561
  932SOL    HW1 3695   2.791   6.704   1.623
  932SOL    HW2 3696   2.830   6.678   1.467
  933SOL     OW 3697   1.009   5.414   2.137
  933SOL    HW1 3698   0.993   5.459   2.225
  933SOL    HW2 3699   0.922   5.384   2.098
  934SOL     OW 3700   2.378   0.905   4.375
  934SOL    HW1 3701   2.341   0.863   4.292
  934SOL    HW2 3702   2.341   0.858   4.456
  935SOL     OW 3703   5.362   3.410   5.464
  935SOL    HW1 3704   5.385   3.418   5.561
  935SOL    HW2 3705   5.288   3.343   5.453
  936SOL     OW 3706   1.243   0.041   6.473
  936SOL    HW1 3707   1.149   0.030   6.442
  936SOL    HW2 3708   1.302   0.058   6.394
  937SOL     OW 3709   5.221   2.091   5.327
  937SOL    HW1 3710   5.176   2.095   5.238
  937SOL    HW2 3711   5.232   1.996   5.355
  938SOL     OW 3712   0.127   4.856   6.206
  938SOL    HW1 3713   0.123   4.926   6.278
  938SOL    HW2 3714   0.221   4.850   6.172
  939SOL     OW 3715   5.084   1.294   5.540
  939SOL    HW1 3716   5.128   1.351   5.471
  939SOL    HW2 3717   5.078   1.200   5.507
  940SOL     OW 3718   6.717   2.883   2.670
  940SOL    HW1 3719   6.671   2.800   2.702
  940SOL    HW2 3720   6.815   2.865   2.660
  941SOL     OW 3721   6.430   0.461   4.045
  941SOL    HW1 3722   6.348   0.415   4.011
  941SOL    HW2 3723   6.462   0.526   3.976
  942SOL     OW 3724   5.077   0.800   4.882
  942SOL    HW1 3725   5.023   0.870   4.929
  942SOL    HW2 3726   5.139   0.845   4.817
  943SOL     OW 3727   0.761   3.166   3.307
  943SOL    HW1 3728   0.730   3.098   3.241
  943SOL    HW2 3729   0.861   3.161   3.317
  944SOL     OW 3730   6.239   3.025   6.432
  944SOL    HW1 3731   6.215   3.054   6.525
  944SOL    HW2 3732   6.224   2.926   6.423
  945SOL     OW 3733   6.421   4.450   5.259
  945SOL    HW1 3734   6.378   4.530   5.301
  945SOL    HW2 3735   6.435   4.379   5.327
  946SOL     OW 3736   5.753   2.461   6.574
  946SOL    HW1 3737   5.764   2.414   6.486
  946SOL    HW2 3738   5.761   2.394   6.648
  947SOL     OW 3739   3.017   3.560   5.154
  947SOL    HW1 3740   2.979   3.496   5.088
  947SOL    HW2 3741   2.969   3.648   5.147
  948SOL     OW 3742   4.238   1.261   0.740
  948SOL    HW1 3743   4.317   1.252   0.679
  948SOL    HW2 3744   4.238   1.186   0.806
  949SOL     OW 3745   6.885   5.956   6.449
  949SOL    HW1 3746   6.868   5.961   6.548
  949SOL    HW2 3747   6.829   6.024   6.402
  950SOL     OW 3748   4.403   5.001   2.774
  950SOL    HW1 3749   4.323   5.050   2.808
  950SOL    HW2 3750   4.383   4.963   2.684
  951SOL     OW 3751   1.863   0.677   1.818
  951SOL    HW1 3752   1.817   0.766   1.814
  951SOL    HW2 3753   1.899   0.654   1.727
  952SOL     OW 3754   5.700   1.278   1.933
  952SOL    HW1 3755   5.658   1.362   1.968
  952SOL    HW2 3756   5.793   1.271   1.968
  953SOL     OW 3757   5.072   5.437   5.145
  953SOL    HW1 3758   5.047   5.383   5.225
  953SOL    HW2 3759   5.040   5.531   5.156
  954SOL     OW 3760   5.351   6.903   0.646
  954SOL    HW1 3761   5.302   6.981   0.608
  954SOL    HW2 3762   5.426   6.877   0.584
  955SOL     OW 3763   0.948   5.275   3.647
  955SOL    HW1 3764   1.009   5.198   3.669
  955SOL    HW2 3765   0.987   5.326   3.571
  956SOL     OW 3766   0.579   2.121   2.243
  956SOL    HW1 3767   0.525   2.164   2.170
  956SOL    HW2 3768   0.673   2.108   2.211
  957SOL     OW 3769   1.473   4.627   4.487
  957SOL    HW1 3770   1.534   4.564   4.536
  957SOL    HW2 3771   1.496   4.721   4.509
  958SOL     OW 3772   4.847   2.586   1.125
  958SOL    HW1 3773   4.801   2.503   1.094
  958SOL    HW2 3774   4.868   2.579   1.222
  959SOL     OW 3775   2.658   4.830   3.231
  959SOL    HW1 3776   2.590   4.846   3.159
  959SOL    HW2 3777   2.745   4.805   3.189
  960SOL     OW 3778   0.284   5.950   4.189
  960SOL    HW1 3779   0.320   5.943   4.097
  960SOL    HW2 3780   0.360   5.961   4.254
  961SOL     OW 3781   4.884   6.428   3.167
  961SOL    HW1 3782   4.811   6.382   3.117
  961SOL    HW2 3783   4.933   6.491   3.106
  962SOL     OW 3784   1.360   1.273   3.798
  962SOL    HW1 3785   1.369   1.252   3.895
  962SOL    HW2 3786   1.383   1.192   3.744
  963SOL     OW 3787   5.885   1.024   6.490
  963SOL    HW1 3788   5.909   0.929   6.467
  963SOL    HW2 3789   5.786   1.034   6.486
  964SOL     OW 3790   6.221   3.321   0.819
  964SOL    HW1 3791   6.204   3.404   0.871
  964SOL    HW2 3792   6.201   3.336   0.723
  965SOL     OW 3793   5.491   1.918   0.786
  965SOL    HW1 3794   5.480   1.851   0.713
  965SOL    HW2 3795   5.532   1.874   0.866
  966SOL     OW 3796   6.316   1.773   2.117
  966SOL    HW1 3797   6.346   1.845   2.054
  966SOL    HW2 3798   6.217   1.761   2.110
  967SOL     OW 3799   1.633   5.371   0.763
  967SOL    HW1 3800   1.674   5.452   0.721
  967SOL    HW2 3801   1.581   5.398   0.844
  968SOL     OW 3802   4.761   2.611   1.783
  968SOL    HW1 3803   4.826   2.654   1.720
  968SOL    HW2 3804   4.694   2.558   1.731
  969SOL     OW 3805   4.193   5.861   6.079
  969SOL    HW1 3806   4.163   5.902   6.165
  969SOL    HW2 3807   4.261   5.790   6.097
  970SOL     OW 3808   4.702   1.218   4.996
  970SOL    HW1 3809   4.784   1.194   5.048
  970SOL    HW2 3810   4.709   1.313   4.965
  971SOL     OW 3811   0.559   1.496   3.160
  971SOL    HW1 3812   0.631   1.511   3.092
  971SOL    HW2 3813   0.570   1.404   3.200
  972SOL     OW 3814   5.748   3.544   1.179
  972SOL    HW1 3815   5.805   3.596   1.242
  972SOL    HW2 3816   5.729   3.454   1.218
  973SOL     OW 3817   0.346   4.718   6.172
  973SOL    HW1 3818   0.278   4.671   6.228
  973SOL    HW2 3819   0.417   4.652   6.145
  974SOL     OW 3820   4.398   0.725   2.102
  974SOL    HW1 3821   4.418   0.677   2.017
  974SOL    HW2 3822   4.319   0.785   2.089
  975SOL     OW 3823   1.624   5.707   6.774
  975SOL    HW1 3824   1.584   5.678   6.861
  975SOL    HW2 3825   1.598   5.642   6.702
  976SOL     OW 3826   6.289   3.046   2.925
  976SOL    HW1 3827   6.366   3.092   2.880
  976SOL    HW2 3828   6.249   2.980   2.863
  977SOL     OW 3829   2.388   1.289   3.899
  977SOL    HW1 3830   2.388   1.386   3.920
  977SOL    HW2 3831   2.481   1.254   3.904
  978SOL     OW 3832   4.880   4.100   5.287
  978SOL    HW1 3833   4.911   4.149   5.205
  978SOL    HW2 3834   4.866   4.004   5.265
  979SOL     OW 3835   6.551   1.607   2.889
  979SOL    HW1 3836   6.548   1.546   2.968
  979SOL    HW2 3837   6.645   1.615   2.856
  980SOL     OW 3838   4.961   1.724   3.391
  980SOL    HW1 3839   4.907   1.704   3.473
  980SOL    HW2 3840   4.923   1.803   3.345
  981SOL     OW 3841   1.564   1.483   5.026
  981SOL    HW1 3842   1.559   1.572   5.071
  981SOL    HW2 3843   1.587   1.495   4.930
  982SOL     OW 3844   2.422   2.424   3.929
  982SOL    HW1 3845   2.322   2.421   3.934
  982SOL    HW2 3846   2.450   2.486   3.856
  983SOL     OW 3847   6.033   2.498   3.342
  983SOL    HW1 3848   6.051   2.498   3.244
  983SOL    HW2 3849   6.120   2.507   3.392
  984SOL     OW 3850   3.824   0.604   4.289
  984SOL    HW1 3851   3.892   0.670   4.319
  984SOL    HW2 3852   3.816   0.605   4.190
  985SOL     OW 3853   5.210   4.788   6.367
  985SOL    HW1 3854   5.249   4.877   6.390
  985SOL    HW2 3855   5.275   4.735   6.313
  986SOL     OW 3856   5.435   5.359   6.988
  986SOL    HW1 3857   5.513   5.370   6.928
  986SOL    HW2 3858   5.462   5.307   0.045
  987SOL     OW 3859   4.273   6.080   1.189
  987SOL    HW1 3860   4.343   6.047   1.252
  987SOL    HW2 3861   4.308   6.076   1.095
  988SOL     OW 3862   3.919   2.837   1.758
  988SOL    HW1 3863   3.852   2.763   1.751
  988SOL    HW2 3864   4.011   2.800   1.742
  989SOL     OW 3865   0.185   0.914   5.417
  989SOL    HW1 3866   0.125   0.952   5.487
  989SOL    HW2 3867   0.198   0.981   5.344
  990SOL     OW 3868   4.705   0.297   2.987
  990SOL    HW1 3869   4.629   0.341   2.941
  990SOL    HW2 3870   4.760   0.365   3.036
  991SOL     OW 3871   2.097   2.350   5.142
  991SOL    HW1 3872   2.162   2.409   5.188
  991SOL    HW2 3873   2.077   2.386   5.051
  992SOL     OW 3874   0.815   3.997   1.127
  992SOL    HW1 3875   0.826   3.990   1.227
  992SOL    HW2 3876   0.904   4.006   1.084
  993SOL     OW 3877   1.830   5.706   2.544
  993SOL    HW1 3878   1.850   5.712   2.446
  993SOL    HW2 3879   1.787   5.619   2.565
  994SOL     OW 3880   3.588   3.650   2.669
  994SOL    HW1 3881   3.680   3.689   2.670
  994SOL    HW2 3882   3.580   3.584   2.594
  995SOL     OW 3883   2.857   1.862   6.242
  995SOL    HW1 3884   2.940   1.819   6.207
  995SOL    HW2 3885   2.835   1.942   6.187
  996SOL     OW 3886   1.564   4.032   4.056
  996SOL    HW1 3887   1.622   3.954   4.035
  996SOL    HW2 3888   1.554   4.041   4.155
  997SOL     OW 3889   6.607   0.662   1.452
  997SOL    HW1 3890   6.637   0.599   1.523
  997SOL    HW2 3891   6.613   0.618   1.362
  998SOL     OW 3892   4.701   6.747   3.961
  998SOL    HW1 3893   4.734   6.680   4.027
  998SOL    HW2 3894   4.734   6.722   3.870
  999SOL     OW 3895   5.624   4.921   1.227
  999SOL    HW1 3896   5.554   4.850   1.218
  999SOL    HW2 3897   5.603   4.996   1.165
 1000SOL     OW 3898   1.147   1.086   2.376
 1000SOL    HW1 3899   1.211   1.160   2.399
 1000SOL    HW2 3900   1.113   1.098   2.283
 1001SOL     OW 3901   6.073   6.787   0.038
 1001SOL    HW1 3902   5.985   6.813   7.022
 1001SOL    HW2 3903   6.136   6.865   0.032
 1002SOL     OW 3904   6.206   1.836   6.590
 1002SOL    HW1 3905   6.196   1.928   6.628
 1002SOL    HW2 3906   6.272   1.784   6.644
 1003SOL     OW 3907   2.274   6.621   2.089
 1003SOL    HW1 3908   2.287   6.569   2.004
 1003SOL    HW2 3909   2.363   6.645   2.127
 1004SOL     OW 3910   6.942   0.501   1.169
 1004SOL    HW1 3911   6.973   0.498   1.074
 1004SOL    HW2 3912   6.859   0.557   1.176
 1005SOL     OW 3913   0.302   1.427   3.094
 1005SOL    HW1 3914   0.311   1.375   3.009
 1005SOL    HW2 3915   0.391   1.467   3.119
 1006SOL     OW 3916   1.790   5.877   1.759
 1006SOL    HW1 3917   1.840   5.879   1.672
 1006SOL    HW2 3918   1.738   5.792   1.765
 1007SOL     OW 3919   6.043   0.594   4.100
 1007SOL    HW1 3920   5.955   0.639   4.111
 1007SOL    HW2 3921   6.112   0.662   4.076
 1008SOL     OW 3922   1.927   3.097   4.710
 1008SOL    HW1 3923   1.927   2.997   4.717
 1008SOL    HW2 3924   2.019   3.132   4.731
 1009SOL     OW 3925   0.329   6.375   4.259
 1009SOL    HW1 3926   0.368   6.283   4.256
 1009SOL    HW2 3927   0.403   6.442   4.274
 1010SOL     OW 3928   3.426   2.190   6.325
 1010SOL    HW1 3929   3.497   2.158   6.387
 1010SOL    HW2 3930   3.400   2.283   6.348
 1011SOL     OW 3931   2.996   5.182   2.635
 1011SOL    HW1 3932   2.962   5.100   2.681
 1011SOL    HW2 3933   3.065   5.156   2.567
 1012SOL     OW 3934   6.761   6.294   0.343
 1012SOL    HW1 3935   6.812   6.365   0.391
 1012SOL    HW2 3936   6.821   6.247   0.278
 1013SOL     OW 3937   0.371   1.217   6.221
 1013SOL    HW1 3938   0.392   1.217   6.124
 1013SOL    HW2 3939   0.272   1.228   6.235
 1014SOL     OW 3940   5.257   5.291   6.783
 1014SOL    HW1 3941   5.277   5.194   6.765
 1014SOL    HW2 3942   5.318   5.325   6.855
 1015SOL     OW 3943   2.012   6.776   5.247
 1015SOL    HW1 3944   1.970   6.756   5.159
 1015SOL    HW2 3945   2.003   6.874   5.267
 1016SOL     OW 3946   2.532   3.592   0.525
 1016SOL    HW1 3947   2.437   3.622   0.533
 1016SOL    HW2 3948   2.570   3.625   0.439
 1017SOL     OW 3949   4.494   2.722   0.727
 1017SOL    HW1 3950   4.546   2.752   0.807
 1017SOL    HW2 3951   4.541   2.645   0.684
 1018SOL     OW 3952   1.682   3.262   3.758
 1018SOL    HW1 3953   1.692   3.350   3.804
 1018SOL    HW2 3954   1.753   3.252   3.689
 1019SOL     OW 3955   1.562   0.825   0.478
 1019SOL    HW1 3956   1.568   0.790   0.572
 1019SOL    HW2 3957   1.647   0.869   0.453
 1020SOL     OW 3958   1.304   6.981   1.175
 1020SOL    HW1 3959   1.240   0.032   1.193
 1020SOL    HW2 3960   1.337   6.945   1.262
 1021SOL     OW 3961   5.889   0.591   1.186
 1021SOL    HW1 3962   5.892   0.666   1.253
 1021SOL    HW2 3963   5.882   0.629   1.094
 1022SOL     OW 3964   3.666   4.525   6.212
 1022SOL    HW1 3965   3.628   4.467   6.141
 1022SOL    HW2 3966   3.650   4.483   6.301
 1023SOL     OW 3967   6.287   0.153   1.763
 1023SOL    HW1 3968   6.311   0.204   1.680
 1023SOL    HW2 3969   6.244   0.067   1.738
 1024SOL     OW 3970   6.310   3.181   3.850
 1024SOL    HW1 3971   6.354   3.091   3.843
 1024SOL    HW2 3972   6.244   3.192   3.776
 1025SOL     OW 3973   3.399   4.284   0.846
 1025SOL    HW1 3974   3.454   4.269   0.927
 1025SOL    HW2 3975   3.457   4.279   0.764
 1026SOL     OW 3976   1.704   2.042   1.392
 1026SOL    HW1 3977   1.690   2.135   1.427
 1026SOL    HW2 3978   1.754   1.989   1.461
 1027SOL     OW 3979   2.638   6.324   1.092
 1027SOL    HW1 3980   2.566   6.381   1.132
 1027SOL    HW2 3981   2.637   6.234   1.134
 1028SOL     OW 3982   4.231   5.850   0.208
 1028SOL    HW1 3983   4.156   5.813   0.262
 1028SOL    HW2 3984   4.195   5.905   0.133
 1029SOL     OW 3985   2.080   0.290   0.350
 1029SOL    HW1 3986   2.072   0.243   0.437
 1029SOL    HW2 3987   2.067   0.389   0.364
 1030SOL     OW 3988   3.791   3.064   1.755
 1030SOL    HW1 3989   3.829   2.971   1.754
 1030SOL    HW2 3990   3.707   3.067   1.701
 1031SOL     OW 3991   4.958   5.500   0.484
 1031SOL    HW1 3992   4.929   5.520   0.391
 1031SOL    HW2 3993   4.880   5.507   0.546
 1032SOL     OW 3994   1.832   1.918   4.614
 1032SOL    HW1 3995   1.857   1.996   4.556
 1032SOL    HW2 3996   1.897   1.912   4.690
 1033SOL     OW 3997   1.942   6.679   1.618
 1033SOL    HW1 3998   1.898   6.758   1.574
 1033SOL    HW2 3999   1.974   6.615   1.548
 1034SOL     OW 4000   1.257   5.712   5.121
 1034SOL    HW1 4001   1.174   5.761   5.094
 1034SOL    HW2 4002   1.305   5.765   5.191
 1035SOL     OW 4003   2.598   1.805   3.558
 1035SOL    HW1 4004   2.613   1.845   3.648
 1035SOL    HW2 4005   2.669   1.737   3.540
 1036SOL     OW 4006   3.556   0.320   1.133
 1036SOL    HW1 4007   3.513   0.397   1.085
 1036SOL    HW2 4008   3.535   0.325   1.230
 1037SOL     OW 4009   2.200   0.903   1.772
 1037SOL    HW1 4010   2.214   0.812   1.810
 1037SOL    HW2 4011   2.169   0.965   1.844
 1038SOL     OW 4012   1.136   0.764   5.792
 1038SOL    HW1 4013   1.138   0.843   5.853
 1038SOL    HW2 4014   1.053   0.767   5.736
 1039SOL     OW 4015   4.197   2.888   5.719
 1039SOL    HW1 4016   4.214   2.807   5.775
 1039SOL    HW2 4017   4.099   2.895   5.700
 1040SOL     OW 4018   5.060   2.919   2.387
 1040SOL    HW1 4019   5.073   3.018   2.385
 1040SOL    HW2 4020   5.097   2.879   2.304
 1041SOL     OW 4021   6.480   0.082   4.030
 1041SOL    HW1 4022   6.532   0.014   4.082
 1041SOL    HW2 4023   6.441   0.149   4.093
 1042SOL     OW 4024   3.468   4.954   2.226
 1042SOL    HW1 4025   3.527   4.874   2.231
 1042SOL    HW2 4026   3.381   4.935   2.271
 1043SOL     OW 4027   4.685   1.119   5.482
 1043SOL    HW1 4028   4.686   1.185   5.557
 1043SOL    HW2 4029   4.676   1.027   5.520
 1044SOL     OW 4030   4.662   4.218   1.757
 1044SOL    HW1 4031   4.642   4.137   1.703
 1044SOL    HW2 4032   4.578   4.248   1.804
 1045SOL     OW 4033   2.617   6.573   1.921
 1045SOL    HW1 4034   2.549   6.571   1.995
 1045SOL    HW2 4035   2.687   6.502   1.938
 1046SOL     OW 4036   2.019   0.122   0.119
 1046SOL    HW1 4037   2.051   0.214   0.140
 1046SOL    HW2 4038   1.935   0.104   0.170
 1047SOL     OW 4039   1.134   6.167   2.707
 1047SOL    HW1 4040   1.229   6.169   2.737
 1047SOL    HW2 4041   1.130   6.144   2.610
 1048SOL     OW 4042   4.717   5.616   5.445
 1048SOL    HW1 4043   4.749   5.549   5.512
 1048SOL    HW2 4044   4.767   5.604   5.359
 1049SOL     OW 4045   6.603   4.939   4.426
 1049SOL    HW1 4046   6.556   5.026   4.438
 1049SOL    HW2 4047   6.573   4.875   4.497
 1050SOL     OW 4048   3.107   5.515   1.132
 1050SOL    HW1 4049   3.077   5.493   1.039
 1050SOL    HW2 4050   3.054   5.593   1.167
 1051SOL     OW 4051   3.000   5.174   0.427
 1051SOL    HW1 4052   3.076   5.164   0.362
 1051SOL    HW2 4053   2.913   5.169   0.377
 1052SOL     OW 4054   4.420   0.223   3.985
 1052SOL    HW1 4055   4.479   0.176   4.052
 1052SOL    HW2 4056   4.387   0.156   3.919
 1053SOL     OW 4057   5.416   5.685   2.990
 1053SOL    HW1 4058   5.461   5.610   3.038
 1053SOL    HW2 4059   5.412   5.765   3.050
 1054SOL     OW 4060   3.331   4.827   5.616
 1054SOL    HW1 4061   3.360   4.750   5.674
 1054SOL    HW2 4062   3.232   4.828   5.609
 1055SOL     OW 4063   5.963   0.042   4.399
 1055SOL    HW1 4064   6.025   0.086   4.464
 1055SOL    HW2 4065   5.947   6.972   4.427
 1056SOL     OW 4066   1.915   6.037   5.766
 1056SOL    HW1 4067   1.960   5.955   5.729
 1056SOL    HW2 4068   1.940   6.117   5.710
 1057SOL     OW 4069   3.218   3.386   2.511
 1057SOL    HW1 4070   3.159   3.307   2.528
 1057SOL    HW2 4071   3.229   3.398   2.412
 1058SOL     OW 4072   4.974   1.674   2.260
 1058SOL    HW1 4073   4.983   1.593   2.202
 1058SOL    HW2 4074   4.951   1.753   2.203
 1059SOL     OW 4075   2.467   0.794   1.159
 1059SOL    HW1 4076   2.495   0.812   1.064
 1059SOL    HW2 4077   2.534   0.734   1.202
 1060SOL     OW 4078   0.383   2.721   4.642
 1060SOL    HW1 4079   0.337   2.805   4.611
 1060SOL    HW2 4080   0.314   2.651   4.660
 1061SOL     OW 4081   4.803   3.758   1.491
 1061SOL    HW1 4082   4.719   3.811   1.504
 1061SOL    HW2 4083   4.862   3.769   1.571
 1062SOL     OW 4084   6.477   5.052   6.316
 1062SOL    HW1 4085   6.424   5.095   6.389
 1062SOL    HW2 4086   6.420   5.044   6.235
 1063SOL     OW 4087   1.106   4.435   1.391
 1063SOL    HW1 4088   1.183   4.470   1.337
 1063SOL    HW2 4089   1.118   4.463   1.486
 1064SOL     OW 4090   0.863   4.206   1.781
 1064SOL    HW1 4091   0.954   4.232   1.812
 1064SOL    HW2 4092   0.802   4.286   1.782
 1065SOL     OW 4093   4.768   0.511   4.231
 1065SOL    HW1 4094   4.711   0.478   4.155
 1065SOL    HW2 4095   4.830   0.583   4.197
 1066SOL     OW 4096   5.476   1.166   4.128
 1066SOL    HW1 4097   5.442   1.122   4.211
 1066SOL    HW2 4098   5.400   1.184   4.066
 1067SOL     OW 4099   1.513   2.709   0.510
 1067SOL    HW1 4100   1.499   2.720   0.609
 1067SOL    HW2 4101   1.490   2.615   0.484
 1068SOL     OW 4102   5.491   4.354   1.950
 1068SOL    HW1 4103   5.580   4.333   1.908
 1068SOL    HW2 4104   5.422   4.361   1.878
 1069SOL     OW 4105   4.830   4.968   1.360
 1069SOL    HW1 4106   4.754   4.955   1.424
 1069SOL    HW2 4107   4.806   4.927   1.272
 1070SOL     OW 4108   1.335   1.149   0.257
 1070SOL    HW1 4109   1.425   1.192   0.266
 1070SOL    HW2 4110   1.308   1.110   0.345
 1071SOL     OW 4111   3.924   0.342   2.998
 1071SOL    HW1 4112   3.903   0.364   2.902
 1071SOL    HW2 4113   3.898   0.247   3.017
 1072SOL     OW 4114   1.553   5.713   1.219
 1072SOL    HW1 4115   1.463   5.728   1.260
 1072SOL    HW2 4116   1.554   5.751   1.126
 1073SOL     OW 4117   3.522   6.027   2.759
 1073SOL    HW1 4118   3.505   6.063   2.851
 1073SOL    HW2 4119   3.437   5.990   2.721
 1074SOL     OW 4120   2.011   5.459   1.509
 1074SOL    HW1 4121   1.924   5.473   1.556
 1074SOL    HW2 4122   1.995   5.449   1.411
 1075SOL     OW 4123   4.838   6.025   3.315
 1075SOL    HW1 4124   4.767   6.090   3.288
 1075SOL    HW2 4125   4.803   5.966   3.387
 1076SOL     OW 4126   0.602   4.566   5.056
 1076SOL    HW1 4127   0.540   4.525   5.123
 1076SOL    HW2 4128   0.665   4.496   5.021
 1077SOL     OW 4129   6.333   0.018   0.364
 1077SOL    HW1 4130   6.333   0.008   0.463
 1077SOL    HW2 4131   6.369   6.958   0.322
 1078SOL     OW 4132   1.980   0.874   2.416
 1078SOL    HW1 4133   1.881   0.876   2.403
 1078SOL    HW2 4134   2.005   0.792   2.467
 1079SOL     OW 4135   2.212   5.475   2.764
 1079SOL    HW1 4136   2.182   5.525   2.682
 1079SOL    HW2 4137   2.134   5.427   2.804
 1080SOL     OW 4138   2.007   4.123   3.422
 1080SOL    HW1 4139   2.092   4.089   3.462
 1080SOL    HW2 4140   2.023   4.215   3.385
 1081SOL     OW 4141   6.994   0.384   5.292
 1081SOL    HW1 4142   6.928   0.456   5.269
 1081SOL    HW2 4143   0.050   0.426   5.333
 1082SOL     OW 4144   2.068   0.504   5.715
 1082SOL    HW1 4145   2.037   0.475   5.625
 1082SOL    HW2 4146   2.151   0.560   5.705
 1083SOL     OW 4147   3.792   3.910   1.230
 1083SOL    HW1 4148   3.811   3.886   1.325
 1083SOL    HW2 4149   3.711   3.860   1.198
 1084SOL     OW 4150   6.495   5.938   1.247
 1084SOL    HW1 4151   6.535   5.868   1.188
 1084SOL    HW2 4152   6.551   6.021   1.243
 1085SOL     OW 4153   2.151   4.766   3.483
 1085SOL    HW1 4154   2.191   4.698   3.544
 1085SOL    HW2 4155   2.172   4.742   3.388
 1086SOL     OW 4156   6.816   5.556   3.062
 1086SOL    HW1 4157   6.881   5.526   2.992
 1086SOL    HW2 4158   6.852   5.535   3.153
 1087SOL     OW 4159   5.505   2.428   5.651
 1087SOL    HW1 4160   5.554   2.457   5.568
 1087SOL    HW2 4161   5.412   2.402   5.627
 1088SOL     OW 4162   6.092   4.851   3.217
 1088SOL    HW1 4163   5.995   4.864   3.193
 1088SOL    HW2 4164   6.148   4.916   3.165
 1089SOL     OW 4165   1.307   0.058   4.505
 1089SOL    HW1 4166   1.230   7.023   4.530
 1089SOL    HW2 4167   1.277   0.127   4.440
 1090SOL     OW 4168   2.794   1.409   3.872
 1090SOL    HW1 4169   2.793   1.475   3.798
 1090SOL    HW2 4170   2.749   1.324   3.843
 1091SOL     OW 4171   1.842   2.775   4.587
 1091SOL    HW1 4172   1.849   2.684   4.546
 1091SOL    HW2 4173   1.851   2.768   4.686
 1092SOL     OW 4174   2.638   3.695   1.285
 1092SOL    HW1 4175   2.708   3.709   1.354
 1092SOL    HW2 4176   2.607   3.784   1.251
 1093SOL     OW 4177   2.122   2.051   2.892
 1093SOL    HW1 4178   2.149   2.129   2.950
 1093SOL    HW2 4179   2.141   2.073   2.797
 1094SOL     OW 4180   0.958   6.970   2.690
 1094SOL    HW1 4181   1.047   6.993   2.731
 1094SOL    HW2 4182   0.925   6.884   2.730
 1095SOL     OW 4183   6.691   2.019   5.814
 1095SOL    HW1 4184   6.748   2.099   5.797
 1095SOL    HW2 4185   6.597   2.037   5.783
 1096SOL     OW 4186   3.710   4.849   1.637
 1096SOL    HW1 4187   3.671   4.800   1.715
 1096SOL    HW2 4188   3.792   4.801   1.605
 1097SOL     OW 4189   0.782   4.448   4.264
 1097SOL    HW1 4190   0.761   4.501   4.346
 1097SOL    HW2 4191   0.824   4.361   4.290
 1098SOL     OW 4192   5.515   2.699   0.574
 1098SOL    HW1 4193   5.441   2.635   0.549
 1098SOL    HW2 4194   5.483   2.760   0.647
 1099SOL     OW 4195   4.299   0.962   4.714
 1099SOL    HW1 4196   4.247   1.048   4.711
 1099SOL    HW2 4197   4.380   0.975   4.771
 1100SOL     OW 4198   2.100   1.901   6.610
 1100SOL    HW1 4199   2.124   1.995   6.584
 1100SOL    HW2 4200   2.079   1.898   6.708
 1101SOL     OW 4201   5.412   2.819   0.840
 1101SOL    HW1 4202   5.371   2.782   0.923
 1101SOL    HW2 4203   5.352   2.887   0.799
 1102SOL     OW 4204   2.252   5.222   3.002
 1102SOL    HW1 4205   2.183   5.266   3.060
 1102SOL    HW2 4206   2.220   5.221   2.907
 1103SOL     OW 4207   3.024   1.191   1.347
 1103SOL    HW1 4208   3.011   1.174   1.249
 1103SOL    HW2 4209   3.000   1.108   1.398
 1104SOL     OW 4210   1.832   3.474   6.443
 1104SOL    HW1 4211   1.747   3.526   6.433
 1104SOL    HW2 4212   1.899   3.508   6.378
 1105SOL     OW 4213   4.990   3.441   5.627
 1105SOL    HW1 4214   5.052   3.450   5.705
 1105SOL    HW2 4215   5.008   3.514   5.561
 1106SOL     OW 4216   0.979   1.898   0.492
 1106SOL    HW1 4217   0.941   1.973   0.545
 1106SOL    HW2 4218   0.910   1.827   0.479
 1107SOL     OW 4219   0.593   0.430   6.767
 1107SOL    HW1 4220   0.607   0.433   6.668
 1107SOL    HW2 4221   0.660   0.490   6.812
 1108SOL     OW 4222   2.722   0.347   6.104
 1108SOL    HW1 4223   2.769   0.386   6.184
 1108SOL    HW2 4224   2.684   0.258   6.128
 1109SOL     OW 4225   4.428   5.336   4.757
 1109SOL    HW1 4226   4.404   5.401   4.829
 1109SOL    HW2 4227   4.518   5.360   4.720
 1110SOL     OW 4228   2.728   1.719   2.273
 1110SOL    HW1 4229   2.770   1.800   2.315
 1110SOL    HW2 4230   2.743   1.721   2.174
 1111SOL     OW 4231   5.715   6.091   0.034
 1111SOL    HW1 4232   5.632   6.146   0.030
 1111SOL    HW2 4233   5.794   6.151   0.041
 1112SOL     OW 4234   6.136   0.727   3.007
 1112SOL    HW1 4235   6.077   0.669   3.063
 1112SOL    HW2 4236   6.231   0.699   3.019
 1113SOL     OW 4237   6.065   3.246   2.715
 1113SOL    HW1 4238   5.987   3.300   2.682
 1113SOL    HW2 4239   6.032   3.158   2.749
 1114SOL     OW 4240   4.516   0.805   6.469
 1114SOL    HW1 4241   4.558   0.728   6.421
 1114SOL    HW2 4242   4.443   0.770   6.528
 1115SOL     OW 4243   4.130   3.406   6.782
 1115SOL    HW1 4244   4.128   3.504   6.762
 1115SOL    HW2 4245   4.040   3.366   6.762
 1116SOL     OW 4246   5.698   5.526   4.451
 1116SOL    HW1 4247   5.693   5.536   4.351
 1116SOL    HW2 4248   5.620   5.574   4.493
 1117SOL     OW 4249   2.541   2.661   1.107
 1117SOL    HW1 4250   2.507   2.671   1.014
 1117SOL    HW2 4251   2.471   2.688   1.172
 1118SOL     OW 4252   2.062   4.989   2.040
 1118SOL    HW1 4253   2.070   5.003   1.941
 1118SOL    HW2 4254   2.073   4.892   2.061
 1119SOL     OW 4255   3.944   4.181   1.352
 1119SOL    HW1 4256   4.029   4.207   1.397
 1119SOL    HW2 4257   3.871   4.176   1.421
 1120SOL     OW 4258   5.529   6.020   5.490
 1120SOL    HW1 4259   5.583   6.047   5.410
 1120SOL    HW2 4260   5.591   6.006   5.568
 1121SOL     OW 4261   5.049   4.327   2.208
 1121SOL    HW1 4262   5.059   4.400   2.141
 1121SOL    HW2 4263   5.035   4.367   2.299
 1122SOL     OW 4264   5.179   3.078   6.277
 1122SOL    HW1 4265   5.161   2.981   6.293
 1122SOL    HW2 4266   5.273   3.099   6.305
 1123SOL     OW 4267   4.763   1.654   2.474
 1123SOL    HW1 4268   4.800   1.597   2.548
 1123SOL    HW2 4269   4.802   1.625   2.387
 1124SOL     OW 4270   6.584   3.809   5.301
 1124SOL    HW1 4271   6.671   3.802   5.252
 1124SOL    HW2 4272   6.514   3.756   5.254
 1125SOL     OW 4273   1.919   1.519   4.769
 1125SOL    HW1 4274   1.900   1.604   4.817
 1125SOL    HW2 4275   2.002   1.530   4.714
 1126SOL     OW 4276   5.461   7.010   0.288
 1126SOL    HW1 4277   5.366   7.023   0.318
 1126SOL    HW2 4278   5.516   0.064   0.318
 1127SOL     OW 4279   4.314   5.395   5.374
 1127SOL    HW1 4280   4.322   5.397   5.474
 1127SOL    HW2 4281   4.231   5.346   5.348
 1128SOL     OW 4282   4.716   2.470   5.209
 1128SOL    HW1 4283   4.616   2.467   5.210
 1128SOL    HW2 4284   4.749   2.494   5.301
 1129SOL     OW 4285   3.864   6.991   0.336
 1129SOL    HW1 4286   3.947   0.017   0.310
 1129SOL    HW2 4287   3.879   6.893   0.323
 1130SOL     OW 4288   2.017   3.777   1.109
 1130SOL    HW1 4289   1.953   3.771   1.185
 1130SOL    HW2 4290   1.987   3.848   1.045
 1131SOL     OW 4291   0.573   6.397   5.951
 1131SOL    HW1 4292   0.569   6.300   5.928
 1131SOL    HW2 4293   0.565   6.452   5.868
 1132SOL     OW 4294   4.608   0.453   6.690
 1132SOL    HW1 4295   4.669   0.381   6.720
 1132SOL    HW2 4296   4.656   0.541   6.692
 1133SOL     OW 4297   6.688   1.704   0.626
 1133SOL    HW1 4298   6.617   1.747   0.570
 1133SOL    HW2 4299   6.727   1.772   0.688
 1134SOL     OW 4300   5.287   1.839   0.546
 1134SOL    HW1 4301   5.202   1.813   0.591
 1134SOL    HW2 4302   5.270   1.917   0.486
 1135SOL     OW 4303   2.827   1.354   2.404
 1135SOL    HW1 4304   2.848   1.337   2.308
 1135SOL    HW2 4305   2.820   1.267   2.453
 1136SOL     OW 4306   3.523   4.969   5.129
 1136SOL    HW1 4307   3.504   4.936   5.222
 1136SOL    HW2 4308   3.444   5.020   5.095
 1137SOL     OW 4309   0.530   2.970   0.146
 1137SOL    HW1 4310   0.436   2.963   0.113
 1137SOL    HW2 4311   0.532   3.026   0.229
 1138SOL     OW 4312   0.966   1.820   6.129
 1138SOL    HW1 4313   1.046   1.783   6.176
 1138SOL    HW2 4314   0.995   1.890   6.063
 1139SOL     OW 4315   2.337   6.299   2.005
 1139SOL    HW1 4316   2.390   6.217   1.985
 1139SOL    HW2 4317   2.362   6.372   1.942
 1140SOL     OW 4318   4.007   1.889   2.158
 1140SOL    HW1 4319   4.029   1.798   2.194
 1140SOL    HW2 4320   4.084   1.951   2.174
 1141SOL     OW 4321   6.422   5.862   6.181
 1141SOL    HW1 4322   6.405   5.954   6.216
 1141SOL    HW2 4323   6.506   5.826   6.221
 1142SOL     OW 4324   4.564   0.494   4.421
 1142SOL    HW1 4325   4.595   0.432   4.492
 1142SOL    HW2 4326   4.636   0.505   4.353
 1143SOL     OW 4327   3.239   2.150   2.457
 1143SOL    HW1 4328   3.171   2.167   2.387
 1143SOL    HW2 4329   3.250   2.052   2.470
 1144SOL     OW 4330   6.918   5.033   4.773
 1144SOL    HW1 4331   6.932   4.967   4.847
 1144SOL    HW2 4332   6.955   4.995   4.688
 1145SOL     OW 4333   0.290   4.458   3.070
 1145SOL    HW1 4334   0.248   4.372   3.039
 1145SOL    HW2 4335   0.237   4.494   3.147
 1146SOL     OW 4336   5.103   0.898   0.908
 1146SOL    HW1 4337   5.106   0.804   0.940
 1146SOL    HW2 4338   5.090   0.959   0.987
 1147SOL     OW 4339   0.772   4.936   0.518
 1147SOL    HW1 4340   0.741   4.870   0.586
 1147SOL    HW2 4341   0.870   4.955   0.532
 1148SOL     OW 4342   3.067   6.384   0.487
 1148SOL    HW1 4343   3.064   6.350   0.581
 1148SOL    HW2 4344   3.160   6.409   0.463
 1149SOL     OW 4345   5.447   3.627   3.021
 1149SOL    HW1 4346   5.419   3.712   3.066
 1149SOL    HW2 4347   5.370   3.588   2.972
 1150SOL     OW 4348   1.419   3.871   1.012
 1150SOL    HW1 4349   1.474   3.840   0.934
 1150SOL    HW2 4350   1.429   3.970   1.023
 1151SOL     OW 4351   5.207   5.942   6.605
 1151SOL    HW1 4352   5.254   5.897   6.680
 1151SOL    HW2 4353   5.110   5.918   6.607
 1152SOL     OW 4354   0.730   6.147   5.493
 1152SOL    HW1 4355   0.781   6.233   5.496
 1152SOL    HW2 4356   0.765   6.085   5.563
 1153SOL     OW 4357   2.327   0.024   2.005
 1153SOL    HW1 4358   2.344   0.118   2.034
 1153SOL    HW2 4359   2.259   0.024   1.932
 1154SOL     OW 4360   0.160   3.445   2.244
 1154SOL    HW1 4361   0.199   3.353   2.246
 1154SOL    HW2 4362   0.234   3.512   2.235
 1155SOL     OW 4363   3.527   5.142   6.540
 1155SOL    HW1 4364   3.545   5.044   6.538
 1155SOL    HW2 4365   3.585   5.188   6.473
 1156SOL     OW 4366   2.202   0.486   4.455
 1156SOL    HW1 4367   2.297   0.511   4.472
 1156SOL    HW2 4368   2.154   0.478   4.543
 1157SOL     OW 4369   5.963   1.823   4.380
 1157SOL    HW1 4370   5.865   1.820   4.400
 1157SOL    HW2 4371   5.976   1.831   4.282
 1158SOL     OW 4372   6.437   5.487   5.803
 1158SOL    HW1 4373   6.485   5.541   5.734
 1158SOL    HW2 4374   6.444   5.533   5.892
 1159SOL     OW 4375   5.069   0.197   2.972
 1159SOL    HW1 4376   4.982   0.161   2.940
 1159SOL    HW2 4377   5.120   0.235   2.895
 1160SOL     OW 4378   3.782   3.820   1.488
 1160SOL    HW1 4379   3.831   3.734   1.499
 1160SOL    HW2 4380   3.687   3.801   1.463
 1161SOL     OW 4381   4.810   7.014   5.437
 1161SOL    HW1 4382   4.823   6.936   5.497
 1161SOL    HW2 4383   4.779   0.068   5.491
 1162SOL     OW 4384   3.957   3.017   0.725
 1162SOL    HW1 4385   3.962   3.117   0.717
 1162SOL    HW2 4386   3.990   2.975   0.640
 1163SOL     OW 4387   5.497   2.949   2.256
 1163SOL    HW1 4388   5.543   2.860   2.252
 1163SOL    HW2 4389   5.554   3.018   2.213
 1164SOL     OW 4390   5.415   2.721   3.938
 1164SOL    HW1 4391   5.328   2.760   3.908
 1164SOL    HW2 4392   5.487   2.790   3.932
 1165SOL     OW 4393   2.071   4.658   3.848
 1165SOL    HW1 4394   2.068   4.757   3.835
 1165SOL    HW2 4395   2.163   4.624   3.830
 1166SOL     OW 4396   3.963   0.831   6.842
 1166SOL    HW1 4397   3.958   0.733   6.864
 1166SOL    HW2 4398   4.054   0.853   6.808
 1167SOL     OW 4399   2.758   0.408   6.372
 1167SOL    HW1 4400   2.848   0.390   6.411
 1167SOL    HW2 4401   2.701   0.326   6.379
 1168SOL     OW 4402   6.139   6.712   2.404
 1168SOL    HW1 4403   6.144   6.646   2.479
 1168SOL    HW2 4404   6.139   6.663   2.317
 1169SOL     OW 4405   6.569   2.964   0.284
 1169SOL    HW1 4406   6.652   2.956   0.340
 1169SOL    HW2 4407   6.566   3.054   0.241
 1170SOL     OW 4408   4.720   0.704   2.009
 1170SOL    HW1 4409   4.648   0.710   1.940
 1170SOL    HW2 4410   4.679   0.692   2.099
 1171SOL     OW 4411   2.336   5.476   0.502
 1171SOL    HW1 4412   2.394   5.469   0.421
 1171SOL    HW2 4413   2.240   5.481   0.474
 1172SOL     OW 4414   3.687   4.051   3.021
 1172SOL    HW1 4415   3.588   4.053   3.010
 1172SOL    HW2 4416   3.713   3.974   3.080
 1173SOL     OW 4417   3.199   6.975   5.960
 1173SOL    HW1 4418   3.197   0.012   5.881
 1173SOL    HW2 4419   3.167   7.024   6.041
 1174SOL     OW 4420   3.027   5.471   0.875
 1174SOL    HW1 4421   3.046   5.551   0.818
 1174SOL    HW2 4422   2.935   5.437   0.856
 1175SOL     OW 4423   5.034   3.429   6.830
 1175SOL    HW1 4424   5.008   3.344   6.874
 1175SOL    HW2 4425   4.998   3.431   6.736
 1176SOL     OW 4426   5.643   4.469   0.678
 1176SOL    HW1 4427   5.680   4.501   0.765
 1176SOL    HW2 4428   5.709   4.489   0.605
 1177SOL     OW 4429   0.175   1.561   5.222
 1177SOL    HW1 4430   0.087   1.539   5.263
 1177SOL    HW2 4431   0.214   1.641   5.268
 1178SOL     OW 4432   3.914   3.301   1.482
 1178SOL    HW1 4433   3.991   3.237   1.476
 1178SOL    HW2 4434   3.890   3.334   1.391
 1179SOL     OW 4435   3.036   5.141   0.692
 1179SOL    HW1 4436   3.020   5.145   0.593
 1179SOL    HW2 4437   3.128   5.173   0.712
 1180SOL     OW 4438   2.858   0.388   3.448
 1180SOL    HW1 4439   2.888   0.396   3.543
 1180SOL    HW2 4440   2.799   0.465   3.424
 1181SOL     OW 4441   0.493   2.868   4.864
 1181SOL    HW1 4442   0.449   2.819   4.789
 1181SOL    HW2 4443   0.565   2.927   4.827
 1182SOL     OW 4444   2.008   5.024   3.397
 1182SOL    HW1 4445   1.917   5.002   3.362
 1182SOL    HW2 4446   2.039   4.951   3.458
 1183SOL     OW 4447   3.817   5.610   2.634
 1183SOL    HW1 4448   3.846   5.640   2.725
 1183SOL    HW2 4449   3.727   5.649   2.613
 1184SOL     OW 4450   3.546   2.061   5.007
 1184SOL    HW1 4451   3.447   2.068   5.002
 1184SOL    HW2 4452   3.581   2.016   4.925
 1185SOL     OW 4453   2.254   0.061   0.565
 1185SOL    HW1 4454   2.307   0.043   0.648
 1185SOL    HW2 4455   2.167   0.104   0.590
 1186SOL     OW 4456   6.271   6.762   6.184
 1186SOL    HW1 4457   6.330   6.686   6.210
 1186SOL    HW2 4458   6.263   6.826   6.261
 1187SOL     OW 4459   5.748   5.912   4.961
 1187SOL    HW1 4460   5.787   5.954   4.879
 1187SOL    HW2 4461   5.797   5.944   5.042
 1188SOL     OW 4462   3.496   6.874   6.306
 1188SOL    HW1 4463   3.434   6.818   6.360
 1188SOL    HW2 4464   3.447   6.954   6.272
 1189SOL     OW 4465   5.374   1.146   1.809
 1189SOL    HW1 4466   5.280   1.181   1.812
 1189SOL    HW2 4467   5.396   1.119   1.715
 1190SOL     OW 4468   4.491   4.638   4.646
 1190SOL    HW1 4469   4.405   4.594   4.622
 1190SOL    HW2 4470   4.484   4.677   4.738
 1191SOL     OW 4471   3.971   5.669   5.207
 1191SOL    HW1 4472   3.918   5.617   5.140
 1191SOL    HW2 4473   3.922   5.752   5.233
 1192SOL     OW 4474   5.641   5.118   3.187
 1192SOL    HW1 4475   5.596   5.158   3.267
 1192SOL    HW2 4476   5.576   5.114   3.111
 1193SOL     OW 4477   6.896   0.493   4.153
 1193SOL    HW1 4478   6.889   0.497   4.053
 1193SOL    HW2 4479   6.927   0.402   4.180
 1194SOL     OW 4480   0.328   1.609   0.982
 1194SOL    HW1 4481   0.356   1.583   1.075
 1194SOL    HW2 4482   0.257   1.678   0.987
 1195SOL     OW 4483   5.777   2.365   0.583
 1195SOL    HW1 4484   5.797   2.462   0.596
 1195SOL    HW2 4485   5.760   2.322   0.671
 1196SOL     OW 4486   0.003   4.688   1.969
 1196SOL    HW1 4487   0.065   4.629   2.020
 1196SOL    HW2 4488   6.943   4.700   2.021
 1197SOL     OW 4489   3.992   5.759   5.581
 1197SOL    HW1 4490   4.001   5.663   5.553
 1197SOL    HW2 4491   3.995   5.817   5.500
 1198SOL     OW 4492   2.334   2.596   2.144
 1198SOL    HW1 4493   2.306   2.500   2.133
 1198SOL    HW2 4494   2.315   2.647   2.060
 1199SOL     OW 4495   3.684   2.883   3.035
 1199SOL    HW1 4496   3.660   2.863   2.939
 1199SOL    HW2 4497   3.604   2.868   3.093
 1200SOL     OW 4498   4.122   3.619   4.901
 1200SOL    HW1 4499   4.179   3.642   4.822
 1200SOL    HW2 4500   4.074   3.533   4.884
 1201SOL     OW 4501   0.317   1.229   4.198
 1201SOL    HW1 4502   0.370   1.282   4.132
 1201SOL    HW2 4503   0.247   1.177   4.151
 1202SOL     OW 4504   6.329   0.463   5.524
 1202SOL    HW1 4505   6.349   0.370   5.556
 1202SOL    HW2 4506   6.271   0.509   5.590
 1203SOL     OW 4507   5.809   6.684   1.217
 1203SOL    HW1 4508   5.855   6.701   1.129
 1203SOL    HW2 4509   5.771   6.770   1.251
 1204SOL     OW 4510   4.017   1.261   0.031
 1204SOL    HW1 4511   3.961   1.322   7.000
 1204SOL    HW2 4512   4.080   1.315   0.087
 1205SOL     OW 4513   4.187   3.433   6.468
 1205SOL    HW1 4514   4.119   3.400   6.533
 1205SOL    HW2 4515   4.232   3.355   6.424
 1206SOL     OW 4516   1.364   2.069   4.917
 1206SOL    HW1 4517   1.282   2.027   4.877
 1206SOL    HW2 4518   1.445   2.037   4.867
 1207SOL     OW 4519   0.381   6.787   0.746
 1207SOL    HW1 4520   0.401   6.863   0.684
 1207SOL    HW2 4521   0.456   6.722   0.745
 1208SOL     OW 4522   3.585   3.891   2.418
 1208SOL    HW1 4523   3.513   3.889   2.349
 1208SOL    HW2 4524   3.582   3.808   2.474
 1209SOL     OW 4525   5.705   6.966   4.594
 1209SOL    HW1 4526   5.761   6.911   4.533
 1209SOL    HW2 4527   5.759   0.017   4.631
 1210SOL     OW 4528   4.509   6.863   3.460
 1210SOL    HW1 4529   4.541   6.812   3.540
 1210SOL    HW2 4530   4.546   6.820   3.377
 1211SOL     OW 4531   1.677   3.710   3.110
 1211SOL    HW1 4532   1.591   3.752   3.080
 1211SOL    HW2 4533   1.657   3.625   3.159
 1212SOL     OW 4534   0.291   2.031   5.658
 1212SOL    HW1 4535   0.241   1.979   5.727
 1212SOL    HW2 4536   0.290   2.128   5.682
 1213SOL     OW 4537   5.939   3.422   5.157
 1213SOL    HW1 4538   6.013   3.451   5.095
 1213SOL    HW2 4539   5.857   3.477   5.139
 1214SOL     OW 4540   1.064   3.365   4.949
 1214SOL    HW1 4541   1.126   3.421   5.005
 1214SOL    HW2 4542   1.014   3.302   5.008
 1215SOL     OW 4543   1.903   4.891   2.363
 1215SOL    HW1 4544   1.928   4.830   2.288
 1215SOL    HW2 4545   1.831   4.953   2.333
 1216SOL     OW 4546   0.477   0.048   1.169
 1216SOL    HW1 4547   0.510   0.141   1.186
 1216SOL    HW2 4548   0.438   0.010   1.253
 1217SOL     OW 4549   2.559   6.112   0.815
 1217SOL    HW1 4550   2.553   6.107   0.915
 1217SOL    HW2 4551   2.600   6.028   0.780
 1218SOL     OW 4552   0.431   3.569   5.040
 1218SOL    HW1 4553   0.407   3.472   5.054
 1218SOL    HW2 4554   0.530   3.579   5.040
 1219SOL     OW 4555   4.622   4.695   1.369
 1219SOL    HW1 4556   4.719   4.672   1.362
 1219SOL    HW2 4557   4.569   4.633   1.313
 1220SOL     OW 4558   5.220   3.432   2.961
 1220SOL    HW1 4559   5.209   3.460   2.865
 1220SOL    HW2 4560   5.187   3.338   2.972
 1221SOL     OW 4561   5.572   3.954   6.595
 1221SOL    HW1 4562   5.644   3.893   6.626
 1221SOL    HW2 4563   5.581   3.970   6.497
 1222SOL     OW 4564   6.817   0.250   0.737
 1222SOL    HW1 4565   6.785   0.333   0.692
 1222SOL    HW2 4566   6.744   0.181   0.736
 1223SOL     OW 4567   5.238   1.094   0.687
 1223SOL    HW1 4568   5.190   1.154   0.751
 1223SOL    HW2 4569   5.172   1.030   0.646
 1224SOL     OW 4570   3.419   5.801   0.245
 1224SOL    HW1 4571   3.504   5.759   0.215
 1224SOL    HW2 4572   3.414   5.802   0.345
 1225SOL     OW 4573   4.316   2.643   0.946
 1225SOL    HW1 4574   4.340   2.593   0.863
 1225SOL    HW2 4575   4.228   2.689   0.934
 1226SOL     OW 4576   5.021   6.183   0.658
 1226SOL    HW1 4577   5.010   6.275   0.621
 1226SOL    HW2 4578   5.005   6.184   0.757
 1227SOL     OW 4579   6.173   5.402   6.150
 1227SOL    HW1 4580   6.082   5.371   6.177
 1227SOL    HW2 4581   6.242   5.344   6.194
 1228SOL     OW 4582   3.845   3.244   0.355
 1228SOL    HW1 4583   3.879   3.167   0.301
 1228SOL    HW2 4584   3.806   3.313   0.293
 1229SOL     OW 4585   1.659   6.636   1.643
 1229SOL    HW1 4586   1.750   6.662   1.672
 1229SOL    HW2 4587   1.590   6.690   1.692
 1230SOL     OW 4588   5.286   5.913   3.078
 1230SOL    HW1 4589   5.296   5.955   3.168
 1230SOL    HW2 4590   5.201   5.945   3.035
 1231SOL     OW 4591   1.345   2.507   6.080
 1231SOL    HW1 4592   1.273   2.438   6.086
 1231SOL    HW2 4593   1.424   2.478   6.134
 1232SOL     OW 4594   4.788   0.904   5.208
 1232SOL    HW1 4595   4.801   0.992   5.161
 1232SOL    HW2 4596   4.877   0.867   5.234
 1233SOL     OW 4597   1.370   5.402   3.274
 1233SOL    HW1 4598   1.418   5.490   3.276
 1233SOL    HW2 4599   1.301   5.403   3.202
 1234SOL     OW 4600   6.935   2.224   6.154
 1234SOL    HW1 4601   6.964   2.301   6.210
 1234SOL    HW2 4602   6.985   2.226   6.067
 1235SOL     OW 4603   6.546   4.629   0.026
 1235SOL    HW1 4604   6.464   4.625   6.993
 1235SOL    HW2 4605   6.575   4.535   0.047
 1236SOL     OW 4606   3.818   2.102   0.619
 1236SOL    HW1 4607   3.725   2.138   0.633
 1236SOL    HW2 4608   3.878   2.137   0.691
 1237SOL     OW 4609   1.692   6.364   4.899
 1237SOL    HW1 4610   1.636   6.281   4.895
 1237SOL    HW2 4611   1.751   6.368   4.818
 1238SOL     OW 4612   0.529   6.740   3.592
 1238SOL    HW1 4613   0.613   6.734   3.646
 1238SOL    HW2 4614   0.495   6.648   3.572
 1239SOL     OW 4615   6.311   5.674   4.574
 1239SOL    HW1 4616   6.406   5.645   4.573
 1239SOL    HW2 4617   6.254   5.603   4.532
 1240SOL     OW 4618   6.015   4.994   2.005
 1240SOL    HW1 4619   6.100   4.946   1.984
 1240SOL    HW2 4620   6.005   5.003   2.104
 1241SOL     OW 4621   0.117   4.367   4.867
 1241SOL    HW1 4622   0.073   4.289   4.821
 1241SOL    HW2 4623   0.090   4.452   4.821
 1242SOL     OW 4624   2.182   3.369   0.486
 1242SOL    HW1 4625   2.209   3.439   0.420
 1242SOL    HW2 4626   2.191   3.406   0.579
 1243SOL     OW 4627   0.871   1.481   4.733
 1243SOL    HW1 4628   0.957   1.480   4.682
 1243SOL    HW2 4629   0.821   1.564   4.712
 1244SOL     OW 4630   5.191   6.780   5.515
 1244SOL    HW1 4631   5.230   6.817   5.600
 1244SOL    HW2 4632   5.191   6.852   5.445
 1245SOL     OW 4633   5.234   5.546   0.867
 1245SOL    HW1 4634   5.166   5.579   0.932
 1245SOL    HW2 4635   5.190   5.489   0.798
 1246SOL     OW 4636   3.637   0.972   2.128
 1246SOL    HW1 4637   3.552   0.946   2.173
 1246SOL    HW2 4638   3.655   0.909   2.052
 1247SOL     OW 4639   6.203   6.914   4.752
 1247SOL    HW1 4640   6.224   7.012   4.757
 1247SOL    HW2 4641   6.108   6.899   4.781
 1248SOL     OW 4642   1.227   6.336   4.030
 1248SOL    HW1 4643   1.279   6.381   4.103
 1248SOL    HW2 4644   1.213   6.401   3.955
 1249SOL     OW 4645   0.376   4.474   1.696
 1249SOL    HW1 4646   0.353   4.419   1.616
 1249SOL    HW2 4647   0.303   4.541   1.713
 1250SOL     OW 4648   6.412   3.051   4.315
 1250SOL    HW1 4649   6.375   2.958   4.305
 1250SOL    HW2 4650   6.437   3.066   4.410
 1251SOL     OW 4651   2.267   0.862   2.684
 1251SOL    HW1 4652   2.326   0.834   2.761
 1251SOL    HW2 4653   2.218   0.783   2.650
 1252SOL     OW 4654   3.233   5.230   6.390
 1252SOL    HW1 4655   3.226   5.147   6.445
 1252SOL    HW2 4656   3.195   5.214   6.299
 1253SOL     OW 4657   2.568   0.742   1.474
 1253SOL    HW1 4658   2.518   0.819   1.434
 1253SOL    HW2 4659   2.505   0.669   1.497
 1254SOL     OW 4660   6.080   2.520   3.069
 1254SOL    HW1 4661   6.022   2.567   3.003
 1254SOL    HW2 4662   6.174   2.514   3.033
 1255SOL     OW 4663   5.739   2.582   5.817
 1255SOL    HW1 4664   5.727   2.506   5.753
 1255SOL    HW2 4665   5.673   2.654   5.796
 1256SOL     OW 4666   0.444   6.247   3.020
 1256SOL    HW1 4667   0.493   6.252   2.933
 1256SOL    HW2 4668   0.465   6.328   3.075
 1257SOL     OW 4669   0.302   4.629   4.323
 1257SOL    HW1 4670   0.247   4.597   4.245
 1257SOL    HW2 4671   0.291   4.566   4.400
 1258SOL     OW 4672   2.231   5.661   2.953
 1258SOL    HW1 4673   2.173   5.741   2.935
 1258SOL    HW2 4674   2.213   5.591   2.884
 1259SOL     OW 4675   3.313   6.456   5.364
 1259SOL    HW1 4676   3.298   6.551   5.392
 1259SOL    HW2 4677   3.247   6.431   5.293
 1260SOL     OW 4678   3.275   1.261   1.105
 1260SOL    HW1 4679   3.293   1.262   1.007
 1260SOL    HW2 4680   3.321   1.339   1.148
 1261SOL     OW 4681   6.932   3.899   0.034
 1261SOL    HW1 4682   6.858   3.966   0.029
 1261SOL    HW2 4683   7.012   3.940   0.077
 1262SOL     OW 4684   4.541   4.950   1.418
 1262SOL    HW1 4685   4.571   4.862   1.383
 1262SOL    HW2 4686   4.467   4.937   1.484
 1263SOL     OW 4687   6.733   1.449   0.770
 1263SOL    HW1 4688   6.640   1.436   0.804
 1263SOL    HW2 4689   6.737   1.534   0.717
 1264SOL     OW 4690   1.279   3.918   2.082
 1264SOL    HW1 4691   1.233   3.956   2.162
 1264SOL    HW2 4692   1.217   3.855   2.035
 1265SOL     OW 4693   6.728   4.528   2.879
 1265SOL    HW1 4694   6.721   4.545   2.781
 1265SOL    HW2 4695   6.747   4.431   2.895
 1266SOL     OW 4696   2.283   0.940   3.880
 1266SOL    HW1 4697   2.207   1.005   3.879
 1266SOL    HW2 4698   2.260   0.861   3.824
 1267SOL     OW 4699   5.577   5.794   1.242
 1267SOL    HW1 4700   5.592   5.841   1.329
 1267SOL    HW2 4701   5.650   5.728   1.226
 1268SOL     OW 4702   4.718   2.170   6.632
 1268SOL    HW1 4703   4.682   2.246   6.579
 1268SOL    HW2 4704   4.731   2.090   6.573
 1269SOL     OW 4705   5.654   6.149   5.268
 1269SOL    HW1 4706   5.733   6.094   5.295
 1269SOL    HW2 4707   5.667   6.243   5.299
 1270SOL     OW 4708   2.111   3.693   4.410
 1270SOL    HW1 4709   2.163   3.777   4.421
 1270SOL    HW2 4710   2.113   3.664   4.314
 1271SOL     OW 4711   3.557   1.747   3.496
 1271SOL    HW1 4712   3.521   1.800   3.573
 1271SOL    HW2 4713   3.605   1.666   3.531
 1272SOL     OW 4714   7.007   5.974   1.352
 1272SOL    HW1 4715   0.023   6.024   1.429
 1272SOL    HW2 4716   0.056   5.933   1.297
 1273SOL     OW 4717   1.515   4.413   6.942
 1273SOL    HW1 4718   1.578   4.354   6.891
 1273SOL    HW2 4719   1.482   4.486   6.882
 1274SOL     OW 4720   6.593   3.390   1.749
 1274SOL    HW1 4721   6.612   3.414   1.653
 1274SOL    HW2 4722   6.526   3.454   1.787
 1275SOL     OW 4723   3.973   0.360   3.523
 1275SOL    HW1 4724   3.969   0.391   3.428
 1275SOL    HW2 4725   4.044   0.291   3.533
 1276SOL     OW 4726   6.842   0.520   3.404
 1276SOL    HW1 4727   6.935   0.555   3.403
 1276SOL    HW2 4728   6.814   0.496   3.311
 1277SOL     OW 4729   0.309   0.158   4.694
 1277SOL    HW1 4730   0.404   0.146   4.666
 1277SOL    HW2 4731   0.285   0.255   4.694
 1278SOL     OW 4732   1.451   1.125   5.463
 1278SOL    HW1 4733   1.519   1.196   5.447
 1278SOL    HW2 4734   1.496   1.035   5.463
 1279SOL     OW 4735   2.399   6.759   0.547
 1279SOL    HW1 4736   2.323   6.806   0.503
 1279SOL    HW2 4737   2.459   6.718   0.477
 1280SOL     OW 4738   2.577   6.201   3.907
 1280SOL    HW1 4739   2.584   6.168   3.813
 1280SOL    HW2 4740   2.641   6.276   3.922
 1281SOL     OW 4741   0.688   5.624   2.977
 1281SOL    HW1 4742   0.712   5.599   3.071
 1281SOL    HW2 4743   0.751   5.696   2.945
 1282SOL     OW 4744   0.393   1.120   0.344
 1282SOL    HW1 4745   0.321   1.188   0.361
 1282SOL    HW2 4746   0.361   1.055   0.276
 1283SOL     OW 4747   5.390   2.434   5.032
 1283SOL    HW1 4748   5.349   2.377   5.104
 1283SOL    HW2 4749   5.320   2.494   4.994
 1284SOL     OW 4750   3.929   3.589   1.488
 1284SOL    HW1 4751   3.885   3.499   1.499
 1284SOL    HW2 4752   3.990   3.586   1.409
 1285SOL     OW 4753   5.574   3.580   6.139
 1285SOL    HW1 4754   5.521   3.499   6.114
 1285SOL    HW2 4755   5.537   3.620   6.222
 1286SOL     OW 4756   5.002   4.506   2.402
 1286SOL    HW1 4757   4.952   4.492   2.487
 1286SOL    HW2 4758   4.971   4.591   2.359
 1287SOL     OW 4759   4.848   3.724   6.161
 1287SOL    HW1 4760   4.929   3.751   6.110
 1287SOL    HW2 4761   4.788   3.804   6.173
 1288SOL     OW 4762   6.247   3.570   0.994
 1288SOL    HW1 4763   6.193   3.627   1.056
 1288SOL    HW2 4764   6.342   3.567   1.025
 1289SOL     OW 4765   0.524   6.033   1.945
 1289SOL    HW1 4766   0.586   5.963   1.981
 1289SOL    HW2 4767   0.429   6.003   1.956
 1290SOL     OW 4768   1.056   0.555   0.144
 1290SOL    HW1 4769   1.051   0.603   0.057
 1290SOL    HW2 4770   1.029   0.460   0.131
 1291SOL     OW 4771   0.659   3.646   5.737
 1291SOL    HW1 4772   0.597   3.721   5.713
 1291SOL    HW2 4773   0.651   3.574   5.668
 1292SOL     OW 4774   6.221   5.223   2.319
 1292SOL    HW1 4775   6.280   5.196   2.396
 1292SOL    HW2 4776   6.257   5.182   2.235
 1293SOL     OW 4777   1.993   1.265   6.599
 1293SOL    HW1 4778   2.039   1.187   6.640
 1293SOL    HW2 4779   1.976   1.248   6.502
 1294SOL     OW 4780   1.116   3.495   0.824
 1294SOL    HW1 4781   1.084   3.578   0.777
 1294SOL    HW2 4782   1.186   3.520   0.891
 1295SOL     OW 4783   6.432   3.814   2.533
 1295SOL    HW1 4784   6.464   3.907   2.512
 1295SOL    HW2 4785   6.429   3.802   2.632
 1296SOL     OW 4786   4.057   0.417   5.505
 1296SOL    HW1 4787   4.123   0.456   5.441
 1296SOL    HW2 4788   4.105   0.356   5.569
 1297SOL     OW 4789   6.018   0.483   6.166
 1297SOL    HW1 4790   6.074   0.547   6.218
 1297SOL    HW2 4791   6.071   0.446   6.089
 1298SOL     OW 4792   6.303   3.600   3.277
 1298SOL    HW1 4793   6.318   3.519   3.221
 1298SOL    HW2 4794   6.325   3.579   3.372
 1299SOL     OW 4795   0.777   3.639   2.912
 1299SOL    HW1 4796   0.808   3.595   2.829
 1299SOL    HW2 4797   0.797   3.737   2.909
 1300SOL     OW 4798   3.454   4.077   1.923
 1300SOL    HW1 4799   3.486   4.112   2.011
 1300SOL    HW2 4800   3.369   4.027   1.936
 1301SOL     OW 4801   0.480   6.150   2.511
 1301SOL    HW1 4802   0.577   6.166   2.492
 1301SOL    HW2 4803   0.464   6.051   2.515
 1302SOL     OW 4804   2.955   0.357   4.918
 1302SOL    HW1 4805   2.909   0.284   4.969
 1302SOL    HW2 4806   3.050   0.365   4.948
 1303SOL     OW 4807   4.690   1.903   0.647
 1303SOL    HW1 4808   4.720   1.981   0.700
 1303SOL    HW2 4809   4.590   1.895   0.653
 1304SOL     OW 4810   1.391   1.390   6.530
 1304SOL    HW1 4811   1.464   1.402   6.463
 1304SOL    HW2 4812   1.395   1.298   6.569
 1305SOL     OW 4813   5.737   4.872   6.610
 1305SOL    HW1 4814   5.645   4.908   6.627
 1305SOL    HW2 4815   5.783   4.927   6.541
 1306SOL     OW 4816   0.797   4.450   5.443
 1306SOL    HW1 4817   0.894   4.474   5.448
 1306SOL    HW2 4818   0.747   4.523   5.398
 1307SOL     OW 4819   1.846   2.414   4.683
 1307SOL    HW1 4820   1.835   2.459   4.594
 1307SOL    HW2 4821   1.777   2.450   4.746
 1308SOL     OW 4822   4.410   5.377   4.472
 1308SOL    HW1 4823   4.437   5.283   4.450
 1308SOL    HW2 4824   4.417   5.392   4.570
 1309SOL     OW 4825   5.764   3.227   5.730
 1309SOL    HW1 4826   5.860   3.224   5.700
 1309SOL    HW2 4827   5.704   3.238   5.651
 1310SOL     OW 4828   6.836   3.799   5.189
 1310SOL    HW1 4829   6.877   3.888   5.206
 1310SOL    HW2 4830   6.886   3.729   5.240
 1311SOL     OW 4831   6.521   6.784   4.151
 1311SOL    HW1 4832   6.527   6.775   4.250
 1311SOL    HW2 4833   6.477   6.702   4.113
 1312SOL     OW 4834   1.000   0.311   6.573
 1312SOL    HW1 4835   0.920   0.277   6.524
 1312SOL    HW2 4836   0.994   0.285   6.669
 1313SOL     OW 4837   1.618   4.810   5.192
 1313SOL    HW1 4838   1.666   4.805   5.104
 1313SOL    HW2 4839   1.640   4.896   5.237
 1314SOL     OW 4840   2.762   1.852   5.978
 1314SOL    HW1 4841   2.675   1.886   5.943
 1314SOL    HW2 4842   2.745   1.793   6.057
 1315SOL     OW 4843   0.781   0.735   0.268
 1315SOL    HW1 4844   0.848   0.722   0.195
 1315SOL    HW2 4845   0.722   0.813   0.245
 1316SOL     OW 4846   2.075   6.958   3.760
 1316SOL    HW1 4847   2.060   0.023   3.801
 1316SOL    HW2 4848   2.029   6.888   3.815
 1317SOL     OW 4849   0.638   3.906   4.614
 1317SOL    HW1 4850   0.646   3.919   4.515
 1317SOL    HW2 4851   0.586   3.822   4.633
 1318SOL     OW 4852   6.742   0.591   0.765
 1318SOL    HW1 4853   6.841   0.599   0.769
 1318SOL    HW2 4854   6.704   0.665   0.710
 1319SOL     OW 4855   6.188   1.119   6.954
 1319SOL    HW1 4856   6.129   1.081   6.883
 1319SOL    HW2 4857   6.192   1.218   6.944
 1320SOL     OW 4858   6.255   3.829   0.580
 1320SOL    HW1 4859   6.340   3.835   0.631
 1320SOL    HW2 4860   6.222   3.734   0.580
 1321SOL     OW 4861   4.414   2.441   6.182
 1321SOL    HW1 4862   4.414   2.351   6.226
 1321SOL    HW2 4863   4.323   2.482   6.191
 1322SOL     OW 4864   4.853   0.917   3.304
 1322SOL    HW1 4865   4.919   0.873   3.365
 1322SOL    HW2 4866   4.780   0.853   3.282
 1323SOL     OW 4867   5.491   1.562   5.411
 1323SOL    HW1 4868   5.487   1.659   5.433
 1323SOL    HW2 4869   5.570   1.544   5.353
 1324SOL     OW 4870   1.077   3.152   1.395
 1324SOL    HW1 4871   1.044   3.059   1.409
 1324SOL    HW2 4872   1.177   3.154   1.401
 1325SOL     OW 4873   1.925   0.068   2.034
 1325SOL    HW1 4874   1.980   0.148   2.009
 1325SOL    HW2 4875   1.958   0.030   2.119
 1326SOL     OW 4876   5.269   2.822   4.971
 1326SOL    HW1 4877   5.322   2.871   4.903
 1326SOL    HW2 4878   5.279   2.867   5.060
 1327SOL     OW 4879   2.774   4.737   2.911
 1327SOL    HW1 4880   2.784   4.642   2.940
 1327SOL    HW2 4881   2.677   4.758   2.896
 1328SOL     OW 4882   1.161   2.877   1.189
 1328SOL    HW1 4883   1.158   2.827   1.276
 1328SOL    HW2 4884   1.081   2.853   1.134
 1329SOL     OW 4885   0.113   2.216   0.381
 1329SOL    HW1 4886   0.054   2.140   0.409
 1329SOL    HW2 4887   0.073   2.302   0.412
 1330SOL     OW 4888   6.528   1.034   1.333
 1330SOL    HW1 4889   6.489   0.960   1.277
 1330SOL    HW2 4890   6.529   1.005   1.429
 1331SOL     OW 4891   4.614   2.229   2.869
 1331SOL    HW1 4892   4.688   2.268   2.923
 1331SOL    HW2 4893   4.567   2.159   2.923
 1332SOL     OW 4894   3.878   0.004   7.018
 1332SOL    HW1 4895   3.920   6.943   6.986
 1332SOL    HW2 4896   3.950   0.069   0.017
 1333SOL     OW 4897   3.699   3.280   5.987
 1333SOL    HW1 4898   3.789   3.315   5.961
 1333SOL    HW2 4899   3.633   3.302   5.915
 1334SOL     OW 4900   0.265   2.524   4.810
 1334SOL    HW1 4901   0.175   2.508   4.769
 1334SOL    HW2 4902   0.253   2.553   4.905
 1335SOL     OW 4903   2.868   6.808   3.052
 1335SOL    HW1 4904   2.866   6.822   3.151
 1335SOL    HW2 4905   2.953   6.846   3.015
 1336SOL     OW 4906   1.655   1.445   6.391
 1336SOL    HW1 4907   1.699   1.529   6.361
 1336SOL    HW2 4908   1.612   1.400   6.313
 1337SOL     OW 4909   0.906   1.522   5.017
 1337SOL    HW1 4910   0.903   1.482   4.925
 1337SOL    HW2 4911   0.947   1.613   5.012
 1338SOL     OW 4912   4.428   2.592   5.896
 1338SOL    HW1 4913   4.480   2.609   5.979
 1338SOL    HW2 4914   4.332   2.616   5.910
 1339SOL     OW 4915   0.549   6.973   0.295
 1339SOL    HW1 4916   0.627   6.985   0.234
 1339SOL    HW2 4917   0.484   0.023   0.281
 1340SOL     OW 4918   0.830   1.354   1.786
 1340SOL    HW1 4919   0.785   1.323   1.869
 1340SOL    HW2 4920   0.765   1.355   1.710
 1341SOL     OW 4921   3.933   0.380   5.855
 1341SOL    HW1 4922   4.026   0.390   5.889
 1341SOL    HW2 4923   3.923   0.293   5.807
 1342SOL     OW 4924   1.811   4.622   5.933
 1342SOL    HW1 4925   1.910   4.630   5.920
 1342SOL    HW2 4926   1.763   4.675   5.863
 1343SOL     OW 4927   3.832   6.187   2.433
 1343SOL    HW1 4928   3.826   6.261   2.500
 1343SOL    HW2 4929   3.843   6.226   2.341
 1344SOL     OW 4930   6.629   4.242   3.884
 1344SOL    HW1 4931   6.648   4.198   3.796
 1344SOL    HW2 4932   6.703   4.220   3.948
 1345SOL     OW 4933   1.309   1.909   3.483
 1345SOL    HW1 4934   1.252   1.905   3.565
 1345SOL    HW2 4935   1.384   1.974   3.498
 1346SOL     OW 4936   1.541   0.190   2.971
 1346SOL    HW1 4937   1.447   0.199   3.005
 1346SOL    HW2 4938   1.577   0.281   2.950
 1347SOL     OW 4939   6.388   6.574   4.030
 1347SOL    HW1 4940   6.323   6.619   3.969
 1347SOL    HW2 4941   6.347   6.491   4.066
 1348SOL     OW 4942   5.993   5.727   3.221
 1348SOL    HW1 4943   6.027   5.711   3.128
 1348SOL    HW2 4944   5.995   5.825   3.240
 1349SOL     OW 4945   4.757   2.760   6.254
 1349SOL    HW1 4946   4.775   2.670   6.293
 1349SOL    HW2 4947   4.842   2.799   6.219
 1350SOL     OW 4948   4.118   4.558   0.252
 1350SOL    HW1 4949   4.083   4.606   0.172
 1350SOL    HW2 4950   4.171   4.621   0.309
 1351SOL     OW 4951   0.163   2.014   3.017
 1351SOL    HW1 4952   0.239   1.972   3.065
 1351SOL    HW2 4953   0.196   2.088   2.959
 1352SOL     OW 4954   0.716   0.610   3.123
 1352SOL    HW1 4955   0.633   0.628   3.069
 1352SOL    HW2 4956   0.796   0.614   3.063
 1353SOL     OW 4957   6.320   4.146   5.975
 1353SOL    HW1 4958   6.319   4.179   5.881
 1353SOL    HW2 4959   6.292   4.050   5.978
 1354SOL     OW 4960   0.369   2.184   0.276
 1354SOL    HW1 4961   0.378   2.198   0.177
 1354SOL    HW2 4962   0.273   2.193   0.302
 1355SOL     OW 4963   6.023   2.562   5.967
 1355SOL    HW1 4964   6.027   2.527   5.874
 1355SOL    HW2 4965   5.927   2.573   5.994
 1356SOL     OW 4966   3.151   3.739   3.941
 1356SOL    HW1 4967   3.107   3.786   4.018
 1356SOL    HW2 4968   3.084   3.718   3.871
 1357SOL     OW 4969   1.537   4.215   5.575
 1357SOL    HW1 4970   1.532   4.144   5.505
 1357SOL    HW2 4971   1.462   4.203   5.640
 1358SOL     OW 4972   3.638   1.435   5.789
 1358SOL    HW1 4973   3.618   1.410   5.884
 1358SOL    HW2 4974   3.728   1.400   5.764
 1359SOL     OW 4975   6.769   4.976   1.246
 1359SOL    HW1 4976   6.711   4.997   1.325
 1359SOL    HW2 4977   6.727   5.012   1.163
 1360SOL     OW 4978   3.959   3.729   2.422
 1360SOL    HW1 4979   3.963   3.668   2.501
 1360SOL    HW2 4980   3.999   3.818   2.447
 1361SOL     OW 4981   0.091   6.712   5.940
 1361SOL    HW1 4982   0.013   6.684   5.996
 1361SOL    HW2 4983   0.082   6.673   5.848
 1362SOL     OW 4984   2.979   3.797   4.195
 1362SOL    HW1 4985   3.021   3.707   4.202
 1362SOL    HW2 4986   2.884   3.793   4.225
 1363SOL     OW 4987   6.570   6.175   3.658
 1363SOL    HW1 4988   6.616   6.086   3.650
 1363SOL    HW2 4989   6.581   6.226   3.573
 1364SOL     OW 4990   0.448   2.443   0.129
 1364SOL    HW1 4991   0.534   2.392   0.137
 1364SOL    HW2 4992   0.377   2.383   0.094
 1365SOL     OW 4993   0.486   3.547   5.492
 1365SOL    HW1 4994   0.391   3.516   5.500
 1365SOL    HW2 4995   0.541   3.474   5.450
 1366SOL     OW 4996   0.093   4.334   0.769
 1366SOL    HW1 4997   0.090   4.234   0.776
 1366SOL    HW2 4998   0.170   4.369   0.822
 1367SOL     OW 4999   1.121   5.753   2.813
 1367SOL    HW1 5000   1.206   5.771   2.763
 1367SOL    HW2 5001   1.141   5.696   2.893
 1368SOL     OW 5002   6.940   0.780   4.100
 1368SOL    HW1 5003   6.959   0.692   4.143
 1368SOL    HW2 5004   6.972   0.854   4.160
 1369SOL     OW 5005   2.317   6.911   2.249
 1369SOL    HW1 5006   2.356   6.819   2.243
 1369SOL    HW2 5007   2.321   6.955   2.159
 1370SOL     OW 5008   5.538   2.279   4.146
 1370SOL    HW1 5009   5.482   2.202   4.114
 1370SOL    HW2 5010   5.540   2.350   4.076
 1371SOL     OW 5011   4.725   1.798   4.981
 1371SOL    HW1 5012   4.777   1.866   4.930
 1371SOL    HW2 5013   4.675   1.842   5.055
 1372SOL     OW 5014   0.738   2.400   0.811
 1372SOL    HW1 5015   0.706   2.309   0.782
 1372SOL    HW2 5016   0.826   2.391   0.857
 1373SOL     OW 5017   4.426   2.262   7.016
 1373SOL    HW1 5018   4.468   2.201   6.949
 1373SOL    HW2 5019   4.483   2.265   0.074
 1374SOL     OW 5020   5.106   3.459   0.466
 1374SOL    HW1 5021   5.123   3.400   0.388
 1374SOL    HW2 5022   5.019   3.433   0.509
 1375SOL     OW 5023   0.352   0.095   6.696
 1375SOL    HW1 5024   0.288   0.086   6.773
 1375SOL    HW2 5025   0.319   0.040   6.619
 1376SOL     OW 5026   3.799   4.789   5.679
 1376SOL    HW1 5027   3.727   4.761   5.742
 1376SOL    HW2 5028   3.777   4.757   5.587
 1377SOL     OW 5029   1.188   3.474   3.624
 1377SOL    HW1 5030   1.124   3.510   3.692
 1377SOL    HW2 5031   1.175   3.523   3.537
 1378SOL     OW 5032   5.833   2.387   5.584
 1378SOL    HW1 5033   5.857   2.327   5.508
 1378SOL    HW2 5034   5.914   2.405   5.640
 1379SOL     OW 5035   4.194   5.735   3.408
 1379SOL    HW1 5036   4.152   5.663   3.463
 1379SOL    HW2 5037   4.294   5.731   3.418
 1380SOL     OW 5038   0.285   5.940   3.445
 1380SOL    HW1 5039   0.275   5.969   3.540
 1380SOL    HW2 5040   0.287   5.840   3.441
 1381SOL     OW 5041   5.607   1.703   0.027
 1381SOL    HW1 5042   5.656   1.733   0.109
 1381SOL    HW2 5043   5.545   1.775   7.021
 1382SOL     OW 5044   5.109   3.206   1.166
 1382SOL    HW1 5045   5.143   3.143   1.096
 1382SOL    HW2 5046   5.053   3.276   1.123
 1383SOL     OW 5047   1.104   0.212   1.504
 1383SOL    HW1 5048   1.139   0.300   1.534
 1383SOL    HW2 5049   1.013   0.198   1.542
 1384SOL     OW 5050   4.610   6.871   2.265
 1384SOL    HW1 5051   4.609   6.894   2.363
 1384SOL    HW2 5052   4.645   6.779   2.253
 1385SOL     OW 5053   2.768   4.862   4.064
 1385SOL    HW1 5054   2.775   4.931   3.992
 1385SOL    HW2 5055   2.857   4.850   4.108
 1386SOL     OW 5056   3.099   0.783   3.862
 1386SOL    HW1 5057   3.027   0.745   3.921
 1386SOL    HW2 5058   3.107   0.881   3.879
 1387SOL     OW 5059   3.871   5.553   3.106
 1387SOL    HW1 5060   3.889   5.608   3.025
 1387SOL    HW2 5061   3.958   5.528   3.149
 1388SOL     OW 5062   6.525   0.214   2.176
 1388SOL    HW1 5063   6.442   0.161   2.194
 1388SOL    HW2 5064   6.523   0.299   2.229
 1389SOL     OW 5065   6.260   0.858   4.187
 1389SOL    HW1 5066   6.191   0.898   4.127
 1389SOL    HW2 5067   6.315   0.930   4.228
 1390SOL     OW 5068   0.029   3.989   6.736
 1390SOL    HW1 5069   0.070   4.079   6.722
 1390SOL    HW2 5070   0.010   3.976   6.833
 1391SOL     OW 5071   6.522   6.336   4.868
 1391SOL    HW1 5072   6.486   6.389   4.945
 1391SOL    HW2 5073   6.622   6.331   4.875
 1392SOL     OW 5074   5.649   6.038   5.936
 1392SOL    HW1 5075   5.719   6.103   5.966
 1392SOL    HW2 5076   5.568   6.048   5.994
 1393SOL     OW 5077   6.468   5.034   5.141
 1393SOL    HW1 5078   6.380   5.003   5.107
 1393SOL    HW2 5079   6.481   5.004   5.235
 1394SOL     OW 5080   3.846   4.994   5.935
 1394SOL    HW1 5081   3.864   4.903   5.898
 1394SOL    HW2 5082   3.749   5.015   5.925
 1395SOL     OW 5083   2.615   4.519   5.428
 1395SOL    HW1 5084   2.704   4.475   5.441
 1395SOL    HW2 5085   2.625   4.596   5.365
 1396SOL     OW 5086   1.085   1.257   5.308
 1396SOL    HW1 5087   1.134   1.318   5.245
 1396SOL    HW2 5088   0.994   1.293   5.325
 1397SOL     OW 5089   0.266   7.017   3.778
 1397SOL    HW1 5090   0.308   6.984   3.862
 1397SOL    HW2 5091   0.333   7.014   3.704
 1398SOL     OW 5092   3.080   0.416   6.640
 1398SOL    HW1 5093   2.995   0.377   6.672
 1398SOL    HW2 5094   3.080   0.515   6.656
 1399SOL     OW 5095   3.864   5.464   0.543
 1399SOL    HW1 5096   3.886   5.392   0.478
 1399SOL    HW2 5097   3.936   5.470   0.612
 1400SOL     OW 5098   0.390   1.746   3.499
 1400SOL    HW1 5099   0.290   1.751   3.497
 1400SOL    HW2 5100   0.418   1.680   3.568
 1401SOL     OW 5101   6.279   1.108   4.870
 1401SOL    HW1 5102   6.219   1.053   4.927
 1401SOL    HW2 5103   6.234   1.194   4.847
 1402SOL     OW 5104   6.517   3.519   6.604
 1402SOL    HW1 5105   6.517   3.446   6.673
 1402SOL    HW2 5106   6.442   3.502   6.539
 1403SOL     OW 5107   2.576   2.467   1.543
 1403SOL    HW1 5108   2.562   2.392   1.479
 1403SOL    HW2 5109   2.505   2.536   1.529
 1404SOL     OW 5110   6.473   6.774   0.800
 1404SOL    HW1 5111   6.419   6.709   0.854
 1404SOL    HW2 5112   6.539   6.724   0.744
 1405SOL     OW 5113   2.643   3.371   0.865
 1405SOL    HW1 5114   2.711   3.340   0.932
 1405SOL    HW2 5115   2.598   3.453   0.900
 1406SOL     OW 5116   0.485   5.551   0.803
 1406SOL    HW1 5117   0.406   5.572   0.747
 1406SOL    HW2 5118   0.476   5.595   0.893
 1407SOL     OW 5119   0.448   2.915   2.066
 1407SOL    HW1 5120   0.360   2.877   2.037
 1407SOL    HW2 5121   0.499   2.846   2.117
 1408SOL     OW 5122   5.621   0.931   6.177
 1408SOL    HW1 5123   5.691   1.000   6.198
 1408SOL    HW2 5124   5.649   0.879   6.096
 1409SOL     OW 5125   6.868   0.152   5.174
 1409SOL    HW1 5126   6.867   0.132   5.077
 1409SOL    HW2 5127   6.949   0.208   5.196
 1410SOL     OW 5128   1.328   3.682   6.328
 1410SOL    HW1 5129   1.271   3.661   6.408
 1410SOL    HW2 5130   1.365   3.775   6.338
 1411SOL     OW 5131   3.546   6.843   1.018
 1411SOL    HW1 5132   3.613   6.812   0.951
 1411SOL    HW2 5133   3.529   6.940   1.005
 1412SOL     OW 5134   0.971   2.376   1.024
 1412SOL    HW1 5135   1.005   2.282   1.019
 1412SOL    HW2 5136   1.048   2.438   1.042
 1413SOL     OW 5137   1.439   2.324   5.303
 1413SOL    HW1 5138   1.406   2.291   5.391
 1413SOL    HW2 5139   1.392   2.409   5.279
 1414SOL     OW 5140   2.900   1.461   1.698
 1414SOL    HW1 5141   2.872   1.493   1.789
 1414SOL    HW2 5142   2.916   1.540   1.639
 1415SOL     OW 5143   2.234   1.140   4.093
 1415SOL    HW1 5144   2.259   1.136   4.189
 1415SOL    HW2 5145   2.302   1.194   4.043
 1416SOL     OW 5146   5.443   5.417   4.588
 1416SOL    HW1 5147   5.347   5.406   4.612
 1416SOL    HW2 5148   5.451   5.428   4.489
 1417SOL     OW 5149   2.980   2.156   0.317
 1417SOL    HW1 5150   3.064   2.208   0.301
 1417SOL    HW2 5151   2.901   2.215   0.304
 1418SOL     OW 5152   3.164   3.956   2.702
 1418SOL    HW1 5153   3.086   3.901   2.673
 1418SOL    HW2 5154   3.207   3.998   2.622
 1419SOL     OW 5155   2.563   5.923   4.618
 1419SOL    HW1 5156   2.488   5.963   4.671
 1419SOL    HW2 5157   2.563   5.963   4.526
 1420SOL     OW 5158   2.659   6.764   1.734
 1420SOL    HW1 5159   2.643   6.705   1.813
 1420SOL    HW2 5160   2.639   6.859   1.759
 1421SOL     OW 5161   2.305   5.069   3.813
 1421SOL    HW1 5162   2.291   5.077   3.912
 1421SOL    HW2 5163   2.365   5.143   3.782
 1422SOL     OW 5164   1.142   3.921   0.513
 1422SOL    HW1 5165   1.141   3.981   0.434
 1422SOL    HW2 5166   1.235   3.886   0.528
 1423SOL     OW 5167   5.265   6.724   3.335
 1423SOL    HW1 5168   5.354   6.690   3.366
 1423SOL    HW2 5169   5.207   6.742   3.414
 1424SOL     OW 5170   6.315   5.122   6.110
 1424SOL    HW1 5171   6.217   5.110   6.097
 1424SOL    HW2 5172   6.354   5.171   6.032
 1425SOL     OW 5173   1.706   5.459   5.194
 1425SOL    HW1 5174   1.761   5.392   5.143
 1425SOL    HW2 5175   1.638   5.499   5.134
 1426SOL     OW 5176   1.716   3.976   5.918
 1426SOL    HW1 5177   1.798   4.006   5.868
 1426SOL    HW2 5178   1.636   4.021   5.880
 1427SOL     OW 5179   0.233   0.013   3.307
 1427SOL    HW1 5180   0.258   6.951   3.352
 1427SOL    HW2 5181   0.228   0.086   3.376
 1428SOL     OW 5182   6.624   3.226   0.195
 1428SOL    HW1 5183   6.557   3.268   0.134
 1428SOL    HW2 5184   6.694   3.293   0.219
 1429SOL     OW 5185   4.260   1.665   6.670
 1429SOL    HW1 5186   4.291   1.692   6.761
 1429SOL    HW2 5187   4.238   1.567   6.670
 1430SOL     OW 5188   1.506   4.745   3.586
 1430SOL    HW1 5189   1.575   4.746   3.659
 1430SOL    HW2 5190   1.446   4.666   3.599
 1431SOL     OW 5191   2.757   1.928   0.732
 1431SOL    HW1 5192   2.803   1.934   0.821
 1431SOL    HW2 5193   2.659   1.919   0.746
 1432SOL     OW 5194   2.357   1.642   2.234
 1432SOL    HW1 5195   2.423   1.586   2.285
 1432SOL    HW2 5196   2.282   1.584   2.202
 1433SOL     OW 5197   4.475   0.689   5.100
 1433SOL    HW1 5198   4.461   0.595   5.067
 1433SOL    HW2 5199   4.573   0.709   5.104
 1434SOL     OW 5200   0.420   0.180   6.004
 1434SOL    HW1 5201   0.509   0.136   6.016
 1434SOL    HW2 5202   0.418   0.230   5.917
 1435SOL     OW 5203   6.315   0.042   2.962
 1435SOL    HW1 5204   6.281   6.974   2.943
 1435SOL    HW2 5205   6.310   0.060   3.061
 1436SOL     OW 5206   5.103   4.152   6.725
 1436SOL    HW1 5207   5.040   4.089   6.680
 1436SOL    HW2 5208   5.197   4.125   6.708
 1437SOL     OW 5209   2.859   2.017   4.268
 1437SOL    HW1 5210   2.955   2.044   4.280
 1437SOL    HW2 5211   2.823   2.055   4.183
 1438SOL     OW 5212   2.502   6.159   1.578
 1438SOL    HW1 5213   2.561   6.080   1.564
 1438SOL    HW2 5214   2.411   6.140   1.542
 1439SOL     OW 5215   6.362   5.930   1.482
 1439SOL    HW1 5216   6.437   5.920   1.417
 1439SOL    HW2 5217   6.398   5.963   1.569
 1440SOL     OW 5218   2.755   2.992   0.036
 1440SOL    HW1 5219   2.792   3.016   6.970
 1440SOL    HW2 5220   2.710   2.903   0.031
 1441SOL     OW 5221   6.623   0.507   3.700
 1441SOL    HW1 5222   6.705   0.452   3.714
 1441SOL    HW2 5223   6.566   0.464   3.630
 1442SOL     OW 5224   0.551   5.582   6.900
 1442SOL    HW1 5225   0.570   5.559   6.995
 1442SOL    HW2 5226   0.516   5.501   6.852
 1443SOL     OW 5227   0.508   3.150   4.394
 1443SOL    HW1 5228   0.576   3.209   4.438
 1443SOL    HW2 5229   0.538   3.055   4.400
 1444SOL     OW 5230   4.723   5.453   0.610
 1444SOL    HW1 5231   4.645   5.483   0.665
 1444SOL    HW2 5232   4.757   5.366   0.645
 1445SOL     OW 5233   1.509   2.715   3.100
 1445SOL    HW1 5234   1.555   2.802   3.084
 1445SOL    HW2 5235   1.428   2.709   3.042
 1446SOL     OW 5236   6.046   1.585   0.107
 1446SOL    HW1 5237   5.972   1.598   0.172
 1446SOL    HW2 5238   6.107   1.665   0.110
 1447SOL     OW 5239   5.964   6.231   4.293
 1447SOL    HW1 5240   5.961   6.257   4.389
 1447SOL    HW2 5241   5.887   6.170   4.273
 1448SOL     OW 5242   7.016   2.270   5.300
 1448SOL    HW1 5243   6.952   2.342   5.327
 1448SOL    HW2 5244   0.075   2.311   5.262
 1449SOL     OW 5245   1.128   2.594   6.373
 1449SOL    HW1 5246   1.065   2.648   6.318
 1449SOL    HW2 5247   1.208   2.650   6.397
 1450SOL     OW 5248   0.853   2.338   1.298
 1450SOL    HW1 5249   0.854   2.351   1.199
 1450SOL    HW2 5250   0.889   2.248   1.320
 1451SOL     OW 5251   0.493   6.952   2.325
 1451SOL    HW1 5252   0.541   6.962   2.412
 1451SOL    HW2 5253   0.462   6.857   2.314
 1452SOL     OW 5254   4.556   1.626   5.224
 1452SOL    HW1 5255   4.556   1.726   5.226
 1452SOL    HW2 5256   4.470   1.593   5.186
 1453SOL     OW 5257   0.087   3.814   6.063
 1453SOL    HW1 5258   0.031   3.825   5.980
 1453SOL    HW2 5259   0.084   3.898   6.116
 1454SOL     OW 5260   0.606   2.747   2.184
 1454SOL    HW1 5261   0.648   2.700   2.261
 1454SOL    HW2 5262   0.672   2.811   2.144
 1455SOL     OW 5263   1.494   0.191   1.332
 1455SOL    HW1 5264   1.453   0.214   1.420
 1455SOL    HW2 5265   1.534   0.099   1.337
 1456SOL     OW 5266   7.009   6.431   5.784
 1456SOL    HW1 5267   7.008   6.525   5.750
 1456SOL    HW2 5268   6.995   6.367   5.708
 1457SOL     OW 5269   0.380   6.806   1.411
 1457SOL    HW1 5270   0.313   6.738   1.382
 1457SOL    HW2 5271   0.351   6.848   1.497
 1458SOL     OW 5272   5.705   5.485   4.194
 1458SOL    HW1 5273   5.725   5.387   4.197
 1458SOL    HW2 5274   5.751   5.526   4.116
 1459SOL     OW 5275   3.740   6.322   5.947
 1459SOL    HW1 5276   3.803   6.389   5.986
 1459SOL    HW2 5277   3.723   6.344   5.851
 1460SOL     OW 5278   0.233   0.111   5.471
 1460SOL    HW1 5279   0.138   0.139   5.489
 1460SOL    HW2 5280   0.254   0.029   5.523
 1461SOL     OW 5281   6.324   4.153   2.982
 1461SOL    HW1 5282   6.390   4.224   2.957
 1461SOL    HW2 5283   6.368   4.086   3.041
 1462SOL     OW 5284   1.578   0.726   0.124
 1462SOL    HW1 5285   1.533   0.676   0.197
 1462SOL    HW2 5286   1.642   0.792   0.164
 1463SOL     OW 5287   0.203   5.135   6.371
 1463SOL    HW1 5288   0.279   5.131   6.306
 1463SOL    HW2 5289   0.117   5.149   6.322
 1464SOL     OW 5290   0.012   5.802   2.102
 1464SOL    HW1 5291   0.049   5.895   2.101
 1464SOL    HW2 5292   0.087   5.736   2.102
 1465SOL     OW 5293   1.699   0.461   3.683
 1465SOL    HW1 5294   1.609   0.503   3.694
 1465SOL    HW2 5295   1.750   0.467   3.768
 1466SOL     OW 5296   2.426   2.108   2.103
 1466SOL    HW1 5297   2.369   2.107   2.185
 1466SOL    HW2 5298   2.463   2.200   2.090
 1467SOL     OW 5299   1.767   1.315   3.211
 1467SOL    HW1 5300   1.776   1.216   3.203
 1467SOL    HW2 5301   1.775   1.357   3.120
 1468SOL     OW 5302   3.023   5.813   2.925
 1468SOL    HW1 5303   2.927   5.799   2.950
 1468SOL    HW2 5304   3.027   5.856   2.834
 1469SOL     OW 5305   0.459   0.582   2.182
 1469SOL    HW1 5306   0.519   0.576   2.102
 1469SOL    HW2 5307   0.365   0.563   2.156
 1470SOL     OW 5308   0.931   1.978   2.578
 1470SOL    HW1 5309   1.020   2.003   2.616
 1470SOL    HW2 5310   0.878   1.929   2.648
 1471SOL     OW 5311   0.706   6.988   0.704
 1471SOL    HW1 5312   0.724   6.911   0.642
 1471SOL    HW2 5313   0.730   0.049   0.658
 1472SOL     OW 5314   2.673   5.583   5.201
 1472SOL    HW1 5315   2.622   5.647   5.144
 1472SOL    HW2 5316   2.737   5.532   5.144
 1473SOL     OW 5317   4.005   5.371   4.916
 1473SOL    HW1 5318   4.038   5.281   4.945
 1473SOL    HW2 5319   3.925   5.397   4.970
 1474SOL     OW 5320   5.788   5.153   2.005
 1474SOL    HW1 5321   5.831   5.238   1.976
 1474SOL    HW2 5322   5.858   5.083   2.019
 1475SOL     OW 5323   5.608   0.916   1.677
 1475SOL    HW1 5324   5.620   0.872   1.766
 1475SOL    HW2 5325   5.681   0.984   1.663
 1476SOL     OW 5326   3.266   0.931   0.969
 1476SOL    HW1 5327   3.220   0.865   1.030
 1476SOL    HW2 5328   3.276   0.890   0.878
 1477SOL     OW 5329   3.291   6.608   6.025
 1477SOL    HW1 5330   3.377   6.652   6.000
 1477SOL    HW2 5331   3.217   6.675   6.021
 1478SOL     OW 5332   6.165   5.519   5.423
 1478SOL    HW1 5333   6.252   5.532   5.375
 1478SOL    HW2 5334   6.093   5.566   5.372
 1479SOL     OW 5335   1.847   2.495   1.181
 1479SOL    HW1 5336   1.832   2.593   1.187
 1479SOL    HW2 5337   1.760   2.447   1.195
 1480SOL     OW 5338   3.367   0.683   4.797
 1480SOL    HW1 5339   3.412   0.632   4.724
 1480SOL    HW2 5340   3.430   0.750   4.835
 1481SOL     OW 5341   6.420   2.906   6.784
 1481SOL    HW1 5342   6.442   2.900   6.881
 1481SOL    HW2 5343   6.417   2.814   6.745
 1482SOL     OW 5344   4.605   1.240   1.902
 1482SOL    HW1 5345   4.559   1.299   1.968
 1482SOL    HW2 5346   4.645   1.161   1.948
 1483SOL     OW 5347   4.894   1.881   6.176
 1483SOL    HW1 5348   4.848   1.825   6.106
 1483SOL    HW2 5349   4.986   1.844   6.192
 1484SOL     OW 5350   5.083   4.946   3.982
 1484SOL    HW1 5351   5.143   4.954   4.061
 1484SOL    HW2 5352   5.087   4.852   3.947
 1485SOL     OW 5353   3.628   1.001   4.175
 1485SOL    HW1 5354   3.707   1.020   4.233
 1485SOL    HW2 5355   3.575   1.084   4.162
 1486SOL     OW 5356   5.940   0.663   2.576
 1486SOL    HW1 5357   5.888   0.732   2.525
 1486SOL    HW2 5358   5.997   0.611   2.512
 1487SOL     OW 5359   0.376   2.359   6.739
 1487SOL    HW1 5360   0.367   2.437   6.677
 1487SOL    HW2 5361   0.467   2.319   6.730
 1488SOL     OW 5362   5.755   0.502   3.795
 1488SOL    HW1 5363   5.852   0.496   3.821
 1488SOL    HW2 5364   5.748   0.536   3.701
 1489SOL     OW 5365   4.078   4.665   5.908
 1489SOL    HW1 5366   4.117   4.751   5.875
 1489SOL    HW2 5367   4.081   4.663   6.007
 1490SOL     OW 5368   0.987   3.438   1.414
 1490SOL    HW1 5369   1.039   3.357   1.388
 1490SOL    HW2 5370   0.938   3.422   1.499
 1491SOL     OW 5371   5.763   4.686   2.631
 1491SOL    HW1 5372   5.727   4.657   2.720
 1491SOL    HW2 5373   5.782   4.605   2.575
 1492SOL     OW 5374   6.535   0.686   2.411
 1492SOL    HW1 5375   6.446   0.714   2.374
 1492SOL    HW2 5376   6.524   0.661   2.508
 1493SOL     OW 5377   3.927   6.499   6.011
 1493SOL    HW1 5378   4.018   6.520   6.045
 1493SOL    HW2 5379   3.896   6.572   5.951
 1494SOL     OW 5380   5.199   2.016   6.292
 1494SOL    HW1 5381   5.178   2.031   6.388
 1494SOL    HW2 5382   5.277   1.954   6.284
 1495SOL     OW 5383   0.393   3.260   5.547
 1495SOL    HW1 5384   0.396   3.241   5.449
 1495SOL    HW2 5385   0.332   3.338   5.563
 1496SOL     OW 5386   0.226   1.671   1.331
 1496SOL    HW1 5387   0.312   1.690   1.284
 1496SOL    HW2 5388   0.203   1.747   1.392
 1497SOL     OW 5389   5.170   3.284   2.589
 1497SOL    HW1 5390   5.171   3.223   2.668
 1497SOL    HW2 5391   5.127   3.238   2.512
 1498SOL     OW 5392   2.959   4.514   6.849
 1498SOL    HW1 5393   2.935   4.466   6.933
 1498SOL    HW2 5394   2.889   4.495   6.779
 1499SOL     OW 5395   1.051   2.482   5.359
 1499SOL    HW1 5396   1.048   2.444   5.451
 1499SOL    HW2 5397   1.039   2.409   5.292
 1500SOL     OW 5398   6.896   6.984   0.260
 1500SOL    HW1 5399   6.987   6.945   0.247
 1500SOL    HW2 5400   6.880   0.030   0.192
 1501SOL     OW 5401   4.999   2.339   6.662
 1501SOL    HW1 5402   4.984   2.265   6.597
 1501SOL    HW2 5403   4.953   2.318   6.748
 1502SOL     OW 5404   4.430   0.521   6.922
 1502SOL    HW1 5405   4.501   0.590   6.938
 1502SOL    HW2 5406   4.437   0.488   6.828
 1503SOL     OW 5407   1.217   2.685   1.961
 1503SOL    HW1 5408   1.198   2.751   2.034
 1503SOL    HW2 5409   1.173   2.716   1.877
 1504SOL     OW 5410   0.578   0.105   4.325
 1504SOL    HW1 5411   0.642   0.057   4.385
 1504SOL    HW2 5412   0.571   0.200   4.353
 1505SOL     OW 5413   4.978   0.056   4.741
 1505SOL    HW1 5414   5.005   7.013   4.672
 1505SOL    HW2 5415   5.030   0.140   4.729
 1506SOL     OW 5416   1.012   6.313   6.977
 1506SOL    HW1 5417   1.007   6.390   0.016
 1506SOL    HW2 5418   0.936   6.250   6.994
 1507SOL     OW 5419   0.365   1.722   6.131
 1507SOL    HW1 5420   0.424   1.786   6.180
 1507SOL    HW2 5421   0.325   1.658   6.196
 1508SOL     OW 5422   6.569   1.565   1.315
 1508SOL    HW1 5423   6.602   1.471   1.313
 1508SOL    HW2 5424   6.648   1.628   1.317
 1509SOL     OW 5425   3.964   1.563   4.867
 1509SOL    HW1 5426   3.874   1.532   4.896
 1509SOL    HW2 5427   3.963   1.662   4.854
 1510SOL     OW 5428   4.940   1.596   4.717
 1510SOL    HW1 5429   4.852   1.640   4.732
 1510SOL    HW2 5430   4.937   1.542   4.634
 1511SOL     OW 5431   4.091   3.477   3.702
 1511SOL    HW1 5432   4.105   3.444   3.795
 1511SOL    HW2 5433   4.078   3.576   3.704
 1512SOL     OW 5434   6.979   5.425   0.589
 1512SOL    HW1 5435   6.970   5.326   0.592
 1512SOL    HW2 5436   6.930   5.465   0.667
 1513SOL     OW 5437   3.961   0.488   5.078
 1513SOL    HW1 5438   3.957   0.561   5.146
 1513SOL    HW2 5439   4.030   0.509   5.010
 1514SOL     OW 5440   3.693   2.324   5.481
 1514SOL    HW1 5441   3.725   2.240   5.525
 1514SOL    HW2 5442   3.622   2.302   5.414
 1515SOL     OW 5443   5.722   2.069   2.361
 1515SOL    HW1 5444   5.639   2.018   2.339
 1515SOL    HW2 5445   5.698   2.154   2.409
 1516SOL     OW 5446   6.681   5.782   6.269
 1516SOL    HW1 5447   6.713   5.703   6.218
 1516SOL    HW2 5448   6.760   5.827   6.313
 1517SOL     OW 5449   4.311   6.302   2.998
 1517SOL    HW1 5450   4.369   6.269   2.923
 1517SOL    HW2 5451   4.251   6.228   3.028
 1518SOL     OW 5452   0.171   2.552   0.571
 1518SOL    HW1 5453   0.193   2.637   0.617
 1518SOL    HW2 5454   0.252   2.494   0.566
 1519SOL     OW 5455   6.790   4.955   1.869
 1519SOL    HW1 5456   6.795   4.977   1.771
 1519SOL    HW2 5457   6.817   5.035   1.922
 1520SOL     OW 5458   0.630   4.368   1.770
 1520SOL    HW1 5459   0.572   4.421   1.708
 1520SOL    HW2 5460   0.612   4.270   1.757
 1521SOL     OW 5461   1.893   4.411   6.306
 1521SOL    HW1 5462   1.918   4.319   6.336
 1521SOL    HW2 5463   1.874   4.468   6.385
 1522SOL     OW 5464   5.515   5.954   5.104
 1522SOL    HW1 5465   5.542   6.029   5.165
 1522SOL    HW2 5466   5.595   5.926   5.050
 1523SOL     OW 5467   4.466   5.847   0.056
 1523SOL    HW1 5468   4.451   5.937   0.016
 1523SOL    HW2 5469   4.406   5.835   0.136
 1524SOL     OW 5470   2.325   1.662   2.776
 1524SOL    HW1 5471   2.339   1.702   2.866
 1524SOL    HW2 5472   2.411   1.627   2.741
 1525SOL     OW 5473   6.612   3.713   0.509
 1525SOL    HW1 5474   6.548   3.671   0.444
 1525SOL    HW2 5475   6.705   3.680   0.490
 1526SOL     OW 5476   6.913   1.163   6.866
 1526SOL    HW1 5477   6.837   1.196   6.922
 1526SOL    HW2 5478   6.910   1.063   6.861
 1527SOL     OW 5479   4.343   1.082   5.003
 1527SOL    HW1 5480   4.416   1.087   5.072
 1527SOL    HW2 5481   4.281   1.160   5.015
 1528SOL     OW 5482   3.978   4.878   2.600
 1528SOL    HW1 5483   3.997   4.887   2.697
 1528SOL    HW2 5484   4.049   4.823   2.557
 1529SOL     OW 5485   4.334   0.040   0.462
 1529SOL    HW1 5486   4.303   0.017   0.370
 1529SOL    HW2 5487   4.395   0.119   0.458
 1530SOL     OW 5488   3.991   2.176   2.343
 1530SOL    HW1 5489   4.006   2.191   2.245
 1530SOL    HW2 5490   3.923   2.103   2.355
 1531SOL     OW 5491   4.569   6.892   6.070
 1531SOL    HW1 5492   4.523   6.938   6.146
 1531SOL    HW2 5493   4.656   6.938   6.050
 1532SOL     OW 5494   3.177   3.421   6.519
 1532SOL    HW1 5495   3.272   3.431   6.549
 1532SOL    HW2 5496   3.176   3.379   6.428
 1533SOL     OW 5497   5.892   4.633   6.532
 1533SOL    HW1 5498   5.990   4.617   6.543
 1533SOL    HW2 5499   5.866   4.716   6.582
 1534SOL     OW 5500   3.086   4.835   6.903
 1534SOL    HW1 5501   3.068   4.918   6.956
 1534SOL    HW2 5502   3.006   4.813   6.848
 1535SOL     OW 5503   5.217   6.371   4.655
 1535SOL    HW1 5504   5.204   6.324   4.568
 1535SOL    HW2 5505   5.203   6.306   4.730
 1536SOL     OW 5506   3.785   4.231   5.834
 1536SOL    HW1 5507   3.777   4.246   5.735
 1536SOL    HW2 5508   3.813   4.137   5.852
 1537SOL     OW 5509   4.699   6.252   3.569
 1537SOL    HW1 5510   4.631   6.190   3.610
 1537SOL    HW2 5511   4.790   6.214   3.582
 1538SOL     OW 5512   3.172   6.519   7.001
 1538SOL    HW1 5513   3.212   6.486   6.915
 1538SOL    HW2 5514   3.220   6.476   0.053
 1539SOL     OW 5515   4.913   4.139   1.822
 1539SOL    HW1 5516   4.824   4.176   1.848
 1539SOL    HW2 5517   4.912   4.040   1.829
 1540SOL     OW 5518   1.029   5.690   5.591
 1540SOL    HW1 5519   1.036   5.647   5.501
 1540SOL    HW2 5520   0.942   5.666   5.634
 1541SOL     OW 5521   3.385   2.903   4.337
 1541SOL    HW1 5522   3.406   2.888   4.240
 1541SOL    HW2 5523   3.291   2.934   4.346
 1542SOL     OW 5524   6.371   0.068   2.694
 1542SOL    HW1 5525   6.437   0.138   2.667
 1542SOL    HW2 5526   6.364   0.065   2.794
 1543SOL     OW 5527   3.186   5.168   5.305
 1543SOL    HW1 5528   3.139   5.236   5.362
 1543SOL    HW2 5529   3.282   5.193   5.297
 1544SOL     OW 5530   2.967   3.111   2.199
 1544SOL    HW1 5531   3.045   3.051   2.216
 1544SOL    HW2 5532   2.948   3.114   2.101
 1545SOL     OW 5533   5.376   0.486   3.092
 1545SOL    HW1 5534   5.369   0.386   3.081
 1545SOL    HW2 5535   5.303   0.530   3.040
 1546SOL     OW 5536   3.879   0.152   5.700
 1546SOL    HW1 5537   3.850   0.160   5.605
 1546SOL    HW2 5538   3.962   0.095   5.704
 1547SOL     OW 5539   1.877   3.860   2.751
 1547SOL    HW1 5540   1.815   3.867   2.673
 1547SOL    HW2 5541   1.844   3.916   2.826
 1548SOL     OW 5542   5.906   3.437   5.445
 1548SOL    HW1 5543   5.951   3.362   5.492
 1548SOL    HW2 5544   5.920   3.427   5.346
 1549SOL     OW 5545   4.469   1.382   2.113
 1549SOL    HW1 5546   4.529   1.438   2.170
 1549SOL    HW2 5547   4.379   1.375   2.156
 1550SOL     OW 5548   3.001   3.641   0.230
 1550SOL    HW1 5549   3.049   3.561   0.194
 1550SOL    HW2 5550   2.934   3.672   0.162
 1551SOL     OW 5551   2.475   4.032   6.211
 1551SOL    HW1 5552   2.424   4.097   6.155
 1551SOL    HW2 5553   2.448   4.043   6.307
 1552SOL     OW 5554   1.054   6.095   0.758
 1552SOL    HW1 5555   1.012   6.085   0.667
 1552SOL    HW2 5556   1.109   6.178   0.760
 1553SOL     OW 5557   0.560   2.154   5.904
 1553SOL    HW1 5558   0.580   2.057   5.888
 1553SOL    HW2 5559   0.551   2.171   6.002
 1554SOL     OW 5560   3.985   2.209   2.937
 1554SOL    HW1 5561   3.937   2.257   2.863
 1554SOL    HW2 5562   3.980   2.111   2.921
 1555SOL     OW 5563   4.846   2.256   6.865
 1555SOL    HW1 5564   4.782   2.218   6.798
 1555SOL    HW2 5565   4.798   2.322   6.923
 1556SOL     OW 5566   3.241   1.423   0.323
 1556SOL    HW1 5567   3.209   1.371   0.245
 1556SOL    HW2 5568   3.177   1.498   0.342
 1557SOL     OW 5569   2.583   1.982   5.732
 1557SOL    HW1 5570   2.506   2.017   5.679
 1557SOL    HW2 5571   2.575   1.883   5.741
 1558SOL     OW 5572   5.441   0.743   4.661
 1558SOL    HW1 5573   5.462   0.688   4.742
 1558SOL    HW2 5574   5.398   0.829   4.691
 1559SOL     OW 5575   0.965   2.593   6.913
 1559SOL    HW1 5576   0.952   2.561   6.819
 1559SOL    HW2 5577   1.041   2.658   6.915
 1560SOL     OW 5578   0.484   1.011   5.671
 1560SOL    HW1 5579   0.494   1.014   5.771
 1560SOL    HW2 5580   0.396   0.970   5.648
 1561SOL     OW 5581   6.607   6.538   3.896
 1561SOL    HW1 5582   6.520   6.563   3.937
 1561SOL    HW2 5583   6.662   6.620   3.878
 1562SOL     OW 5584   4.087   5.898   2.741
 1562SOL    HW1 5585   4.094   5.977   2.802
 1562SOL    HW2 5586   4.175   5.850   2.738
 1563SOL     OW 5587   2.056   0.198   5.443
 1563SOL    HW1 5588   2.144   0.226   5.403
 1563SOL    HW2 5589   2.004   0.280   5.469
 1564SOL     OW 5590   1.635   2.713   3.372
 1564SOL    HW1 5591   1.567   2.660   3.423
 1564SOL    HW2 5592   1.615   2.706   3.274
 1565SOL     OW 5593   4.380   4.650   4.242
 1565SOL    HW1 5594   4.345   4.621   4.153
 1565SOL    HW2 5595   4.466   4.602   4.261
 1566SOL     OW 5596   6.222   4.935   2.998
 1566SOL    HW1 5597   6.195   4.861   2.936
 1566SOL    HW2 5598   6.164   5.014   2.982
 1567SOL     OW 5599   6.408   6.130   0.877
 1567SOL    HW1 5600   6.323   6.106   0.830
 1567SOL    HW2 5601   6.386   6.182   0.960
 1568SOL     OW 5602   1.516   6.510   0.148
 1568SOL    HW1 5603   1.533   6.411   0.152
 1568SOL    HW2 5604   1.466   6.538   0.230
 1569SOL     OW 5605   4.366   6.312   3.472
 1569SOL    HW1 5606   4.353   6.274   3.380
 1569SOL    HW2 5607   4.433   6.385   3.469
 1570SOL     OW 5608   2.036   0.496   0.687
 1570SOL    HW1 5609   2.054   0.414   0.741
 1570SOL    HW2 5610   2.085   0.573   0.726
 1571SOL     OW 5611   5.248   2.451   1.127
 1571SOL    HW1 5612   5.281   2.388   1.057
 1571SOL    HW2 5613   5.267   2.413   1.217
 1572SOL     OW 5614   0.916   6.704   1.116
 1572SOL    HW1 5615   0.894   6.801   1.121
 1572SOL    HW2 5616   0.834   6.650   1.137
 1573SOL     OW 5617   5.362   3.261   2.104
 1573SOL    HW1 5618   5.446   3.273   2.156
 1573SOL    HW2 5619   5.375   3.296   2.011
 1574SOL     OW 5620   6.480   1.297   1.672
 1574SOL    HW1 5621   6.452   1.210   1.713
 1574SOL    HW2 5622   6.544   1.279   1.597
 1575SOL     OW 5623   3.978   1.175   0.334
 1575SOL    HW1 5624   3.960   1.272   0.317
 1575SOL    HW2 5625   4.076   1.161   0.349
 1576SOL     OW 5626   1.447   6.833   3.646
 1576SOL    HW1 5627   1.371   6.798   3.591
 1576SOL    HW2 5628   1.534   6.796   3.611
 1577SOL     OW 5629   3.251   1.372   4.552
 1577SOL    HW1 5630   3.224   1.316   4.473
 1577SOL    HW2 5631   3.194   1.454   4.556
 1578SOL     OW 5632   6.321   2.889   6.108
 1578SOL    HW1 5633   6.340   2.793   6.131
 1578SOL    HW2 5634   6.245   2.922   6.164
 1579SOL     OW 5635   0.091   1.587   2.752
 1579SOL    HW1 5636   0.143   1.510   2.715
 1579SOL    HW2 5637   0.153   1.648   2.801
 1580SOL     OW 5638   2.987   4.002   4.982
 1580SOL    HW1 5639   2.980   4.096   5.017
 1580SOL    HW2 5640   3.081   3.986   4.951
 1581SOL     OW 5641   0.168   3.938   5.227
 1581SOL    HW1 5642   0.160   3.869   5.154
 1581SOL    HW2 5643   0.264   3.948   5.253
 1582SOL     OW 5644   1.067   6.944   4.542
 1582SOL    HW1 5645   1.075   6.845   4.532
 1582SOL    HW2 5646   1.026   6.982   4.459
 1583SOL     OW 5647   1.156   4.577   3.465
 1583SOL    HW1 5648   1.193   4.570   3.557
 1583SOL    HW2 5649   1.231   4.583   3.399
 1584SOL     OW 5650   1.457   6.827   5.144
 1584SOL    HW1 5651   1.549   6.847   5.109
 1584SOL    HW2 5652   1.412   6.760   5.085
 1585SOL     OW 5653   6.153   1.832   3.339
 1585SOL    HW1 5654   6.203   1.746   3.332
 1585SOL    HW2 5655   6.055   1.813   3.348
 1586SOL     OW 5656   3.770   5.100   1.529
 1586SOL    HW1 5657   3.686   5.153   1.538
 1586SOL    HW2 5658   3.761   5.015   1.582
 1587SOL     OW 5659   2.677   6.167   6.345
 1587SOL    HW1 5660   2.691   6.246   6.404
 1587SOL    HW2 5661   2.745   6.169   6.271
 1588SOL     OW 5662   4.908   1.485   3.260
 1588SOL    HW1 5663   4.838   1.445   3.319
 1588SOL    HW2 5664   4.928   1.578   3.290
 1589SOL     OW 5665   5.942   3.940   1.753
 1589SOL    HW1 5666   5.976   3.996   1.829
 1589SOL    HW2 5667   5.890   3.998   1.689
 1590SOL     OW 5668   2.659   5.688   6.750
 1590SOL    HW1 5669   2.731   5.675   6.818
 1590SOL    HW2 5670   2.700   5.695   6.659
 1591SOL     OW 5671   0.045   5.150   2.647
 1591SOL    HW1 5672   0.114   5.135   2.717
 1591SOL    HW2 5673   0.013   5.245   2.651
 1592SOL     OW 5674   2.461   4.392   0.696
 1592SOL    HW1 5675   2.442   4.348   0.784
 1592SOL    HW2 5676   2.474   4.322   0.626
 1593SOL     OW 5677   0.959   6.293   4.517
 1593SOL    HW1 5678   0.866   6.307   4.549
 1593SOL    HW2 5679   0.968   6.201   4.479
 1594SOL     OW 5680   6.737   6.152   2.740
 1594SOL    HW1 5681   6.652   6.197   2.715
 1594SOL    HW2 5682   6.773   6.192   2.824
 1595SOL     OW 5683   1.286   5.283   6.848
 1595SOL    HW1 5684   1.381   5.251   6.852
 1595SOL    HW2 5685   1.285   5.382   6.837
 1596SOL     OW 5686   0.627   2.583   4.605
 1596SOL    HW1 5687   0.549   2.640   4.631
 1596SOL    HW2 5688   0.623   2.563   4.507
 1597SOL     OW 5689   1.869   6.495   6.897
 1597SOL    HW1 5690   1.808   6.477   6.820
 1597SOL    HW2 5691   1.962   6.513   6.863
 1598SOL     OW 5692   1.010   3.683   6.900
 1598SOL    HW1 5693   1.067   3.607   6.934
 1598SOL    HW2 5694   0.914   3.659   6.910
 1599SOL     OW 5695   4.226   4.206   5.901
 1599SOL    HW1 5696   4.228   4.115   5.942
 1599SOL    HW2 5697   4.142   4.254   5.928
 1600SOL     OW 5698   5.149   1.480   5.078
 1600SOL    HW1 5699   5.153   1.576   5.050
 1600SOL    HW2 5700   5.156   1.422   4.997
 1601SOL     OW 5701   0.038   4.980   4.537
 1601SOL    HW1 5702   0.093   5.063   4.527
 1601SOL    HW2 5703   6.992   4.978   4.466
 1602SOL     OW 5704   2.280   5.511   4.082
 1602SOL    HW1 5705   2.254   5.533   3.988
 1602SOL    HW2 5706   2.367   5.461   4.082
 1603SOL     OW 5707   6.448   6.052   2.933
 1603SOL    HW1 5708   6.418   5.982   2.998
 1603SOL    HW2 5709   6.400   6.040   2.846
 1604SOL     OW 5710   6.448   4.396   0.304
 1604SOL    HW1 5711   6.367   4.407   0.247
 1604SOL    HW2 5712   6.421   4.367   0.396
 1605SOL     OW 5713   6.350   6.274   2.021
 1605SOL    HW1 5714   6.303   6.361   2.009
 1605SOL    HW2 5715   6.370   6.234   1.931
 1606SOL     OW 5716   3.346   0.532   5.316
 1606SOL    HW1 5717   3.398   0.552   5.399
 1606SOL    HW2 5718   3.394   0.570   5.236
 1607SOL     OW 5719   3.611   2.454   0.411
 1607SOL    HW1 5720   3.676   2.525   0.384
 1607SOL    HW2 5721   3.580   2.404   0.331
 1608SOL     OW 5722   0.985   0.026   4.314
 1608SOL    HW1 5723   1.039   0.101   4.351
 1608SOL    HW2 5724   0.979   0.035   4.215
 1609SOL     OW 5725   4.607   0.258   0.564
 1609SOL    HW1 5726   4.683   0.318   0.590
 1609SOL    HW2 5727   4.551   0.303   0.495
 1610SOL     OW 5728   5.554   4.407   5.751
 1610SOL    HW1 5729   5.542   4.505   5.740
 1610SOL    HW2 5730   5.465   4.364   5.769
 1611SOL     OW 5731   2.966   3.761   1.703
 1611SOL    HW1 5732   2.936   3.750   1.797
 1611SOL    HW2 5733   2.908   3.829   1.657
 1612SOL     OW 5734   2.543   1.285   4.895
 1612SOL    HW1 5735   2.636   1.311   4.867
 1612SOL    HW2 5736   2.541   1.188   4.918
 1613SOL     OW 5737   1.762   5.479   1.603
 1613SOL    HW1 5738   1.701   5.558   1.598
 1613SOL    HW2 5739   1.758   5.440   1.695
 1614SOL     OW 5740   6.204   3.600   0.375
 1614SOL    HW1 5741   6.162   3.637   0.292
 1614SOL    HW2 5742   6.299   3.577   0.357
 1615SOL     OW 5743   6.475   5.245   0.851
 1615SOL    HW1 5744   6.418   5.207   0.777
 1615SOL    HW2 5745   6.567   5.263   0.815
 1616SOL     OW 5746   3.404   1.769   4.510
 1616SOL    HW1 5747   3.436   1.780   4.604
 1616SOL    HW2 5748   3.308   1.796   4.504
 1617SOL     OW 5749   5.728   0.514   2.029
 1617SOL    HW1 5750   5.769   0.489   2.117
 1617SOL    HW2 5751   5.772   0.461   1.957
 1618SOL     OW 5752   1.364   3.873   1.677
 1618SOL    HW1 5753   1.356   3.907   1.770
 1618SOL    HW2 5754   1.297   3.919   1.618
 1619SOL     OW 5755   0.945   2.478   2.969
 1619SOL    HW1 5756   0.948   2.529   3.055
 1619SOL    HW2 5757   0.970   2.382   2.987
 1620SOL     OW 5758   2.598   5.344   1.347
 1620SOL    HW1 5759   2.601   5.244   1.356
 1620SOL    HW2 5760   2.668   5.373   1.282
 1621SOL     OW 5761   0.409   1.357   0.549
 1621SOL    HW1 5762   0.418   1.257   0.552
 1621SOL    HW2 5763   0.470   1.394   0.479
 1622SOL     OW 5764   0.529   2.380   5.001
 1622SOL    HW1 5765   0.504   2.463   4.950
 1622SOL    HW2 5766   0.564   2.312   4.937
 1623SOL     OW 5767   2.415   3.113   5.617
 1623SOL    HW1 5768   2.396   3.096   5.520
 1623SOL    HW2 5769   2.332   3.147   5.661
 1624SOL     OW 5770   2.733   1.222   5.182
 1624SOL    HW1 5771   2.744   1.321   5.197
 1624SOL    HW2 5772   2.820   1.183   5.152
 1625SOL     OW 5773   1.384   5.411   1.578
 1625SOL    HW1 5774   1.342   5.501   1.566
 1625SOL    HW2 5775   1.320   5.340   1.548
 1626SOL     OW 5776   3.309   2.423   6.379
 1626SOL    HW1 5777   3.277   2.484   6.306
 1626SOL    HW2 5778   3.234   2.405   6.442
 1627SOL     OW 5779   6.450   2.813   3.598
 1627SOL    HW1 5780   6.444   2.713   3.596
 1627SOL    HW2 5781   6.538   2.841   3.636
 1628SOL     OW 5782   4.409   5.062   0.031
 1628SOL    HW1 5783   4.478   5.131   0.008
 1628SOL    HW2 5784   4.339   5.060   6.984
 1629SOL     OW 5785   2.791   1.202   4.098
 1629SOL    HW1 5786   2.713   1.188   4.158
 1629SOL    HW2 5787   2.760   1.207   4.003
 1630SOL     OW 5788   1.464   6.239   6.089
 1630SOL    HW1 5789   1.482   6.271   6.183
 1630SOL    HW2 5790   1.385   6.178   6.089
 1631SOL     OW 5791   0.206   1.553   6.303
 1631SOL    HW1 5792   0.150   1.592   6.376
 1631SOL    HW2 5793   0.147   1.524   6.227
 1632SOL     OW 5794   0.106   1.881   0.191
 1632SOL    HW1 5795   0.131   1.791   0.157
 1632SOL    HW2 5796   0.147   1.895   0.282
 1633SOL     OW 5797   4.625   2.236   4.081
 1633SOL    HW1 5798   4.659   2.313   4.027
 1633SOL    HW2 5799   4.544   2.264   4.132
 1634SOL     OW 5800   3.738   4.712   6.701
 1634SOL    HW1 5801   3.759   4.759   6.787
 1634SOL    HW2 5802   3.816   4.654   6.675
 1635SOL     OW 5803   6.846   5.562   5.621
 1635SOL    HW1 5804   6.918   5.587   5.556
 1635SOL    HW2 5805   6.840   5.462   5.628
 1636SOL     OW 5806   2.769   4.095   1.365
 1636SOL    HW1 5807   2.757   4.055   1.456
 1636SOL    HW2 5808   2.689   4.074   1.309
 1637SOL     OW 5809   0.205   0.264   2.899
 1637SOL    HW1 5810   0.291   0.230   2.937
 1637SOL    HW2 5811   0.185   0.217   2.813
 1638SOL     OW 5812   0.300   3.938   4.001
 1638SOL    HW1 5813   0.393   3.916   3.973
 1638SOL    HW2 5814   0.302   3.984   4.090
 1639SOL     OW 5815   4.224   0.142   2.799
 1639SOL    HW1 5816   4.177   0.054   2.792
 1639SOL    HW2 5817   4.231   0.168   2.895
 1640SOL     OW 5818   5.839   1.551   0.769
 1640SOL    HW1 5819   5.920   1.493   0.767
 1640SOL    HW2 5820   5.851   1.623   0.837
 1641SOL     OW 5821   5.479   2.692   4.272
 1641SOL    HW1 5822   5.445   2.614   4.220
 1641SOL    HW2 5823   5.514   2.761   4.208
 1642SOL     OW 5824   5.806   3.549   6.672
 1642SOL    HW1 5825   5.881   3.501   6.626
 1642SOL    HW2 5826   5.725   3.491   6.674
 1643SOL     OW 5827   2.967   4.922   4.277
 1643SOL    HW1 5828   2.961   4.896   4.373
 1643SOL    HW2 5829   2.895   4.988   4.255
 1644SOL     OW 5830   0.541   3.101   1.215
 1644SOL    HW1 5831   0.575   3.173   1.155
 1644SOL    HW2 5832   0.550   3.012   1.169
 1645SOL     OW 5833   2.407   6.074   5.791
 1645SOL    HW1 5834   2.422   6.020   5.874
 1645SOL    HW2 5835   2.490   6.072   5.735
 1646SOL     OW 5836   2.308   6.159   0.700
 1646SOL    HW1 5837   2.398   6.129   0.731
 1646SOL    HW2 5838   2.239   6.127   0.765
 1647SOL     OW 5839   6.139   2.504   4.536
 1647SOL    HW1 5840   6.178   2.425   4.489
 1647SOL    HW2 5841   6.041   2.490   4.551
 1648SOL     OW 5842   6.155   6.045   0.813
 1648SOL    HW1 5843   6.100   6.073   0.892
 1648SOL    HW2 5844   6.098   6.047   0.731
 1649SOL     OW 5845   4.391   6.998   4.331
 1649SOL    HW1 5846   4.385   6.967   4.236
 1649SOL    HW2 5847   4.408   6.920   4.391
 1650SOL     OW 5848   1.711   6.879   5.036
 1650SOL    HW1 5849   1.659   6.897   4.952
 1650SOL    HW2 5850   1.768   6.798   5.022
 1651SOL     OW 5851   0.549   1.074   1.860
 1651SOL    HW1 5852   0.561   1.159   1.809
 1651SOL    HW2 5853   0.451   1.053   1.867
 1652SOL     OW 5854   1.800   3.366   1.694
 1652SOL    HW1 5855   1.875   3.390   1.634
 1652SOL    HW2 5856   1.836   3.333   1.782
 1653SOL     OW 5857   0.674   6.964   1.015
 1653SOL    HW1 5858   0.616   7.022   1.072
 1653SOL    HW2 5859   0.619   6.928   0.939
 1654SOL     OW 5860   6.537   3.189   2.078
 1654SOL    HW1 5861   6.582   3.259   2.023
 1654SOL    HW2 5862   6.605   3.144   2.137
 1655SOL     OW 5863   6.136   2.507   4.824
 1655SOL    HW1 5864   6.039   2.525   4.842
 1655SOL    HW2 5865   6.158   2.535   4.730
 1656SOL     OW 5866   1.978   4.584   2.609
 1656SOL    HW1 5867   2.066   4.541   2.625
 1656SOL    HW2 5868   1.948   4.564   2.515
 1657SOL     OW 5869   6.738   0.646   4.351
 1657SOL    HW1 5870   6.698   0.705   4.281
 1657SOL    HW2 5871   6.796   0.577   4.308
 1658SOL     OW 5872   0.985   0.073   2.129
 1658SOL    HW1 5873   0.903   0.042   2.081
 1658SOL    HW2 5874   1.003   0.169   2.105
 1659SOL     OW 5875   3.719   1.352   5.197
 1659SOL    HW1 5876   3.626   1.317   5.181
 1659SOL    HW2 5877   3.725   1.390   5.290
 1660SOL     OW 5878   1.041   4.988   3.966
 1660SOL    HW1 5879   1.008   5.080   3.948
 1660SOL    HW2 5880   1.133   4.992   4.006
 1661SOL     OW 5881   3.232   1.574   2.023
 1661SOL    HW1 5882   3.311   1.613   2.070
 1661SOL    HW2 5883   3.160   1.642   2.016
 1662SOL     OW 5884   6.662   1.014   3.862
 1662SOL    HW1 5885   6.580   0.985   3.912
 1662SOL    HW2 5886   6.705   1.090   3.912
 1663SOL     OW 5887   2.891   0.898   2.938
 1663SOL    HW1 5888   2.860   0.855   2.853
 1663SOL    HW2 5889   2.963   0.843   2.979
 1664SOL     OW 5890   2.351   6.894   3.713
 1664SOL    HW1 5891   2.339   6.814   3.654
 1664SOL    HW2 5892   2.264   6.915   3.758
 1665SOL     OW 5893   0.466   1.059   2.721
 1665SOL    HW1 5894   0.386   1.053   2.661
 1665SOL    HW2 5895   0.486   0.969   2.760
 1666SOL     OW 5896   5.339   3.240   0.565
 1666SOL    HW1 5897   5.303   3.333   0.567
 1666SOL    HW2 5898   5.387   3.224   0.478
 1667SOL     OW 5899   6.229   6.958   1.354
 1667SOL    HW1 5900   6.134   6.959   1.321
 1667SOL    HW2 5901   6.288   6.915   1.285
 1668SOL     OW 5902   5.070   5.780   5.454
 1668SOL    HW1 5903   5.165   5.810   5.465
 1668SOL    HW2 5904   5.009   5.860   5.458
 1669SOL     OW 5905   6.614   6.262   6.585
 1669SOL    HW1 5906   6.668   6.227   6.508
 1669SOL    HW2 5907   6.577   6.352   6.561
 1670SOL     OW 5908   6.995   4.899   6.488
 1670SOL    HW1 5909   6.985   4.805   6.456
 1670SOL    HW2 5910   6.933   4.958   6.437
 1671SOL     OW 5911   4.359   3.039   0.776
 1671SOL    HW1 5912   4.452   3.017   0.805
 1671SOL    HW2 5913   4.352   3.025   0.677
 1672SOL     OW 5914   1.910   3.641   1.886
 1672SOL    HW1 5915   1.839   3.690   1.836
 1672SOL    HW2 5916   1.968   3.706   1.935
 1673SOL     OW 5917   6.655   2.102   4.352
 1673SOL    HW1 5918   6.600   2.176   4.391
 1673SOL    HW2 5919   6.594   2.030   4.319
 1674SOL     OW 5920   0.822   3.841   2.393
 1674SOL    HW1 5921   0.832   3.940   2.390
 1674SOL    HW2 5922   0.758   3.812   2.322
 1675SOL     OW 5923   4.267   0.315   5.680
 1675SOL    HW1 5924   4.321   0.310   5.597
 1675SOL    HW2 5925   4.312   0.374   5.747
 1676SOL     OW 5926   2.596   1.484   2.384
 1676SOL    HW1 5927   2.641   1.566   2.348
 1676SOL    HW2 5928   2.665   1.415   2.406
 1677SOL     OW 5929   4.007   3.196   5.287
 1677SOL    HW1 5930   3.953   3.120   5.252
 1677SOL    HW2 5931   4.018   3.265   5.215
 1678SOL     OW 5932   4.793   4.565   4.892
 1678SOL    HW1 5933   4.724   4.500   4.860
 1678SOL    HW2 5934   4.878   4.515   4.912
 1679SOL     OW 5935   2.173   3.193   5.152
 1679SOL    HW1 5936   2.099   3.223   5.092
 1679SOL    HW2 5937   2.230   3.126   5.105
 1680SOL     OW 5938   0.692   2.306   4.257
 1680SOL    HW1 5939   0.698   2.289   4.356
 1680SOL    HW2 5940   0.778   2.281   4.214
 1681SOL     OW 5941   6.196   6.049   1.162
 1681SOL    HW1 5942   6.167   6.062   1.257
 1681SOL    HW2 5943   6.266   5.978   1.158
 1682SOL     OW 5944   0.219   1.935   4.807
 1682SOL    HW1 5945   0.212   2.033   4.787
 1682SOL    HW2 5946   0.239   1.885   4.723
 1683SOL     OW 5947   3.843   5.793   1.160
 1683SOL    HW1 5948   3.844   5.893   1.165
 1683SOL    HW2 5949   3.933   5.757   1.182
 1684SOL     OW 5950   0.861   5.842   2.939
 1684SOL    HW1 5951   0.884   5.884   3.027
 1684SOL    HW2 5952   0.945   5.814   2.893
 1685SOL     OW 5953   2.789   1.101   6.327
 1685SOL    HW1 5954   2.756   1.193   6.347
 1685SOL    HW2 5955   2.711   1.038   6.325
 1686SOL     OW 5956   2.291   4.964   4.894
 1686SOL    HW1 5957   2.280   5.063   4.886
 1686SOL    HW2 5958   2.250   4.933   4.980
 1687SOL     OW 5959   2.542   3.061   1.552
 1687SOL    HW1 5960   2.547   3.144   1.497
 1687SOL    HW2 5961   2.566   2.981   1.496
 1688SOL     OW 5962   1.571   2.631   3.944
 1688SOL    HW1 5963   1.592   2.694   3.869
 1688SOL    HW2 5964   1.518   2.680   4.014
 1689SOL     OW 5965   4.691   0.710   2.274
 1689SOL    HW1 5966   4.772   0.765   2.297
 1689SOL    HW2 5967   4.712   0.613   2.288
 1690SOL     OW 5968   1.233   3.220   3.546
 1690SOL    HW1 5969   1.325   3.208   3.508
 1690SOL    HW2 5970   1.222   3.314   3.579
 1691SOL     OW 5971   5.382   4.048   3.487
 1691SOL    HW1 5972   5.465   4.104   3.483
 1691SOL    HW2 5973   5.399   3.961   3.441
 1692SOL     OW 5974   6.150   0.511   1.403
 1692SOL    HW1 5975   6.052   0.499   1.391
 1692SOL    HW2 5976   6.168   0.603   1.438
 1693SOL     OW 5977   0.177   2.003   2.571
 1693SOL    HW1 5978   0.229   1.996   2.486
 1693SOL    HW2 5979   0.088   1.960   2.559
 1694SOL     OW 5980   5.276   0.385   3.695
 1694SOL    HW1 5981   5.269   0.313   3.626
 1694SOL    HW2 5982   5.324   0.349   3.775
 1695SOL     OW 5983   2.645   1.508   5.889
 1695SOL    HW1 5984   2.661   1.429   5.949
 1695SOL    HW2 5985   2.725   1.522   5.830
 1696SOL     OW 5986   4.956   4.412   0.817
 1696SOL    HW1 5987   4.918   4.500   0.789
 1696SOL    HW2 5988   4.881   4.350   0.842
 1697SOL     OW 5989   5.514   5.930   2.212
 1697SOL    HW1 5990   5.539   5.837   2.238
 1697SOL    HW2 5991   5.513   5.988   2.294
 1698SOL     OW 5992   4.966   1.008   0.702
 1698SOL    HW1 5993   4.918   1.088   0.737
 1698SOL    HW2 5994   5.022   0.968   0.775
 1699SOL     OW 5995   2.773   1.552   1.296
 1699SOL    HW1 5996   2.872   1.559   1.278
 1699SOL    HW2 5997   2.723   1.602   1.225
 1700SOL     OW 5998   6.308   2.411   3.399
 1700SOL    HW1 5999   6.341   2.339   3.336
 1700SOL    HW2 6000   6.366   2.492   3.390
 1701SOL     OW 6001   5.504   3.472   5.701
 1701SOL    HW1 6002   5.539   3.412   5.772
 1701SOL    HW2 6003   5.413   3.504   5.726
 1702SOL     OW 6004   6.994   2.971   0.865
 1702SOL    HW1 6005   0.070   2.973   0.867
 1702SOL    HW2 6006   6.964   2.901   0.800
 1703SOL     OW 6007   4.115   3.338   2.876
 1703SOL    HW1 6008   4.056   3.267   2.837
 1703SOL    HW2 6009   4.176   3.297   2.944
 1704SOL     OW 6010   0.765   1.225   2.018
 1704SOL    HW1 6011   0.760   1.130   1.987
 1704SOL    HW2 6012   0.707   1.237   2.099
 1705SOL     OW 6013   3.703   2.228   1.412
 1705SOL    HW1 6014   3.768   2.300   1.387
 1705SOL    HW2 6015   3.631   2.266   1.469
 1706SOL     OW 6016   4.951   0.752   1.555
 1706SOL    HW1 6017   5.033   0.700   1.532
 1706SOL    HW2 6018   4.884   0.692   1.597
 1707SOL     OW 6019   4.616   2.176   2.568
 1707SOL    HW1 6020   4.636   2.200   2.663
 1707SOL    HW2 6021   4.619   2.077   2.558
 1708SOL     OW 6022   4.680   5.262   2.430
 1708SOL    HW1 6023   4.647   5.169   2.419
 1708SOL    HW2 6024   4.756   5.263   2.494
 1709SOL     OW 6025   2.475   5.824   1.825
 1709SOL    HW1 6026   2.490   5.737   1.872
 1709SOL    HW2 6027   2.534   5.828   1.744
 1710SOL     OW 6028   5.718   4.783   3.673
 1710SOL    HW1 6029   5.674   4.755   3.758
 1710SOL    HW2 6030   5.664   4.751   3.595
 1711SOL     OW 6031   1.425   4.363   4.682
 1711SOL    HW1 6032   1.467   4.442   4.638
 1711SOL    HW2 6033   1.335   4.388   4.717
 1712SOL     OW 6034   0.794   3.004   6.391
 1712SOL    HW1 6035   0.884   3.027   6.352
 1712SOL    HW2 6036   0.769   2.912   6.363
 1713SOL     OW 6037   3.606   2.398   1.140
 1713SOL    HW1 6038   3.606   2.343   1.057
 1713SOL    HW2 6039   3.678   2.366   1.202
 1714SOL     OW 6040   4.852   1.500   5.881
 1714SOL    HW1 6041   4.761   1.472   5.911
 1714SOL    HW2 6042   4.864   1.597   5.900
 1715SOL     OW 6043   6.794   3.643   2.353
 1715SOL    HW1 6044   6.727   3.581   2.313
 1715SOL    HW2 6045   6.842   3.597   2.428
 1716SOL     OW 6046   4.653   6.839   2.550
 1716SOL    HW1 6047   4.655   6.909   2.621
 1716SOL    HW2 6048   4.568   6.787   2.557
 1717SOL     OW 6049   2.055   6.823   6.214
 1717SOL    HW1 6050   2.116   6.756   6.256
 1717SOL    HW2 6051   1.960   6.795   6.229
 1718SOL     OW 6052   2.185   2.046   2.240
 1718SOL    HW1 6053   2.145   2.073   2.328
 1718SOL    HW2 6054   2.114   2.003   2.183
 1719SOL     OW 6055   2.390   4.563   1.198
 1719SOL    HW1 6056   2.450   4.569   1.118
 1719SOL    HW2 6057   2.430   4.616   1.273
 1720SOL     OW 6058   0.072   1.443   1.139
 1720SOL    HW1 6059   0.163   1.459   1.178
 1720SOL    HW2 6060   0.069   1.353   1.096
 1721SOL     OW 6061   1.306   6.686   3.158
 1721SOL    HW1 6062   1.402   6.657   3.163
 1721SOL    HW2 6063   1.299   6.769   3.103
 1722SOL     OW 6064   4.650   2.042   3.887
 1722SOL    HW1 6065   4.652   1.943   3.900
 1722SOL    HW2 6066   4.644   2.088   3.976
 1723SOL     OW 6067   6.971   2.582   2.768
 1723SOL    HW1 6068   6.984   2.522   2.689
 1723SOL    HW2 6069   6.976   2.677   2.739
 1724SOL     OW 6070   6.187   2.013   1.036
 1724SOL    HW1 6071   6.131   1.990   1.116
 1724SOL    HW2 6072   6.134   1.998   0.953
 1725SOL     OW 6073   2.451   4.584   6.881
 1725SOL    HW1 6074   2.533   4.613   6.833
 1725SOL    HW2 6075   2.423   4.655   6.946
 1726SOL     OW 6076   5.631   4.319   5.489
 1726SOL    HW1 6077   5.601   4.350   5.580
 1726SOL    HW2 6078   5.554   4.323   5.426
 1727SOL     OW 6079   3.594   3.122   4.780
 1727SOL    HW1 6080   3.647   3.042   4.753
 1727SOL    HW2 6081   3.629   3.203   4.734
 1728SOL     OW 6082   5.896   5.510   4.656
 1728SOL    HW1 6083   5.822   5.445   4.641
 1728SOL    HW2 6084   5.892   5.544   4.750
 1729SOL     OW 6085   2.136   3.861   3.672
 1729SOL    HW1 6086   2.079   3.790   3.632
 1729SOL    HW2 6087   2.197   3.899   3.603
 1730SOL     OW 6088   6.248   6.895   5.214
 1730SOL    HW1 6089   6.232   6.921   5.309
 1730SOL    HW2 6090   6.336   6.930   5.184
 1731SOL     OW 6091   0.145   4.932   2.003
 1731SOL    HW1 6092   0.154   4.956   2.099
 1731SOL    HW2 6093   0.081   4.855   1.994
 1732SOL     OW 6094   2.531   4.252   5.521
 1732SOL    HW1 6095   2.458   4.227   5.458
 1732SOL    HW2 6096   2.565   4.344   5.499
 1733SOL     OW 6097   1.151   3.700   2.705
 1733SOL    HW1 6098   1.144   3.791   2.744
 1733SOL    HW2 6099   1.067   3.677   2.656
 1734SOL     OW 6100   4.837   3.306   1.883
 1734SOL    HW1 6101   4.935   3.315   1.899
 1734SOL    HW2 6102   4.804   3.220   1.922
 1735SOL     OW 6103   5.934   5.846   1.429
 1735SOL    HW1 6104   5.933   5.931   1.483
 1735SOL    HW2 6105   6.028   5.822   1.405
 1736SOL     OW 6106   4.051   2.458   1.132
 1736SOL    HW1 6107   4.001   2.534   1.089
 1736SOL    HW2 6108   4.088   2.488   1.220
 1737SOL     OW 6109   2.909   0.963   4.445
 1737SOL    HW1 6110   2.830   0.906   4.421
 1737SOL    HW2 6111   2.981   0.905   4.483
 1738SOL     OW 6112   2.146   1.505   3.975
 1738SOL    HW1 6113   2.049   1.507   3.999
 1738SOL    HW2 6114   2.156   1.509   3.876
 1739SOL     OW 6115   5.646   2.053   5.522
 1739SOL    HW1 6116   5.573   2.046   5.590
 1739SOL    HW2 6117   5.734   2.066   5.569
 1740SOL     OW 6118   0.578   1.313   6.395
 1740SOL    HW1 6119   0.625   1.391   6.354
 1740SOL    HW2 6120   0.533   1.259   6.323
 1741SOL     OW 6121   2.133   0.552   4.041
 1741SOL    HW1 6122   2.062   0.609   4.001
 1741SOL    HW2 6123   2.198   0.524   3.970
 1742SOL     OW 6124   4.737   6.241   6.064
 1742SOL    HW1 6125   4.713   6.237   6.161
 1742SOL    HW2 6126   4.674   6.182   6.012
 1743SOL     OW 6127   2.095   1.959   2.560
 1743SOL    HW1 6128   2.184   1.956   2.606
 1743SOL    HW2 6129   2.070   1.867   2.530
 1744SOL     OW 6130   0.485   0.356   1.306
 1744SOL    HW1 6131   0.396   0.324   1.274
 1744SOL    HW2 6132   0.491   0.344   1.405
 1745SOL     OW 6133   6.432   0.419   3.506
 1745SOL    HW1 6134   6.375   0.455   3.432
 1745SOL    HW2 6135   6.376   0.366   3.569
 1746SOL     OW 6136   2.450   5.170   5.754
 1746SOL    HW1 6137   2.426   5.267   5.754
 1746SOL    HW2 6138   2.536   5.157   5.804
 1747SOL     OW 6139   5.683   0.984   3.097
 1747SOL    HW1 6140   5.599   1.031   3.069
 1747SOL    HW2 6141   5.747   0.983   3.020
 1748SOL     OW 6142   0.593   0.979   4.138
 1748SOL    HW1 6143   0.610   1.075   4.114
 1748SOL    HW2 6144   0.527   0.940   4.074
 1749SOL     OW 6145   2.680   6.904   5.228
 1749SOL    HW1 6146   2.639   6.869   5.312
 1749SOL    HW2 6147   2.759   6.848   5.203
 1750SOL     OW 6148   6.618   6.988   3.353
 1750SOL    HW1 6149   6.665   6.900   3.346
 1750SOL    HW2 6150   6.628   0.014   3.267
 1751SOL     OW 6151   4.144   5.770   4.595
 1751SOL    HW1 6152   4.064   5.784   4.654
 1751SOL    HW2 6153   4.152   5.673   4.574
 1752SOL     OW 6154   0.054   2.305   2.444
 1752SOL    HW1 6155   0.042   2.288   2.542
 1752SOL    HW2 6156   0.141   2.268   2.414
 1753SOL     OW 6157   6.968   2.536   0.755
 1753SOL    HW1 6158   0.032   2.555   0.712
 1753SOL    HW2 6159   6.945   2.439   0.743
 1754SOL     OW 6160   3.332   3.518   1.317
 1754SOL    HW1 6161   3.408   3.506   1.381
 1754SOL    HW2 6162   3.277   3.597   1.345
 1755SOL     OW 6163   5.989   6.051   2.689
 1755SOL    HW1 6164   5.952   5.961   2.712
 1755SOL    HW2 6165   5.913   6.114   2.670
 1756SOL     OW 6166   4.103   4.227   6.273
 1756SOL    HW1 6167   4.006   4.208   6.287
 1756SOL    HW2 6168   4.151   4.141   6.255
 1757SOL     OW 6169   2.583   5.323   4.855
 1757SOL    HW1 6170   2.519   5.318   4.778
 1757SOL    HW2 6171   2.543   5.377   4.929
 1758SOL     OW 6172   2.849   0.387   3.933
 1758SOL    HW1 6173   2.939   0.409   3.893
 1758SOL    HW2 6174   2.859   0.313   3.999
 1759SOL     OW 6175   1.329   5.130   5.702
 1759SOL    HW1 6176   1.411   5.146   5.756
 1759SOL    HW2 6177   1.255   5.098   5.762
 1760SOL     OW 6178   5.556   2.165   1.543
 1760SOL    HW1 6179   5.635   2.160   1.481
 1760SOL    HW2 6180   5.575   2.229   1.616
 1761SOL     OW 6181   0.058   0.556   0.655
 1761SOL    HW1 6182   0.054   0.555   0.555
 1761SOL    HW2 6183   0.018   0.641   0.689
 1762SOL     OW 6184   6.971   1.721   4.856
 1762SOL    HW1 6185   0.021   1.658   4.833
 1762SOL    HW2 6186   6.886   1.670   4.870
 1763SOL     OW 6187   1.650   3.650   4.035
 1763SOL    HW1 6188   1.688   3.558   4.024
 1763SOL    HW2 6189   1.634   3.667   4.132
 1764SOL     OW 6190   2.175   3.909   2.359
 1764SOL    HW1 6191   2.201   3.995   2.317
 1764SOL    HW2 6192   2.244   3.840   2.338
 1765SOL     OW 6193   3.957   1.922   6.960
 1765SOL    HW1 6194   3.958   2.022   6.950
 1765SOL    HW2 6195   3.881   1.884   6.907
 1766SOL     OW 6196   4.889   3.585   3.462
 1766SOL    HW1 6197   4.888   3.645   3.382
 1766SOL    HW2 6198   4.831   3.624   3.534
 1767SOL     OW 6199   6.390   3.886   3.107
 1767SOL    HW1 6200   6.326   3.825   3.060
 1767SOL    HW2 6201   6.368   3.889   3.204
 1768SOL     OW 6202   3.796   1.130   4.767
 1768SOL    HW1 6203   3.820   1.116   4.863
 1768SOL    HW2 6204   3.738   1.212   4.759
 1769SOL     OW 6205   4.447   2.415   4.877
 1769SOL    HW1 6206   4.368   2.418   4.938
 1769SOL    HW2 6207   4.419   2.437   4.784
 1770SOL     OW 6208   0.215   5.258   4.710
 1770SOL    HW1 6209   0.220   5.193   4.786
 1770SOL    HW2 6210   0.131   5.311   4.716
 1771SOL     OW 6211   2.313   5.112   6.867
 1771SOL    HW1 6212   2.296   5.055   6.947
 1771SOL    HW2 6213   2.256   5.194   6.870
 1772SOL     OW 6214   3.258   6.534   3.786
 1772SOL    HW1 6215   3.336   6.551   3.846
 1772SOL    HW2 6216   3.285   6.548   3.691
 1773SOL     OW 6217   2.792   4.668   6.036
 1773SOL    HW1 6218   2.727   4.743   6.048
 1773SOL    HW2 6219   2.785   4.632   5.943
 1774SOL     OW 6220   4.575   6.958   1.836
 1774SOL    HW1 6221   4.623   6.950   1.749
 1774SOL    HW2 6222   4.491   6.904   1.833
 1775SOL     OW 6223   0.956   4.524   4.047
 1775SOL    HW1 6224   0.953   4.456   3.973
 1775SOL    HW2 6225   0.881   4.507   4.111
 1776SOL     OW 6226   3.463   1.131   4.917
 1776SOL    HW1 6227   3.521   1.050   4.912
 1776SOL    HW2 6228   3.509   1.208   4.873
 1777SOL     OW 6229   3.464   5.344   5.670
 1777SOL    HW1 6230   3.401   5.267   5.660
 1777SOL    HW2 6231   3.518   5.332   5.753
 1778SOL     OW 6232   4.844   2.546   5.794
 1778SOL    HW1 6233   4.821   2.636   5.755
 1778SOL    HW2 6234   4.935   2.550   5.835
 1779SOL     OW 6235   4.503   0.870   4.856
 1779SOL    HW1 6236   4.526   0.910   4.945
 1779SOL    HW2 6237   4.490   0.771   4.866
 1780SOL     OW 6238   2.689   3.388   6.068
 1780SOL    HW1 6239   2.776   3.365   6.112
 1780SOL    HW2 6240   2.706   3.439   5.984
 1781SOL     OW 6241   4.239   5.722   3.976
 1781SOL    HW1 6242   4.298   5.703   4.055
 1781SOL    HW2 6243   4.272   5.672   3.897
 1782SOL     OW 6244   2.756   2.330   3.006
 1782SOL    HW1 6245   2.815   2.254   2.979
 1782SOL    HW2 6246   2.780   2.359   3.099
 1783SOL     OW 6247   1.434   3.942   6.323
 1783SOL    HW1 6248   1.415   3.981   6.414
 1783SOL    HW2 6249   1.447   4.016   6.257
 1784SOL     OW 6250   3.309   1.471   5.078
 1784SOL    HW1 6251   3.249   1.528   5.133
 1784SOL    HW2 6252   3.373   1.528   5.027
 1785SOL     OW 6253   6.008   5.599   3.461
 1785SOL    HW1 6254   5.997   5.671   3.393
 1785SOL    HW2 6255   5.952   5.620   3.541
 1786SOL     OW 6256   1.606   2.567   1.448
 1786SOL    HW1 6257   1.526   2.554   1.507
 1786SOL    HW2 6258   1.607   2.661   1.414
 1787SOL     OW 6259   2.401   1.152   4.488
 1787SOL    HW1 6260   2.379   1.063   4.450
 1787SOL    HW2 6261   2.385   1.151   4.587
 1788SOL     OW 6262   3.212   3.068   6.946
 1788SOL    HW1 6263   3.137   3.036   6.888
 1788SOL    HW2 6264   3.177   3.091   0.012
 1789SOL     OW 6265   6.079   1.752   2.394
 1789SOL    HW1 6266   6.171   1.716   2.411
 1789SOL    HW2 6267   6.030   1.691   2.332
 1790SOL     OW 6268   4.387   6.393   4.103
 1790SOL    HW1 6269   4.381   6.469   4.039
 1790SOL    HW2 6270   4.463   6.333   4.076
 1791SOL     OW 6271   0.096   1.489   3.680
 1791SOL    HW1 6272   0.120   1.425   3.752
 1791SOL    HW2 6273   0.143   1.576   3.695
 1792SOL     OW 6274   0.132   2.294   3.837
 1792SOL    HW1 6275   0.184   2.233   3.898
 1792SOL    HW2 6276   0.119   2.382   3.882
 1793SOL     OW 6277   0.010   6.857   3.687
 1793SOL    HW1 6278   0.011   6.840   3.589
 1793SOL    HW2 6279   0.075   6.931   3.709
 1794SOL     OW 6280   5.644   6.112   6.379
 1794SOL    HW1 6281   5.651   6.126   6.280
 1794SOL    HW2 6282   5.547   6.112   6.405
 1795SOL     OW 6283   0.062   3.083   2.226
 1795SOL    HW1 6284   0.081   3.138   2.307
 1795SOL    HW2 6285   0.043   2.988   2.253
 1796SOL     OW 6286   2.340   0.687   4.189
 1796SOL    HW1 6287   2.392   0.720   4.111
 1796SOL    HW2 6288   2.248   0.728   4.188
 1797SOL     OW 6289   1.139   0.877   6.428
 1797SOL    HW1 6290   1.227   0.892   6.473
 1797SOL    HW2 6291   1.112   0.781   6.438
 1798SOL     OW 6292   4.853   1.930   4.618
 1798SOL    HW1 6293   4.952   1.943   4.621
 1798SOL    HW2 6294   4.818   1.959   4.530
 1799SOL     OW 6295   6.346   1.536   6.421
 1799SOL    HW1 6296   6.404   1.460   6.452
 1799SOL    HW2 6297   6.251   1.517   6.445
 1800SOL     OW 6298   4.197   5.149   2.877
 1800SOL    HW1 6299   4.248   5.194   2.951
 1800SOL    HW2 6300   4.150   5.218   2.822
 1801SOL     OW 6301   0.751   0.943   2.348
 1801SOL    HW1 6302   0.667   0.989   2.377
 1801SOL    HW2 6303   0.828   1.007   2.356
 1802SOL     OW 6304   5.509   5.123   2.452
 1802SOL    HW1 6305   5.422   5.086   2.483
 1802SOL    HW2 6306   5.569   5.048   2.424
 1803SOL     OW 6307   0.158   6.234   0.048
 1803SOL    HW1 6308   0.220   6.156   0.058
 1803SOL    HW2 6309   0.181   6.284   6.988
 1804SOL     OW 6310   2.095   4.400   5.987
 1804SOL    HW1 6311   2.178   4.415   5.933
 1804SOL    HW2 6312   2.025   4.357   5.929
 1805SOL     OW 6313   6.479   3.798   5.812
 1805SOL    HW1 6314   6.387   3.815   5.777
 1805SOL    HW2 6315   6.481   3.817   5.911
 1806SOL     OW 6316   1.023   1.243   0.579
 1806SOL    HW1 6317   0.985   1.206   0.664
 1806SOL    HW2 6318   1.110   1.197   0.559
 1807SOL     OW 6319   5.035   2.287   5.859
 1807SOL    HW1 6320   4.982   2.231   5.923
 1807SOL    HW2 6321   5.039   2.242   5.770
 1808SOL     OW 6322   0.201   3.416   5.927
 1808SOL    HW1 6323   0.272   3.349   5.907
 1808SOL    HW2 6324   0.140   3.381   5.999
 1809SOL     OW 6325   2.105   3.566   4.637
 1809SOL    HW1 6326   2.118   3.467   4.624
 1809SOL    HW2 6327   2.117   3.612   4.549
 1810SOL     OW 6328   2.597   0.739   4.624
 1810SOL    HW1 6329   2.635   0.675   4.692
 1810SOL    HW2 6330   2.522   0.790   4.664
 1811SOL     OW 6331   4.587   4.582   3.707
 1811SOL    HW1 6332   4.602   4.488   3.738
 1811SOL    HW2 6333   4.548   4.580   3.615
 1812SOL     OW 6334   4.417   6.445   5.755
 1812SOL    HW1 6335   4.356   6.386   5.702
 1812SOL    HW2 6336   4.439   6.527   5.701
 1813SOL     OW 6337   5.185   4.991   0.378
 1813SOL    HW1 6338   5.229   4.960   0.293
 1813SOL    HW2 6339   5.086   4.984   0.368
 1814SOL     OW 6340   7.007   1.222   0.172
 1814SOL    HW1 6341   0.026   1.135   0.149
 1814SOL    HW2 6342   6.945   1.249   0.099
 1815SOL     OW 6343   6.016   2.553   1.732
 1815SOL    HW1 6344   5.931   2.606   1.734
 1815SOL    HW2 6345   6.093   2.615   1.714
 1816SOL     OW 6346   2.496   3.990   0.930
 1816SOL    HW1 6347   2.578   4.016   0.879
 1816SOL    HW2 6348   2.428   4.063   0.923
 1817SOL     OW 6349   3.096   6.830   3.481
 1817SOL    HW1 6350   3.153   6.912   3.479
 1817SOL    HW2 6351   3.154   6.749   3.478
 1818SOL     OW 6352   2.126   6.722   2.584
 1818SOL    HW1 6353   2.091   6.756   2.497
 1818SOL    HW2 6354   2.051   6.686   2.639
 1819SOL     OW 6355   0.136   5.505   1.598
 1819SOL    HW1 6356   0.130   5.413   1.559
 1819SOL    HW2 6357   0.044   5.544   1.604
 1820SOL     OW 6358   4.954   0.762   2.687
 1820SOL    HW1 6359   5.054   0.757   2.686
 1820SOL    HW2 6360   4.922   0.800   2.600
 1821SOL     OW 6361   2.559   0.856   1.730
 1821SOL    HW1 6362   2.481   0.806   1.766
 1821SOL    HW2 6363   2.570   0.836   1.633
 1822SOL     OW 6364   2.126   2.922   1.213
 1822SOL    HW1 6365   2.211   2.885   1.176
 1822SOL    HW2 6366   2.118   3.019   1.188
 1823SOL     OW 6367   2.825   5.899   3.358
 1823SOL    HW1 6368   2.802   5.869   3.451
 1823SOL    HW2 6369   2.742   5.911   3.305
 1824SOL     OW 6370   3.649   3.309   1.632
 1824SOL    HW1 6371   3.747   3.294   1.623
 1824SOL    HW2 6372   3.616   3.268   1.716
 1825SOL     OW 6373   1.292   1.969   4.126
 1825SOL    HW1 6374   1.288   2.001   4.032
 1825SOL    HW2 6375   1.245   2.034   4.186
 1826SOL     OW 6376   3.154   0.301   0.799
 1826SOL    HW1 6377   3.106   0.369   0.855
 1826SOL    HW2 6378   3.112   0.296   0.709
 1827SOL     OW 6379   0.366   6.090   1.488
 1827SOL    HW1 6380   0.341   6.184   1.466
 1827SOL    HW2 6381   0.284   6.039   1.513
 1828SOL     OW 6382   1.258   2.477   0.817
 1828SOL    HW1 6383   1.235   2.512   0.908
 1828SOL    HW2 6384   1.296   2.550   0.761
 1829SOL     OW 6385   2.946   0.648   3.656
 1829SOL    HW1 6386   2.992   0.642   3.567
 1829SOL    HW2 6387   3.009   0.687   3.723
 1830SOL     OW 6388   5.944   6.411   3.818
 1830SOL    HW1 6389   6.032   6.441   3.780
 1830SOL    HW2 6390   5.957   6.380   3.912
 1831SOL     OW 6391   5.912   0.425   2.226
 1831SOL    HW1 6392   5.829   0.420   2.282
 1831SOL    HW2 6393   5.989   0.454   2.283
 1832SOL     OW 6394   4.875   1.483   1.037
 1832SOL    HW1 6395   4.879   1.529   1.126
 1832SOL    HW2 6396   4.813   1.532   0.976
 1833SOL     OW 6397   5.287   0.528   6.542
 1833SOL    HW1 6398   5.278   0.526   6.442
 1833SOL    HW2 6399   5.251   0.443   6.580
 1834SOL     OW 6400   2.795   4.307   0.573
 1834SOL    HW1 6401   2.760   4.223   0.615
 1834SOL    HW2 6402   2.813   4.374   0.645
 1835SOL     OW 6403   0.212   3.831   2.471
 1835SOL    HW1 6404   0.182   3.868   2.559
 1835SOL    HW2 6405   0.305   3.796   2.479
 1836SOL     OW 6406   5.009   2.730   0.962
 1836SOL    HW1 6407   4.980   2.742   0.867
 1836SOL    HW2 6408   4.929   2.719   1.020
 1837SOL     OW 6409   1.284   1.205   4.576
 1837SOL    HW1 6410   1.226   1.287   4.575
 1837SOL    HW2 6411   1.378   1.232   4.598
 1838SOL     OW 6412   0.107   1.393   4.271
 1838SOL    HW1 6413   0.197   1.351   4.268
 1838SOL    HW2 6414   0.059   1.363   4.354
 1839SOL     OW 6415   5.521   2.521   5.383
 1839SOL    HW1 6416   5.453   2.453   5.355
 1839SOL    HW2 6417   5.564   2.560   5.301
 1840SOL     OW 6418   3.383   6.387   1.510
 1840SOL    HW1 6419   3.373   6.392   1.609
 1840SOL    HW2 6420   3.298   6.354   1.469
 1841SOL     OW 6421   2.354   1.009   3.531
 1841SOL    HW1 6422   2.307   0.949   3.596
 1841SOL    HW2 6423   2.352   1.103   3.564
 1842SOL     OW 6424   1.771   5.835   0.298
 1842SOL    HW1 6425   1.698   5.823   0.366
 1842SOL    HW2 6426   1.764   5.926   0.258
 1843SOL     OW 6427   6.607   2.321   3.622
 1843SOL    HW1 6428   6.638   2.291   3.531
 1843SOL    HW2 6429   6.640   2.258   3.691
 1844SOL     OW 6430   3.270   0.439   5.609
 1844SOL    HW1 6431   3.330   0.495   5.666
 1844SOL    HW2 6432   3.179   0.433   5.652
 1845SOL     OW 6433   2.594   0.404   5.125
 1845SOL    HW1 6434   2.599   0.325   5.185
 1845SOL    HW2 6435   2.574   0.486   5.178
 1846SOL     OW 6436   4.193   2.300   0.981
 1846SOL    HW1 6437   4.220   2.216   1.028
 1846SOL    HW2 6438   4.148   2.361   1.046
 1847SOL     OW 6439   1.688   1.295   6.638
 1847SOL    HW1 6440   1.788   1.301   6.650
 1847SOL    HW2 6441   1.663   1.336   6.550
 1848SOL     OW 6442   0.959   6.890   3.262
 1848SOL    HW1 6443   0.893   6.877   3.336
 1848SOL    HW2 6444   1.006   6.804   3.244
 1849SOL     OW 6445   3.716   2.783   0.602
 1849SOL    HW1 6446   3.741   2.878   0.620
 1849SOL    HW2 6447   3.792   2.736   0.557
 1850SOL     OW 6448   0.871   2.416   2.008
 1850SOL    HW1 6449   0.940   2.347   1.987
 1850SOL    HW2 6450   0.828   2.395   2.095
 1851SOL     OW 6451   6.990   2.710   1.006
 1851SOL    HW1 6452   0.058   2.725   0.973
 1851SOL    HW2 6453   6.942   2.647   0.945
 1852SOL     OW 6454   6.834   4.059   1.806
 1852SOL    HW1 6455   6.857   3.982   1.865
 1852SOL    HW2 6456   6.735   4.072   1.805
 1853SOL     OW 6457   0.029   2.655   3.072
 1853SOL    HW1 6458   7.009   2.662   2.983
 1853SOL    HW2 6459   0.080   2.740   3.091
 1854SOL     OW 6460   2.675   6.197   3.215
 1854SOL    HW1 6461   2.688   6.152   3.126
 1854SOL    HW2 6462   2.757   6.184   3.271
 1855SOL     OW 6463   5.233   3.036   5.943
 1855SOL    HW1 6464   5.322   3.052   5.900
 1855SOL    HW2 6465   5.220   2.939   5.960
 1856SOL     OW 6466   6.141   3.581   5.855
 1856SOL    HW1 6467   6.076   3.511   5.827
 1856SOL    HW2 6468   6.135   3.659   5.793
 1857SOL     OW 6469   4.175   1.517   5.388
 1857SOL    HW1 6470   4.213   1.604   5.357
 1857SOL    HW2 6471   4.088   1.533   5.433
 1858SOL     OW 6472   6.239   3.909   3.855
 1858SOL    HW1 6473   6.278   4.001   3.854
 1858SOL    HW2 6474   6.146   3.913   3.891
 1859SOL     OW 6475   4.852   2.042   2.863
 1859SOL    HW1 6476   4.861   2.089   2.776
 1859SOL    HW2 6477   4.767   1.989   2.864
 1860SOL     OW 6478   6.174   0.523   5.237
 1860SOL    HW1 6479   6.135   0.476   5.158
 1860SOL    HW2 6480   6.240   0.462   5.282
 1861SOL     OW 6481   5.868   0.223   2.060
 1861SOL    HW1 6482   5.770   0.229   2.075
 1861SOL    HW2 6483   5.916   0.284   2.123
 1862SOL     OW 6484   2.423   6.879   6.183
 1862SOL    HW1 6485   2.461   6.791   6.212
 1862SOL    HW2 6486   2.372   6.868   6.098
 1863SOL     OW 6487   1.466   2.087   2.426
 1863SOL    HW1 6488   1.391   2.150   2.407
 1863SOL    HW2 6489   1.453   2.044   2.515
 1864SOL     OW 6490   1.346   6.804   5.480
 1864SOL    HW1 6491   1.313   6.714   5.451
 1864SOL    HW2 6492   1.435   6.794   5.524
 1865SOL     OW 6493   3.491   6.597   6.365
 1865SOL    HW1 6494   3.558   6.624   6.295
 1865SOL    HW2 6495   3.467   6.501   6.352
 1866SOL     OW 6496   4.265   5.231   3.337
 1866SOL    HW1 6497   4.169   5.255   3.354
 1866SOL    HW2 6498   4.303   5.185   3.417
 1867SOL     OW 6499   0.477   4.336   0.237
 1867SOL    HW1 6500   0.553   4.398   0.254
 1867SOL    HW2 6501   0.511   4.255   0.188
 1868SOL     OW 6502   4.693   4.032   6.631
 1868SOL    HW1 6503   4.714   4.114   6.684
 1868SOL    HW2 6504   4.765   3.964   6.644
 1869SOL     OW 6505   6.022   2.875   5.527
 1869SOL    HW1 6506   6.073   2.897   5.610
 1869SOL    HW2 6507   5.956   2.948   5.508
 1870SOL     OW 6508   1.640   2.998   5.487
 1870SOL    HW1 6509   1.598   2.921   5.440
 1870SOL    HW2 6510   1.736   3.005   5.461
 1871SOL     OW 6511   0.315   0.625   0.323
 1871SOL    HW1 6512   0.270   0.536   0.312
 1871SOL    HW2 6513   0.385   0.635   0.251
 1872SOL     OW 6514   3.834   1.549   6.003
 1872SOL    HW1 6515   3.896   1.472   5.986
 1872SOL    HW2 6516   3.745   1.530   5.963
 1873SOL     OW 6517   5.293   1.396   5.701
 1873SOL    HW1 6518   5.230   1.389   5.779
 1873SOL    HW2 6519   5.246   1.366   5.618
 1874SOL     OW 6520   3.316   1.700   0.637
 1874SOL    HW1 6521   3.406   1.684   0.598
 1874SOL    HW2 6522   3.246   1.690   0.566
 1875SOL     OW 6523   0.051   1.010   0.042
 1875SOL    HW1 6524   6.988   0.965   0.022
 1875SOL    HW2 6525   0.106   1.013   6.983
 1876SOL     OW 6526   3.785   6.482   6.300
 1876SOL    HW1 6527   3.769   6.573   6.263
 1876SOL    HW2 6528   3.884   6.465   6.305
 1877SOL     OW 6529   0.333   0.154   2.490
 1877SOL    HW1 6530   0.340   0.245   2.529
 1877SOL    HW2 6531   0.320   0.161   2.391
 1878SOL     OW 6532   6.730   2.561   3.651
 1878SOL    HW1 6533   6.743   2.560   3.750
 1878SOL    HW2 6534   6.694   2.473   3.621
 1879SOL     OW 6535   1.358   4.944   4.040
 1879SOL    HW1 6536   1.405   5.031   4.058
 1879SOL    HW2 6537   1.422   4.868   4.054
 1880SOL     OW 6538   6.337   1.078   4.328
 1880SOL    HW1 6539   6.262   1.143   4.333
 1880SOL    HW2 6540   6.418   1.122   4.290
 1881SOL     OW 6541   6.118   2.616   2.634
 1881SOL    HW1 6542   6.133   2.517   2.635
 1881SOL    HW2 6543   6.198   2.661   2.595
 1882SOL     OW 6544   0.469   3.489   6.386
 1882SOL    HW1 6545   0.377   3.495   6.426
 1882SOL    HW2 6546   0.531   3.549   6.436
 1883SOL     OW 6547   0.846   2.001   4.006
 1883SOL    HW1 6548   0.826   2.088   4.052
 1883SOL    HW2 6549   0.813   2.005   3.912
 1884SOL     OW 6550   6.411   3.297   0.520
 1884SOL    HW1 6551   6.462   3.216   0.550
 1884SOL    HW2 6552   6.322   3.299   0.565
 1885SOL     OW 6553   1.551   2.522   6.259
 1885SOL    HW1 6554   1.505   2.530   6.347
 1885SOL    HW2 6555   1.637   2.472   6.270
 1886SOL     OW 6556   2.390   0.947   1.417
 1886SOL    HW1 6557   2.335   1.008   1.474
 1886SOL    HW2 6558   2.329   0.886   1.366
 1887SOL     OW 6559   0.877   5.402   5.095
 1887SOL    HW1 6560   0.898   5.331   5.029
 1887SOL    HW2 6561   0.839   5.361   5.178
 1888SOL     OW 6562   2.425   2.321   6.895
 1888SOL    HW1 6563   2.336   2.292   6.928
 1888SOL    HW2 6564   2.460   2.254   6.829
 1889SOL     OW 6565   0.436   2.965   6.069
 1889SOL    HW1 6566   0.443   2.886   6.009
 1889SOL    HW2 6567   0.481   3.044   6.026
 1890SOL     OW 6568   1.598   6.629   4.787
 1890SOL    HW1 6569   1.647   6.549   4.821
 1890SOL    HW2 6570   1.558   6.609   4.698
 1891SOL     OW 6571   5.244   2.195   1.917
 1891SOL    HW1 6572   5.262   2.121   1.982
 1891SOL    HW2 6573   5.229   2.280   1.968
 1892SOL     OW 6574   2.321   1.082   2.554
 1892SOL    HW1 6575   2.285   1.003   2.603
 1892SOL    HW2 6576   2.250   1.120   2.495
 1893SOL     OW 6577   3.629   3.258   7.008
 1893SOL    HW1 6578   3.727   3.258   0.007
 1893SOL    HW2 6579   3.576   3.283   0.064
 1894SOL     OW 6580   3.567   4.159   3.952
 1894SOL    HW1 6581   3.545   4.117   4.040
 1894SOL    HW2 6582   3.656   4.125   3.920
 1895SOL     OW 6583   5.180   0.591   1.517
 1895SOL    HW1 6584   5.267   0.616   1.559
 1895SOL    HW2 6585   5.193   0.578   1.418
 1896SOL     OW 6586   5.658   0.147   1.659
 1896SOL    HW1 6587   5.580   0.206   1.641
 1896SOL    HW2 6588   5.634   0.053   1.638
 1897SOL     OW 6589   1.581   5.233   1.702
 1897SOL    HW1 6590   1.609   5.257   1.609
 1897SOL    HW2 6591   1.505   5.169   1.698
 1898SOL     OW 6592   2.147   5.655   3.536
 1898SOL    HW1 6593   2.167   5.581   3.472
 1898SOL    HW2 6594   2.123   5.737   3.485
 1899SOL     OW 6595   1.249   0.770   2.233
 1899SOL    HW1 6596   1.310   0.694   2.257
 1899SOL    HW2 6597   1.230   0.825   2.314
 1900SOL     OW 6598   1.298   0.357   6.546
 1900SOL    HW1 6599   1.207   0.315   6.541
 1900SOL    HW2 6600   1.290   0.450   6.582
 1901SOL     OW 6601   1.884   1.690   1.126
 1901SOL    HW1 6602   1.915   1.766   1.184
 1901SOL    HW2 6603   1.786   1.676   1.139
 1902SOL     OW 6604   2.096   1.989   5.190
 1902SOL    HW1 6605   2.056   2.050   5.122
 1902SOL    HW2 6606   2.120   1.902   5.147
 1903SOL     OW 6607   6.834   3.240   2.519
 1903SOL    HW1 6608   6.799   3.174   2.453
 1903SOL    HW2 6609   6.886   3.311   2.472
 1904SOL     OW 6610   5.304   5.717   3.515
 1904SOL    HW1 6611   5.258   5.692   3.600
 1904SOL    HW2 6612   5.237   5.720   3.441
 1905SOL     OW 6613   1.222   0.156   3.523
 1905SOL    HW1 6614   1.271   0.111   3.448
 1905SOL    HW2 6615   1.276   0.149   3.607
 1906SOL     OW 6616   2.445   0.418   4.891
 1906SOL    HW1 6617   2.523   0.416   4.954
 1906SOL    HW2 6618   2.407   0.326   4.883
 1907SOL     OW 6619   3.643   0.988   1.409
 1907SOL    HW1 6620   3.582   0.942   1.344
 1907SOL    HW2 6621   3.717   1.032   1.360
 1908SOL     OW 6622   3.757   6.507   5.128
 1908SOL    HW1 6623   3.787   6.412   5.129
 1908SOL    HW2 6624   3.835   6.567   5.108
 1909SOL     OW 6625   6.932   3.765   2.748
 1909SOL    HW1 6626   6.987   3.725   2.675
 1909SOL    HW2 6627   6.875   3.838   2.711
 1910SOL     OW 6628   0.368   4.067   7.014
 1910SOL    HW1 6629   0.409   4.002   6.950
 1910SOL    HW2 6630   0.436   4.094   0.058
 1911SOL     OW 6631   6.776   3.688   4.949
 1911SOL    HW1 6632   6.679   3.683   4.926
 1911SOL    HW2 6633   6.790   3.751   5.025
 1912SOL     OW 6634   3.849   5.905   0.913
 1912SOL    HW1 6635   3.819   5.849   0.990
 1912SOL    HW2 6636   3.779   5.903   0.841
 1913SOL     OW 6637   2.396   6.714   4.739
 1913SOL    HW1 6638   2.434   6.799   4.703
 1913SOL    HW2 6639   2.469   6.659   4.780
 1914SOL     OW 6640   3.618   2.966   6.032
 1914SOL    HW1 6641   3.578   3.020   5.958
 1914SOL    HW2 6642   3.602   2.869   6.015
 1915SOL     OW 6643   3.278   2.037   5.023
 1915SOL    HW1 6644   3.229   2.124   5.018
 1915SOL    HW2 6645   3.284   2.008   5.119
 1916SOL     OW 6646   4.112   5.868   1.474
 1916SOL    HW1 6647   4.036   5.813   1.510
 1916SOL    HW2 6648   4.177   5.888   1.547
 1917SOL     OW 6649   2.545   2.836   6.372
 1917SOL    HW1 6650   2.548   2.931   6.339
 1917SOL    HW2 6651   2.478   2.828   6.445
 1918SOL     OW 6652   1.198   1.143   5.511
 1918SOL    HW1 6653   1.157   1.181   5.428
 1918SOL    HW2 6654   1.298   1.151   5.505
 1919SOL     OW 6655   2.013   0.878   1.577
 1919SOL    HW1 6656   1.977   0.785   1.571
 1919SOL    HW2 6657   2.077   0.883   1.654
 1920SOL     OW 6658   0.117   3.972   2.727
 1920SOL    HW1 6659   0.211   3.970   2.762
 1920SOL    HW2 6660   0.054   3.940   2.798
 1921SOL     OW 6661   1.578   3.766   6.074
 1921SOL    HW1 6662   1.489   3.811   6.076
 1921SOL    HW2 6663   1.645   3.826   6.030
 1922SOL     OW 6664   2.171   3.565   0.995
 1922SOL    HW1 6665   2.224   3.506   1.056
 1922SOL    HW2 6666   2.129   3.639   1.049
 1923SOL     OW 6667   4.079   0.795   5.517
 1923SOL    HW1 6668   4.030   0.765   5.599
 1923SOL    HW2 6669   4.041   0.883   5.486
 1924SOL     OW 6670   4.955   6.690   0.021
 1924SOL    HW1 6671   4.993   6.770   0.068
 1924SOL    HW2 6672   5.013   6.611   0.040
 1925SOL     OW 6673   1.948   4.964   1.159
 1925SOL    HW1 6674   1.883   4.899   1.198
 1925SOL    HW2 6675   1.934   4.971   1.060
 1926SOL     OW 6676   2.520   6.951   3.067
 1926SOL    HW1 6677   2.533   7.007   2.985
 1926SOL    HW2 6678   2.463   6.872   3.044
 1927SOL     OW 6679   2.648   4.490   0.419
 1927SOL    HW1 6680   2.565   4.495   0.473
 1927SOL    HW2 6681   2.711   4.424   0.461
 1928SOL     OW 6682   6.489   4.256   5.421
 1928SOL    HW1 6683   6.551   4.318   5.470
 1928SOL    HW2 6684   6.500   4.163   5.456
 1929SOL     OW 6685   2.291   0.028   1.339
 1929SOL    HW1 6686   2.388   0.049   1.329
 1929SOL    HW2 6687   2.239   0.113   1.341
 1930SOL     OW 6688   4.080   3.658   6.403
 1930SOL    HW1 6689   4.135   3.578   6.424
 1930SOL    HW2 6690   4.138   3.729   6.364
 1931SOL     OW 6691   1.399   2.586   1.674
 1931SOL    HW1 6692   1.409   2.554   1.768
 1931SOL    HW2 6693   1.403   2.686   1.672
 1932SOL     OW 6694   4.809   2.347   3.008
 1932SOL    HW1 6695   4.740   2.417   3.029
 1932SOL    HW2 6696   4.872   2.338   3.085
 1933SOL     OW 6697   1.756   3.251   0.508
 1933SOL    HW1 6698   1.692   3.268   0.583
 1933SOL    HW2 6699   1.752   3.154   0.482
 1934SOL     OW 6700   6.577   0.223   5.491
 1934SOL    HW1 6701   6.499   0.192   5.545
 1934SOL    HW2 6702   6.641   0.273   5.549
 1935SOL     OW 6703   4.728   5.866   3.515
 1935SOL    HW1 6704   4.640   5.858   3.561
 1935SOL    HW2 6705   4.802   5.861   3.582
 1936SOL     OW 6706   5.436   4.231   3.791
 1936SOL    HW1 6707   5.400   4.300   3.854
 1936SOL    HW2 6708   5.500   4.171   3.840
 1937SOL     OW 6709   4.458   5.961   0.616
 1937SOL    HW1 6710   4.457   5.917   0.526
 1937SOL    HW2 6711   4.552   5.982   0.642
 1938SOL     OW 6712   1.055   1.841   1.942
 1938SOL    HW1 6713   1.155   1.839   1.944
 1938SOL    HW2 6714   1.023   1.936   1.948
 1939SOL     OW 6715   0.110   6.624   4.501
 1939SOL    HW1 6716   0.033   6.561   4.513
 1939SOL    HW2 6717   0.106   6.665   4.410
 1940SOL     OW 6718   5.791   5.436   0.778
 1940SOL    HW1 6719   5.817   5.528   0.747
 1940SOL    HW2 6720   5.698   5.440   0.816
 1941SOL     OW 6721   1.359   2.996   4.279
 1941SOL    HW1 6722   1.328   3.059   4.208
 1941SOL    HW2 6723   1.456   2.979   4.268
 1942SOL     OW 6724   5.587   2.800   1.617
 1942SOL    HW1 6725   5.566   2.735   1.691
 1942SOL    HW2 6726   5.521   2.788   1.543
 1943SOL     OW 6727   1.914   6.866   2.907
 1943SOL    HW1 6728   1.904   6.772   2.939
 1943SOL    HW2 6729   1.973   6.916   2.970
 1944SOL     OW 6730   5.973   3.638   0.179
 1944SOL    HW1 6731   5.957   3.726   0.224
 1944SOL    HW2 6732   5.886   3.590   0.167
 1945SOL     OW 6733   4.171   5.479   0.061
 1945SOL    HW1 6734   4.261   5.515   0.087
 1945SOL    HW2 6735   4.137   5.529   7.006
 1946SOL     OW 6736   5.943   6.752   0.970
 1946SOL    HW1 6737   5.898   6.827   0.921
 1946SOL    HW2 6738   5.970   6.681   0.904
 1947SOL     OW 6739   5.780   6.502   4.533
 1947SOL    HW1 6740   5.825   6.412   4.531
 1947SOL    HW2 6741   5.684   6.492   4.508
 1948SOL     OW 6742   6.649   4.888   2.832
 1948SOL    HW1 6743   6.579   4.841   2.778
 1948SOL    HW2 6744   6.624   4.884   2.928
 1949SOL     OW 6745   3.610   3.569   6.443
 1949SOL    HW1 6746   3.630   3.516   6.361
 1949SOL    HW2 6747   3.681   3.637   6.457
 1950SOL     OW 6748   3.860   3.045   1.220
 1950SOL    HW1 6749   3.781   3.070   1.275
 1950SOL    HW2 6750   3.857   3.093   1.132
 1951SOL     OW 6751   6.694   4.726   6.795
 1951SOL    HW1 6752   6.601   4.752   6.770
 1951SOL    HW2 6753   6.700   4.712   6.894
 1952SOL     OW 6754   4.958   4.305   1.340
 1952SOL    HW1 6755   4.888   4.240   1.310
 1952SOL    HW2 6756   4.967   4.300   1.440
 1953SOL     OW 6757   5.972   1.536   5.284
 1953SOL    HW1 6758   5.923   1.594   5.350
 1953SOL    HW2 6759   5.993   1.590   5.202
 1954SOL     OW 6760   6.514   0.319   1.510
 1954SOL    HW1 6761   6.490   0.388   1.578
 1954SOL    HW2 6762   6.436   0.258   1.495
 1955SOL     OW 6763   0.369   0.108   3.086
 1955SOL    HW1 6764   0.465   0.109   3.113
 1955SOL    HW2 6765   0.313   0.077   3.163
 1956SOL     OW 6766   5.196   6.752   1.719
 1956SOL    HW1 6767   5.170   6.795   1.632
 1956SOL    HW2 6768   5.248   6.669   1.700
 1957SOL     OW 6769   5.345   4.465   3.943
 1957SOL    HW1 6770   5.439   4.500   3.941
 1957SOL    HW2 6771   5.301   4.482   3.855
 1958SOL     OW 6772   4.705   1.852   1.628
 1958SOL    HW1 6773   4.747   1.916   1.692
 1958SOL    HW2 6774   4.716   1.759   1.661
 1959SOL     OW 6775   1.406   0.068   3.712
 1959SOL    HW1 6776   1.410   6.994   3.695
 1959SOL    HW2 6777   1.386   0.085   3.809
 1960SOL     OW 6778   0.492   3.800   2.474
 1960SOL    HW1 6779   0.569   3.836   2.527
 1960SOL    HW2 6780   0.523   3.777   2.382
 1961SOL     OW 6781   6.783   4.374   4.735
 1961SOL    HW1 6782   6.776   4.331   4.645
 1961SOL    HW2 6783   6.809   4.305   4.803
 1962SOL     OW 6784   1.596   6.418   2.492
 1962SOL    HW1 6785   1.687   6.419   2.533
 1962SOL    HW2 6786   1.590   6.346   2.424
 1963SOL     OW 6787   0.571   1.640   1.548
 1963SOL    HW1 6788   0.635   1.592   1.488
 1963SOL    HW2 6789   0.617   1.718   1.590
 1964SOL     OW 6790   4.242   4.588   1.626
 1964SOL    HW1 6791   4.336   4.621   1.620
 1964SOL    HW2 6792   4.243   4.488   1.632
 1965SOL     OW 6793   1.715   3.133   4.514
 1965SOL    HW1 6794   1.630   3.141   4.565
 1965SOL    HW2 6795   1.788   3.101   4.575
 1966SOL     OW 6796   0.563   6.059   1.315
 1966SOL    HW1 6797   0.482   6.073   1.372
 1966SOL    HW2 6798   0.613   5.979   1.348
 1967SOL     OW 6799   5.637   2.857   3.927
 1967SOL    HW1 6800   5.657   2.892   4.018
 1967SOL    HW2 6801   5.664   2.925   3.859
 1968SOL     OW 6802   1.973   0.485   5.430
 1968SOL    HW1 6803   1.889   0.535   5.412
 1968SOL    HW2 6804   2.029   0.482   5.346
 1969SOL     OW 6805   2.713   1.332   0.841
 1969SOL    HW1 6806   2.648   1.293   0.907
 1969SOL    HW2 6807   2.716   1.431   0.853
 1970SOL     OW 6808   2.199   0.041   5.911
 1970SOL    HW1 6809   2.167   0.036   5.817
 1970SOL    HW2 6810   2.264   6.992   5.929
 1971SOL     OW 6811   0.092   0.702   5.221
 1971SOL    HW1 6812   0.008   0.649   5.213
 1971SOL    HW2 6813   0.103   0.732   5.316
 1972SOL     OW 6814   5.721   1.963   1.236
 1972SOL    HW1 6815   5.735   2.051   1.282
 1972SOL    HW2 6816   5.700   1.893   1.305
 1973SOL     OW 6817   2.699   3.631   0.735
 1973SOL    HW1 6818   2.657   3.705   0.789
 1973SOL    HW2 6819   2.642   3.612   0.655
 1974SOL     OW 6820   5.044   0.385   4.753
 1974SOL    HW1 6821   5.017   0.469   4.801
 1974SOL    HW2 6822   5.094   0.410   4.670
 1975SOL     OW 6823   2.063   2.206   3.907
 1975SOL    HW1 6824   2.112   2.156   3.835
 1975SOL    HW2 6825   2.063   2.152   3.991
 1976SOL     OW 6826   6.328   6.486   0.452
 1976SOL    HW1 6827   6.296   6.434   0.530
 1976SOL    HW2 6828   6.316   6.584   0.470
 1977SOL     OW 6829   1.836   3.449   5.474
 1977SOL    HW1 6830   1.933   3.450   5.498
 1977SOL    HW2 6831   1.810   3.358   5.444
 1978SOL     OW 6832   2.123   5.927   3.097
 1978SOL    HW1 6833   2.094   5.956   3.006
 1978SOL    HW2 6834   2.223   5.927   3.102
 1979SOL     OW 6835   5.418   4.998   6.870
 1979SOL    HW1 6836   5.495   5.032   6.922
 1979SOL    HW2 6837   5.442   4.994   6.773
 1980SOL     OW 6838   4.029   6.789   4.008
 1980SOL    HW1 6839   3.952   6.776   4.071
 1980SOL    HW2 6840   4.052   6.702   3.965
 1981SOL     OW 6841   5.851   3.593   2.287
 1981SOL    HW1 6842   5.755   3.565   2.296
 1981SOL    HW2 6843   5.910   3.513   2.290
 1982SOL     OW 6844   6.713   4.398   3.617
 1982SOL    HW1 6845   6.739   4.370   3.709
 1982SOL    HW2 6846   6.654   4.479   3.622
 1983SOL     OW 6847   1.830   6.881   1.457
 1983SOL    HW1 6848   1.852   6.967   1.503
 1983SOL    HW2 6849   1.760   6.898   1.388
 1984SOL     OW 6850   4.632   2.671   4.864
 1984SOL    HW1 6851   4.618   2.703   4.771
 1984SOL    HW2 6852   4.577   2.589   4.881
 1985SOL     OW 6853   0.186   6.205   2.849
 1985SOL    HW1 6854   0.215   6.260   2.771
 1985SOL    HW2 6855   0.256   6.209   2.920
 1986SOL     OW 6856   2.998   1.190   6.595
 1986SOL    HW1 6857   3.012   1.116   6.529
 1986SOL    HW2 6858   2.901   1.196   6.619
 1987SOL     OW 6859   2.171   1.875   3.114
 1987SOL    HW1 6860   2.151   1.907   3.022
 1987SOL    HW2 6861   2.163   1.951   3.178
 1988SOL     OW 6862   6.976   3.435   0.819
 1988SOL    HW1 6863   6.946   3.358   0.874
 1988SOL    HW2 6864   0.052   3.435   0.813
 1989SOL     OW 6865   1.853   5.489   5.460
 1989SOL    HW1 6866   1.922   5.444   5.517
 1989SOL    HW2 6867   1.836   5.435   5.378
 1990SOL     OW 6868   4.047   5.717   0.783
 1990SOL    HW1 6869   4.013   5.799   0.829
 1990SOL    HW2 6870   3.978   5.645   0.786
 1991SOL     OW 6871   2.528   5.987   0.306
 1991SOL    HW1 6872   2.502   5.890   0.298
 1991SOL    HW2 6873   2.556   6.021   0.216
 1992SOL     OW 6874   0.092   0.753   0.248
 1992SOL    HW1 6875   0.160   0.709   0.307
 1992SOL    HW2 6876   0.125   0.843   0.221
 1993SOL     OW 6877   3.577   1.796   5.857
 1993SOL    HW1 6878   3.665   1.811   5.902
 1993SOL    HW2 6879   3.509   1.860   5.893
 1994SOL     OW 6880   6.452   2.263   0.488
 1994SOL    HW1 6881   6.369   2.268   0.543
 1994SOL    HW2 6882   6.482   2.356   0.464
 1995SOL     OW 6883   5.193   2.838   3.824
 1995SOL    HW1 6884   5.100   2.814   3.853
 1995SOL    HW2 6885   5.212   2.793   3.737
 1996SOL     OW 6886   2.567   1.878   0.966
 1996SOL    HW1 6887   2.500   1.874   0.891
 1996SOL    HW2 6888   2.574   1.972   0.999
 1997SOL     OW 6889   3.720   1.919   4.198
 1997SOL    HW1 6890   3.762   1.965   4.120
 1997SOL    HW2 6891   3.654   1.851   4.166
 1998SOL     OW 6892   1.436   3.353   0.437
 1998SOL    HW1 6893   1.388   3.285   0.382
 1998SOL    HW2 6894   1.417   3.335   0.534
 1999SOL     OW 6895   1.723   6.976   6.127
 1999SOL    HW1 6896   1.723   0.030   6.190
 1999SOL    HW2 6897   1.737   6.892   6.179
 2000SOL     OW 6898   3.596   2.491   5.670
 2000SOL    HW1 6899   3.677   2.529   5.715
 2000SOL    HW2 6900   3.623   2.445   5.586
 2001SOL     OW 6901   2.080   1.103   1.317
 2001SOL    HW1 6902   2.119   1.182   1.363
 2001SOL    HW2 6903   2.118   1.095   1.225
 2002SOL     OW 6904   0.140   4.495   0.411
 2002SOL    HW1 6905   0.184   4.579   0.444
 2002SOL    HW2 6906   0.197   4.416   0.433
 2003SOL     OW 6907   6.922   5.028   2.476
 2003SOL    HW1 6908   6.995   5.073   2.527
 2003SOL    HW2 6909   6.949   5.018   2.380
 2004SOL     OW 6910   5.341   0.838   4.240
 2004SOL    HW1 6911   5.260   0.862   4.293
 2004SOL    HW2 6912   5.416   0.817   4.302
 2005SOL     OW 6913   6.924   4.755   0.728
 2005SOL    HW1 6914   7.005   4.716   0.772
 2005SOL    HW2 6915   6.904   4.844   0.769
 2006SOL     OW 6916   5.600   0.274   3.435
 2006SOL    HW1 6917   5.506   0.305   3.446
 2006SOL    HW2 6918   5.650   0.339   3.378
 2007SOL     OW 6919   5.115   4.631   1.190
 2007SOL    HW1 6920   5.179   4.652   1.116
 2007SOL    HW2 6921   5.145   4.547   1.236
 2008SOL     OW 6922   1.918   4.056   3.705
 2008SOL    HW1 6923   1.999   3.999   3.696
 2008SOL    HW2 6924   1.907   4.111   3.623
 2009SOL     OW 6925   4.690   7.019   2.746
 2009SOL    HW1 6926   4.735   0.074   2.787
 2009SOL    HW2 6927   4.698   6.940   2.807
 2010SOL     OW 6928   2.371   1.753   1.743
 2010SOL    HW1 6929   2.312   1.788   1.670
 2010SOL    HW2 6930   2.461   1.732   1.707
 2011SOL     OW 6931   0.793   0.704   4.742
 2011SOL    HW1 6932   0.715   0.669   4.793
 2011SOL    HW2 6933   0.809   0.799   4.766
 2012SOL     OW 6934   1.325   4.049   2.658
 2012SOL    HW1 6935   1.399   4.107   2.693
 2012SOL    HW2 6936   1.337   4.036   2.559
 2013SOL     OW 6937   5.717   3.297   4.086
 2013SOL    HW1 6938   5.774   3.369   4.126
 2013SOL    HW2 6939   5.697   3.229   4.156
 2014SOL     OW 6940   2.920   6.929   3.290
 2014SOL    HW1 6941   2.841   6.981   3.322
 2014SOL    HW2 6942   2.987   6.921   3.364
 2015SOL     OW 6943   2.237   0.075   0.915
 2015SOL    HW1 6944   2.270   0.024   0.835
 2015SOL    HW2 6945   2.232   0.015   0.994
 2016SOL     OW 6946   1.781   5.660   5.783
 2016SOL    HW1 6947   1.754   5.610   5.865
 2016SOL    HW2 6948   1.709   5.726   5.759
 2017SOL     OW 6949   4.192   0.469   2.961
 2017SOL    HW1 6950   4.135   0.535   2.913
 2017SOL    HW2 6951   4.136   0.389   2.986
 2018SOL     OW 6952   6.046   2.991   3.794
 2018SOL    HW1 6953   6.136   2.960   3.825
 2018SOL    HW2 6954   6.013   2.929   3.722
 2019SOL     OW 6955   5.531   4.005   6.324
 2019SOL    HW1 6956   5.599   3.962   6.265
 2019SOL    HW2 6957   5.445   3.955   6.317
 2020SOL     OW 6958   1.954   0.096   6.449
 2020SOL    HW1 6959   2.036   0.106   6.391
 2020SOL    HW2 6960   1.921   0.187   6.475
 2021SOL     OW 6961   6.716   6.705   4.873
 2021SOL    HW1 6962   6.807   6.708   4.914
 2021SOL    HW2 6963   6.659   6.779   4.911
 2022SOL     OW 6964   1.400   4.574   4.208
 2022SOL    HW1 6965   1.467   4.548   4.137
 2022SOL    HW2 6966   1.448   4.589   4.294
 2023SOL     OW 6967   0.695   0.769   6.630
 2023SOL    HW1 6968   0.681   0.690   6.571
 2023SOL    HW2 6969   0.785   0.809   6.610
 2024SOL     OW 6970   0.157   5.538   3.788
 2024SOL    HW1 6971   0.168   5.451   3.741
 2024SOL    HW2 6972   0.175   5.526   3.886
 2025SOL     OW 6973   4.233   1.024   3.871
 2025SOL    HW1 6974   4.157   0.959   3.883
 2025SOL    HW2 6975   4.200   1.116   3.891
 2026SOL     OW 6976   6.724   2.478   6.395
 2026SOL    HW1 6977   6.717   2.489   6.494
 2026SOL    HW2 6978   6.819   2.458   6.370
 2027SOL     OW 6979   1.425   0.242   1.607
 2027SOL    HW1 6980   1.368   0.234   1.689
 2027SOL    HW2 6981   1.521   0.224   1.633
 2028SOL     OW 6982   3.422   5.418   4.650
 2028SOL    HW1 6983   3.422   5.394   4.552
 2028SOL    HW2 6984   3.375   5.347   4.701
 2029SOL     OW 6985   6.424   1.889   0.218
 2029SOL    HW1 6986   6.325   1.897   0.208
 2029SOL    HW2 6987   6.467   1.973   0.187
 2030SOL     OW 6988   3.113   0.301   3.361
 2030SOL    HW1 6989   3.125   0.308   3.262
 2030SOL    HW2 6990   3.019   0.327   3.384
 2031SOL     OW 6991   6.774   5.743   2.098
 2031SOL    HW1 6992   6.863   5.782   2.075
 2031SOL    HW2 6993   6.706   5.774   2.032
 2032SOL     OW 6994   3.909   1.627   1.525
 2032SOL    HW1 6995   3.861   1.651   1.610
 2032SOL    HW2 6996   3.912   1.706   1.464
 2033SOL     OW 6997   2.533   1.696   0.623
 2033SOL    HW1 6998   2.588   1.647   0.556
 2033SOL    HW2 6999   2.446   1.649   0.636
 2034SOL     OW 7000   2.796   5.196   5.792
 2034SOL    HW1 7001   2.819   5.293   5.778
 2034SOL    HW2 7002   2.797   5.149   5.704
 2035SOL     OW 7003   6.329   6.382   3.393
 2035SOL    HW1 7004   6.392   6.372   3.470
 2035SOL    HW2 7005   6.269   6.461   3.409
 2036SOL     OW 7006   1.309   3.186   2.862
 2036SOL    HW1 7007   1.397   3.149   2.833
 2036SOL    HW2 7008   1.320   3.279   2.895
 2037SOL     OW 7009   6.529   2.642   6.324
 2037SOL    HW1 7010   6.536   2.676   6.230
 2037SOL    HW2 7011   6.609   2.586   6.345
 2038SOL     OW 7012   2.314   1.533   0.663
 2038SOL    HW1 7013   2.327   1.458   0.597
 2038SOL    HW2 7014   2.217   1.550   0.676
 2039SOL     OW 7015   0.070   6.189   3.464
 2039SOL    HW1 7016   7.013   6.147   3.503
 2039SOL    HW2 7017   0.150   6.131   3.483
 2040SOL     OW 7018   1.886   2.218   7.004
 2040SOL    HW1 7019   1.896   2.296   0.042
 2040SOL    HW2 7020   1.885   2.133   0.033
 2041SOL     OW 7021   1.023   0.020   4.990
 2041SOL    HW1 7022   1.122   0.008   4.992
 2041SOL    HW2 7023   1.000   0.101   4.935
 2042SOL     OW 7024   5.510   6.689   6.158
 2042SOL    HW1 7025   5.434   6.647   6.108
 2042SOL    HW2 7026   5.550   6.761   6.102
 2043SOL     OW 7027   6.320   2.689   2.818
 2043SOL    HW1 7028   6.329   2.732   2.908
 2043SOL    HW2 7029   6.243   2.730   2.769
 2044SOL     OW 7030   6.443   0.599   1.123
 2044SOL    HW1 7031   6.385   0.533   1.172
 2044SOL    HW2 7032   6.408   0.691   1.137
 2045SOL     OW 7033   1.194   4.785   4.699
 2045SOL    HW1 7034   1.264   4.758   4.765
 2045SOL    HW2 7035   1.191   4.718   4.625
 2046SOL     OW 7036   6.391   1.879   4.886
 2046SOL    HW1 7037   6.486   1.849   4.895
 2046SOL    HW2 7038   6.347   1.877   4.976
 2047SOL     OW 7039   6.775   2.406   0.478
 2047SOL    HW1 7040   6.692   2.457   0.455
 2047SOL    HW2 7041   6.855   2.461   0.454
 2048SOL     OW 7042   0.389   0.043   5.185
 2048SOL    HW1 7043   0.393   6.970   5.163
 2048SOL    HW2 7044   0.353   0.054   5.278
 2049SOL     OW 7045   5.738   1.743   4.491
 2049SOL    HW1 7046   5.796   1.663   4.474
 2049SOL    HW2 7047   5.686   1.730   4.575
 2050SOL     OW 7048   6.775   2.537   4.223
 2050SOL    HW1 7049   6.691   2.484   4.233
 2050SOL    HW2 7050   6.854   2.480   4.249
 2051SOL     OW 7051   1.871   6.210   6.977
 2051SOL    HW1 7052   1.899   6.148   6.903
 2051SOL    HW2 7053   1.861   6.303   6.941
 2052SOL     OW 7054   1.440   2.897   1.108
 2052SOL    HW1 7055   1.472   2.812   1.064
 2052SOL    HW2 7056   1.343   2.889   1.127
 2053SOL     OW 7057   0.134   5.581   4.804
 2053SOL    HW1 7058   0.218   5.529   4.785
 2053SOL    HW2 7059   0.086   5.539   4.880
 2054SOL     OW 7060   2.996   3.817   3.105
 2054SOL    HW1 7061   2.950   3.756   3.041
 2054SOL    HW2 7062   3.057   3.878   3.056
 2055SOL     OW 7063   6.138   2.701   5.070
 2055SOL    HW1 7064   6.157   2.640   4.994
 2055SOL    HW2 7065   6.130   2.795   5.036
 2056SOL     OW 7066   4.131   5.074   1.985
 2056SOL    HW1 7067   4.091   5.155   2.028
 2056SOL    HW2 7068   4.061   5.003   1.976
 2057SOL     OW 7069   4.800   3.782   5.558
 2057SOL    HW1 7070   4.825   3.854   5.624
 2057SOL    HW2 7071   4.701   3.771   5.558
 2058SOL     OW 7072   0.283   6.431   2.353
 2058SOL    HW1 7073   0.266   6.399   2.446
 2058SOL    HW2 7074   0.340   6.365   2.305
 2059SOL     OW 7075   2.327   6.318   6.961
 2059SOL    HW1 7076   2.251   6.335   7.024
 2059SOL    HW2 7077   2.304   6.353   6.871
 2060SOL     OW 7078   0.643   3.582   1.654
 2060SOL    HW1 7079   0.566   3.605   1.714
 2060SOL    HW2 7080   0.668   3.663   1.600
 2061SOL     OW 7081   1.662   2.216   2.725
 2061SOL    HW1 7082   1.759   2.236   2.736
 2061SOL    HW2 7083   1.650   2.145   2.656
 2062SOL     OW 7084   0.277   6.298   5.722
 2062SOL    HW1 7085   0.258   6.321   5.627
 2062SOL    HW2 7086   0.213   6.346   5.782
 2063SOL     OW 7087   1.351   5.948   5.307
 2063SOL    HW1 7088   1.416   6.024   5.315
 2063SOL    HW2 7089   1.258   5.984   5.297
 2064SOL     OW 7090   0.213   2.189   4.738
 2064SOL    HW1 7091   0.241   2.219   4.647
 2064SOL    HW2 7092   0.170   2.265   4.786
 2065SOL     OW 7093   5.794   3.203   6.453
 2065SOL    HW1 7094   5.853   3.259   6.510
 2065SOL    HW2 7095   5.827   3.206   6.358
 2066SOL     OW 7096   6.917   3.998   5.492
 2066SOL    HW1 7097   6.851   3.924   5.501
 2066SOL    HW2 7098   6.939   4.012   5.396
 2067SOL     OW 7099   6.934   5.400   1.270
 2067SOL    HW1 7100   6.902   5.361   1.184
 2067SOL    HW2 7101   6.866   5.383   1.341
 2068SOL     OW 7102   4.218   0.311   4.159
 2068SOL    HW1 7103   4.280   0.292   4.083
 2068SOL    HW2 7104   4.135   0.354   4.124
 2069SOL     OW 7105   6.949   2.321   4.098
 2069SOL    HW1 7106   6.876   2.256   4.075
 2069SOL    HW2 7107   7.016   2.275   4.156
 2070SOL     OW 7108   1.199   1.946   1.316
 2070SOL    HW1 7109   1.180   1.899   1.230
 2070SOL    HW2 7110   1.292   1.926   1.346
 2071SOL     OW 7111   6.484   1.081   5.920
 2071SOL    HW1 7112   6.384   1.090   5.922
 2071SOL    HW2 7113   6.525   1.159   5.967
 2072SOL     OW 7114   4.469   5.112   4.400
 2072SOL    HW1 7115   4.393   5.077   4.454
 2072SOL    HW2 7116   4.554   5.070   4.430
 2073SOL     OW 7117   3.525   6.264   5.282
 2073SOL    HW1 7118   3.485   6.355   5.270
 2073SOL    HW2 7119   3.472   6.197   5.228
 2074SOL     OW 7120   1.826   2.653   6.894
 2074SOL    HW1 7121   1.728   2.651   6.871
 2074SOL    HW2 7122   1.879   2.642   6.811
 2075SOL     OW 7123   6.982   2.579   2.400
 2075SOL    HW1 7124   7.006   2.483   2.386
 2075SOL    HW2 7125   6.884   2.591   2.388
 2076SOL     OW 7126   5.746   6.427   6.076
 2076SOL    HW1 7127   5.669   6.478   6.040
 2076SOL    HW2 7128   5.827   6.485   6.078
 2077SOL     OW 7129   6.553   2.150   1.937
 2077SOL    HW1 7130   6.557   2.226   1.873
 2077SOL    HW2 7131   6.560   2.184   2.031
 2078SOL     OW 7132   1.826   5.202   6.659
 2078SOL    HW1 7133   1.843   5.118   6.606
 2078SOL    HW2 7134   1.870   5.194   6.748
 2079SOL     OW 7135   6.828   0.757   3.098
 2079SOL    HW1 7136   6.836   0.792   3.005
 2079SOL    HW2 7137   6.732   0.755   3.126
 2080SOL     OW 7138   3.205   1.085   4.845
 2080SOL    HW1 7139   3.177   0.989   4.835
 2080SOL    HW2 7140   3.304   1.089   4.859
 2081SOL     OW 7141   1.180   6.493   4.399
 2081SOL    HW1 7142   1.084   6.466   4.402
 2081SOL    HW2 7143   1.211   6.518   4.491
 2082SOL     OW 7144   0.787   6.537   3.248
 2082SOL    HW1 7145   0.799   6.485   3.164
 2082SOL    HW2 7146   0.872   6.585   3.270
 2083SOL     OW 7147   1.554   6.092   4.920
 2083SOL    HW1 7148   1.562   5.997   4.950
 2083SOL    HW2 7149   1.503   6.145   4.988
 2084SOL     OW 7150   0.748   2.908   2.005
 2084SOL    HW1 7151   0.668   2.920   1.946
 2084SOL    HW2 7152   0.830   2.936   1.955
 2085SOL     OW 7153   4.907   6.387   0.907
 2085SOL    HW1 7154   4.963   6.354   0.983
 2085SOL    HW2 7155   4.812   6.396   0.937
 2086SOL     OW 7156   3.664   6.099   0.237
 2086SOL    HW1 7157   3.631   6.025   0.295
 2086SOL    HW2 7158   3.594   6.123   0.170
 2087SOL     OW 7159   4.386   2.563   0.424
 2087SOL    HW1 7160   4.294   2.525   0.418
 2087SOL    HW2 7161   4.385   2.658   0.392
 2088SOL     OW 7162   1.687   5.704   6.375
 2088SOL    HW1 7163   1.605   5.654   6.348
 2088SOL    HW2 7164   1.688   5.794   6.330
 2089SOL     OW 7165   4.438   2.432   5.212
 2089SOL    HW1 7166   4.381   2.428   5.130
 2089SOL    HW2 7167   4.452   2.339   5.247
 2090SOL     OW 7168   4.731   3.039   5.285
 2090SOL    HW1 7169   4.743   3.118   5.224
 2090SOL    HW2 7170   4.769   2.958   5.241
 2091SOL     OW 7171   6.845   6.099   0.707
 2091SOL    HW1 7172   6.879   6.006   0.692
 2091SOL    HW2 7173   6.759   6.111   0.657
 2092SOL     OW 7174   5.496   3.816   0.821
 2092SOL    HW1 7175   5.561   3.782   0.753
 2092SOL    HW2 7176   5.517   3.775   0.910
 2093SOL     OW 7177   3.474   2.043   1.894
 2093SOL    HW1 7178   3.536   2.058   1.817
 2093SOL    HW2 7179   3.508   2.093   1.974
 2094SOL     OW 7180   5.205   1.991   1.097
 2094SOL    HW1 7181   5.289   1.958   1.140
 2094SOL    HW2 7182   5.199   2.090   1.106
 2095SOL     OW 7183   6.270   6.735   3.853
 2095SOL    HW1 7184   6.174   6.763   3.856
 2095SOL    HW2 7185   6.325   6.807   3.811
 2096SOL     OW 7186   4.585   5.382   3.463
 2096SOL    HW1 7187   4.596   5.284   3.480
 2096SOL    HW2 7188   4.657   5.413   3.400
 2097SOL     OW 7189   2.725   3.308   0.184
 2097SOL    HW1 7190   2.741   3.357   0.269
 2097SOL    HW2 7191   2.627   3.312   0.161
 2098SOL     OW 7192   3.992   6.299   2.922
 2098SOL    HW1 7193   4.073   6.354   2.905
 2098SOL    HW2 7194   4.019   6.206   2.946
 2099SOL     OW 7195   4.675   1.319   6.423
 2099SOL    HW1 7196   4.635   1.263   6.496
 2099SOL    HW2 7197   4.730   1.392   6.463
 2100SOL     OW 7198   4.539   1.430   6.991
 2100SOL    HW1 7199   4.510   1.434   0.063
 2100SOL    HW2 7200   4.637   1.409   6.987
 2101SOL     OW 7201   6.756   6.153   0.956
 2101SOL    HW1 7202   6.780   6.134   0.861
 2101SOL    HW2 7203   6.840   6.171   1.009
 2102SOL     OW 7204   4.688   3.717   1.741
 2102SOL    HW1 7205   4.702   3.621   1.718
 2102SOL    HW2 7206   4.776   3.762   1.751
 2103SOL     OW 7207   4.175   4.012   0.473
 2103SOL    HW1 7208   4.121   4.053   0.399
 2103SOL    HW2 7209   4.120   3.945   0.523
 2104SOL     OW 7210   1.439   4.587   1.918
 2104SOL    HW1 7211   1.360   4.527   1.931
 2104SOL    HW2 7212   1.427   4.670   1.973
 2105SOL     OW 7213   3.965   5.002   6.619
 2105SOL    HW1 7214   4.051   4.957   6.595
 2105SOL    HW2 7215   3.984   5.083   6.674
 2106SOL     OW 7216   5.259   3.578   0.985
 2106SOL    HW1 7217   5.254   3.664   1.037
 2106SOL    HW2 7218   5.180   3.571   0.925
 2107SOL     OW 7219   6.083   2.431   5.741
 2107SOL    HW1 7220   6.106   2.502   5.675
 2107SOL    HW2 7221   6.090   2.341   5.698
 2108SOL     OW 7222   5.790   5.662   4.875
 2108SOL    HW1 7223   5.711   5.601   4.887
 2108SOL    HW2 7224   5.767   5.752   4.911
 2109SOL     OW 7225   2.747   5.883   2.244
 2109SOL    HW1 7226   2.778   5.961   2.190
 2109SOL    HW2 7227   2.786   5.799   2.206
 2110SOL     OW 7228   3.819   0.807   6.145
 2110SOL    HW1 7229   3.724   0.808   6.177
 2110SOL    HW2 7230   3.850   0.712   6.137
 2111SOL     OW 7231   1.941   2.629   5.384
 2111SOL    HW1 7232   1.884   2.674   5.316
 2111SOL    HW2 7233   2.035   2.662   5.377
 2112SOL     OW 7234   5.431   1.867   6.835
 2112SOL    HW1 7235   5.347   1.916   6.857
 2112SOL    HW2 7236   5.412   1.769   6.828
 2113SOL     OW 7237   2.135   0.155   5.004
 2113SOL    HW1 7238   2.055   0.104   4.972
 2113SOL    HW2 7239   2.218   0.116   4.964
 2114SOL     OW 7240   2.193   2.949   6.960
 2114SOL    HW1 7241   2.245   2.891   7.021
 2114SOL    HW2 7242   2.095   2.931   6.971
 2115SOL     OW 7243   0.969   4.638   1.999
 2115SOL    HW1 7244   0.973   4.723   2.052
 2115SOL    HW2 7245   0.891   4.583   2.029
 2116SOL     OW 7246   1.634   2.990   1.576
 2116SOL    HW1 7247   1.696   2.962   1.503
 2116SOL    HW2 7248   1.562   2.921   1.586
 2117SOL     OW 7249   5.196   3.690   1.403
 2117SOL    HW1 7250   5.115   3.655   1.451
 2117SOL    HW2 7251   5.240   3.761   1.457
 2118SOL     OW 7252   6.495   3.744   2.803
 2118SOL    HW1 7253   6.545   3.658   2.796
 2118SOL    HW2 7254   6.409   3.729   2.852
 2119SOL     OW 7255   2.019   1.089   0.923
 2119SOL    HW1 7256   2.046   1.184   0.905
 2119SOL    HW2 7257   2.093   1.042   0.972
 2120SOL     OW 7258   0.214   2.788   2.079
 2120SOL    HW1 7259   0.240   2.699   2.042
 2120SOL    HW2 7260   0.115   2.797   2.078
 2121SOL     OW 7261   2.132   2.867   6.513
 2121SOL    HW1 7262   2.094   2.842   6.425
 2121SOL    HW2 7263   2.163   2.785   6.561
 2122SOL     OW 7264   6.104   6.460   5.765
 2122SOL    HW1 7265   6.195   6.420   5.777
 2122SOL    HW2 7266   6.108   6.558   5.783
 2123SOL     OW 7267   6.186   6.220   2.303
 2123SOL    HW1 7268   6.175   6.140   2.362
 2123SOL    HW2 7269   6.282   6.245   2.298
 2124SOL     OW 7270   2.923   1.793   7.008
 2124SOL    HW1 7271   2.978   1.710   7.000
 2124SOL    HW2 7272   2.876   1.810   6.921
 2125SOL     OW 7273   0.785   5.743   2.279
 2125SOL    HW1 7274   0.833   5.662   2.313
 2125SOL    HW2 7275   0.745   5.722   2.190
 2126SOL     OW 7276   3.932   2.630   6.120
 2126SOL    HW1 7277   3.841   2.596   6.142
 2126SOL    HW2 7278   3.958   2.702   6.184
 2127SOL     OW 7279   0.332   1.752   5.352
 2127SOL    HW1 7280   0.427   1.724   5.356
 2127SOL    HW2 7281   0.316   1.828   5.415
 2128SOL     OW 7282   6.029   2.622   0.847
 2128SOL    HW1 7283   5.961   2.604   0.776
 2128SOL    HW2 7284   6.027   2.548   0.915
 2129SOL     OW 7285   4.670   4.434   4.066
 2129SOL    HW1 7286   4.673   4.467   4.161
 2129SOL    HW2 7287   4.581   4.457   4.026
 2130SOL     OW 7288   2.248   1.544   1.272
 2130SOL    HW1 7289   2.252   1.582   1.365
 2130SOL    HW2 7290   2.299   1.604   1.210
 2131SOL     OW 7291   4.738   1.667   0.869
 2131SOL    HW1 7292   4.745   1.745   0.931
 2131SOL    HW2 7293   4.694   1.696   0.784
 2132SOL     OW 7294   3.334   1.599   6.821
 2132SOL    HW1 7295   3.304   1.512   6.859
 2132SOL    HW2 7296   3.379   1.653   6.893
 2133SOL     OW 7297   3.555   2.211   0.648
 2133SOL    HW1 7298   3.575   2.284   0.582
 2133SOL    HW2 7299   3.466   2.171   0.626
 2134SOL     OW 7300   1.169   0.880   5.000
 2134SOL    HW1 7301   1.225   0.876   5.083
 2134SOL    HW2 7302   1.157   0.975   4.972
 2135SOL     OW 7303   0.359   1.640   4.402
 2135SOL    HW1 7304   0.406   1.556   4.430
 2135SOL    HW2 7305   0.375   1.656   4.305
 2136SOL     OW 7306   1.170   3.608   4.533
 2136SOL    HW1 7307   1.097   3.553   4.574
 2136SOL    HW2 7308   1.143   3.633   4.439
 2137SOL     OW 7309   0.686   6.664   4.549
 2137SOL    HW1 7310   0.654   6.754   4.579
 2137SOL    HW2 7311   0.675   6.598   4.623
 2138SOL     OW 7312   6.001   2.978   1.693
 2138SOL    HW1 7313   5.939   2.933   1.628
 2138SOL    HW2 7314   6.047   3.054   1.649
 2139SOL     OW 7315   4.143   1.316   3.424
 2139SOL    HW1 7316   4.049   1.298   3.453
 2139SOL    HW2 7317   4.190   1.229   3.406
 2140SOL     OW 7318   3.135   6.681   3.154
 2140SOL    HW1 7319   3.043   6.716   3.169
 2140SOL    HW2 7320   3.134   6.618   3.076
 2141SOL     OW 7321   6.662   3.012   1.736
 2141SOL    HW1 7322   6.688   3.076   1.663
 2141SOL    HW2 7323   6.563   3.003   1.739
 2142SOL     OW 7324   1.278   2.452   3.366
 2142SOL    HW1 7325   1.259   2.371   3.422
 2142SOL    HW2 7326   1.195   2.506   3.356
 2143SOL     OW 7327   3.229   5.288   0.868
 2143SOL    HW1 7328   3.310   5.327   0.913
 2143SOL    HW2 7329   3.158   5.359   0.862
 2144SOL     OW 7330   2.067   0.518   2.820
 2144SOL    HW1 7331   2.011   0.599   2.836
 2144SOL    HW2 7332   2.013   0.436   2.838
 2145SOL     OW 7333   3.604   5.259   4.361
 2145SOL    HW1 7334   3.599   5.276   4.263
 2145SOL    HW2 7335   3.615   5.347   4.409
 2146SOL     OW 7336   3.038   3.643   2.600
 2146SOL    HW1 7337   3.105   3.622   2.672
 2146SOL    HW2 7338   2.973   3.567   2.592
 2147SOL     OW 7339   6.747   1.514   0.083
 2147SOL    HW1 7340   6.833   1.559   0.107
 2147SOL    HW2 7341   6.672   1.555   0.135
 2148SOL     OW 7342   5.306   3.103   4.415
 2148SOL    HW1 7343   5.324   3.005   4.418
 2148SOL    HW2 7344   5.296   3.138   4.508
 2149SOL     OW 7345   4.350   0.374   1.377
 2149SOL    HW1 7346   4.277   0.340   1.318
 2149SOL    HW2 7347   4.432   0.318   1.363
 2150SOL     OW 7348   3.105   2.083   2.076
 2150SOL    HW1 7349   3.028   2.145   2.090
 2150SOL    HW2 7350   3.157   2.112   1.996
 2151SOL     OW 7351   2.718   1.940   4.518
 2151SOL    HW1 7352   2.786   1.970   4.451
 2151SOL    HW2 7353   2.627   1.945   4.478
 2152SOL     OW 7354   4.041   6.395   2.251
 2152SOL    HW1 7355   3.999   6.318   2.202
 2152SOL    HW2 7356   4.043   6.475   2.192
 2153SOL     OW 7357   3.943   0.743   3.281
 2153SOL    HW1 7358   3.945   0.748   3.381
 2153SOL    HW2 7359   4.005   0.812   3.244
 2154SOL     OW 7360   3.092   6.190   4.871
 2154SOL    HW1 7361   3.180   6.170   4.829
 2154SOL    HW2 7362   3.098   6.276   4.922
 2155SOL     OW 7363   1.646   5.167   0.353
 2155SOL    HW1 7364   1.738   5.158   0.390
 2155SOL    HW2 7365   1.580   5.129   0.419
 2156SOL     OW 7366   2.935   0.712   1.729
 2156SOL    HW1 7367   2.914   0.810   1.723
 2156SOL    HW2 7368   2.989   0.685   1.649
 2157SOL     OW 7369   6.628   1.054   3.405
 2157SOL    HW1 7370   6.655   0.991   3.479
 2157SOL    HW2 7371   6.629   1.148   3.439
 2158SOL     OW 7372   3.637   6.499   0.352
 2158SOL    HW1 7373   3.698   6.421   0.366
 2158SOL    HW2 7374   3.686   6.573   0.306
 2159SOL     OW 7375   1.612   5.874   5.834
 2159SOL    HW1 7376   1.679   5.938   5.872
 2159SOL    HW2 7377   1.523   5.891   5.876
 2160SOL     OW 7378   4.490   3.797   1.588
 2160SOL    HW1 7379   4.452   3.887   1.610
 2160SOL    HW2 7380   4.561   3.773   1.655
 2161SOL     OW 7381   4.950   3.342   3.571
 2161SOL    HW1 7382   4.994   3.328   3.660
 2161SOL    HW2 7383   4.935   3.440   3.557
 2162SOL     OW 7384   2.667   0.311   0.245
 2162SOL    HW1 7385   2.688   0.267   0.332
 2162SOL    HW2 7386   2.596   0.259   0.198
 2163SOL     OW 7387   0.042   5.484   6.717
 2163SOL    HW1 7388   0.076   5.392   6.699
 2163SOL    HW2 7389   0.110   5.551   6.686
 2164SOL     OW 7390   1.655   1.499   7.019
 2164SOL    HW1 7391   1.571   1.508   0.048
 2164SOL    HW2 7392   1.647   1.421   6.956
 2165SOL     OW 7393   1.441   1.408   3.026
 2165SOL    HW1 7394   1.374   1.456   2.971
 2165SOL    HW2 7395   1.415   1.413   3.123
 2166SOL     OW 7396   1.937   2.251   5.934
 2166SOL    HW1 7397   1.887   2.293   6.010
 2166SOL    HW2 7398   1.890   2.271   5.848
 2167SOL     OW 7399   2.606   0.532   2.481
 2167SOL    HW1 7400   2.700   0.547   2.451
 2167SOL    HW2 7401   2.593   0.575   2.571
 2168SOL     OW 7402   6.463   2.271   4.424
 2168SOL    HW1 7403   6.367   2.296   4.409
 2168SOL    HW2 7404   6.486   2.287   4.520
 2169SOL     OW 7405   5.657   1.886   6.441
 2169SOL    HW1 7406   5.716   1.956   6.401
 2169SOL    HW2 7407   5.713   1.811   6.475
 2170SOL     OW 7408   5.924   4.760   4.993
 2170SOL    HW1 7409   5.878   4.836   5.040
 2170SOL    HW2 7410   5.905   4.765   4.895
 2171SOL     OW 7411   6.485   2.733   0.632
 2171SOL    HW1 7412   6.416   2.803   0.616
 2171SOL    HW2 7413   6.545   2.761   0.707
 2172SOL     OW 7414   3.356   1.310   0.539
 2172SOL    HW1 7415   3.316   1.218   0.532
 2172SOL    HW2 7416   3.316   1.368   0.469
 2173SOL     OW 7417   3.719   0.411   5.541
 2173SOL    HW1 7418   3.757   0.377   5.454
 2173SOL    HW2 7419   3.786   0.399   5.614
 2174SOL     OW 7420   6.118   5.164   5.736
 2174SOL    HW1 7421   6.186   5.092   5.747
 2174SOL    HW2 7422   6.155   5.236   5.677
 2175SOL     OW 7423   3.048   2.133   2.734
 2175SOL    HW1 7424   3.121   2.125   2.801
 2175SOL    HW2 7425   3.074   2.200   2.664
 2176SOL     OW 7426   0.760   2.033   1.623
 2176SOL    HW1 7427   0.770   2.128   1.653
 2176SOL    HW2 7428   0.781   1.971   1.698
 2177SOL     OW 7429   6.570   0.442   2.306
 2177SOL    HW1 7430   6.670   0.435   2.309
 2177SOL    HW2 7431   6.543   0.533   2.338
 2178SOL     OW 7432   0.734   4.229   0.574
 2178SOL    HW1 7433   0.750   4.139   0.534
 2178SOL    HW2 7434   0.807   4.291   0.547
 2179SOL     OW 7435   2.094   5.893   4.367
 2179SOL    HW1 7436   2.178   5.929   4.326
 2179SOL    HW2 7437   2.065   5.812   4.316
 2180SOL     OW 7438   2.926   3.158   1.925
 2180SOL    HW1 7439   2.855   3.099   1.888
 2180SOL    HW2 7440   2.894   3.253   1.926
 2181SOL     OW 7441   4.295   4.070   5.558
 2181SOL    HW1 7442   4.205   4.103   5.587
 2181SOL    HW2 7443   4.310   4.095   5.462
 2182SOL     OW 7444   6.796   3.053   6.383
 2182SOL    HW1 7445   6.711   3.037   6.433
 2182SOL    HW2 7446   6.823   2.968   6.337
 2183SOL     OW 7447   3.644   3.245   0.560
 2183SOL    HW1 7448   3.556   3.268   0.519
 2183SOL    HW2 7449   3.716   3.253   0.491
 2184SOL     OW 7450   3.575   6.999   5.378
 2184SOL    HW1 7451   3.583   0.075   5.378
 2184SOL    HW2 7452   3.617   6.962   5.295
 2185SOL     OW 7453   2.119   1.608   1.528
 2185SOL    HW1 7454   2.058   1.671   1.479
 2185SOL    HW2 7455   2.107   1.516   1.492
 2186SOL     OW 7456   0.053   4.481   2.275
 2186SOL    HW1 7457   6.982   4.512   2.273
 2186SOL    HW2 7458   0.057   4.389   2.314
 2187SOL     OW 7459   0.657   0.955   1.646
 2187SOL    HW1 7460   0.617   1.001   1.567
 2187SOL    HW2 7461   0.626   0.999   1.730
 2188SOL     OW 7462   4.922   5.887   3.685
 2188SOL    HW1 7463   4.996   5.883   3.752
 2188SOL    HW2 7464   4.929   5.973   3.634
 2189SOL     OW 7465   1.528   0.245   6.450
 2189SOL    HW1 7466   1.579   0.298   6.517
 2189SOL    HW2 7467   1.431   0.270   6.455
 2190SOL     OW 7468   6.126   2.751   1.175
 2190SOL    HW1 7469   6.084   2.713   1.093
 2190SOL    HW2 7470   6.222   2.771   1.157
 2191SOL     OW 7471   3.634   1.905   6.295
 2191SOL    HW1 7472   3.677   1.994   6.275
 2191SOL    HW2 7473   3.628   1.892   6.394
 2192SOL     OW 7474   4.256   6.874   4.699
 2192SOL    HW1 7475   4.233   6.954   4.644
 2192SOL    HW2 7476   4.325   6.819   4.652
 2193SOL     OW 7477   6.587   5.287   6.224
 2193SOL    HW1 7478   6.594   5.323   6.317
 2193SOL    HW2 7479   6.601   5.187   6.226
 2194SOL     OW 7480   2.500   5.647   0.339
 2194SOL    HW1 7481   2.547   5.582   0.279
 2194SOL    HW2 7482   2.433   5.699   0.287
 2195SOL     OW 7483   0.006   6.545   1.855
 2195SOL    HW1 7484   6.953   6.599   1.888
 2195SOL    HW2 7485   0.023   6.469   1.919
 2196SOL     OW 7486   2.293   0.717   5.832
 2196SOL    HW1 7487   2.358   0.654   5.791
 2196SOL    HW2 7488   2.258   0.780   5.763
 2197SOL     OW 7489   4.953   4.309   1.608
 2197SOL    HW1 7490   4.934   4.237   1.675
 2197SOL    HW2 7491   4.947   4.398   1.653
 2198SOL     OW 7492   0.013   2.739   6.813
 2198SOL    HW1 7493   0.052   2.829   6.832
 2198SOL    HW2 7494   0.060   2.670   6.868
 2199SOL     OW 7495   5.108   0.100   0.693
 2199SOL    HW1 7496   5.187   0.085   0.751
 2199SOL    HW2 7497   5.073   0.012   0.660
 2200SOL     OW 7498   4.057   0.844   4.144
 2200SOL    HW1 7499   3.970   0.885   4.116
 2200SOL    HW2 7500   4.103   0.805   4.065
 2201SOL     OW 7501   6.093   3.961   2.186
 2201SOL    HW1 7502   6.129   4.042   2.138
 2201SOL    HW2 7503   6.003   3.938   2.149
 2202SOL     OW 7504   3.471   4.978   4.615
 2202SOL    HW1 7505   3.566   4.963   4.586
 2202SOL    HW2 7506   3.409   4.948   4.542
 2203SOL     OW 7507   3.516   2.093   2.463
 2203SOL    HW1 7508   3.543   2.098   2.367
 2203SOL    HW2 7509   3.442   2.158   2.481
 2204SOL     OW 7510   3.822   1.361   6.355
 2204SOL    HW1 7511   3.793   1.452   6.325
 2204SOL    HW2 7512   3.764   1.292   6.312
 2205SOL     OW 7513   1.013   0.701   6.961
 2205SOL    HW1 7514   0.970   0.784   6.926
 2205SOL    HW2 7515   1.108   0.696   6.931
 2206SOL     OW 7516   3.119   4.339   5.697
 2206SOL    HW1 7517   3.047   4.269   5.708
 2206SOL    HW2 7518   3.136   4.353   5.599
 2207SOL     OW 7519   1.450   4.393   6.111
 2207SOL    HW1 7520   1.392   4.473   6.097
 2207SOL    HW2 7521   1.396   4.310   6.098
 2208SOL     OW 7522   1.611   4.969   2.130
 2208SOL    HW1 7523   1.649   4.988   2.221
 2208SOL    HW2 7524   1.612   5.053   2.076
 2209SOL     OW 7525   1.398   5.939   6.013
 2209SOL    HW1 7526   1.405   5.955   6.111
 2209SOL    HW2 7527   1.312   5.893   5.992
 2210SOL     OW 7528   0.945   5.363   3.057
 2210SOL    HW1 7529   0.920   5.434   3.123
 2210SOL    HW2 7530   0.903   5.276   3.084
 2211SOL     OW 7531   5.609   1.477   5.667
 2211SOL    HW1 7532   5.545   1.400   5.675
 2211SOL    HW2 7533   5.579   1.538   5.593
 2212SOL     OW 7534   0.426   6.156   6.977
 2212SOL    HW1 7535   0.363   6.078   6.972
 2212SOL    HW2 7536   0.471   6.168   6.888
 2213SOL     OW 7537   4.635   2.672   4.572
 2213SOL    HW1 7538   4.655   2.714   4.483
 2213SOL    HW2 7539   4.554   2.614   4.563
 2214SOL     OW 7540   4.224   0.807   5.070
 2214SOL    HW1 7541   4.264   0.883   5.019
 2214SOL    HW2 7542   4.287   0.729   5.069
 2215SOL     OW 7543   6.882   1.281   5.805
 2215SOL    HW1 7544   6.940   1.209   5.767
 2215SOL    HW2 7545   6.927   1.369   5.794
 2216SOL     OW 7546   1.478   0.293   6.940
 2216SOL    HW1 7547   1.482   0.262   6.845
 2216SOL    HW2 7548   1.564   0.336   6.965
 2217SOL     OW 7549   3.653   0.233   0.868
 2217SOL    HW1 7550   3.624   0.253   0.962
 2217SOL    HW2 7551   3.588   0.171   0.825
 2218SOL     OW 7552   0.964   6.735   0.467
 2218SOL    HW1 7553   1.039   6.800   0.453
 2218SOL    HW2 7554   0.879   6.775   0.435
 2219SOL     OW 7555   1.431   3.908   2.999
 2219SOL    HW1 7556   1.372   3.937   3.074
 2219SOL    HW2 7557   1.448   3.985   2.938
 2220SOL     OW 7558   0.421   1.389   3.993
 2220SOL    HW1 7559   0.405   1.486   4.015
 2220SOL    HW2 7560   0.473   1.383   3.908
 2221SOL     OW 7561   6.932   2.051   0.863
 2221SOL    HW1 7562   7.015   2.047   0.807
 2221SOL    HW2 7563   6.883   1.964   0.856
 2222SOL     OW 7564   4.461   0.853   1.000
 2222SOL    HW1 7565   4.378   0.888   1.044
 2222SOL    HW2 7566   4.490   0.769   1.046
 2223SOL     OW 7567   5.757   5.257   3.646
 2223SOL    HW1 7568   5.779   5.229   3.553
 2223SOL    HW2 7569   5.789   5.186   3.710
 2224SOL     OW 7570   1.624   4.336   1.099
 2224SOL    HW1 7571   1.539   4.301   1.059
 2224SOL    HW2 7572   1.695   4.265   1.092
 2225SOL     OW 7573   6.168   4.580   2.520
 2225SOL    HW1 7574   6.211   4.490   2.519
 2225SOL    HW2 7575   6.176   4.622   2.430
 2226SOL     OW 7576   3.577   3.398   0.906
 2226SOL    HW1 7577   3.595   3.310   0.862
 2226SOL    HW2 7578   3.479   3.418   0.902
 2227SOL     OW 7579   6.072   3.831   6.523
 2227SOL    HW1 7580   6.147   3.815   6.587
 2227SOL    HW2 7581   5.987   3.847   6.574
 2228SOL     OW 7582   3.518   5.454   0.464
 2228SOL    HW1 7583   3.558   5.450   0.555
 2228SOL    HW2 7584   3.418   5.455   0.471
 2229SOL     OW 7585   4.433   1.847   3.993
 2229SOL    HW1 7586   4.402   1.913   4.061
 2229SOL    HW2 7587   4.364   1.775   3.983
 2230SOL     OW 7588   1.098   5.956   3.775
 2230SOL    HW1 7589   1.042   5.995   3.702
 2230SOL    HW2 7590   1.057   5.871   3.807
 2231SOL     OW 7591   1.553   1.768   2.488
 2231SOL    HW1 7592   1.606   1.791   2.407
 2231SOL    HW2 7593   1.605   1.704   2.545
 2232SOL     OW 7594   0.613   3.222   4.115
 2232SOL    HW1 7595   0.703   3.264   4.110
 2232SOL    HW2 7596   0.600   3.182   4.206
 2233SOL     OW 7597   3.499   5.142   6.820
 2233SOL    HW1 7598   3.495   5.130   6.721
 2233SOL    HW2 7599   3.513   5.053   6.864
 2234SOL     OW 7600   3.992   2.611   0.602
 2234SOL    HW1 7601   4.061   2.684   0.595
 2234SOL    HW2 7602   3.998   2.569   0.693
 2235SOL     OW 7603   1.142   0.431   0.411
 2235SOL    HW1 7604   1.090   0.349   0.387
 2235SOL    HW2 7605   1.145   0.493   0.333
 2236SOL     OW 7606   0.911   4.544   0.876
 2236SOL    HW1 7607   0.898   4.643   0.868
 2236SOL    HW2 7608   0.862   4.510   0.956
 2237SOL     OW 7609   6.634   3.661   4.553
 2237SOL    HW1 7610   6.683   3.575   4.570
 2237SOL    HW2 7611   6.555   3.667   4.615
 2238SOL     OW 7612   0.088   5.403   2.069
 2238SOL    HW1 7613   0.131   5.493   2.076
 2238SOL    HW2 7614   0.055   5.374   2.159
 2239SOL     OW 7615   3.796   4.935   4.231
 2239SOL    HW1 7616   3.698   4.947   4.215
 2239SOL    HW2 7617   3.848   4.990   4.166
 2240SOL     OW 7618   6.424   4.985   3.166
 2240SOL    HW1 7619   6.501   5.006   3.105
 2240SOL    HW2 7620   6.353   4.937   3.115
 2241SOL     OW 7621   0.015   6.150   2.523
 2241SOL    HW1 7622   7.021   6.109   2.612
 2241SOL    HW2 7623   6.963   6.131   2.461
 2242SOL     OW 7624   5.508   1.230   3.233
 2242SOL    HW1 7625   5.493   1.228   3.134
 2242SOL    HW2 7626   5.595   1.276   3.252
 2243SOL     OW 7627   2.507   6.511   5.217
 2243SOL    HW1 7628   2.523   6.573   5.294
 2243SOL    HW2 7629   2.559   6.427   5.231
 2244SOL     OW 7630   3.930   1.042   3.087
 2244SOL    HW1 7631   3.853   0.991   3.048
 2244SOL    HW2 7632   3.904   1.139   3.095
 2245SOL     OW 7633   0.245   2.169   2.071
 2245SOL    HW1 7634   0.230   2.075   2.040
 2245SOL    HW2 7635   0.336   2.199   2.044
 2246SOL     OW 7636   1.748   2.555   5.564
 2246SOL    HW1 7637   1.832   2.557   5.509
 2246SOL    HW2 7638   1.703   2.644   5.560
 2247SOL     OW 7639   2.716   2.163   5.867
 2247SOL    HW1 7640   2.664   2.090   5.822
 2247SOL    HW2 7641   2.665   2.248   5.862
 2248SOL     OW 7642   5.131   4.307   5.553
 2248SOL    HW1 7643   5.180   4.233   5.507
 2248SOL    HW2 7644   5.180   4.393   5.539
 2249SOL     OW 7645   6.084   6.216   3.003
 2249SOL    HW1 7646   6.076   6.118   2.985
 2249SOL    HW2 7647   6.147   6.257   2.938
 2250SOL     OW 7648   5.330   4.010   1.407
 2250SOL    HW1 7649   5.409   3.981   1.354
 2250SOL    HW2 7650   5.256   4.038   1.345
 2251SOL     OW 7651   5.877   1.618   0.362
 2251SOL    HW1 7652   5.811   1.578   0.425
 2251SOL    HW2 7653   5.959   1.645   0.413
 2252SOL     OW 7654   6.322   2.887   5.368
 2252SOL    HW1 7655   6.387   2.857   5.438
 2252SOL    HW2 7656   6.229   2.867   5.399
 2253SOL     OW 7657   1.356   3.026   6.322
 2253SOL    HW1 7658   1.440   3.057   6.367
 2253SOL    HW2 7659   1.288   3.099   6.326
 2254SOL     OW 7660   2.120   3.048   6.084
 2254SOL    HW1 7661   2.213   3.083   6.099
 2254SOL    HW2 7662   2.067   3.116   6.033
 2255SOL     OW 7663   6.087   2.451   1.117
 2255SOL    HW1 7664   6.084   2.381   1.188
 2255SOL    HW2 7665   6.169   2.506   1.128
 2256SOL     OW 7666   3.676   5.342   2.002
 2256SOL    HW1 7667   3.720   5.252   1.999
 2256SOL    HW2 7668   3.743   5.411   2.030
 2257SOL     OW 7669   0.868   2.990   4.461
 2257SOL    HW1 7670   0.880   3.086   4.488
 2257SOL    HW2 7671   0.948   2.938   4.488
 2258SOL     OW 7672   1.585   5.553   4.580
 2258SOL    HW1 7673   1.535   5.475   4.543
 2258SOL    HW2 7674   1.522   5.628   4.597
 2259SOL     OW 7675   5.260   3.936   6.300
 2259SOL    HW1 7676   5.257   3.938   6.200
 2259SOL    HW2 7677   5.173   3.971   6.336
 2260SOL     OW 7678   4.293   4.828   2.969
 2260SOL    HW1 7679   4.354   4.885   2.913
 2260SOL    HW2 7680   4.335   4.737   2.981
 2261SOL     OW 7681   5.689   6.433   0.827
 2261SOL    HW1 7682   5.673   6.531   0.817
 2261SOL    HW2 7683   5.787   6.416   0.840
 2262SOL     OW 7684   5.540   2.130   3.327
 2262SOL    HW1 7685   5.559   2.125   3.229
 2262SOL    HW2 7686   5.570   2.046   3.371
 2263SOL     OW 7687   2.268   6.272   6.295
 2263SOL    HW1 7688   2.252   6.174   6.281
 2263SOL    HW2 7689   2.348   6.285   6.354
 2264SOL     OW 7690   3.245   3.530   2.268
 2264SOL    HW1 7691   3.147   3.548   2.281
 2264SOL    HW2 7692   3.287   3.610   2.224
 2265SOL     OW 7693   0.385   0.898   3.632
 2265SOL    HW1 7694   0.355   0.850   3.549
 2265SOL    HW2 7695   0.307   0.909   3.693
 2266SOL     OW 7696   0.048   1.192   0.999
 2266SOL    HW1 7697   0.067   1.148   1.087
 2266SOL    HW2 7698   7.013   1.132   0.945
 2267SOL     OW 7699   5.867   2.538   4.901
 2267SOL    HW1 7700   5.794   2.481   4.936
 2267SOL    HW2 7701   5.885   2.613   4.965
 2268SOL     OW 7702   6.191   5.910   0.498
 2268SOL    HW1 7703   6.237   5.860   0.571
 2268SOL    HW2 7704   6.118   5.967   0.537
 2269SOL     OW 7705   5.995   5.592   5.210
 2269SOL    HW1 7706   5.949   5.508   5.182
 2269SOL    HW2 7707   6.027   5.641   5.129
 2270SOL     OW 7708   3.462   3.820   1.156
 2270SOL    HW1 7709   3.364   3.804   1.146
 2270SOL    HW2 7710   3.508   3.804   1.069
 2271SOL     OW 7711   6.272   4.372   1.232
 2271SOL    HW1 7712   6.237   4.295   1.177
 2271SOL    HW2 7713   6.200   4.441   1.242
 2272SOL     OW 7714   6.020   2.156   4.714
 2272SOL    HW1 7715   6.041   2.234   4.654
 2272SOL    HW2 7716   6.095   2.090   4.709
 2273SOL     OW 7717   1.680   1.816   3.554
 2273SOL    HW1 7718   1.684   1.717   3.568
 2273SOL    HW2 7719   1.749   1.843   3.487
 2274SOL     OW 7720   1.367   3.575   4.853
 2274SOL    HW1 7721   1.389   3.670   4.874
 2274SOL    HW2 7722   1.321   3.533   4.931
 2275SOL     OW 7723   4.605   6.992   4.616
 2275SOL    HW1 7724   4.542   6.917   4.595
 2275SOL    HW2 7725   4.651   7.022   4.533
 2276SOL     OW 7726   3.394   5.671   1.071
 2276SOL    HW1 7727   3.316   5.701   1.126
 2276SOL    HW2 7728   3.462   5.745   1.067
 2277SOL     OW 7729   3.347   3.216   4.882
 2277SOL    HW1 7730   3.366   3.249   4.975
 2277SOL    HW2 7731   3.429   3.173   4.844
 2278SOL     OW 7732   4.755   6.668   2.983
 2278SOL    HW1 7733   4.661   6.673   2.950
 2278SOL    HW2 7734   4.816   6.640   2.909
 2279SOL     OW 7735   5.603   4.534   4.043
 2279SOL    HW1 7736   5.697   4.504   4.023
 2279SOL    HW2 7737   5.591   4.541   4.142
 2280SOL     OW 7738   6.512   6.512   5.386
 2280SOL    HW1 7739   6.464   6.598   5.398
 2280SOL    HW2 7740   6.607   6.530   5.358
 2281SOL     OW 7741   3.270   1.558   1.446
 2281SOL    HW1 7742   3.303   1.474   1.489
 2281SOL    HW2 7743   3.345   1.622   1.434
 2282SOL     OW 7744   5.523   6.116   4.626
 2282SOL    HW1 7745   5.501   6.155   4.537
 2282SOL    HW2 7746   5.440   6.077   4.666
 2283SOL     OW 7747   6.442   3.453   2.565
 2283SOL    HW1 7748   6.447   3.518   2.489
 2283SOL    HW2 7749   6.524   3.462   2.622
 2284SOL     OW 7750   2.584   2.129   1.736
 2284SOL    HW1 7751   2.618   2.064   1.805
 2284SOL    HW2 7752   2.620   2.220   1.755
 2285SOL     OW 7753   0.999   3.679   0.619
 2285SOL    HW1 7754   1.001   3.609   0.548
 2285SOL    HW2 7755   1.036   3.764   0.584
 2286SOL     OW 7756   6.828   5.727   5.104
 2286SOL    HW1 7757   6.818   5.811   5.051
 2286SOL    HW2 7758   6.922   5.716   5.133
 2287SOL     OW 7759   2.114   3.179   1.568
 2287SOL    HW1 7760   2.169   3.238   1.510
 2287SOL    HW2 7761   2.159   3.168   1.657
 2288SOL     OW 7762   0.943   5.747   3.843
 2288SOL    HW1 7763   0.878   5.792   3.782
 2288SOL    HW2 7764   0.925   5.774   3.937
 2289SOL     OW 7765   5.535   2.559   1.832
 2289SOL    HW1 7766   5.608   2.575   1.899
 2289SOL    HW2 7767   5.457   2.515   1.877
 2290SOL     OW 7768   3.181   3.016   2.567
 2290SOL    HW1 7769   3.210   2.972   2.482
 2290SOL    HW2 7770   3.261   3.044   2.619
 2291SOL     OW 7771   2.005   2.181   1.480
 2291SOL    HW1 7772   2.091   2.230   1.494
 2291SOL    HW2 7773   1.928   2.245   1.484
 2292SOL     OW 7774   5.327   3.482   3.907
 2292SOL    HW1 7775   5.335   3.566   3.853
 2292SOL    HW2 7776   5.262   3.420   3.863
 2293SOL     OW 7777   5.541   1.025   0.571
 2293SOL    HW1 7778   5.557   0.974   0.655
 2293SOL    HW2 7779   5.622   1.019   0.512
 2294SOL     OW 7780   3.321   1.706   6.047
 2294SOL    HW1 7781   3.309   1.661   5.959
 2294SOL    HW2 7782   3.379   1.787   6.036
 2295SOL     OW 7783   6.774   1.060   1.925
 2295SOL    HW1 7784   6.682   1.096   1.910
 2295SOL    HW2 7785   6.838   1.136   1.941
 2296SOL     OW 7786   2.861   4.875   3.419
 2296SOL    HW1 7787   2.776   4.857   3.368
 2296SOL    HW2 7788   2.919   4.937   3.366
 2297SOL     OW 7789   4.859   4.525   5.602
 2297SOL    HW1 7790   4.767   4.500   5.632
 2297SOL    HW2 7791   4.917   4.443   5.605
 2298SOL     OW 7792   3.807   3.629   3.275
 2298SOL    HW1 7793   3.776   3.549   3.225
 2298SOL    HW2 7794   3.895   3.660   3.237
 2299SOL     OW 7795   4.896   3.762   4.847
 2299SOL    HW1 7796   4.858   3.712   4.924
 2299SOL    HW2 7797   4.822   3.795   4.789
 2300SOL     OW 7798   3.728   6.727   3.279
 2300SOL    HW1 7799   3.738   6.825   3.265
 2300SOL    HW2 7800   3.779   6.699   3.361
 2301SOL     OW 7801   3.488   2.850   4.589
 2301SOL    HW1 7802   3.491   2.857   4.489
 2301SOL    HW2 7803   3.581   2.839   4.624
 2302SOL     OW 7804   4.288   0.262   0.788
 2302SOL    HW1 7805   4.265   0.220   0.876
 2302SOL    HW2 7806   4.204   0.281   0.737
 2303SOL     OW 7807   2.385   3.084   1.027
 2303SOL    HW1 7808   2.449   3.069   1.102
 2303SOL    HW2 7809   2.339   2.998   1.004
 2304SOL     OW 7810   6.332   5.865   3.792
 2304SOL    HW1 7811   6.320   5.964   3.791
 2304SOL    HW2 7812   6.430   5.843   3.791
 2305SOL     OW 7813   1.550   0.796   4.085
 2305SOL    HW1 7814   1.637   0.826   4.124
 2305SOL    HW2 7815   1.542   0.831   3.991
 2306SOL     OW 7816   1.457   5.080   2.520
 2306SOL    HW1 7817   1.492   5.004   2.575
 2306SOL    HW2 7818   1.382   5.125   2.569
 2307SOL     OW 7819   1.310   2.699   5.576
 2307SOL    HW1 7820   1.284   2.795   5.576
 2307SOL    HW2 7821   1.289   2.658   5.665
 2308SOL     OW 7822   2.455   5.028   1.029
 2308SOL    HW1 7823   2.425   5.110   1.078
 2308SOL    HW2 7824   2.437   5.039   0.932
 2309SOL     OW 7825   1.868   0.448   3.893
 2309SOL    HW1 7826   1.881   0.545   3.873
 2309SOL    HW2 7827   1.955   0.407   3.919
 2310SOL     OW 7828   5.334   6.535   2.382
 2310SOL    HW1 7829   5.330   6.615   2.322
 2310SOL    HW2 7830   5.241   6.509   2.409
 2311SOL     OW 7831   2.191   5.985   0.032
 2311SOL    HW1 7832   2.229   5.929   0.105
 2311SOL    HW2 7833   2.214   6.081   0.049
 2312SOL     OW 7834   3.684   5.677   3.692
 2312SOL    HW1 7835   3.608   5.624   3.730
 2312SOL    HW2 7836   3.656   5.772   3.679
 2313SOL     OW 7837   5.160   5.041   2.340
 2313SOL    HW1 7838   5.181   5.054   2.438
 2313SOL    HW2 7839   5.242   5.009   2.293
 2314SOL     OW 7840   3.461   6.058   3.077
 2314SOL    HW1 7841   3.548   6.021   3.109
 2314SOL    HW2 7842   3.402   6.079   3.155
 2315SOL     OW 7843   4.795   3.468   6.033
 2315SOL    HW1 7844   4.752   3.397   6.090
 2315SOL    HW2 7845   4.783   3.557   6.077
 2316SOL     OW 7846   4.905   2.309   3.545
 2316SOL    HW1 7847   4.818   2.278   3.582
 2316SOL    HW2 7848   4.932   2.393   3.592
 2317SOL     OW 7849   0.916   5.076   3.030
 2317SOL    HW1 7850   0.837   5.016   3.016
 2317SOL    HW2 7851   0.956   5.057   3.119
 2318SOL     OW 7852   0.800   2.496   3.523
 2318SOL    HW1 7853   0.764   2.450   3.604
 2318SOL    HW2 7854   0.745   2.471   3.444
 2319SOL     OW 7855   2.147   4.230   5.071
 2319SOL    HW1 7856   2.216   4.158   5.069
 2319SOL    HW2 7857   2.132   4.260   5.165
 2320SOL     OW 7858   0.089   2.410   4.464
 2320SOL    HW1 7859   0.070   2.437   4.558
 2320SOL    HW2 7860   0.022   2.343   4.433
 2321SOL     OW 7861   3.470   0.611   5.078
 2321SOL    HW1 7862   3.565   0.592   5.051
 2321SOL    HW2 7863   3.411   0.605   4.999
 2322SOL     OW 7864   1.665   2.105   5.577
 2322SOL    HW1 7865   1.750   2.093   5.525
 2322SOL    HW2 7866   1.589   2.064   5.527
 2323SOL     OW 7867   3.651   5.947   3.266
 2323SOL    HW1 7868   3.701   5.863   3.291
 2323SOL    HW2 7869   3.662   6.015   3.338
 2324SOL     OW 7870   0.717   6.165   2.325
 2324SOL    HW1 7871   0.812   6.146   2.301
 2324SOL    HW2 7872   0.657   6.095   2.285
 2325SOL     OW 7873   1.138   3.985   1.570
 2325SOL    HW1 7874   1.044   3.962   1.597
 2325SOL    HW2 7875   1.136   4.052   1.496
 2326SOL     OW 7876   1.925   4.162   6.392
 2326SOL    HW1 7877   1.839   4.113   6.377
 2326SOL    HW2 7878   2.000   4.110   6.352
 2327SOL     OW 7879   5.014   2.923   4.403
 2327SOL    HW1 7880   5.031   2.889   4.311
 2327SOL    HW2 7881   5.020   2.847   4.468
 2328SOL     OW 7882   4.977   1.181   3.309
 2328SOL    HW1 7883   5.040   1.132   3.249
 2328SOL    HW2 7884   5.025   1.257   3.353
 2329SOL     OW 7885   1.182   5.356   4.516
 2329SOL    HW1 7886   1.093   5.338   4.557
 2329SOL    HW2 7887   1.185   5.451   4.485
 2330SOL     OW 7888   0.130   5.285   1.383
 2330SOL    HW1 7889   0.131   5.197   1.432
 2330SOL    HW2 7890   0.038   5.304   1.350
 2331SOL     OW 7891   6.807   4.447   5.407
 2331SOL    HW1 7892   6.791   4.365   5.462
 2331SOL    HW2 7893   6.798   4.424   5.310
 2332SOL     OW 7894   5.194   2.727   5.470
 2332SOL    HW1 7895   5.294   2.719   5.480
 2332SOL    HW2 7896   5.153   2.636   5.470
 2333SOL     OW 7897   0.782   4.991   2.679
 2333SOL    HW1 7898   0.757   4.947   2.593
 2333SOL    HW2 7899   0.705   5.047   2.710
 2334SOL     OW 7900   3.349   6.348   0.158
 2334SOL    HW1 7901   3.362   6.250   0.173
 2334SOL    HW2 7902   3.351   6.396   0.245
 2335SOL     OW 7903   6.318   0.828   3.390
 2335SOL    HW1 7904   6.225   0.817   3.425
 2335SOL    HW2 7905   6.314   0.867   3.298
 2336SOL     OW 7906   4.645   0.837   5.456
 2336SOL    HW1 7907   4.684   0.856   5.366
 2336SOL    HW2 7908   4.717   0.807   5.519
 2337SOL     OW 7909   5.421   0.573   3.348
 2337SOL    HW1 7910   5.418   0.513   3.268
 2337SOL    HW2 7911   5.466   0.659   3.322
 2338SOL     OW 7912   0.406   6.835   0.047
 2338SOL    HW1 7913   0.391   6.789   0.134
 2338SOL    HW2 7914   0.430   6.931   0.063
 2339SOL     OW 7915   3.222   3.359   5.750
 2339SOL    HW1 7916   3.174   3.393   5.831
 2339SOL    HW2 7917   3.261   3.269   5.771
 2340SOL     OW 7918   3.649   6.225   4.952
 2340SOL    HW1 7919   3.736   6.248   4.908
 2340SOL    HW2 7920   3.665   6.205   5.049
 2341SOL     OW 7921   5.374   4.673   0.316
 2341SOL    HW1 7922   5.307   4.599   0.308
 2341SOL    HW2 7923   5.344   4.751   0.261
 2342SOL     OW 7924   0.612   6.530   6.201
 2342SOL    HW1 7925   0.621   6.489   6.110
 2342SOL    HW2 7926   0.568   6.619   6.193
 2343SOL     OW 7927   1.241   6.309   1.204
 2343SOL    HW1 7928   1.322   6.361   1.231
 2343SOL    HW2 7929   1.195   6.354   1.128
 2344SOL     OW 7930   2.933   1.557   2.583
 2344SOL    HW1 7931   2.906   1.478   2.528
 2344SOL    HW2 7932   2.971   1.628   2.522
 2345SOL     OW 7933   1.331   0.263   4.735
 2345SOL    HW1 7934   1.321   0.177   4.684
 2345SOL    HW2 7935   1.246   0.285   4.781
 2346SOL     OW 7936   4.511   2.959   5.405
 2346SOL    HW1 7937   4.510   2.974   5.504
 2346SOL    HW2 7938   4.598   2.992   5.367
 2347SOL     OW 7939   1.806   4.015   2.180
 2347SOL    HW1 7940   1.846   3.950   2.245
 2347SOL    HW2 7941   1.713   3.987   2.158
 2348SOL     OW 7942   2.118   6.638   3.437
 2348SOL    HW1 7943   2.215   6.658   3.420
 2348SOL    HW2 7944   2.063   6.674   3.362
 2349SOL     OW 7945   0.342   6.384   6.108
 2349SOL    HW1 7946   0.422   6.383   6.048
 2349SOL    HW2 7947   0.307   6.477   6.116
 2350SOL     OW 7948   3.147   0.666   5.411
 2350SOL    HW1 7949   3.184   0.759   5.407
 2350SOL    HW2 7950   3.222   0.601   5.419
 2351SOL     OW 7951   3.024   5.223   3.844
 2351SOL    HW1 7952   3.044   5.257   3.752
 2351SOL    HW2 7953   2.996   5.299   3.903
 2352SOL     OW 7954   6.367   4.178   3.853
 2352SOL    HW1 7955   6.455   4.224   3.869
 2352SOL    HW2 7956   6.316   4.173   3.939
 2353SOL     OW 7957   2.621   3.913   5.591
 2353SOL    HW1 7958   2.602   3.933   5.494
 2353SOL    HW2 7959   2.545   3.945   5.647
 2354SOL     OW 7960   3.190   2.786   0.201
 2354SOL    HW1 7961   3.269   2.787   0.139
 2354SOL    HW2 7962   3.179   2.876   0.243
 2355SOL     OW 7963   0.468   0.054   0.794
 2355SOL    HW1 7964   0.417   0.044   0.709
 2355SOL    HW2 7965   0.561   0.020   0.781
 2356SOL     OW 7966   2.406   4.905   2.187
 2356SOL    HW1 7967   2.464   4.892   2.107
 2356SOL    HW2 7968   2.448   4.973   2.247
 2357SOL     OW 7969   5.147   5.086   3.648
 2357SOL    HW1 7970   5.245   5.078   3.664
 2357SOL    HW2 7971   5.103   4.998   3.663
 2358SOL     OW 7972   2.792   6.981   3.867
 2358SOL    HW1 7973   2.765   0.048   3.836
 2358SOL    HW2 7974   2.849   6.990   3.949
 2359SOL     OW 7975   2.728   1.376   6.314
 2359SOL    HW1 7976   2.752   1.361   6.217
 2359SOL    HW2 7977   2.800   1.429   6.358
 2360SOL     OW 7978   3.773   4.404   6.877
 2360SOL    HW1 7979   3.868   4.437   6.873
 2360SOL    HW2 7980   3.736   4.420   6.968
 2361SOL     OW 7981   2.777   0.208   3.126
 2361SOL    HW1 7982   2.747   0.122   3.167
 2361SOL    HW2 7983   2.877   0.208   3.117
 2362SOL     OW 7984   4.504   6.110   4.776
 2362SOL    HW1 7985   4.519   6.209   4.769
 2362SOL    HW2 7986   4.434   6.083   4.711
 2363SOL     OW 7987   4.473   1.871   5.519
 2363SOL    HW1 7988   4.471   1.970   5.529
 2363SOL    HW2 7989   4.565   1.842   5.492
 2364SOL     OW 7990   5.207   1.755   1.926
 2364SOL    HW1 7991   5.154   1.748   1.842
 2364SOL    HW2 7992   5.263   1.672   1.936
 2365SOL     OW 7993   5.761   4.141   4.404
 2365SOL    HW1 7994   5.718   4.181   4.323
 2365SOL    HW2 7995   5.841   4.195   4.430
 2366SOL     OW 7996   1.627   3.978   5.206
 2366SOL    HW1 7997   1.596   3.984   5.111
 2366SOL    HW2 7998   1.698   3.908   5.213
 2367SOL     OW 7999   0.960   3.510   5.636
 2367SOL    HW1 8000   1.006   3.542   5.554
 2367SOL    HW2 8001   1.028   3.490   5.707
 2368SOL     OW 8002   4.322   1.537   4.664
 2368SOL    HW1 8003   4.396   1.568   4.604
 2368SOL    HW2 8004   4.344   1.559   4.759
 2369SOL     OW 8005   3.595   1.802   3.214
 2369SOL    HW1 8006   3.644   1.888   3.202
 2369SOL    HW2 8007   3.586   1.783   3.312
 2370SOL     OW 8008   4.754   2.747   0.328
 2370SOL    HW1 8009   4.825   2.715   0.391
 2370SOL    HW2 8010   4.783   2.833   0.285
 2371SOL     OW 8011   0.806   0.121   2.534
 2371SOL    HW1 8012   0.723   0.068   2.518
 2371SOL    HW2 8013   0.838   0.107   2.628
 2372SOL     OW 8014   6.820   0.684   6.100
 2372SOL    HW1 8015   6.819   0.678   6.200
 2372SOL    HW2 8016   6.778   0.770   6.071
 2373SOL     OW 8017   6.175   0.630   6.304
 2373SOL    HW1 8018   6.222   0.568   6.368
 2373SOL    HW2 8019   6.198   0.724   6.327
 2374SOL     OW 8020   5.859   5.654   2.996
 2374SOL    HW1 8021   5.931   5.587   3.014
 2374SOL    HW2 8022   5.816   5.682   3.082
 2375SOL     OW 8023   0.656   0.346   3.683
 2375SOL    HW1 8024   0.658   0.247   3.674
 2375SOL    HW2 8025   0.563   0.380   3.668
 2376SOL     OW 8026   6.699   2.394   3.364
 2376SOL    HW1 8027   6.631   2.464   3.384
 2376SOL    HW2 8028   6.773   2.432   3.309
 2377SOL     OW 8029   3.308   4.199   6.144
 2377SOL    HW1 8030   3.236   4.262   6.175
 2377SOL    HW2 8031   3.267   4.112   6.118
 2378SOL     OW 8032   5.883   1.944   0.122
 2378SOL    HW1 8033   5.825   1.942   0.040
 2378SOL    HW2 8034   5.828   1.918   0.202
 2379SOL     OW 8035   6.716   4.360   0.512
 2379SOL    HW1 8036   6.808   4.330   0.537
 2379SOL    HW2 8037   6.652   4.285   0.527
 2380SOL     OW 8038   6.035   2.095   5.124
 2380SOL    HW1 8039   6.033   1.998   5.100
 2380SOL    HW2 8040   6.045   2.105   5.223
 2381SOL     OW 8041   2.473   4.913   4.688
 2381SOL    HW1 8042   2.530   4.837   4.718
 2381SOL    HW2 8043   2.421   4.948   4.766
 2382SOL     OW 8044   1.436   6.035   2.723
 2382SOL    HW1 8045   1.410   5.941   2.701
 2382SOL    HW2 8046   1.459   6.042   2.820
 2383SOL     OW 8047   5.266   5.498   5.743
 2383SOL    HW1 8048   5.291   5.566   5.811
 2383SOL    HW2 8049   5.192   5.532   5.686
 2384SOL     OW 8050   0.606   1.906   1.333
 2384SOL    HW1 8051   0.693   1.887   1.379
 2384SOL    HW2 8052   0.539   1.936   1.401
 2385SOL     OW 8053   1.062   2.230   0.071
 2385SOL    HW1 8054   0.971   2.210   0.033
 2385SOL    HW2 8055   1.088   2.159   0.135
 2386SOL     OW 8056   3.140   5.146   4.958
 2386SOL    HW1 8057   3.131   5.046   4.954
 2386SOL    HW2 8058   3.073   5.183   5.023
 2387SOL     OW 8059   6.999   3.353   4.027
 2387SOL    HW1 8060   7.015   3.377   4.122
 2387SOL    HW2 8061   0.052   3.384   3.971
 2388SOL     OW 8062   0.436   1.464   5.789
 2388SOL    HW1 8063   0.425   1.560   5.816
 2388SOL    HW2 8064   0.489   1.460   5.704
 2389SOL     OW 8065   5.229   4.481   4.310
 2389SOL    HW1 8066   5.211   4.384   4.330
 2389SOL    HW2 8067   5.144   4.524   4.280
 2390SOL     OW 8068   4.008   3.462   5.158
 2390SOL    HW1 8069   3.929   3.435   5.103
 2390SOL    HW2 8070   4.023   3.560   5.149
 2391SOL     OW 8071   3.059   3.508   6.184
 2391SOL    HW1 8072   3.050   3.410   6.172
 2391SOL    HW2 8073   3.155   3.531   6.199
 2392SOL     OW 8074   3.505   4.354   6.356
 2392SOL    HW1 8075   3.431   4.322   6.297
 2392SOL    HW2 8076   3.514   4.293   6.435
 2393SOL     OW 8077   3.771   6.100   1.604
 2393SOL    HW1 8078   3.697   6.097   1.536
 2393SOL    HW2 8079   3.854   6.136   1.562
 2394SOL     OW 8080   0.309   4.191   3.820
 2394SOL    HW1 8081   0.240   4.253   3.858
 2394SOL    HW2 8082   0.285   4.097   3.844
 2395SOL     OW 8083   6.989   2.683   0.203
 2395SOL    HW1 8084   0.061   2.706   0.188
 2395SOL    HW2 8085   6.932   2.762   0.182
 2396SOL     OW 8086   5.493   0.774   0.205
 2396SOL    HW1 8087   5.417   0.802   0.147
 2396SOL    HW2 8088   5.458   0.736   0.291
 2397SOL     OW 8089   0.149   4.609   6.569
 2397SOL    HW1 8090   0.190   4.699   6.552
 2397SOL    HW2 8091   0.056   4.608   6.532
 2398SOL     OW 8092   2.818   5.316   4.537
 2398SOL    HW1 8093   2.769   5.404   4.538
 2398SOL    HW2 8094   2.827   5.283   4.631
 2399SOL     OW 8095   3.839   2.109   3.974
 2399SOL    HW1 8096   3.749   2.072   3.951
 2399SOL    HW2 8097   3.872   2.166   3.899
 2400SOL     OW 8098   1.740   3.494   0.378
 2400SOL    HW1 8099   1.671   3.556   0.414
 2400SOL    HW2 8100   1.762   3.425   0.448
 2401SOL     OW 8101   3.691   0.157   3.857
 2401SOL    HW1 8102   3.598   0.189   3.876
 2401SOL    HW2 8103   3.718   0.184   3.765
 2402SOL     OW 8104   0.351   2.036   3.415
 2402SOL    HW1 8105   0.287   2.111   3.396
 2402SOL    HW2 8106   0.326   1.956   3.360
 2403SOL     OW 8107   3.863   3.493   0.866
 2403SOL    HW1 8108   3.919   3.537   0.936
 2403SOL    HW2 8109   3.767   3.490   0.896
 2404SOL     OW 8110   5.845   1.799   1.630
 2404SOL    HW1 8111   5.806   1.869   1.690
 2404SOL    HW2 8112   5.829   1.709   1.670
 2405SOL     OW 8113   3.320   5.109   5.653
 2405SOL    HW1 8114   3.234   5.102   5.602
 2405SOL    HW2 8115   3.349   5.018   5.681
 2406SOL     OW 8116   2.385   0.050   4.126
 2406SOL    HW1 8117   2.428   0.009   4.045
 2406SOL    HW2 8118   2.421   0.006   4.208
 2407SOL     OW 8119   4.407   2.384   2.854
 2407SOL    HW1 8120   4.422   2.464   2.796
 2407SOL    HW2 8121   4.489   2.326   2.854
 2408SOL     OW 8122   2.687   5.711   2.705
 2408SOL    HW1 8123   2.736   5.631   2.740
 2408SOL    HW2 8124   2.589   5.700   2.722
 2409SOL     OW 8125   2.641   3.080   1.163
 2409SOL    HW1 8126   2.691   3.002   1.201
 2409SOL    HW2 8127   2.706   3.150   1.135
 2410SOL     OW 8128   6.706   3.199   6.142
 2410SOL    HW1 8129   6.714   3.152   6.230
 2410SOL    HW2 8130   6.644   3.148   6.082
 2411SOL     OW 8131   2.679   3.806   5.854
 2411SOL    HW1 8132   2.695   3.853   5.767
 2411SOL    HW2 8133   2.734   3.723   5.857
 2412SOL     OW 8134   2.376   3.047   0.254
 2412SOL    HW1 8135   2.420   3.084   0.336
 2412SOL    HW2 8136   2.323   3.119   0.210
 2413SOL     OW 8137   6.221   3.523   6.748
 2413SOL    HW1 8138   6.220   3.623   6.746
 2413SOL    HW2 8139   6.136   3.491   6.790
 2414SOL     OW 8140   5.626   2.286   3.828
 2414SOL    HW1 8141   5.605   2.265   3.732
 2414SOL    HW2 8142   5.547   2.330   3.870
 2415SOL     OW 8143   2.657   0.055   1.017
 2415SOL    HW1 8144   2.674   0.004   0.933
 2415SOL    HW2 8145   2.617   0.144   0.994
 2416SOL     OW 8146   1.165   3.173   3.829
 2416SOL    HW1 8147   1.068   3.198   3.827
 2416SOL    HW2 8148   1.210   3.207   3.747
 2417SOL     OW 8149   4.492   1.926   6.423
 2417SOL    HW1 8150   4.417   1.945   6.360
 2417SOL    HW2 8151   4.483   1.833   6.459
 2418SOL     OW 8152   3.722   3.613   5.227
 2418SOL    HW1 8153   3.710   3.710   5.207
 2418SOL    HW2 8154   3.711   3.597   5.325
 2419SOL     OW 8155   2.263   7.005   4.712
 2419SOL    HW1 8156   2.189   7.021   4.646
 2419SOL    HW2 8157   2.231   6.943   4.784
 2420SOL     OW 8158   3.222   5.624   1.913
 2420SOL    HW1 8159   3.317   5.615   1.942
 2420SOL    HW2 8160   3.177   5.694   1.969
 2421SOL     OW 8161   4.371   6.825   3.859
 2421SOL    HW1 8162   4.358   6.726   3.861
 2421SOL    HW2 8163   4.465   6.847   3.884
 2422SOL     OW 8164   3.709   6.754   0.820
 2422SOL    HW1 8165   3.675   6.744   0.727
 2422SOL    HW2 8166   3.776   6.828   0.824
 2423SOL     OW 8167   1.727   5.359   1.158
 2423SOL    HW1 8168   1.682   5.349   1.247
 2423SOL    HW2 8169   1.659   5.351   1.085
 2424SOL     OW 8170   6.064   6.560   6.742
 2424SOL    HW1 8171   6.099   6.495   6.675
 2424SOL    HW2 8172   6.130   6.572   6.815
 2425SOL     OW 8173   4.734   5.807   5.686
 2425SOL    HW1 8174   4.703   5.760   5.604
 2425SOL    HW2 8175   4.831   5.787   5.701
 2426SOL     OW 8176   0.958   5.207   4.875
 2426SOL    HW1 8177   0.978   5.305   4.870
 2426SOL    HW2 8178   1.029   5.156   4.826
 2427SOL     OW 8179   5.136   6.217   6.638
 2427SOL    HW1 8180   5.096   6.235   6.728
 2427SOL    HW2 8181   5.193   6.135   6.643
 2428SOL     OW 8182   0.029   0.575   2.574
 2428SOL    HW1 8183   6.990   0.505   2.609
 2428SOL    HW2 8184   7.004   0.661   2.563
 2429SOL     OW 8185   5.766   4.255   2.628
 2429SOL    HW1 8186   5.737   4.159   2.623
 2429SOL    HW2 8187   5.761   4.286   2.723
 2430SOL     OW 8188   5.535   1.972   0.427
 2430SOL    HW1 8189   5.482   1.924   0.496
 2430SOL    HW2 8190   5.557   2.064   0.459
 2431SOL     OW 8191   5.438   1.698   1.491
 2431SOL    HW1 8192   5.442   1.730   1.585
 2431SOL    HW2 8193   5.426   1.599   1.489
 2432SOL     OW 8194   3.363   6.322   1.212
 2432SOL    HW1 8195   3.280   6.322   1.267
 2432SOL    HW2 8196   3.388   6.417   1.190
 2433SOL     OW 8197   0.988   6.509   0.306
 2433SOL    HW1 8198   1.075   6.488   0.263
 2433SOL    HW2 8199   0.999   6.589   0.365
 2434SOL     OW 8200   5.150   1.916   2.673
 2434SOL    HW1 8201   5.108   1.855   2.741
 2434SOL    HW2 8202   5.078   1.967   2.626
 2435SOL     OW 8203   5.718   5.773   0.268
 2435SOL    HW1 8204   5.679   5.865   0.261
 2435SOL    HW2 8205   5.818   5.779   0.269
 2436SOL     OW 8206   1.885   0.825   1.318
 2436SOL    HW1 8207   1.819   0.802   1.389
 2436SOL    HW2 8208   1.964   0.871   1.359
 2437SOL     OW 8209   5.272   6.172   1.411
 2437SOL    HW1 8210   5.259   6.263   1.373
 2437SOL    HW2 8211   5.331   6.119   1.351
 2438SOL     OW 8212   4.492   1.588   4.875
 2438SOL    HW1 8213   4.485   1.687   4.883
 2438SOL    HW2 8214   4.578   1.557   4.918
 2439SOL     OW 8215   0.320   4.998   7.024
 2439SOL    HW1 8216   0.340   4.984   0.097
 2439SOL    HW2 8217   0.294   4.910   6.983
 2440SOL     OW 8218   4.416   6.719   5.629
 2440SOL    HW1 8219   4.374   6.769   5.553
 2440SOL    HW2 8220   4.383   6.756   5.715
 2441SOL     OW 8221   6.143   1.391   6.951
 2441SOL    HW1 8222   6.057   1.373   6.903
 2441SOL    HW2 8223   6.124   1.444   0.009
 2442SOL     OW 8224   5.845   4.929   3.117
 2442SOL    HW1 8225   5.865   4.990   3.040
 2442SOL    HW2 8226   5.767   4.965   3.168
 2443SOL     OW 8227   2.884   0.972   6.714
 2443SOL    HW1 8228   2.789   0.950   6.737
 2443SOL    HW2 8229   2.893   0.978   6.614
 2444SOL     OW 8230   4.041   4.913   0.126
 2444SOL    HW1 8231   3.999   5.004   0.136
 2444SOL    HW2 8232   4.100   4.895   0.205
 2445SOL     OW 8233   6.076   1.483   1.801
 2445SOL    HW1 8234   5.988   1.508   1.760
 2445SOL    HW2 8235   6.148   1.491   1.731
 2446SOL     OW 8236   1.166   2.824   3.407
 2446SOL    HW1 8237   1.173   2.881   3.326
 2446SOL    HW2 8238   1.130   2.734   3.382
 2447SOL     OW 8239   2.417   0.696   0.734
 2447SOL    HW1 8240   2.350   0.761   0.700
 2447SOL    HW2 8241   2.485   0.677   0.663
 2448SOL     OW 8242   6.015   1.814   4.091
 2448SOL    HW1 8243   5.944   1.883   4.075
 2448SOL    HW2 8244   6.073   1.807   4.010
 2449SOL     OW 8245   1.637   3.276   1.489
 2449SOL    HW1 8246   1.666   3.331   1.567
 2449SOL    HW2 8247   1.608   3.186   1.522
 2450SOL     OW 8248   2.763   5.488   6.346
 2450SOL    HW1 8249   2.689   5.543   6.306
 2450SOL    HW2 8250   2.834   5.472   6.278
 2451SOL     OW 8251   1.164   0.632   3.102
 2451SOL    HW1 8252   1.130   0.700   3.168
 2451SOL    HW2 8253   1.103   0.552   3.103
 2452SOL     OW 8254   2.944   2.177   3.787
 2452SOL    HW1 8255   2.905   2.111   3.722
 2452SOL    HW2 8256   3.043   2.178   3.777
 2453SOL     OW 8257   0.191   3.283   0.761
 2453SOL    HW1 8258   0.264   3.214   0.766
 2453SOL    HW2 8259   0.106   3.239   0.731
 2454SOL     OW 8260   2.699   6.233   0.143
 2454SOL    HW1 8261   2.624   6.299   0.149
 2454SOL    HW2 8262   2.781   6.271   0.184
 2455SOL     OW 8263   4.652   1.066   0.492
 2455SOL    HW1 8264   4.729   1.003   0.486
 2455SOL    HW2 8265   4.573   1.026   0.444
 2456SOL     OW 8266   0.120   2.516   6.477
 2456SOL    HW1 8267   0.036   2.547   6.523
 2456SOL    HW2 8268   0.199   2.555   6.523
 2457SOL     OW 8269   6.347   1.319   5.654
 2457SOL    HW1 8270   6.366   1.398   5.713
 2457SOL    HW2 8271   6.267   1.270   5.689
 2458SOL     OW 8272   1.383   6.433   3.583
 2458SOL    HW1 8273   1.418   6.339   3.586
 2458SOL    HW2 8274   1.454   6.496   3.615
 2459SOL     OW 8275   2.836   6.579   5.622
 2459SOL    HW1 8276   2.784   6.598   5.706
 2459SOL    HW2 8277   2.898   6.503   5.639
 2460SOL     OW 8278   1.452   1.385   0.642
 2460SOL    HW1 8279   1.452   1.376   0.741
 2460SOL    HW2 8280   1.543   1.413   0.612
 2461SOL     OW 8281   4.842   0.894   4.190
 2461SOL    HW1 8282   4.765   0.872   4.250
 2461SOL    HW2 8283   4.810   0.952   4.115
 2462SOL     OW 8284   2.423   4.892   6.763
 2462SOL    HW1 8285   2.388   4.981   6.792
 2462SOL    HW2 8286   2.495   4.905   6.695
 2463SOL     OW 8287   6.154   1.834   0.108
 2463SOL    HW1 8288   6.070   1.877   0.142
 2463SOL    HW2 8289   6.199   1.895   0.043
 2464SOL     OW 8290   1.801   3.309   2.919
 2464SOL    HW1 8291   1.846   3.394   2.889
 2464SOL    HW2 8292   1.804   3.304   3.019
 2465SOL     OW 8293   0.409   6.763   6.819
 2465SOL    HW1 8294   0.394   6.665   6.831
 2465SOL    HW2 8295   0.392   6.810   6.905
 2466SOL     OW 8296   1.853   1.265   2.890
 2466SOL    HW1 8297   1.896   1.246   2.802
 2466SOL    HW2 8298   1.792   1.344   2.881
 2467SOL     OW 8299   5.189   1.796   5.378
 2467SOL    HW1 8300   5.265   1.779   5.315
 2467SOL    HW2 8301   5.105   1.755   5.342
 2468SOL     OW 8302   4.391   6.998   1.178
 2468SOL    HW1 8303   4.432   0.000   1.091
 2468SOL    HW2 8304   4.394   6.898   1.187
 2469SOL     OW 8305   3.953   3.400   4.790
 2469SOL    HW1 8306   3.869   3.452   4.806
 2469SOL    HW2 8307   3.967   3.335   4.865
 2470SOL     OW 8308   4.051   4.846   5.579
 2470SOL    HW1 8309   3.953   4.839   5.599
 2470SOL    HW2 8310   4.093   4.755   5.583
 2471SOL     OW 8311   3.006   5.864   0.187
 2471SOL    HW1 8312   2.914   5.840   0.156
 2471SOL    HW2 8313   3.072   5.846   0.114
 2472SOL     OW 8314   4.913   2.338   3.272
 2472SOL    HW1 8315   4.918   2.329   3.371
 2472SOL    HW2 8316   4.957   2.260   3.229
 2473SOL     OW 8317   0.987   3.870   4.937
 2473SOL    HW1 8318   0.904   3.922   4.916
 2473SOL    HW2 8319   0.979   3.832   5.029
 2474SOL     OW 8320   0.116   5.969   1.027
 2474SOL    HW1 8321   0.169   5.911   1.090
 2474SOL    HW2 8322   0.165   5.977   0.940
 2475SOL     OW 8323   4.468   0.804   2.531
 2475SOL    HW1 8324   4.523   0.785   2.450
 2475SOL    HW2 8325   4.433   0.719   2.569
 2476SOL     OW 8326   5.940   1.137   2.473
 2476SOL    HW1 8327   5.901   1.228   2.461
 2476SOL    HW2 8328   5.995   1.113   2.393
 2477SOL     OW 8329   4.136   1.069   2.876
 2477SOL    HW1 8330   4.205   1.052   2.946
 2477SOL    HW2 8331   4.045   1.070   2.918
 2478SOL     OW 8332   6.442   1.906   1.390
 2478SOL    HW1 8333   6.521   1.870   1.439
 2478SOL    HW2 8334   6.446   2.006   1.388
 2479SOL     OW 8335   1.121   2.811   2.331
 2479SOL    HW1 8336   1.202   2.866   2.353
 2479SOL    HW2 8337   1.143   2.748   2.256
 2480SOL     OW 8338   4.580   4.114   0.748
 2480SOL    HW1 8339   4.507   4.177   0.774
 2480SOL    HW2 8340   4.655   4.120   0.814
 2481SOL     OW 8341   3.983   6.586   0.673
 2481SOL    HW1 8342   4.008   6.641   0.752
 2481SOL    HW2 8343   3.947   6.497   0.703
 2482SOL     OW 8344   5.240   3.555   5.715
 2482SOL    HW1 8345   5.215   3.614   5.638
 2482SOL    HW2 8346   5.163   3.547   5.777
 2483SOL     OW 8347   2.059   1.514   0.683
 2483SOL    HW1 8348   2.018   1.580   0.746
 2483SOL    HW2 8349   2.005   1.511   0.599
 2484SOL     OW 8350   3.833   0.215   6.800
 2484SOL    HW1 8351   3.747   0.257   6.770
 2484SOL    HW2 8352   3.824   0.187   6.896
 2485SOL     OW 8353   5.449   3.588   1.381
 2485SOL    HW1 8354   5.355   3.621   1.383
 2485SOL    HW2 8355   5.463   3.531   1.300
 2486SOL     OW 8356   1.791   4.760   4.983
 2486SOL    HW1 8357   1.864   4.697   4.954
 2486SOL    HW2 8358   1.769   4.823   4.908
 2487SOL     OW 8359   4.269   6.353   0.322
 2487SOL    HW1 8360   4.171   6.370   0.307
 2487SOL    HW2 8361   4.281   6.275   0.384
 2488SOL     OW 8362   1.551   4.257   1.861
 2488SOL    HW1 8363   1.542   4.264   1.961
 2488SOL    HW2 8364   1.574   4.347   1.824
 2489SOL     OW 8365   0.814   6.918   3.978
 2489SOL    HW1 8366   0.911   6.938   3.961
 2489SOL    HW2 8367   0.795   6.823   3.953
 2490SOL     OW 8368   6.729   5.409   1.453
 2490SOL    HW1 8369   6.713   5.334   1.518
 2490SOL    HW2 8370   6.642   5.445   1.422
 2491SOL     OW 8371   2.767   4.603   0.193
 2491SOL    HW1 8372   2.712   4.575   0.272
 2491SOL    HW2 8373   2.803   4.522   0.147
 2492SOL     OW 8374   4.827   3.782   0.667
 2492SOL    HW1 8375   4.763   3.717   0.707
 2492SOL    HW2 8376   4.809   3.789   0.568
 2493SOL     OW 8377   5.579   0.208   2.073
 2493SOL    HW1 8378   5.526   0.283   2.111
 2493SOL    HW2 8379   5.607   0.146   2.147
 2494SOL     OW 8380   5.424   4.839   2.677
 2494SOL    HW1 8381   5.514   4.838   2.632
 2494SOL    HW2 8382   5.402   4.747   2.709
 2495SOL     OW 8383   5.131   6.747   4.085
 2495SOL    HW1 8384   5.203   6.757   4.153
 2495SOL    HW2 8385   5.108   6.838   4.047
 2496SOL     OW 8386   0.343   2.492   5.991
 2496SOL    HW1 8387   0.353   2.589   5.967
 2496SOL    HW2 8388   0.361   2.480   6.088
 2497SOL     OW 8389   0.318   0.321   0.623
 2497SOL    HW1 8390   0.344   0.325   0.720
 2497SOL    HW2 8391   0.400   0.313   0.567
 2498SOL     OW 8392   2.840   2.284   4.459
 2498SOL    HW1 8393   2.862   2.187   4.449
 2498SOL    HW2 8394   2.876   2.317   4.546
 2499SOL     OW 8395   6.096   2.491   1.976
 2499SOL    HW1 8396   6.070   2.520   1.884
 2499SOL    HW2 8397   6.036   2.536   2.043
 2500SOL     OW 8398   4.309   4.303   6.580
 2500SOL    HW1 8399   4.390   4.347   6.620
 2500SOL    HW2 8400   4.337   4.220   6.532
 2501SOL     OW 8401   5.214   5.456   0.350
 2501SOL    HW1 8402   5.285   5.392   0.380
 2501SOL    HW2 8403   5.137   5.453   0.413
 2502SOL     OW 8404   0.991   0.413   3.130
 2502SOL    HW1 8405   0.915   0.367   3.084
 2502SOL    HW2 8406   0.964   0.438   3.223
 2503SOL     OW 8407   2.099   6.554   4.583
 2503SOL    HW1 8408   2.100   6.532   4.485
 2503SOL    HW2 8409   2.105   6.470   4.637
 2504SOL     OW 8410   3.505   5.518   5.055
 2504SOL    HW1 8411   3.459   5.445   5.005
 2504SOL    HW2 8412   3.449   5.601   5.053
 2505SOL     OW 8413   0.438   6.756   3.159
 2505SOL    HW1 8414   0.532   6.787   3.150
 2505SOL    HW2 8415   0.402   6.783   3.249
 2506SOL     OW 8416   5.952   3.883   5.883
 2506SOL    HW1 8417   5.910   3.868   5.793
 2506SOL    HW2 8418   5.908   3.824   5.951
 2507SOL     OW 8419   6.883   3.610   0.519
 2507SOL    HW1 8420   6.940   3.565   0.587
 2507SOL    HW2 8421   6.936   3.622   0.434
 2508SOL     OW 8422   2.871   1.635   3.625
 2508SOL    HW1 8423   2.878   1.695   3.705
 2508SOL    HW2 8424   2.952   1.645   3.568
 2509SOL     OW 8425   6.820   3.654   0.830
 2509SOL    HW1 8426   6.868   3.567   0.827
 2509SOL    HW2 8427   6.745   3.654   0.764
 2510SOL     OW 8428   2.860   5.202   1.038
 2510SOL    HW1 8429   2.816   5.238   0.956
 2510SOL    HW2 8430   2.937   5.144   1.011
 2511SOL     OW 8431   3.830   1.942   4.468
 2511SOL    HW1 8432   3.792   2.020   4.517
 2511SOL    HW2 8433   3.785   1.933   4.379
 2512SOL     OW 8434   5.023   3.336   5.364
 2512SOL    HW1 8435   5.002   3.385   5.448
 2512SOL    HW2 8436   5.076   3.254   5.386
 2513SOL     OW 8437   1.824   4.391   5.079
 2513SOL    HW1 8438   1.848   4.375   5.175
 2513SOL    HW2 8439   1.758   4.322   5.049
 2514SOL     OW 8440   6.782   3.424   5.079
 2514SOL    HW1 8441   6.875   3.399   5.052
 2514SOL    HW2 8442   6.786   3.497   5.148
 2515SOL     OW 8443   1.434   0.250   1.082
 2515SOL    HW1 8444   1.457   0.233   1.178
 2515SOL    HW2 8445   1.438   0.165   1.030
 2516SOL     OW 8446   5.911   2.115   2.157
 2516SOL    HW1 8447   5.859   2.072   2.230
 2516SOL    HW2 8448   5.970   2.047   2.113
 2517SOL     OW 8449   1.463   6.348   5.849
 2517SOL    HW1 8450   1.465   6.301   5.938
 2517SOL    HW2 8451   1.438   6.444   5.863
 2518SOL     OW 8452   1.584   4.810   6.803
 2518SOL    HW1 8453   1.569   4.713   6.786
 2518SOL    HW2 8454   1.534   4.838   6.885
 2519SOL     OW 8455   3.803   6.640   2.289
 2519SOL    HW1 8456   3.848   6.606   2.371
 2519SOL    HW2 8457   3.844   6.598   2.208
 2520SOL     OW 8458   3.097   1.621   0.443
 2520SOL    HW1 8459   3.066   1.693   0.506
 2520SOL    HW2 8460   3.023   1.598   0.380
 2521SOL     OW 8461   2.088   1.141   5.288
 2521SOL    HW1 8462   1.993   1.111   5.298
 2521SOL    HW2 8463   2.118   1.186   5.372
 2522SOL     OW 8464   0.791   2.880   5.091
 2522SOL    HW1 8465   0.832   2.892   5.001
 2522SOL    HW2 8466   0.798   2.966   5.143
 2523SOL     OW 8467   0.297   3.378   1.557
 2523SOL    HW1 8468   0.337   3.292   1.590
 2523SOL    HW2 8469   0.364   3.424   1.498
 2524SOL     OW 8470   0.869   6.284   4.895
 2524SOL    HW1 8471   0.958   6.301   4.851
 2524SOL    HW2 8472   0.869   6.193   4.935
 2525SOL     OW 8473   1.208   2.553   5.832
 2525SOL    HW1 8474   1.221   2.612   5.911
 2525SOL    HW2 8475   1.240   2.460   5.853
 2526SOL     OW 8476   1.163   4.692   6.534
 2526SOL    HW1 8477   1.202   4.629   6.467
 2526SOL    HW2 8478   1.101   4.755   6.489
 2527SOL     OW 8479   5.213   5.634   4.915
 2527SOL    HW1 8480   5.266   5.646   4.831
 2527SOL    HW2 8481   5.121   5.601   4.891
 2528SOL     OW 8482   5.924   4.828   0.141
 2528SOL    HW1 8483   5.968   4.817   0.051
 2528SOL    HW2 8484   5.825   4.818   0.131
 2529SOL     OW 8485   6.793   6.201   6.925
 2529SOL    HW1 8486   6.704   6.193   6.971
 2529SOL    HW2 8487   6.816   6.297   6.913
 2530SOL     OW 8488   2.637   6.372   5.540
 2530SOL    HW1 8489   2.679   6.343   5.454
 2530SOL    HW2 8490   2.666   6.465   5.562
 2531SOL     OW 8491   5.743   6.038   4.304
 2531SOL    HW1 8492   5.776   6.030   4.398
 2531SOL    HW2 8493   5.682   5.961   4.283
 2532SOL     OW 8494   0.410   6.066   0.559
 2532SOL    HW1 8495   0.473   6.044   0.634
 2532SOL    HW2 8496   0.415   6.163   0.537
 2533SOL     OW 8497   3.214   6.719   4.417
 2533SOL    HW1 8498   3.173   6.628   4.404
 2533SOL    HW2 8499   3.288   6.713   4.484
 2534SOL     OW 8500   3.574   0.697   2.847
 2534SOL    HW1 8501   3.520   0.780   2.854
 2534SOL    HW2 8502   3.661   0.709   2.894
 2535SOL     OW 8503   3.488   2.224   5.291
 2535SOL    HW1 8504   3.414   2.231   5.357
 2535SOL    HW2 8505   3.472   2.288   5.216
 2536SOL     OW 8506   1.516   1.786   4.888
 2536SOL    HW1 8507   1.579   1.863   4.890
 2536SOL    HW2 8508   1.510   1.746   4.980
 2537SOL     OW 8509   3.633   0.132   6.435
 2537SOL    HW1 8510   3.664   0.062   6.370
 2537SOL    HW2 8511   3.668   0.109   6.526
 2538SOL     OW 8512   0.873   4.493   3.464
 2538SOL    HW1 8513   0.967   4.522   3.479
 2538SOL    HW2 8514   0.849   4.421   3.529
 2539SOL     OW 8515   5.734   1.032   4.735
 2539SOL    HW1 8516   5.797   1.077   4.673
 2539SOL    HW2 8517   5.734   0.934   4.718
 2540SOL     OW 8518   4.144   1.883   2.901
 2540SOL    HW1 8519   4.135   1.785   2.920
 2540SOL    HW2 8520   4.053   1.922   2.885
 2541SOL     OW 8521   2.618   0.192   5.307
 2541SOL    HW1 8522   2.630   0.198   5.406
 2541SOL    HW2 8523   2.646   0.101   5.276
 2542SOL     OW 8524   3.472   1.049   5.979
 2542SOL    HW1 8525   3.374   1.034   5.994
 2542SOL    HW2 8526   3.486   1.138   5.937
 2543SOL     OW 8527   1.675   0.907   3.623
 2543SOL    HW1 8528   1.757   0.850   3.626
 2543SOL    HW2 8529   1.684   0.975   3.551
 2544SOL     OW 8530   0.525   6.375   1.686
 2544SOL    HW1 8531   0.448   6.330   1.641
 2544SOL    HW2 8532   0.610   6.343   1.645
 2545SOL     OW 8533   1.181   6.973   1.553
 2545SOL    HW1 8534   1.167   0.046   1.533
 2545SOL    HW2 8535   1.096   6.923   1.539
 2546SOL     OW 8536   0.596   1.357   1.636
 2546SOL    HW1 8537   0.510   1.405   1.652
 2546SOL    HW2 8538   0.625   1.372   1.541
 2547SOL     OW 8539   6.130   5.467   0.544
 2547SOL    HW1 8540   6.163   5.489   0.635
 2547SOL    HW2 8541   6.036   5.434   0.550
 2548SOL     OW 8542   1.184   6.594   6.253
 2548SOL    HW1 8543   1.162   6.524   6.186
 2548SOL    HW2 8544   1.191   6.552   6.344
 2549SOL     OW 8545   2.012   0.574   0.405
 2549SOL    HW1 8546   1.991   0.537   0.495
 2549SOL    HW2 8547   1.998   0.673   0.406
 2550SOL     OW 8548   6.832   0.437   6.855
 2550SOL    HW1 8549   6.910   0.410   6.798
 2550SOL    HW2 8550   6.858   0.431   6.952
 2551SOL     OW 8551   3.192   5.395   0.214
 2551SOL    HW1 8552   3.279   5.420   0.173
 2551SOL    HW2 8553   3.192   5.420   0.311
 2552SOL     OW 8554   1.927   5.097   5.381
 2552SOL    HW1 8555   1.929   5.046   5.467
 2552SOL    HW2 8556   1.894   5.038   5.308
 2553SOL     OW 8557   5.118   3.092   5.472
 2553SOL    HW1 8558   5.196   3.091   5.535
 2553SOL    HW2 8559   5.044   3.037   5.510
 2554SOL     OW 8560   1.688   6.873   0.457
 2554SOL    HW1 8561   1.673   6.808   0.531
 2554SOL    HW2 8562   1.773   6.850   0.409
 2555SOL     OW 8563   5.969   6.763   5.497
 2555SOL    HW1 8564   5.929   6.818   5.423
 2555SOL    HW2 8565   5.925   6.674   5.501
 2556SOL     OW 8566   4.500   5.532   0.750
 2556SOL    HW1 8567   4.489   5.562   0.656
 2556SOL    HW2 8568   4.421   5.561   0.804
 2557SOL     OW 8569   2.689   3.982   6.884
 2557SOL    HW1 8570   2.615   3.987   6.952
 2557SOL    HW2 8571   2.685   3.893   6.837
 2558SOL     OW 8572   5.177   1.775   4.407
 2558SOL    HW1 8573   5.165   1.809   4.500
 2558SOL    HW2 8574   5.129   1.688   4.396
 2559SOL     OW 8575   6.757   3.588   3.942
 2559SOL    HW1 8576   6.832   3.565   4.005
 2559SOL    HW2 8577   6.771   3.680   3.905
 2560SOL     OW 8578   5.764   3.453   4.505
 2560SOL    HW1 8579   5.664   3.459   4.504
 2560SOL    HW2 8580   5.791   3.364   4.542
 2561SOL     OW 8581   3.402   6.286   5.578
 2561SOL    HW1 8582   3.396   6.345   5.497
 2561SOL    HW2 8583   3.438   6.340   5.655
 2562SOL     OW 8584   1.997   5.295   2.418
 2562SOL    HW1 8585   2.064   5.225   2.391
 2562SOL    HW2 8586   1.996   5.368   2.350
 2563SOL     OW 8587   3.681   2.669   0.169
 2563SOL    HW1 8588   3.599   2.616   0.149
 2563SOL    HW2 8589   3.729   2.690   0.084
 2564SOL     OW 8590   2.227   6.479   5.869
 2564SOL    HW1 8591   2.201   6.392   5.911
 2564SOL    HW2 8592   2.192   6.483   5.775
 2565SOL     OW 8593   0.763   0.567   6.940
 2565SOL    HW1 8594   0.750   0.659   6.977
 2565SOL    HW2 8595   0.860   0.551   6.922
 2566SOL     OW 8596   2.984   6.906   1.117
 2566SOL    HW1 8597   2.925   6.979   1.149
 2566SOL    HW2 8598   3.059   6.893   1.181
 2567SOL     OW 8599   0.919   1.115   0.813
 2567SOL    HW1 8600   1.015   1.113   0.840
 2567SOL    HW2 8601   0.861   1.108   0.894
 2568SOL     OW 8602   4.309   6.644   0.241
 2568SOL    HW1 8603   4.293   6.552   0.277
 2568SOL    HW2 8604   4.372   6.639   0.163
 2569SOL     OW 8605   3.322   1.299   1.666
 2569SOL    HW1 8606   3.274   1.306   1.754
 2569SOL    HW2 8607   3.419   1.283   1.682
 2570SOL     OW 8608   5.403   0.131   6.196
 2570SOL    HW1 8609   5.318   0.137   6.248
 2570SOL    HW2 8610   5.392   0.065   6.121
 2571SOL     OW 8611   2.519   4.700   5.840
 2571SOL    HW1 8612   2.492   4.753   5.760
 2571SOL    HW2 8613   2.561   4.614   5.811
 2572SOL     OW 8614   2.596   4.809   0.124
 2572SOL    HW1 8615   2.647   4.895   0.134
 2572SOL    HW2 8616   2.655   4.732   0.147
 2573SOL     OW 8617   6.884   2.512   1.821
 2573SOL    HW1 8618   6.870   2.581   1.749
 2573SOL    HW2 8619   6.889   2.421   1.779
 2574SOL     OW 8620   6.083   4.032   0.174
 2574SOL    HW1 8621   6.145   4.043   0.096
 2574SOL    HW2 8622   6.136   4.017   0.257
 2575SOL     OW 8623   5.141   5.201   1.057
 2575SOL    HW1 8624   5.097   5.224   0.970
 2575SOL    HW2 8625   5.104   5.259   1.129
 2576SOL     OW 8626   3.987   6.506   4.356
 2576SOL    HW1 8627   3.961   6.545   4.444
 2576SOL    HW2 8628   3.937   6.421   4.341
 2577SOL     OW 8629   4.394   6.755   1.828
 2577SOL    HW1 8630   4.392   6.688   1.754
 2577SOL    HW2 8631   4.302   6.763   1.868
 2578SOL     OW 8632   4.906   1.455   5.206
 2578SOL    HW1 8633   4.869   1.368   5.239
 2578SOL    HW2 8634   4.982   1.438   5.143
 2579SOL     OW 8635   1.508   6.138   3.597
 2579SOL    HW1 8636   1.443   6.083   3.650
 2579SOL    HW2 8637   1.599   6.096   3.603
 2580SOL     OW 8638   2.604   3.792   6.284
 2580SOL    HW1 8639   2.544   3.732   6.336
 2580SOL    HW2 8640   2.553   3.872   6.252
 2581SOL     OW 8641   0.811   5.329   1.337
 2581SOL    HW1 8642   0.768   5.339   1.427
 2581SOL    HW2 8643   0.807   5.417   1.288
 2582SOL     OW 8644   0.432   4.280   2.254
 2582SOL    HW1 8645   0.366   4.211   2.283
 2582SOL    HW2 8646   0.415   4.305   2.159
 2583SOL     OW 8647   0.790   1.691   0.397
 2583SOL    HW1 8648   0.710   1.631   0.395
 2583SOL    HW2 8649   0.810   1.725   0.306
 2584SOL     OW 8650   4.223   4.937   6.559
 2584SOL    HW1 8651   4.254   4.984   6.641
 2584SOL    HW2 8652   4.290   4.950   6.486
 2585SOL     OW 8653   4.111   2.934   6.758
 2585SOL    HW1 8654   4.193   2.989   6.770
 2585SOL    HW2 8655   4.035   2.977   6.807
 2586SOL     OW 8656   3.660   1.453   2.960
 2586SOL    HW1 8657   3.605   1.537   2.955
 2586SOL    HW2 8658   3.666   1.411   2.869
 2587SOL     OW 8659   0.398   0.489   3.044
 2587SOL    HW1 8660   0.449   0.423   3.098
 2587SOL    HW2 8661   0.395   0.459   2.949
 2588SOL     OW 8662   5.009   0.965   6.774
 2588SOL    HW1 8663   5.106   0.988   6.766
 2588SOL    HW2 8664   4.959   1.043   6.812
 2589SOL     OW 8665   0.925   6.440   5.968
 2589SOL    HW1 8666   1.001   6.406   6.024
 2589SOL    HW2 8667   0.894   6.528   6.005
 2590SOL     OW 8668   3.449   5.612   0.751
 2590SOL    HW1 8669   3.514   5.537   0.736
 2590SOL    HW2 8670   3.457   5.644   0.845
 2591SOL     OW 8671   0.049   4.653   3.176
 2591SOL    HW1 8672   0.029   4.565   3.218
 2591SOL    HW2 8673   6.998   4.679   3.115
 2592SOL     OW 8674   3.219   5.835   0.012
 2592SOL    HW1 8675   3.247   5.762   0.074
 2592SOL    HW2 8676   3.260   5.821   6.946
 2593SOL     OW 8677   3.657   5.421   0.722
 2593SOL    HW1 8678   3.735   5.441   0.663
 2593SOL    HW2 8679   3.686   5.360   0.796
 2594SOL     OW 8680   2.272   4.695   6.623
 2594SOL    HW1 8681   2.312   4.764   6.683
 2594SOL    HW2 8682   2.223   4.627   6.678
 2595SOL     OW 8683   6.893   1.001   3.567
 2595SOL    HW1 8684   6.857   0.920   3.613
 2595SOL    HW2 8685   6.821   1.071   3.563
 2596SOL     OW 8686   3.267   2.181   1.812
 2596SOL    HW1 8687   3.347   2.129   1.842
 2596SOL    HW2 8688   3.293   2.242   1.738
 2597SOL     OW 8689   0.731   5.010   5.602
 2597SOL    HW1 8690   0.755   5.032   5.508
 2597SOL    HW2 8691   0.759   4.916   5.623
 2598SOL     OW 8692   6.436   1.040   3.227
 2598SOL    HW1 8693   6.505   1.025   3.299
 2598SOL    HW2 8694   6.359   1.090   3.265
 2599SOL     OW 8695   1.659   6.120   1.137
 2599SOL    HW1 8696   1.650   6.139   1.235
 2599SOL    HW2 8697   1.597   6.045   1.112
 2600SOL     OW 8698   5.716   2.803   4.976
 2600SOL    HW1 8699   5.710   2.903   4.973
 2600SOL    HW2 8700   5.663   2.764   4.901
 2601SOL     OW 8701   1.672   1.532   2.097
 2601SOL    HW1 8702   1.707   1.480   2.019
 2601SOL    HW2 8703   1.573   1.536   2.093
 2602SOL     OW 8704   1.394   4.743   4.868
 2602SOL    HW1 8705   1.379   4.716   4.963
 2602SOL    HW2 8706   1.480   4.705   4.836
 2603SOL     OW 8707   3.160   1.070   3.889
 2603SOL    HW1 8708   3.156   1.146   3.824
 2603SOL    HW2 8709   3.195   1.103   3.977
 2604SOL     OW 8710   4.964   2.086   2.536
 2604SOL    HW1 8711   4.958   2.089   2.436
 2604SOL    HW2 8712   5.003   2.172   2.569
 2605SOL     OW 8713   1.853   3.257   3.523
 2605SOL    HW1 8714   1.878   3.172   3.478
 2605SOL    HW2 8715   1.863   3.333   3.459
 2606SOL     OW 8716   5.424   5.028   1.443
 2606SOL    HW1 8717   5.510   5.072   1.473
 2606SOL    HW2 8718   5.410   5.046   1.346
 2607SOL     OW 8719   0.997   1.581   2.058
 2607SOL    HW1 8720   1.007   1.674   2.023
 2607SOL    HW2 8721   1.013   1.516   1.983
 2608SOL     OW 8722   4.444   4.751   0.443
 2608SOL    HW1 8723   4.517   4.792   0.390
 2608SOL    HW2 8724   4.459   4.652   0.452
 2609SOL     OW 8725   6.302   0.875   1.919
 2609SOL    HW1 8726   6.381   0.835   1.965
 2609SOL    HW2 8727   6.218   0.832   1.954
 2610SOL     OW 8728   0.618   4.286   4.527
 2610SOL    HW1 8729   0.614   4.363   4.591
 2610SOL    HW2 8730   0.713   4.270   4.500
 2611SOL     OW 8731   4.344   6.151   0.916
 2611SOL    HW1 8732   4.320   6.070   0.862
 2611SOL    HW2 8733   4.294   6.230   0.881
 2612SOL     OW 8734   6.588   6.977   4.820
 2612SOL    HW1 8735   6.599   6.990   4.721
 2612SOL    HW2 8736   6.617   0.035   4.868
 2613SOL     OW 8737   2.161   5.791   6.092
 2613SOL    HW1 8738   2.124   5.879   6.063
 2613SOL    HW2 8739   2.114   5.761   6.175
 2614SOL     OW 8740   6.497   1.834   0.483
 2614SOL    HW1 8741   6.450   1.853   0.396
 2614SOL    HW2 8742   6.440   1.864   0.559
 2615SOL     OW 8743   0.948   2.743   2.535
 2615SOL    HW1 8744   1.003   2.797   2.471
 2615SOL    HW2 8745   1.008   2.679   2.584
 2616SOL     OW 8746   2.795   2.817   5.806
 2616SOL    HW1 8747   2.708   2.798   5.851
 2616SOL    HW2 8748   2.790   2.787   5.711
 2617SOL     OW 8749   4.518   0.068   0.753
 2617SOL    HW1 8750   4.448   0.135   0.777
 2617SOL    HW2 8751   4.580   0.107   0.685
 2618SOL     OW 8752   6.589   0.188   3.645
 2618SOL    HW1 8753   6.610   0.157   3.737
 2618SOL    HW2 8754   6.673   0.211   3.597
 2619SOL     OW 8755   4.581   2.002   1.953
 2619SOL    HW1 8756   4.498   1.957   1.984
 2619SOL    HW2 8757   4.558   2.092   1.916
 2620SOL     OW 8758   6.530   6.481   3.612
 2620SOL    HW1 8759   6.629   6.481   3.595
 2620SOL    HW2 8760   6.513   6.471   3.710
 2621SOL     OW 8761   1.147   5.124   1.774
 2621SOL    HW1 8762   1.211   5.053   1.743
 2621SOL    HW2 8763   1.130   5.112   1.872
 2622SOL     OW 8764   1.325   3.858   6.020
 2622SOL    HW1 8765   1.273   3.835   6.102
 2622SOL    HW2 8766   1.296   3.799   5.945
 2623SOL     OW 8767   0.439   0.810   5.414
 2623SOL    HW1 8768   0.448   0.764   5.503
 2623SOL    HW2 8769   0.342   0.819   5.391
 2624SOL     OW 8770   0.499   1.191   4.782
 2624SOL    HW1 8771   0.416   1.141   4.807
 2624SOL    HW2 8772   0.526   1.166   4.689
 2625SOL     OW 8773   2.525   3.653   5.328
 2625SOL    HW1 8774   2.556   3.559   5.313
 2625SOL    HW2 8775   2.521   3.671   5.426
 2626SOL     OW 8776   6.873   0.413   6.203
 2626SOL    HW1 8777   6.854   0.507   6.175
 2626SOL    HW2 8778   6.949   0.377   6.149
 2627SOL     OW 8779   1.146   1.181   6.465
 2627SOL    HW1 8780   1.194   1.139   6.388
 2627SOL    HW2 8781   1.204   1.179   6.546
 2628SOL     OW 8782   2.172   4.013   5.820
 2628SOL    HW1 8783   2.139   3.991   5.912
 2628SOL    HW2 8784   2.094   4.022   5.758
 2629SOL     OW 8785   4.043   3.203   2.308
 2629SOL    HW1 8786   4.108   3.192   2.233
 2629SOL    HW2 8787   3.987   3.120   2.317
 2630SOL     OW 8788   3.632   1.644   2.519
 2630SOL    HW1 8789   3.664   1.695   2.439
 2630SOL    HW2 8790   3.711   1.611   2.571
 2631SOL     OW 8791   5.535   0.489   6.002
 2631SOL    HW1 8792   5.447   0.537   5.998
 2631SOL    HW2 8793   5.536   0.428   6.081
 2632SOL     OW 8794   5.185   3.252   0.845
 2632SOL    HW1 8795   5.160   3.158   0.869
 2632SOL    HW2 8796   5.282   3.267   0.865
 2633SOL     OW 8797   0.524   1.460   4.561
 2633SOL    HW1 8798   0.505   1.471   4.659
 2633SOL    HW2 8799   0.574   1.375   4.546
 2634SOL     OW 8800   0.663   5.345   3.668
 2634SOL    HW1 8801   0.749   5.294   3.663
 2634SOL    HW2 8802   0.602   5.301   3.733
 2635SOL     OW 8803   0.314   6.009   4.524
 2635SOL    HW1 8804   0.292   5.921   4.568
 2635SOL    HW2 8805   0.236   6.070   4.532
 2636SOL     OW 8806   4.362   0.495   5.839
 2636SOL    HW1 8807   4.324   0.564   5.778
 2636SOL    HW2 8808   4.454   0.523   5.868
 2637SOL     OW 8809   6.387   2.036   3.404
 2637SOL    HW1 8810   6.381   2.129   3.367
 2637SOL    HW2 8811   6.306   1.984   3.377
 2638SOL     OW 8812   6.964   6.736   4.199
 2638SOL    HW1 8813   6.923   6.766   4.113
 2638SOL    HW2 8814   6.945   6.639   4.213
 2639SOL     OW 8815   0.187   6.265   0.584
 2639SOL    HW1 8816   0.193   6.365   0.585
 2639SOL    HW2 8817   0.160   6.231   0.674
 2640SOL     OW 8818   6.808   6.496   5.565
 2640SOL    HW1 8819   6.783   6.538   5.478
 2640SOL    HW2 8820   6.865   6.415   5.547
 2641SOL     OW 8821   5.692   2.744   2.324
 2641SOL    HW1 8822   5.749   2.752   2.406
 2641SOL    HW2 8823   5.724   2.808   2.255
 2642SOL     OW 8824   6.170   0.653   3.834
 2642SOL    HW1 8825   6.105   0.714   3.789
 2642SOL    HW2 8826   6.120   0.579   3.880
 2643SOL     OW 8827   1.542   3.660   3.459
 2643SOL    HW1 8828   1.634   3.698   3.468
 2643SOL    HW2 8829   1.501   3.649   3.549
 2644SOL     OW 8830   4.974   5.167   4.652
 2644SOL    HW1 8831   4.988   5.250   4.597
 2644SOL    HW2 8832   4.976   5.192   4.749
 2645SOL     OW 8833   4.498   5.668   3.481
 2645SOL    HW1 8834   4.464   5.668   3.575
 2645SOL    HW2 8835   4.524   5.575   3.455
 2646SOL     OW 8836   6.508   1.796   6.915
 2646SOL    HW1 8837   6.606   1.817   6.908
 2646SOL    HW2 8838   6.466   1.854   6.985
 2647SOL     OW 8839   6.551   0.052   1.832
 2647SOL    HW1 8840   6.609   0.118   1.881
 2647SOL    HW2 8841   6.465   0.096   1.807
 2648SOL     OW 8842   0.639   6.398   4.059
 2648SOL    HW1 8843   0.645   6.386   4.158
 2648SOL    HW2 8844   0.696   6.329   4.013
 2649SOL     OW 8845   6.473   3.497   1.145
 2649SOL    HW1 8846   6.541   3.442   1.096
 2649SOL    HW2 8847   6.402   3.437   1.182
 2650SOL     OW 8848   1.828   5.049   3.696
 2650SOL    HW1 8849   1.770   5.041   3.776
 2650SOL    HW2 8850   1.871   5.139   3.694
 2651SOL     OW 8851   2.603   2.110   1.168
 2651SOL    HW1 8852   2.595   2.019   1.209
 2651SOL    HW2 8853   2.684   2.155   1.205
 2652SOL     OW 8854   4.225   3.133   5.395
 2652SOL    HW1 8855   4.144   3.172   5.351
 2652SOL    HW2 8856   4.293   3.204   5.410
 2653SOL     OW 8857   4.678   6.658   6.110
 2653SOL    HW1 8858   4.677   6.638   6.209
 2653SOL    HW2 8859   4.632   6.745   6.093
 2654SOL     OW 8860   4.374   7.019   1.554
 2654SOL    HW1 8861   4.460   0.035   1.585
 2654SOL    HW2 8862   4.391   6.925   1.525
 2655SOL     OW 8863   5.361   6.040   3.713
 2655SOL    HW1 8864   5.460   6.032   3.707
 2655SOL    HW2 8865   5.326   6.081   3.629
 2656SOL     OW 8866   3.850   4.948   4.754
 2656SOL    HW1 8867   3.837   4.905   4.665
 2656SOL    HW2 8868   3.947   4.944   4.779
 2657SOL     OW 8869   1.839   4.156   6.965
 2657SOL    HW1 8870   1.804   4.175   6.874
 2657SOL    HW2 8871   1.803   4.223   0.005
 2658SOL     OW 8872   5.282   4.887   0.150
 2658SOL    HW1 8873   5.349   4.958   0.125
 2658SOL    HW2 8874   5.245   4.845   0.068
 2659SOL     OW 8875   4.910   3.228   4.937
 2659SOL    HW1 8876   4.892   3.198   5.031
 2659SOL    HW2 8877   4.984   3.174   4.898
 2660SOL     OW 8878   1.185   0.209   1.824
 2660SOL    HW1 8879   1.217   0.123   1.865
 2660SOL    HW2 8880   1.133   0.261   1.891
 2661SOL     OW 8881   2.153   6.507   1.372
 2661SOL    HW1 8882   2.144   6.592   1.320
 2661SOL    HW2 8883   2.249   6.494   1.398
 2662SOL     OW 8884   3.709   6.841   4.887
 2662SOL    HW1 8885   3.772   6.918   4.878
 2662SOL    HW2 8886   3.618   6.869   4.858
 2663SOL     OW 8887   4.218   4.076   6.848
 2663SOL    HW1 8888   4.270   4.130   6.914
 2663SOL    HW2 8889   4.144   4.132   6.810
 2664SOL     OW 8890   4.532   3.045   5.668
 2664SOL    HW1 8891   4.613   3.034   5.726
 2664SOL    HW2 8892   4.498   3.139   5.676
 2665SOL     OW 8893   2.502   3.360   5.327
 2665SOL    HW1 8894   2.576   3.296   5.308
 2665SOL    HW2 8895   2.442   3.322   5.398
 2666SOL     OW 8896   1.365   5.013   1.653
 2666SOL    HW1 8897   1.426   4.937   1.631
 2666SOL    HW2 8898   1.330   5.054   1.569
 2667SOL     OW 8899   1.730   5.605   3.839
 2667SOL    HW1 8900   1.819   5.608   3.794
 2667SOL    HW2 8901   1.681   5.523   3.811
 2668SOL     OW 8902   6.759   2.557   5.017
 2668SOL    HW1 8903   6.806   2.496   4.953
 2668SOL    HW2 8904   6.805   2.646   5.019
 2669SOL     OW 8905   2.618   5.142   5.988
 2669SOL    HW1 8906   2.665   5.094   6.062
 2669SOL    HW2 8907   2.683   5.164   5.915
 2670SOL     OW 8908   6.327   3.129   4.799
 2670SOL    HW1 8909   6.227   3.138   4.803
 2670SOL    HW2 8910   6.368   3.220   4.810
 2671SOL     OW 8911   4.371   5.586   6.766
 2671SOL    HW1 8912   4.293   5.639   6.800
 2671SOL    HW2 8913   4.338   5.506   6.716
 2672SOL     OW 8914   3.190   6.269   0.723
 2672SOL    HW1 8915   3.178   6.197   0.792
 2672SOL    HW2 8916   3.229   6.350   0.766
 2673SOL     OW 8917   6.195   2.261   1.839
 2673SOL    HW1 8918   6.122   2.204   1.803
 2673SOL    HW2 8919   6.157   2.324   1.907
 2674SOL     OW 8920   1.199   4.618   4.473
 2674SOL    HW1 8921   1.297   4.633   4.484
 2674SOL    HW2 8922   1.173   4.636   4.378
 2675SOL     OW 8923   6.670   6.306   4.070
 2675SOL    HW1 8924   6.616   6.379   4.027
 2675SOL    HW2 8925   6.619   6.267   4.146
 2676SOL     OW 8926   3.457   2.876   1.221
 2676SOL    HW1 8927   3.497   2.806   1.161
 2676SOL    HW2 8928   3.413   2.833   1.299
 2677SOL     OW 8929   2.730   4.089   0.714
 2677SOL    HW1 8930   2.700   4.025   0.642
 2677SOL    HW2 8931   2.788   4.041   0.780
 2678SOL     OW 8932   0.570   2.588   2.691
 2678SOL    HW1 8933   0.636   2.523   2.730
 2678SOL    HW2 8934   0.502   2.538   2.637
 2679SOL     OW 8935   2.228   4.816   2.386
 2679SOL    HW1 8936   2.285   4.836   2.307
 2679SOL    HW2 8937   2.158   4.887   2.395
 2680SOL     OW 8938   0.988   2.009   0.737
 2680SOL    HW1 8939   1.069   1.963   0.774
 2680SOL    HW2 8940   1.009   2.105   0.720
 2681SOL     OW 8941   1.427   2.276   4.498
 2681SOL    HW1 8942   1.345   2.278   4.556
 2681SOL    HW2 8943   1.411   2.216   4.420
 2682SOL     OW 8944   4.892   3.944   3.943
 2682SOL    HW1 8945   4.984   3.953   3.904
 2682SOL    HW2 8946   4.859   4.034   3.972
 2683SOL     OW 8947   2.584   4.580   2.307
 2683SOL    HW1 8948   2.616   4.496   2.265
 2683SOL    HW2 8949   2.639   4.657   2.275
 2684SOL     OW 8950   4.278   6.956   2.295
 2684SOL    HW1 8951   4.237   6.939   2.384
 2684SOL    HW2 8952   4.332   6.876   2.268
 2685SOL     OW 8953   5.491   5.535   5.568
 2685SOL    HW1 8954   5.414   5.471   5.570
 2685SOL    HW2 8955   5.575   5.486   5.544
 2686SOL     OW 8956   1.263   1.825   5.338
 2686SOL    HW1 8957   1.209   1.768   5.400
 2686SOL    HW2 8958   1.264   1.783   5.247
 2687SOL     OW 8959   4.259   5.454   0.969
 2687SOL    HW1 8960   4.172   5.501   0.959
 2687SOL    HW2 8961   4.270   5.421   1.063
 2688SOL     OW 8962   2.570   2.369   0.490
 2688SOL    HW1 8963   2.659   2.409   0.512
 2688SOL    HW2 8964   2.525   2.425   0.421
 2689SOL     OW 8965   6.864   3.648   1.871
 2689SOL    HW1 8966   6.887   3.554   1.898
 2689SOL    HW2 8967   6.878   3.709   1.950
 2690SOL     OW 8968   2.974   3.356   5.628
 2690SOL    HW1 8969   3.055   3.321   5.675
 2690SOL    HW2 8970   2.898   3.293   5.641
 2691SOL     OW 8971   0.347   5.067   3.663
 2691SOL    HW1 8972   0.313   4.981   3.700
 2691SOL    HW2 8973   0.435   5.051   3.616
 2692SOL     OW 8974   2.809   6.398   3.908
 2692SOL    HW1 8975   2.794   6.434   3.816
 2692SOL    HW2 8976   2.907   6.387   3.925
 2693SOL     OW 8977   2.555   4.736   4.222
 2693SOL    HW1 8978   2.629   4.780   4.171
 2693SOL    HW2 8979   2.474   4.794   4.220
 2694SOL     OW 8980   3.811   0.073   3.092
 2694SOL    HW1 8981   3.820   0.035   3.185
 2694SOL    HW2 8982   3.740   0.024   3.043
 2695SOL     OW 8983   6.232   0.288   2.997
 2695SOL    HW1 8984   6.314   0.323   3.042
 2695SOL    HW2 8985   6.252   0.199   2.957
 2696SOL     OW 8986   4.017   3.457   5.586
 2696SOL    HW1 8987   3.992   3.526   5.518
 2696SOL    HW2 8988   4.061   3.501   5.664
 2697SOL     OW 8989   3.514   1.673   3.015
 2697SOL    HW1 8990   3.433   1.618   3.033
 2697SOL    HW2 8991   3.542   1.719   3.099
 2698SOL     OW 8992   1.735   4.150   0.444
 2698SOL    HW1 8993   1.833   4.165   0.456
 2698SOL    HW2 8994   1.705   4.192   0.358
 2699SOL     OW 8995   2.801   6.016   1.034
 2699SOL    HW1 8996   2.887   6.035   1.081
 2699SOL    HW2 8997   2.819   5.973   0.946
 2700SOL     OW 8998   2.957   1.878   0.958
 2700SOL    HW1 8999   3.047   1.856   0.920
 2700SOL    HW2 9000   2.961   1.967   1.003
 2701SOL     OW 9001   4.999   2.120   6.082
 2701SOL    HW1 9002   5.094   2.112   6.111
 2701SOL    HW2 9003   4.951   2.034   6.100
 2702SOL     OW 9004   1.279   2.790   3.688
 2702SOL    HW1 9005   1.247   2.847   3.612
 2702SOL    HW2 9006   1.207   2.724   3.712
 2703SOL     OW 9007   0.890   5.906   0.988
 2703SOL    HW1 9008   0.837   5.840   0.935
 2703SOL    HW2 9009   0.874   5.998   0.953
 2704SOL     OW 9010   6.338   6.103   1.747
 2704SOL    HW1 9011   6.275   6.026   1.759
 2704SOL    HW2 9012   6.285   6.187   1.731
 2705SOL     OW 9013   6.254   0.217   5.310
 2705SOL    HW1 9014   6.164   0.250   5.341
 2705SOL    HW2 9015   6.303   0.177   5.388
 2706SOL     OW 9016   6.567   4.592   3.387
 2706SOL    HW1 9017   6.655   4.556   3.358
 2706SOL    HW2 9018   6.564   4.690   3.372
 2707SOL     OW 9019   3.700   0.042   4.122
 2707SOL    HW1 9020   3.741   0.042   4.030
 2707SOL    HW2 9021   3.773   0.043   4.190
 2708SOL     OW 9022   6.392   2.812   1.054
 2708SOL    HW1 9023   6.441   2.730   1.024
 2708SOL    HW2 9024   6.436   2.893   1.018
 2709SOL     OW 9025   5.503   6.774   6.911
 2709SOL    HW1 9026   5.477   6.867   6.936
 2709SOL    HW2 9027   5.551   6.775   6.823
 2710SOL     OW 9028   1.309   3.183   4.062
 2710SOL    HW1 9029   1.240   3.192   4.134
 2710SOL    HW2 9030   1.263   3.173   3.974
 2711SOL     OW 9031   2.939   0.647   4.034
 2711SOL    HW1 9032   2.890   0.573   3.987
 2711SOL    HW2 9033   2.874   0.719   4.057
 2712SOL     OW 9034   2.617   5.428   1.831
 2712SOL    HW1 9035   2.535   5.388   1.790
 2712SOL    HW2 9036   2.659   5.361   1.892
 2713SOL     OW 9037   2.420   3.434   6.092
 2713SOL    HW1 9038   2.358   3.414   6.168
 2713SOL    HW2 9039   2.512   3.450   6.127
 2714SOL     OW 9040   3.761   2.744   6.917
 2714SOL    HW1 9041   3.808   2.832   6.919
 2714SOL    HW2 9042   3.825   2.672   6.945
 2715SOL     OW 9043   4.988   2.111   0.563
 2715SOL    HW1 9044   4.987   2.141   0.658
 2715SOL    HW2 9045   5.081   2.116   0.527
 2716SOL     OW 9046   5.160   3.493   4.291
 2716SOL    HW1 9047   5.083   3.549   4.258
 2716SOL    HW2 9048   5.134   3.397   4.289
 2717SOL     OW 9049   0.549   6.898   1.826
 2717SOL    HW1 9050   0.500   6.813   1.809
 2717SOL    HW2 9051   0.559   6.912   1.925
 2718SOL     OW 9052   0.971   1.457   5.610
 2718SOL    HW1 9053   0.980   1.363   5.643
 2718SOL    HW2 9054   0.923   1.457   5.522
 2719SOL     OW 9055   1.024   5.171   1.337
 2719SOL    HW1 9056   0.947   5.234   1.349
 2719SOL    HW2 9057   1.005   5.085   1.384
 2720SOL     OW 9058   1.251   0.376   2.444
 2720SOL    HW1 9059   1.193   0.456   2.460
 2720SOL    HW2 9060   1.223   0.302   2.504
 2721SOL     OW 9061   3.014   6.256   3.104
 2721SOL    HW1 9062   3.100   6.231   3.060
 2721SOL    HW2 9063   3.004   6.205   3.190
 2722SOL     OW 9064   5.678   5.251   6.747
 2722SOL    HW1 9065   5.759   5.195   6.765
 2722SOL    HW2 9066   5.596   5.195   6.758
 2723SOL     OW 9067   1.432   6.037   6.834
 2723SOL    HW1 9068   1.335   6.018   6.823
 2723SOL    HW2 9069   1.468   5.984   6.910
 2724SOL     OW 9070   1.449   6.490   6.562
 2724SOL    HW1 9071   1.464   6.574   6.612
 2724SOL    HW2 9072   1.352   6.482   6.538
 2725SOL     OW 9073   5.347   4.614   4.769
 2725SOL    HW1 9074   5.267   4.674   4.776
 2725SOL    HW2 9075   5.424   4.657   4.817
 2726SOL     OW 9076   0.441   2.527   2.126
 2726SOL    HW1 9077   0.440   2.479   2.214
 2726SOL    HW2 9078   0.496   2.610   2.135
 2727SOL     OW 9079   0.578   4.180   4.255
 2727SOL    HW1 9080   0.566   4.236   4.337
 2727SOL    HW2 9081   0.674   4.151   4.248
 2728SOL     OW 9082   4.746   6.257   5.395
 2728SOL    HW1 9083   4.657   6.230   5.359
 2728SOL    HW2 9084   4.798   6.304   5.324
 2729SOL     OW 9085   6.683   6.632   0.685
 2729SOL    HW1 9086   6.682   6.589   0.595
 2729SOL    HW2 9087   6.761   6.598   0.738
 2730SOL     OW 9088   1.618   5.692   1.863
 2730SOL    HW1 9089   1.556   5.740   1.925
 2730SOL    HW2 9090   1.568   5.617   1.818
 2731SOL     OW 9091   2.955   3.637   3.322
 2731SOL    HW1 9092   2.946   3.703   3.248
 2731SOL    HW2 9093   2.978   3.547   3.285
 2732SOL     OW 9094   5.644   1.777   0.959
 2732SOL    HW1 9095   5.736   1.795   0.995
 2732SOL    HW2 9096   5.599   1.708   1.016
 2733SOL     OW 9097   6.740   1.729   5.090
 2733SOL    HW1 9098   6.729   1.629   5.092
 2733SOL    HW2 9099   6.729   1.761   4.996
 2734SOL     OW 9100   2.745   5.569   0.703
 2734SOL    HW1 9101   2.774   5.660   0.672
 2734SOL    HW2 9102   2.710   5.517   0.625
 2735SOL     OW 9103   1.581   2.418   2.039
 2735SOL    HW1 9104   1.583   2.319   2.026
 2735SOL    HW2 9105   1.606   2.440   2.133
 2736SOL     OW 9106   7.004   6.439   4.693
 2736SOL    HW1 9107   0.064   6.490   4.710
 2736SOL    HW2 9108   0.003   6.342   4.677
 2737SOL     OW 9109   2.924   3.906   5.535
 2737SOL    HW1 9110   2.986   3.830   5.558
 2737SOL    HW2 9111   2.830   3.879   5.554
 2738SOL     OW 9112   5.515   5.959   1.947
 2738SOL    HW1 9113   5.439   5.901   1.919
 2738SOL    HW2 9114   5.520   5.961   2.047
 2739SOL     OW 9115   1.211   4.800   0.611
 2739SOL    HW1 9116   1.224   4.850   0.697
 2739SOL    HW2 9117   1.237   4.704   0.625
 2740SOL     OW 9118   6.442   4.872   1.125
 2740SOL    HW1 9119   6.417   4.829   1.211
 2740SOL    HW2 9120   6.412   4.815   1.049
 2741SOL     OW 9121   6.579   0.828   4.166
 2741SOL    HW1 9122   6.482   0.827   4.190
 2741SOL    HW2 9123   6.589   0.850   4.069
 2742SOL     OW 9124   1.983   4.690   0.236
 2742SOL    HW1 9125   1.989   4.747   0.318
 2742SOL    HW2 9126   2.056   4.622   0.238
 2743SOL     OW 9127   0.425   4.530   2.406
 2743SOL    HW1 9128   0.413   4.445   2.355
 2743SOL    HW2 9129   0.360   4.532   2.483
 2744SOL     OW 9130   4.232   2.751   0.655
 2744SOL    HW1 9131   4.328   2.724   0.666
 2744SOL    HW2 9132   4.194   2.776   0.744
 2745SOL     OW 9133   0.125   0.932   4.693
 2745SOL    HW1 9134   0.139   0.858   4.627
 2745SOL    HW2 9135   0.027   0.952   4.700
 2746SOL     OW 9136   0.981   2.427   4.902
 2746SOL    HW1 9137   1.025   2.345   4.939
 2746SOL    HW2 9138   0.945   2.483   4.977
 2747SOL     OW 9139   4.924   5.380   6.715
 2747SOL    HW1 9140   5.021   5.390   6.736
 2747SOL    HW2 9141   4.895   5.456   6.656
 2748SOL     OW 9142   4.567   1.296   2.792
 2748SOL    HW1 9143   4.474   1.318   2.821
 2748SOL    HW2 9144   4.566   1.210   2.740
 2749SOL     OW 9145   6.483   4.540   1.210
 2749SOL    HW1 9146   6.548   4.511   1.141
 2749SOL    HW2 9147   6.428   4.462   1.240
 2750SOL     OW 9148   2.223   3.951   1.736
 2750SOL    HW1 9149   2.298   3.910   1.684
 2750SOL    HW2 9150   2.246   3.952   1.833
 2751SOL     OW 9151   0.993   2.897   1.451
 2751SOL    HW1 9152   0.916   2.862   1.397
 2751SOL    HW2 9153   1.004   2.840   1.532
 2752SOL     OW 9154   3.402   4.649   5.819
 2752SOL    HW1 9155   3.311   4.609   5.828
 2752SOL    HW2 9156   3.440   4.666   5.909
 2753SOL     OW 9157   6.977   6.780   4.964
 2753SOL    HW1 9158   6.952   6.811   4.872
 2753SOL    HW2 9159   0.052   6.778   4.973
 2754SOL     OW 9160   0.428   0.340   0.891
 2754SOL    HW1 9161   0.488   0.414   0.860
 2754SOL    HW2 9162   0.480   0.255   0.898
 2755SOL     OW 9163   3.421   6.812   2.165
 2755SOL    HW1 9164   3.503   6.772   2.124
 2755SOL    HW2 9165   3.413   6.908   2.137
 2756SOL     OW 9166   4.770   5.857   6.925
 2756SOL    HW1 9167   4.729   5.915   6.854
 2756SOL    HW2 9168   4.720   5.771   6.931
 2757SOL     OW 9169   2.577   6.694   0.344
 2757SOL    HW1 9170   2.598   6.606   0.386
 2757SOL    HW2 9171   2.649   6.718   0.279
 2758SOL     OW 9172   4.019   6.972   3.522
 2758SOL    HW1 9173   4.087   6.901   3.504
 2758SOL    HW2 9174   4.065   0.035   3.536
 2759SOL     OW 9175   5.587   6.463   5.821
 2759SOL    HW1 9176   5.508   6.420   5.777
 2759SOL    HW2 9177   5.670   6.411   5.800
 2760SOL     OW 9178   0.140   5.789   1.604
 2760SOL    HW1 9179   0.194   5.721   1.554
 2760SOL    HW2 9180   0.044   5.783   1.575
 2761SOL     OW 9181   2.063   5.092   4.378
 2761SOL    HW1 9182   2.020   5.182   4.377
 2761SOL    HW2 9183   2.149   5.095   4.328
 2762SOL     OW 9184   1.594   0.846   5.472
 2762SOL    HW1 9185   1.653   0.830   5.393
 2762SOL    HW2 9186   1.503   0.807   5.455
 2763SOL     OW 9187   5.035   1.618   3.783
 2763SOL    HW1 9188   5.076   1.645   3.870
 2763SOL    HW2 9189   4.961   1.680   3.760
 2764SOL     OW 9190   5.851   1.092   1.335
 2764SOL    HW1 9191   5.759   1.122   1.309
 2764SOL    HW2 9192   5.898   1.167   1.381
 2765SOL     OW 9193   5.517   0.343   0.941
 2765SOL    HW1 9194   5.536   0.383   1.030
 2765SOL    HW2 9195   5.586   0.273   0.921
 2766SOL     OW 9196   3.979   2.186   6.858
 2766SOL    HW1 9197   3.969   2.280   6.824
 2766SOL    HW2 9198   4.056   2.181   6.921
 2767SOL     OW 9199   6.817   5.515   0.265
 2767SOL    HW1 9200   6.821   5.421   0.298
 2767SOL    HW2 9201   6.732   5.530   0.215
 2768SOL     OW 9202   4.707   0.498   0.861
 2768SOL    HW1 9203   4.787   0.506   0.921
 2768SOL    HW2 9204   4.737   0.470   0.769
 2769SOL     OW 9205   0.844   4.107   4.180
 2769SOL    HW1 9206   0.936   4.094   4.217
 2769SOL    HW2 9207   0.849   4.130   4.083
 2770SOL     OW 9208   3.049   5.385   5.789
 2770SOL    HW1 9209   3.137   5.425   5.815
 2770SOL    HW2 9210   2.975   5.434   5.837
 2771SOL     OW 9211   6.579   0.779   3.184
 2771SOL    HW1 9212   6.574   0.751   3.280
 2771SOL    HW2 9213   6.561   0.877   3.177
 2772SOL     OW 9214   4.403   1.997   0.674
 2772SOL    HW1 9215   4.352   1.914   0.697
 2772SOL    HW2 9216   4.339   2.074   0.667
 2773SOL     OW 9217   6.097   2.167   5.538
 2773SOL    HW1 9218   6.054   2.208   5.457
 2773SOL    HW2 9219   6.195   2.189   5.538
 2774SOL     OW 9220   6.067   3.742   3.268
 2774SOL    HW1 9221   6.161   3.709   3.278
 2774SOL    HW2 9222   6.016   3.722   3.352
 2775SOL     OW 9223   6.751   5.489   6.970
 2775SOL    HW1 9224   6.767   5.536   6.883
 2775SOL    HW2 9225   6.746   5.390   6.955
 2776SOL     OW 9226   4.491   4.634   5.940
 2776SOL    HW1 9227   4.418   4.579   5.982
 2776SOL    HW2 9228   4.528   4.698   6.008
 2777SOL     OW 9229   2.694   1.370   2.136
 2777SOL    HW1 9230   2.764   1.403   2.074
 2777SOL    HW2 9231   2.670   1.442   2.201
 2778SOL     OW 9232   1.226   0.053   5.744
 2778SOL    HW1 9233   1.320   0.038   5.715
 2778SOL    HW2 9234   1.204   7.016   5.820
 2779SOL     OW 9235   5.111   6.037   0.981
 2779SOL    HW1 9236   5.041   6.095   1.021
 2779SOL    HW2 9237   5.081   5.941   0.984
 2780SOL     OW 9238   6.551   6.309   6.844
 2780SOL    HW1 9239   6.461   6.268   6.861
 2780SOL    HW2 9240   6.584   6.280   6.754
 2781SOL     OW 9241   5.185   6.227   1.734
 2781SOL    HW1 9242   5.173   6.297   1.663
 2781SOL    HW2 9243   5.112   6.159   1.727
 2782SOL     OW 9244   3.905   1.925   5.318
 2782SOL    HW1 9245   3.943   1.851   5.375
 2782SOL    HW2 9246   3.807   1.934   5.336
 2783SOL     OW 9247   5.123   4.091   4.006
 2783SOL    HW1 9248   5.092   4.178   4.044
 2783SOL    HW2 9249   5.133   4.100   3.907
 2784SOL     OW 9250   3.651   1.537   1.031
 2784SOL    HW1 9251   3.678   1.552   1.126
 2784SOL    HW2 9252   3.690   1.451   0.999
 2785SOL     OW 9253   5.294   1.763   0.979
 2785SOL    HW1 9254   5.235   1.692   0.942
 2785SOL    HW2 9255   5.239   1.832   1.026
 2786SOL     OW 9256   4.572   5.793   2.068
 2786SOL    HW1 9257   4.508   5.855   2.114
 2786SOL    HW2 9258   4.660   5.795   2.115
 2787SOL     OW 9259   3.194   1.972   6.799
 2787SOL    HW1 9260   3.198   1.921   6.885
 2787SOL    HW2 9261   3.186   1.908   6.722
 2788SOL     OW 9262   2.390   4.569   6.074
 2788SOL    HW1 9263   2.462   4.527   6.130
 2788SOL    HW2 9264   2.424   4.582   5.981
 2789SOL     OW 9265   2.333   2.272   3.556
 2789SOL    HW1 9266   2.316   2.335   3.480
 2789SOL    HW2 9267   2.354   2.325   3.638
 2790SOL     OW 9268   3.136   5.864   1.986
 2790SOL    HW1 9269   3.102   5.865   2.080
 2790SOL    HW2 9270   3.073   5.914   1.927
 2791SOL     OW 9271   1.382   3.857   3.383
 2791SOL    HW1 9272   1.357   3.893   3.473
 2791SOL    HW2 9273   1.440   3.777   3.394
 2792SOL     OW 9274   1.078   6.988   3.907
 2792SOL    HW1 9275   1.168   6.971   3.949
 2792SOL    HW2 9276   1.078   0.055   3.866
 2793SOL     OW 9277   4.986   3.428   3.228
 2793SOL    HW1 9278   4.966   3.519   3.192
 2793SOL    HW2 9279   4.981   3.431   3.328
 2794SOL     OW 9280   0.210   3.023   0.310
 2794SOL    HW1 9281   0.145   3.095   0.338
 2794SOL    HW2 9282   0.268   2.999   0.387
 2795SOL     OW 9283   1.716   2.855   0.728
 2795SOL    HW1 9284   1.789   2.893   0.672
 2795SOL    HW2 9285   1.748   2.772   0.774
 2796SOL     OW 9286   6.714   5.559   2.549
 2796SOL    HW1 9287   6.706   5.634   2.615
 2796SOL    HW2 9288   6.682   5.590   2.460
 2797SOL     OW 9289   5.739   5.272   4.536
 2797SOL    HW1 9290   5.731   5.366   4.502
 2797SOL    HW2 9291   5.651   5.226   4.530
 2798SOL     OW 9292   0.723   5.442   1.586
 2798SOL    HW1 9293   0.817   5.446   1.618
 2798SOL    HW2 9294   0.681   5.533   1.595
 2799SOL     OW 9295   6.548   6.847   0.433
 2799SOL    HW1 9296   6.626   6.810   0.383
 2799SOL    HW2 9297   6.573   6.936   0.472
 2800SOL     OW 9298   4.668   5.199   0.012
 2800SOL    HW1 9299   4.678   5.180   0.110
 2800SOL    HW2 9300   4.709   5.288   7.016
 2801SOL     OW 9301   5.839   5.051   5.066
 2801SOL    HW1 9302   5.881   5.060   4.976
 2801SOL    HW2 9303   5.845   5.138   5.114
 2802SOL     OW 9304   4.578   1.464   5.465
 2802SOL    HW1 9305   4.589   1.482   5.368
 2802SOL    HW2 9306   4.664   1.426   5.502
 2803SOL     OW 9307   3.655   5.847   6.125
 2803SOL    HW1 9308   3.712   5.921   6.089
 2803SOL    HW2 9309   3.559   5.872   6.117
 2804SOL     OW 9310   0.464   4.806   5.022
 2804SOL    HW1 9311   0.526   4.728   5.023
 2804SOL    HW2 9312   0.444   4.832   4.927
 2805SOL     OW 9313   5.259   3.010   1.986
 2805SOL    HW1 9314   5.238   2.942   2.057
 2805SOL    HW2 9315   5.272   3.100   2.029
 2806SOL     OW 9316   6.400   5.196   4.905
 2806SOL    HW1 9317   6.393   5.111   4.957
 2806SOL    HW2 9318   6.310   5.223   4.872
 2807SOL     OW 9319   4.781   5.427   3.279
 2807SOL    HW1 9320   4.852   5.372   3.234
 2807SOL    HW2 9321   4.823   5.507   3.321
 2808SOL     OW 9322   5.206   3.536   2.703
 2808SOL    HW1 9323   5.147   3.609   2.667
 2808SOL    HW2 9324   5.191   3.452   2.650
 2809SOL     OW 9325   5.899   3.258   0.853
 2809SOL    HW1 9326   5.832   3.329   0.831
 2809SOL    HW2 9327   5.937   3.221   0.768
 2810SOL     OW 9328   3.116   5.825   4.160
 2810SOL    HW1 9329   3.093   5.766   4.237
 2810SOL    HW2 9330   3.214   5.848   4.163
 2811SOL     OW 9331   1.467   1.668   3.447
 2811SOL    HW1 9332   1.541   1.718   3.402
 2811SOL    HW2 9333   1.390   1.729   3.462
 2812SOL     OW 9334   5.158   4.270   6.989
 2812SOL    HW1 9335   5.059   4.284   6.986
 2812SOL    HW2 9336   5.188   4.226   6.904
 2813SOL     OW 9337   6.655   6.971   5.856
 2813SOL    HW1 9338   6.607   6.912   5.920
 2813SOL    HW2 9339   6.705   6.915   5.790
 2814SOL     OW 9340   4.478   3.343   6.362
 2814SOL    HW1 9341   4.467   3.244   6.358
 2814SOL    HW2 9342   4.447   3.384   6.276
 2815SOL     OW 9343   5.928   0.628   5.464
 2815SOL    HW1 9344   5.953   0.555   5.400
 2815SOL    HW2 9345   5.904   0.588   5.553
 2816SOL     OW 9346   6.321   5.484   3.412
 2816SOL    HW1 9347   6.268   5.568   3.401
 2816SOL    HW2 9348   6.265   5.416   3.459
 2817SOL     OW 9349   2.566   7.012   1.335
 2817SOL    HW1 9350   2.649   7.007   1.390
 2817SOL    HW2 9351   2.585   0.034   1.249
 2818SOL     OW 9352   7.001   0.515   0.380
 2818SOL    HW1 9353   6.922   0.458   0.400
 2818SOL    HW2 9354   6.975   0.589   0.318
 2819SOL     OW 9355   1.015   0.906   1.174
 2819SOL    HW1 9356   0.982   0.813   1.192
 2819SOL    HW2 9357   0.938   0.965   1.149
 2820SOL     OW 9358   0.978   1.988   3.055
 2820SOL    HW1 9359   0.999   1.926   3.130
 2820SOL    HW2 9360   1.023   1.956   2.972
 2821SOL     OW 9361   3.941   3.532   0.071
 2821SOL    HW1 9362   3.995   3.579   0.140
 2821SOL    HW2 9363   3.921   3.595   7.020
 2822SOL     OW 9364   4.205   1.959   6.724
 2822SOL    HW1 9365   4.116   1.965   6.769
 2822SOL    HW2 9366   4.232   1.863   6.717
 2823SOL     OW 9367   4.224   6.319   0.703
 2823SOL    HW1 9368   4.229   6.266   0.619
 2823SOL    HW2 9369   4.141   6.376   0.702
 2824SOL     OW 9370   2.700   1.061   3.332
 2824SOL    HW1 9371   2.793   1.067   3.297
 2824SOL    HW2 9372   2.650   1.145   3.310
 2825SOL     OW 9373   6.662   0.218   6.774
 2825SOL    HW1 9374   6.564   0.230   6.759
 2825SOL    HW2 9375   6.706   0.307   6.785
 2826SOL     OW 9376   4.810   1.145   6.798
 2826SOL    HW1 9377   4.819   1.243   6.780
 2826SOL    HW2 9378   4.791   1.097   6.713
 2827SOL     OW 9379   6.812   0.799   5.400
 2827SOL    HW1 9380   6.817   0.725   5.333
 2827SOL    HW2 9381   6.807   0.887   5.353
 2828SOL     OW 9382   3.176   1.008   0.102
 2828SOL    HW1 9383   3.094   0.975   0.054
 2828SOL    HW2 9384   3.253   0.947   0.083
 2829SOL     OW 9385   3.251   3.580   5.301
 2829SOL    HW1 9386   3.308   3.604   5.223
 2829SOL    HW2 9387   3.162   3.549   5.269
 2830SOL     OW 9388   1.384   3.189   5.767
 2830SOL    HW1 9389   1.354   3.173   5.860
 2830SOL    HW2 9390   1.466   3.245   5.768
 2831SOL     OW 9391   0.720   5.467   3.448
 2831SOL    HW1 9392   0.691   5.395   3.385
 2831SOL    HW2 9393   0.673   5.456   3.536
 2832SOL     OW 9394   1.294   1.381   2.237
 2832SOL    HW1 9395   1.206   1.340   2.214
 2832SOL    HW2 9396   1.291   1.419   2.329
 2833SOL     OW 9397   4.231   2.040   2.234
 2833SOL    HW1 9398   4.250   2.011   2.328
 2833SOL    HW2 9399   4.241   2.139   2.227
 2834SOL     OW 9400   3.117   5.451   6.561
 2834SOL    HW1 9401   3.122   5.523   6.492
 2834SOL    HW2 9402   3.151   5.365   6.524
 2835SOL     OW 9403   7.011   0.385   1.388
 2835SOL    HW1 9404   6.998   0.436   1.303
 2835SOL    HW2 9405   6.922   0.363   1.428
 2836SOL     OW 9406   5.674   0.467   2.360
 2836SOL    HW1 9407   5.604   0.420   2.307
 2836SOL    HW2 9408   5.657   0.454   2.457
 2837SOL     OW 9409   5.513   4.216   2.808
 2837SOL    HW1 9410   5.589   4.205   2.744
 2837SOL    HW2 9411   5.541   4.189   2.900
 2838SOL     OW 9412   2.139   4.546   1.077
 2838SOL    HW1 9413   2.113   4.643   1.074
 2838SOL    HW2 9414   2.223   4.537   1.130
 2839SOL     OW 9415   6.899   1.592   1.671
 2839SOL    HW1 9416   6.923   1.632   1.582
 2839SOL    HW2 9417   6.800   1.596   1.684
 2840SOL     OW 9418   2.250   0.844   3.280
 2840SOL    HW1 9419   2.232   0.746   3.291
 2840SOL    HW2 9420   2.276   0.883   3.368
 2841SOL     OW 9421   0.555   0.787   5.891
 2841SOL    HW1 9422   0.491   0.759   5.819
 2841SOL    HW2 9423   0.505   0.803   5.976
 2842SOL     OW 9424   6.843   3.835   3.862
 2842SOL    HW1 9425   6.833   3.894   3.782
 2842SOL    HW2 9426   6.799   3.877   3.941
 2843SOL     OW 9427   2.290   1.249   2.886
 2843SOL    HW1 9428   2.281   1.150   2.894
 2843SOL    HW2 9429   2.205   1.293   2.917
 2844SOL     OW 9430   0.242   5.283   0.237
 2844SOL    HW1 9431   0.245   5.203   0.298
 2844SOL    HW2 9432   0.218   5.364   0.290
 2845SOL     OW 9433   6.440   3.138   1.213
 2845SOL    HW1 9434   6.389   3.058   1.246
 2845SOL    HW2 9435   6.377   3.205   1.176
 2846SOL     OW 9436   4.094   1.222   6.163
 2846SOL    HW1 9437   4.066   1.127   6.150
 2846SOL    HW2 9438   4.084   1.246   6.260
 2847SOL     OW 9439   5.055   3.631   3.873
 2847SOL    HW1 9440   4.989   3.655   3.802
 2847SOL    HW2 9441   5.071   3.532   3.872
 2848SOL     OW 9442   1.278   2.959   5.573
 2848SOL    HW1 9443   1.317   2.946   5.482
 2848SOL    HW2 9444   1.338   3.017   5.627
 2849SOL     OW 9445   3.895   6.333   0.740
 2849SOL    HW1 9446   3.806   6.291   0.725
 2849SOL    HW2 9447   3.951   6.275   0.799
 2850SOL     OW 9448   2.381   0.291   2.107
 2850SOL    HW1 9449   2.457   0.334   2.155
 2850SOL    HW2 9450   2.296   0.305   2.158
 2851SOL     OW 9451   6.649   1.730   5.770
 2851SOL    HW1 9452   6.725   1.706   5.709
 2851SOL    HW2 9453   6.659   1.825   5.800
 2852SOL     OW 9454   5.645   5.076   6.995
 2852SOL    HW1 9455   5.660   5.006   0.039
 2852SOL    HW2 9456   5.727   5.133   6.987
 2853SOL     OW 9457   1.624   3.003   6.714
 2853SOL    HW1 9458   1.712   2.973   6.751
 2853SOL    HW2 9459   1.619   2.981   6.617
 2854SOL     OW 9460   3.824   1.124   5.021
 2854SOL    HW1 9461   3.819   1.034   5.063
 2854SOL    HW2 9462   3.820   1.195   5.091
 2855SOL     OW 9463   2.493   1.591   6.969
 2855SOL    HW1 9464   2.581   1.603   6.923
 2855SOL    HW2 9465   2.419   1.602   6.903
 2856SOL     OW 9466   1.476   2.954   6.071
 2856SOL    HW1 9467   1.447   3.024   6.137
 2856SOL    HW2 9468   1.508   2.999   5.987
 2857SOL     OW 9469   3.065   1.803   2.045
 2857SOL    HW1 9470   3.061   1.817   1.946
 2857SOL    HW2 9471   3.058   1.891   2.091
 2858SOL     OW 9472   4.728   4.238   2.942
 2858SOL    HW1 9473   4.786   4.166   2.980
 2858SOL    HW2 9474   4.720   4.226   2.843
 2859SOL     OW 9475   4.891   1.909   6.815
 2859SOL    HW1 9476   4.902   1.988   6.875
 2859SOL    HW2 9477   4.980   1.880   6.780
 2860SOL     OW 9478   3.241   1.981   1.516
 2860SOL    HW1 9479   3.319   1.919   1.507
 2860SOL    HW2 9480   3.210   1.982   1.611
 2861SOL     OW 9481   3.859   3.974   5.870
 2861SOL    HW1 9482   3.818   3.921   5.944
 2861SOL    HW2 9483   3.865   3.918   5.787
 2862SOL     OW 9484   5.306   1.679   3.149
 2862SOL    HW1 9485   5.311   1.589   3.105
 2862SOL    HW2 9486   5.398   1.716   3.158
 2863SOL     OW 9487   5.294   1.026   6.656
 2863SOL    HW1 9488   5.325   0.939   6.696
 2863SOL    HW2 9489   5.361   1.097   6.676
 2864SOL     OW 9490   4.246   1.797   1.404
 2864SOL    HW1 9491   4.280   1.858   1.333
 2864SOL    HW2 9492   4.324   1.757   1.454
 2865SOL     OW 9493   4.841   4.108   6.335
 2865SOL    HW1 9494   4.788   4.048   6.396
 2865SOL    HW2 9495   4.793   4.116   6.248
 2866SOL     OW 9496   6.329   5.362   0.404
 2866SOL    HW1 9497   6.388   5.442   0.398
 2866SOL    HW2 9498   6.251   5.383   0.463
 2867SOL     OW 9499   5.651   3.992   2.598
 2867SOL    HW1 9500   5.607   3.961   2.682
 2867SOL    HW2 9501   5.700   3.917   2.556
 2868SOL     OW 9502   0.100   2.005   5.423
 2868SOL    HW1 9503   0.170   2.002   5.495
 2868SOL    HW2 9504   0.144   2.001   5.334
 2869SOL     OW 9505   6.388   0.619   3.028
 2869SOL    HW1 9506   6.440   0.681   3.087
 2869SOL    HW2 9507   6.423   0.525   3.040
 2870SOL     OW 9508   0.032   1.278   4.499
 2870SOL    HW1 9509   6.987   1.226   4.550
 2870SOL    HW2 9510   0.077   1.341   4.562
 2871SOL     OW 9511   0.259   1.933   0.411
 2871SOL    HW1 9512   0.249   1.881   0.496
 2871SOL    HW2 9513   0.297   2.023   0.431
 2872SOL     OW 9514   2.595   1.258   3.110
 2872SOL    HW1 9515   2.514   1.250   3.052
 2872SOL    HW2 9516   2.586   1.339   3.168
 2873SOL     OW 9517   0.199   4.807   2.826
 2873SOL    HW1 9518   0.194   4.758   2.739
 2873SOL    HW2 9519   0.264   4.761   2.887
 2874SOL     OW 9520   3.645   6.381   3.403
 2874SOL    HW1 9521   3.716   6.349   3.340
 2874SOL    HW2 9522   3.687   6.436   3.475
 2875SOL     OW 9523   4.995   6.854   0.661
 2875SOL    HW1 9524   4.917   6.856   0.725
 2875SOL    HW2 9525   5.075   6.817   0.708
 2876SOL     OW 9526   0.991   6.887   1.808
 2876SOL    HW1 9527   1.067   6.926   1.859
 2876SOL    HW2 9528   0.986   6.788   1.825
 2877SOL     OW 9529   3.119   2.568   5.366
 2877SOL    HW1 9530   3.131   2.493   5.301
 2877SOL    HW2 9531   3.199   2.573   5.426
 2878SOL     OW 9532   4.704   4.722   4.507
 2878SOL    HW1 9533   4.783   4.664   4.529
 2878SOL    HW2 9534   4.623   4.687   4.554
 2879SOL     OW 9535   5.023   4.919   0.922
 2879SOL    HW1 9536   5.008   4.823   0.949
 2879SOL    HW2 9537   5.030   4.975   1.004
 2880SOL     OW 9538   5.952   0.157   1.563
 2880SOL    HW1 9539   5.857   0.173   1.587
 2880SOL    HW2 9540   6.002   0.243   1.565
 2881SOL     OW 9541   5.307   6.052   6.996
 2881SOL    HW1 9542   5.358   6.116   6.938
 2881SOL    HW2 9543   5.235   6.101   0.020
 2882SOL     OW 9544   0.638   4.070   2.644
 2882SOL    HW1 9545   0.670   4.120   2.564
 2882SOL    HW2 9546   0.672   4.114   2.727
 2883SOL     OW 9547   6.056   0.400   3.836
 2883SOL    HW1 9548   6.150   0.373   3.857
 2883SOL    HW2 9549   5.999   0.318   3.831
 2884SOL     OW 9550   0.692   5.895   3.408
 2884SOL    HW1 9551   0.627   5.856   3.342
 2884SOL    HW2 9552   0.737   5.974   3.367
 2885SOL     OW 9553   0.925   3.021   2.318
 2885SOL    HW1 9554   0.984   3.067   2.385
 2885SOL    HW2 9555   0.966   2.933   2.293
 2886SOL     OW 9556   2.519   4.304   5.789
 2886SOL    HW1 9557   2.538   4.267   5.698
 2886SOL    HW2 9558   2.606   4.320   5.837
 2887SOL     OW 9559   0.637   0.383   4.660
 2887SOL    HW1 9560   0.584   0.411   4.580
 2887SOL    HW2 9561   0.614   0.289   4.685
 2888SOL     OW 9562   0.757   4.402   0.008
 2888SOL    HW1 9563   0.753   4.410   6.933
 2888SOL    HW2 9564   0.704   4.323   0.037
 2889SOL     OW 9565   1.677   0.142   2.114
 2889SOL    HW1 9566   1.767   0.112   2.083
 2889SOL    HW2 9567   1.686   0.192   2.201
 2890SOL     OW 9568   2.656   6.476   0.489
 2890SOL    HW1 9569   2.648   6.377   0.478
 2890SOL    HW2 9570   2.675   6.498   0.585
 2891SOL     OW 9571   1.409   4.289   3.239
 2891SOL    HW1 9572   1.313   4.297   3.267
 2891SOL    HW2 9573   1.446   4.203   3.273
 2892SOL     OW 9574   5.503   3.662   6.385
 2892SOL    HW1 9575   5.570   3.614   6.441
 2892SOL    HW2 9576   5.422   3.682   6.439
 2893SOL     OW 9577   0.399   6.290   4.605
 2893SOL    HW1 9578   0.371   6.383   4.579
 2893SOL    HW2 9579   0.318   6.237   4.632
 2894SOL     OW 9580   2.833   2.861   1.140
 2894SOL    HW1 9581   2.773   2.812   1.077
 2894SOL    HW2 9582   2.907   2.801   1.170
 2895SOL     OW 9583   4.621   2.393   5.733
 2895SOL    HW1 9584   4.575   2.369   5.819
 2895SOL    HW2 9585   4.693   2.460   5.752
 2896SOL     OW 9586   3.957   5.408   6.349
 2896SOL    HW1 9587   3.872   5.360   6.327
 2896SOL    HW2 9588   3.975   5.479   6.281
 2897SOL     OW 9589   3.558   4.991   3.547
 2897SOL    HW1 9590   3.489   5.011   3.477
 2897SOL    HW2 9591   3.513   4.977   3.635
 2898SOL     OW 9592   3.822   5.496   4.206
 2898SOL    HW1 9593   3.820   5.449   4.117
 2898SOL    HW2 9594   3.862   5.435   4.274
 2899SOL     OW 9595   0.850   1.765   0.710
 2899SOL    HW1 9596   0.912   1.843   0.713
 2899SOL    HW2 9597   0.773   1.786   0.649
 2900SOL     OW 9598   2.318   4.677   5.157
 2900SOL    HW1 9599   2.380   4.724   5.095
 2900SOL    HW2 9600   2.362   4.593   5.191
 2901SOL     OW 9601   2.317   6.084   3.991
 2901SOL    HW1 9602   2.263   6.165   4.015
 2901SOL    HW2 9603   2.409   6.113   3.964
 2902SOL     OW 9604   4.670   6.652   1.799
 2902SOL    HW1 9605   4.579   6.689   1.818
 2902SOL    HW2 9606   4.730   6.671   1.876
 2903SOL     OW 9607   3.968   0.768   0.474
 2903SOL    HW1 9608   3.898   0.826   0.432
 2903SOL    HW2 9609   3.931   0.727   0.558
 2904SOL     OW 9610   2.282   3.886   5.418
 2904SOL    HW1 9611   2.227   3.811   5.381
 2904SOL    HW2 9612   2.339   3.924   5.346
 2905SOL     OW 9613   1.327   2.479   3.815
 2905SOL    HW1 9614   1.249   2.517   3.765
 2905SOL    HW2 9615   1.374   2.551   3.865
 2906SOL     OW 9616   4.745   6.030   2.518
 2906SOL    HW1 9617   4.776   6.116   2.558
 2906SOL    HW2 9618   4.713   6.046   2.425
 2907SOL     OW 9619   0.645   1.705   3.678
 2907SOL    HW1 9620   0.681   1.797   3.665
 2907SOL    HW2 9621   0.714   1.648   3.724
 2908SOL     OW 9622   4.609   6.265   4.344
 2908SOL    HW1 9623   4.552   6.184   4.327
 2908SOL    HW2 9624   4.555   6.336   4.389
 2909SOL     OW 9625   1.062   6.624   3.291
 2909SOL    HW1 9626   1.083   6.548   3.353
 2909SOL    HW2 9627   1.134   6.632   3.223
 2910SOL     OW 9628   4.868   6.776   4.792
 2910SOL    HW1 9629   4.937   6.808   4.858
 2910SOL    HW2 9630   4.890   6.812   4.702
 2911SOL     OW 9631   1.681   5.307   3.688
 2911SOL    HW1 9632   1.692   5.265   3.597
 2911SOL    HW2 9633   1.593   5.281   3.727
 2912SOL     OW 9634   4.897   0.371   6.801
 2912SOL    HW1 9635   4.865   0.286   6.841
 2912SOL    HW2 9636   4.915   0.438   6.873
 2913SOL     OW 9637   2.458   4.426   3.269
 2913SOL    HW1 9638   2.441   4.447   3.173
 2913SOL    HW2 9639   2.509   4.500   3.312
 2914SOL     OW 9640   5.849   6.376   5.744
 2914SOL    HW1 9641   5.852   6.294   5.800
 2914SOL    HW2 9642   5.939   6.420   5.745
 2915SOL     OW 9643   5.769   1.791   5.180
 2915SOL    HW1 9644   5.724   1.796   5.091
 2915SOL    HW2 9645   5.787   1.884   5.213
 2916SOL     OW 9646   0.395   6.502   6.906
 2916SOL    HW1 9647   0.331   6.443   6.857
 2916SOL    HW2 9648   0.488   6.470   6.892
 2917SOL     OW 9649   3.469   6.758   2.442
 2917SOL    HW1 9650   3.439   6.765   2.347
 2917SOL    HW2 9651   3.398   6.795   2.502
 2918SOL     OW 9652   6.949   4.797   3.904
 2918SOL    HW1 9653   0.023   4.809   3.897
 2918SOL    HW2 9654   6.917   4.831   3.992
 2919SOL     OW 9655   6.386   1.071   0.916
 2919SOL    HW1 9656   6.400   1.129   0.836
 2919SOL    HW2 9657   6.330   0.992   0.890
 2920SOL     OW 9658   2.780   2.029   2.077
 2920SOL    HW1 9659   2.680   2.032   2.082
 2920SOL    HW2 9660   2.816   2.121   2.061
 2921SOL     OW 9661   1.500   1.024   3.087
 2921SOL    HW1 9662   1.422   1.068   3.132
 2921SOL    HW2 9663   1.479   0.927   3.074
 2922SOL     OW 9664   5.166   0.628   0.597
 2922SOL    HW1 9665   5.190   0.725   0.600
 2922SOL    HW2 9666   5.178   0.588   0.688
 2923SOL     OW 9667   6.855   5.164   2.057
 2923SOL    HW1 9668   6.859   5.235   1.987
 2923SOL    HW2 9669   6.812   5.201   2.139
 2924SOL     OW 9670   6.953   1.943   6.275
 2924SOL    HW1 9671   6.968   2.041   6.288
 2924SOL    HW2 9672   6.920   1.925   6.183
 2925SOL     OW 9673   4.360   1.053   3.032
 2925SOL    HW1 9674   4.414   0.969   3.042
 2925SOL    HW2 9675   4.403   1.126   3.084
 2926SOL     OW 9676   6.742   0.941   4.354
 2926SOL    HW1 9677   6.769   0.873   4.422
 2926SOL    HW2 9678   6.669   0.904   4.297
 2927SOL     OW 9679   0.872   2.248   2.579
 2927SOL    HW1 9680   0.924   2.300   2.512
 2927SOL    HW2 9681   0.885   2.150   2.563
 2928SOL     OW 9682   0.398   1.939   6.469
 2928SOL    HW1 9683   0.392   1.914   6.566
 2928SOL    HW2 9684   0.363   2.032   6.457
 2929SOL     OW 9685   0.704   1.404   6.724
 2929SOL    HW1 9686   0.719   1.345   6.644
 2929SOL    HW2 9687   0.624   1.462   6.707
 2930SOL     OW 9688   4.756   6.220   4.603
 2930SOL    HW1 9689   4.791   6.282   4.673
 2930SOL    HW2 9690   4.705   6.272   4.534
 2931SOL     OW 9691   5.631   4.896   0.177
 2931SOL    HW1 9692   5.604   4.947   0.259
 2931SOL    HW2 9693   5.606   4.800   0.188
 2932SOL     OW 9694   0.410   5.331   1.095
 2932SOL    HW1 9695   0.391   5.362   1.189
 2932SOL    HW2 9696   0.326   5.337   1.041
 2933SOL     OW 9697   6.141   4.564   3.615
 2933SOL    HW1 9698   6.238   4.576   3.591
 2933SOL    HW2 9699   6.089   4.640   3.579
 2934SOL     OW 9700   4.810   1.426   6.954
 2934SOL    HW1 9701   4.904   1.420   6.989
 2934SOL    HW2 9702   4.796   1.517   6.915
 2935SOL     OW 9703   6.538   3.019   0.955
 2935SOL    HW1 9704   6.567   3.078   1.031
 2935SOL    HW2 9705   6.496   3.075   0.884
 2936SOL     OW 9706   3.753   5.601   1.826
 2936SOL    HW1 9707   3.742   5.531   1.755
 2936SOL    HW2 9708   3.738   5.691   1.785
 2937SOL     OW 9709   4.365   4.370   0.235
 2937SOL    HW1 9710   4.367   4.288   0.292
 2937SOL    HW2 9711   4.271   4.392   0.211
 2938SOL     OW 9712   4.336   5.327   6.582
 2938SOL    HW1 9713   4.417   5.385   6.571
 2938SOL    HW2 9714   4.284   5.325   6.496
 2939SOL     OW 9715   0.962   0.875   3.816
 2939SOL    HW1 9716   0.929   0.969   3.814
 2939SOL    HW2 9717   1.062   0.874   3.815
 2940SOL     OW 9718   5.823   5.764   6.406
 2940SOL    HW1 9719   5.773   5.782   6.321
 2940SOL    HW2 9720   5.915   5.731   6.384
 2941SOL     OW 9721   1.850   3.411   4.154
 2941SOL    HW1 9722   1.904   3.379   4.076
 2941SOL    HW2 9723   1.759   3.370   4.149
 2942SOL     OW 9724   3.309   2.318   0.953
 2942SOL    HW1 9725   3.407   2.299   0.962
 2942SOL    HW2 9726   3.296   2.389   0.883
 2943SOL     OW 9727   4.868   4.437   2.678
 2943SOL    HW1 9728   4.820   4.350   2.675
 2943SOL    HW2 9729   4.909   4.450   2.768
 2944SOL     OW 9730   2.776   5.488   5.442
 2944SOL    HW1 9731   2.729   5.505   5.356
 2944SOL    HW2 9732   2.776   5.571   5.497
 2945SOL     OW 9733   3.404   4.005   3.244
 2945SOL    HW1 9734   3.445   3.922   3.206
 2945SOL    HW2 9735   3.468   4.046   3.309
 2946SOL     OW 9736   0.935   5.474   6.918
 2946SOL    HW1 9737   0.912   5.426   6.834
 2946SOL    HW2 9738   0.871   5.448   6.990
 2947SOL     OW 9739   0.317   3.559   6.821
 2947SOL    HW1 9740   0.236   3.510   6.790
 2947SOL    HW2 9741   0.399   3.509   6.794
 2948SOL     OW 9742   0.054   4.617   5.841
 2948SOL    HW1 9743   0.153   4.609   5.828
 2948SOL    HW2 9744   0.027   4.712   5.834
 2949SOL     OW 9745   2.820   5.474   0.295
 2949SOL    HW1 9746   2.865   5.418   0.364
 2949SOL    HW2 9747   2.868   5.561   0.286
 2950SOL     OW 9748   5.244   3.601   4.559
 2950SOL    HW1 9749   5.216   3.689   4.599
 2950SOL    HW2 9750   5.163   3.546   4.540
 2951SOL     OW 9751   5.923   1.714   0.997
 2951SOL    HW1 9752   5.869   1.648   1.049
 2951SOL    HW2 9753   6.018   1.711   1.026
 2952SOL     OW 9754   1.049   5.102   5.109
 2952SOL    HW1 9755   1.149   5.102   5.107
 2952SOL    HW2 9756   1.014   5.145   5.027
 2953SOL     OW 9757   5.255   3.267   3.286
 2953SOL    HW1 9758   5.208   3.355   3.280
 2953SOL    HW2 9759   5.331   3.274   3.350
 2954SOL     OW 9760   0.768   5.908   2.004
 2954SOL    HW1 9761   0.769   5.809   1.986
 2954SOL    HW2 9762   0.747   5.924   2.100
 2955SOL     OW 9763   1.098   3.665   1.751
 2955SOL    HW1 9764   1.109   3.724   1.671
 2955SOL    HW2 9765   1.035   3.591   1.729
 2956SOL     OW 9766   5.871   6.576   3.281
 2956SOL    HW1 9767   5.891   6.495   3.226
 2956SOL    HW2 9768   5.775   6.602   3.270
 2957SOL     OW 9769   6.142   2.990   1.941
 2957SOL    HW1 9770   6.110   2.961   1.850
 2957SOL    HW2 9771   6.241   2.979   1.946
 2958SOL     OW 9772   2.371   4.317   4.561
 2958SOL    HW1 9773   2.410   4.399   4.518
 2958SOL    HW2 9774   2.384   4.323   4.660
 2959SOL     OW 9775   4.856   4.717   0.599
 2959SOL    HW1 9776   4.803   4.747   0.678
 2959SOL    HW2 9777   4.892   4.797   0.550
 2960SOL     OW 9778   3.966   6.795   6.360
 2960SOL    HW1 9779   3.870   6.776   6.377
 2960SOL    HW2 9780   4.005   6.847   6.436
 2961SOL     OW 9781   4.721   2.808   3.596
 2961SOL    HW1 9782   4.716   2.889   3.537
 2961SOL    HW2 9783   4.693   2.727   3.544
 2962SOL     OW 9784   4.193   0.902   3.178
 2962SOL    HW1 9785   4.250   0.872   3.102
 2962SOL    HW2 9786   4.152   0.990   3.157
 2963SOL     OW 9787   2.291   0.769   6.294
 2963SOL    HW1 9788   2.328   0.773   6.387
 2963SOL    HW2 9789   2.366   0.760   6.228
 2964SOL     OW 9790   0.136   0.074   2.694
 2964SOL    HW1 9791   0.189   0.120   2.623
 2964SOL    HW2 9792   0.043   0.056   2.660
 2965SOL     OW 9793   6.502   1.033   4.730
 2965SOL    HW1 9794   6.425   1.065   4.786
 2965SOL    HW2 9795   6.582   1.020   4.788
 2966SOL     OW 9796   6.532   5.910   4.298
 2966SOL    HW1 9797   6.624   5.895   4.260
 2966SOL    HW2 9798   6.488   5.822   4.314
 2967SOL     OW 9799   6.014   1.622   4.798
 2967SOL    HW1 9800   5.984   1.550   4.734
 2967SOL    HW2 9801   6.060   1.694   4.747
 2968SOL     OW 9802   0.638   3.260   6.282
 2968SOL    HW1 9803   0.703   3.233   6.352
 2968SOL    HW2 9804   0.588   3.341   6.312
 2969SOL     OW 9805   5.613   1.052   4.386
 2969SOL    HW1 9806   5.712   1.055   4.373
 2969SOL    HW2 9807   5.580   0.959   4.372
 2970SOL     OW 9808   1.129   4.411   5.912
 2970SOL    HW1 9809   1.099   4.340   5.848
 2970SOL    HW2 9810   1.222   4.439   5.889
 2971SOL     OW 9811   5.612   4.235   6.199
 2971SOL    HW1 9812   5.589   4.150   6.247
 2971SOL    HW2 9813   5.646   4.303   6.264
 2972SOL     OW 9814   6.288   4.216   6.391
 2972SOL    HW1 9815   6.225   4.214   6.314
 2972SOL    HW2 9816   6.371   4.266   6.365
 2973SOL     OW 9817   5.724   1.296   4.201
 2973SOL    HW1 9818   5.638   1.249   4.180
 2973SOL    HW2 9819   5.751   1.352   4.122
 2974SOL     OW 9820   0.900   3.868   2.864
 2974SOL    HW1 9821   0.985   3.921   2.867
 2974SOL    HW2 9822   0.889   3.828   2.773
 2975SOL     OW 9823   6.868   2.553   5.325
 2975SOL    HW1 9824   6.839   2.551   5.420
 2975SOL    HW2 9825   6.789   2.539   5.265
 2976SOL     OW 9826   4.233   2.242   3.036
 2976SOL    HW1 9827   4.144   2.238   2.990
 2976SOL    HW2 9828   4.296   2.297   2.981
 2977SOL     OW 9829   1.851   6.952   3.543
 2977SOL    HW1 9830   1.842   6.917   3.637
 2977SOL    HW2 9831   1.873   0.026   3.546
 2978SOL     OW 9832   4.279   4.580   6.848
 2978SOL    HW1 9833   4.350   4.631   6.896
 2978SOL    HW2 9834   4.288   4.597   6.749
 2979SOL     OW 9835   4.632   0.817   4.325
 2979SOL    HW1 9836   4.613   0.735   4.379
 2979SOL    HW2 9837   4.610   0.898   4.378
 2980SOL     OW 9838   1.359   6.009   3.772
 2980SOL    HW1 9839   1.398   6.038   3.859
 2980SOL    HW2 9840   1.265   5.978   3.786
 2981SOL     OW 9841   2.076   0.805   6.132
 2981SOL    HW1 9842   2.033   0.720   6.102
 2981SOL    HW2 9843   2.162   0.784   6.179
 2982SOL     OW 9844   3.906   6.307   3.253
 2982SOL    HW1 9845   3.959   6.229   3.220
 2982SOL    HW2 9846   3.942   6.391   3.214
 2983SOL     OW 9847   1.046   1.544   4.035
 2983SOL    HW1 9848   1.065   1.548   3.937
 2983SOL    HW2 9849   0.992   1.462   4.055
 2984SOL     OW 9850   5.042   5.411   1.979
 2984SOL    HW1 9851   5.061   5.383   1.885
 2984SOL    HW2 9852   5.025   5.330   2.036
 2985SOL     OW 9853   1.506   2.479   5.614
 2985SOL    HW1 9854   1.598   2.474   5.578
 2985SOL    HW2 9855   1.442   2.439   5.548
 2986SOL     OW 9856   2.470   3.601   5.877
 2986SOL    HW1 9857   2.483   3.539   5.955
 2986SOL    HW2 9858   2.538   3.674   5.881
 2987SOL     OW 9859   5.632   1.747   4.222
 2987SOL    HW1 9860   5.650   1.733   4.320
 2987SOL    HW2 9861   5.676   1.832   4.192
 2988SOL     OW 9862   0.529   6.427   2.659
 2988SOL    HW1 9863   0.614   6.448   2.706
 2988SOL    HW2 9864   0.505   6.332   2.674
 2989SOL     OW 9865   6.538   5.998   0.005
 2989SOL    HW1 9866   6.442   6.020   7.010
 2989SOL    HW2 9867   6.568   6.048   0.087
 2990SOL     OW 9868   4.545   1.771   4.595
 2990SOL    HW1 9869   4.604   1.729   4.664
 2990SOL    HW2 9870   4.561   1.870   4.594
 2991SOL     OW 9871   6.164   4.209   6.170
 2991SOL    HW1 9872   6.099   4.280   6.142
 2991SOL    HW2 9873   6.230   4.192   6.097
 2992SOL     OW 9874   2.156   5.153   5.659
 2992SOL    HW1 9875   2.234   5.197   5.614
 2992SOL    HW2 9876   2.077   5.214   5.656
 2993SOL     OW 9877   0.387   5.371   1.365
 2993SOL    HW1 9878   0.471   5.364   1.419
 2993SOL    HW2 9879   0.314   5.320   1.410
 2994SOL     OW 9880   3.722   6.651   0.137
 2994SOL    HW1 9881   3.658   6.728   0.145
 2994SOL    HW2 9882   3.815   6.686   0.122
 2995SOL     OW 9883   1.839   3.359   6.889
 2995SOL    HW1 9884   1.935   3.387   6.892
 2995SOL    HW2 9885   1.781   3.440   6.898
 2996SOL     OW 9886   1.862   0.037   4.295
 2996SOL    HW1 9887   1.939   0.072   4.241
 2996SOL    HW2 9888   1.845   6.966   4.270
 2997SOL     OW 9889   5.234   0.577   2.449
 2997SOL    HW1 9890   5.165   0.621   2.391
 2997SOL    HW2 9891   5.324   0.614   2.427
 2998SOL     OW 9892   4.980   0.103   4.216
 2998SOL    HW1 9893   5.061   0.069   4.263
 2998SOL    HW2 9894   4.989   0.088   4.118
 2999SOL     OW 9895   2.975   4.887   4.593
 2999SOL    HW1 9896   3.028   4.878   4.677
 2999SOL    HW2 9897   2.895   4.826   4.597
 3000SOL     OW 9898   1.839   3.800   0.170
 3000SOL    HW1 9899   1.911   3.850   0.122
 3000SOL    HW2 9900   1.850   3.811   0.269
 3001SOL     OW 9901   6.124   6.056   6.280
 3001SOL    HW1 9902   6.025   6.047   6.268
 3001SOL    HW2 9903   6.163   6.096   6.197
 3002SOL     OW 9904   3.684   0.108   5.952
 3002SOL    HW1 9905   3.770   0.159   5.949
 3002SOL    HW2 9906   3.646   0.101   5.860
 3003SOL     OW 9907   2.058   6.692   7.005
 3003SOL    HW1 9908   2.102   6.753   0.046
 3003SOL    HW2 9909   1.981   6.646   0.025
 3004SOL     OW 9910   1.584   4.805   3.082
 3004SOL    HW1 9911   1.586   4.868   3.160
 3004SOL    HW2 9912   1.641   4.725   3.101
 3005SOL     OW 9913   3.098   2.406   6.560
 3005SOL    HW1 9914   3.039   2.330   6.588
 3005SOL    HW2 9915   3.128   2.457   6.641
 3006SOL     OW 9916   4.954   2.254   6.320
 3006SOL    HW1 9917   4.924   2.211   6.235
 3006SOL    HW2 9918   4.997   2.185   6.379
 3007SOL     OW 9919   5.813   5.623   1.356
 3007SOL    HW1 9920   5.836   5.719   1.374
 3007SOL    HW2 9921   5.885   5.581   1.300
 3008SOL     OW 9922   3.614   1.046   6.430
 3008SOL    HW1 9923   3.543   0.977   6.443
 3008SOL    HW2 9924   3.622   1.102   6.512
 3009SOL     OW 9925   0.766   0.800   2.644
 3009SOL    HW1 9926   0.673   0.782   2.612
 3009SOL    HW2 9927   0.832   0.757   2.582
 3010SOL     OW 9928   3.425   6.331   3.612
 3010SOL    HW1 9929   3.500   6.348   3.548
 3010SOL    HW2 9930   3.458   6.340   3.705
 3011SOL     OW 9931   5.074   1.605   1.391
 3011SOL    HW1 9932   5.061   1.506   1.391
 3011SOL    HW2 9933   5.164   1.627   1.430
 3012SOL     OW 9934   1.174   3.650   5.457
 3012SOL    HW1 9935   1.117   3.711   5.402
 3012SOL    HW2 9936   1.188   3.690   5.547
 3013SOL     OW 9937   5.292   5.724   4.653
 3013SOL    HW1 9938   5.357   5.710   4.579
 3013SOL    HW2 9939   5.319   5.804   4.706
 3014SOL     OW 9940   5.078   2.961   4.779
 3014SOL    HW1 9941   5.120   2.925   4.863
 3014SOL    HW2 9942   5.031   2.887   4.731
 3015SOL     OW 9943   2.621   2.212   6.723
 3015SOL    HW1 9944   2.627   2.231   6.625
 3015SOL    HW2 9945   2.695   2.259   6.771
 3016SOL     OW 9946   3.116   6.178   4.542
 3016SOL    HW1 9947   3.070   6.215   4.462
 3016SOL    HW2 9948   3.072   6.092   4.569
 3017SOL     OW 9949   0.679   5.632   2.046
 3017SOL    HW1 9950   0.588   5.615   2.084
 3017SOL    HW2 9951   0.716   5.548   2.008
 3018SOL     OW 9952   2.169   7.022   5.612
 3018SOL    HW1 9953   2.190   6.958   5.538
 3018SOL    HW2 9954   2.112   0.072   5.578
 3019SOL     OW 9955   1.216   0.424   6.980
 3019SOL    HW1 9956   1.306   0.388   6.956
 3019SOL    HW2 9957   1.224   0.483   0.036
 3020SOL     OW 9958   4.193   3.369   2.081
 3020SOL    HW1 9959   4.230   3.393   1.991
 3020SOL    HW2 9960   4.189   3.450   2.139
 3021SOL     OW 9961   3.265   0.213   6.734
 3021SOL    HW1 9962   3.210   0.190   6.815
 3021SOL    HW2 9963   3.217   0.283   6.680
 3022SOL     OW 9964   4.248   4.770   4.448
 3022SOL    HW1 9965   4.150   4.757   4.433
 3022SOL    HW2 9966   4.300   4.719   4.380
 3023SOL     OW 9967   4.301   0.348   2.641
 3023SOL    HW1 9968   4.254   0.282   2.700
 3023SOL    HW2 9969   4.324   0.305   2.554
 3024SOL     OW 9970   4.327   6.151   5.414
 3024SOL    HW1 9971   4.388   6.133   5.336
 3024SOL    HW2 9972   4.334   6.076   5.479
 3025SOL     OW 9973   3.408   0.923   7.012
 3025SOL    HW1 9974   3.424   0.929   6.914
 3025SOL    HW2 9975   3.472   0.983   0.036
 3026SOL     OW 9976   1.526   1.356   0.894
 3026SOL    HW1 9977   1.619   1.325   0.874
 3026SOL    HW2 9978   1.511   1.355   0.992
 3027SOL     OW 9979   4.023   0.746   2.525
 3027SOL    HW1 9980   4.107   0.794   2.551
 3027SOL    HW2 9981   4.045   0.672   2.462
 3028SOL     OW 9982   1.248   4.029   5.596
 3028SOL    HW1 9983   1.279   4.103   5.655
 3028SOL    HW2 9984   1.311   4.019   5.519
 3029SOL     OW 9985   0.069   3.048   4.979
 3029SOL    HW1 9986   0.117   2.977   4.927
 3029SOL    HW2 9987   0.087   3.036   5.076
 3030SOL     OW 9988   0.921   2.616   5.813
 3030SOL    HW1 9989   0.879   2.555   5.746
 3030SOL    HW2 9990   1.018   2.592   5.824
 3031SOL     OW 9991   0.529   2.957   0.797
 3031SOL    HW1 9992   0.618   2.964   0.751
 3031SOL    HW2 9993   0.466   3.023   0.757
 3032SOL     OW 9994   4.369   6.254   1.781
 3032SOL    HW1 9995   4.404   6.216   1.867
 3032SOL    HW2 9996   4.270   6.261   1.785
 3033SOL     OW 9997   7.005   2.009   1.606
 3033SOL    HW1 9998   6.996   2.064   1.522
 3033SOL    HW2 9999   6.936   2.038   1.672
 3034SOL     OW10000   1.958   5.304   3.704
 3034SOL    HW110001   2.005   5.298   3.792
 3034SOL    HW210002   1.873   5.356   3.714
 3035SOL     OW10003   6.846   3.181   0.400
 3035SOL    HW110004   6.929   3.221   0.360
 3035SOL    HW210005   6.766   3.233   0.369
 3036SOL     OW10006   1.539   2.591   6.855
 3036SOL    HW110007   1.582   2.512   6.813
 3036SOL    HW210008   1.517   2.658   6.785
 3037SOL     OW10009   0.409   5.849   5.088
 3037SOL    HW110010   0.449   5.763   5.056
 3037SOL    HW210011   0.387   5.842   5.185
 3038SOL     OW10012   5.994   5.913   5.638
 3038SOL    HW110013   6.043   5.880   5.557
 3038SOL    HW210014   6.044   5.990   5.678
 3039SOL     OW10015   6.974   3.786   1.292
 3039SOL    HW110016   0.042   3.819   1.311
 3039SOL    HW210017   6.963   3.773   1.193
 3040SOL     OW10018   3.952   3.414   6.306
 3040SOL    HW110019   4.007   3.337   6.338
 3040SOL    HW210020   4.010   3.495   6.296
 3041SOL     OW10021   2.209   3.079   4.672
 3041SOL    HW110022   2.174   3.061   4.580
 3041SOL    HW210023   2.250   2.996   4.710
 3042SOL     OW10024   4.811   6.331   2.295
 3042SOL    HW110025   4.768   6.241   2.287
 3042SOL    HW210026   4.869   6.347   2.216
 3043SOL     OW10027   1.107   5.637   1.739
 3043SOL    HW110028   1.023   5.691   1.740
 3043SOL    HW210029   1.138   5.622   1.833
 3044SOL     OW10030   3.072   3.558   5.906
 3044SOL    HW110031   3.058   3.585   6.001
 3044SOL    HW210032   3.143   3.614   5.865
 3045SOL     OW10033   4.668   1.425   3.022
 3045SOL    HW110034   4.619   1.382   2.946
 3045SOL    HW210035   4.751   1.372   3.041
 3046SOL     OW10036   2.384   1.284   6.727
 3046SOL    HW110037   2.388   1.346   6.649
 3046SOL    HW210038   2.413   1.193   6.698
 3047SOL     OW10039   5.035   0.236   2.499
 3047SOL    HW110040   5.007   0.299   2.571
 3047SOL    HW210041   5.124   0.264   2.463
 3048SOL     OW10042   3.881   2.371   1.750
 3048SOL    HW110043   3.847   2.393   1.658
 3048SOL    HW210044   3.805   2.340   1.807
 3049SOL     OW10045   0.973   6.828   1.432
 3049SOL    HW110046   0.960   6.865   1.339
 3049SOL    HW210047   0.888   6.838   1.484
 3050SOL     OW10048   3.125   0.947   2.171
 3050SOL    HW110049   3.137   1.003   2.089
 3050SOL    HW210050   3.204   0.887   2.182
 3051SOL     OW10051   2.140   3.888   0.459
 3051SOL    HW110052   2.189   3.948   0.396
 3051SOL    HW210053   2.042   3.890   0.437
 3052SOL     OW10054   5.323   6.813   2.275
 3052SOL    HW110055   5.255   6.843   2.343
 3052SOL    HW210056   5.301   6.854   2.186
 3053SOL     OW10057   0.054   1.583   6.913
 3053SOL    HW110058   0.106   1.613   6.992
 3053SOL    HW210059   0.075   1.487   6.893
 3054SOL     OW10060   0.042   2.103   1.326
 3054SOL    HW110061   0.129   2.151   1.342
 3054SOL    HW210062   0.003   2.134   1.239
 3055SOL     OW10063   5.448   0.062   3.959
 3055SOL    HW110064   5.379   0.035   3.892
 3055SOL    HW210065   5.414   0.042   4.051
 3056SOL     OW10066   6.292   1.244   5.373
 3056SOL    HW110067   6.279   1.298   5.457
 3056SOL    HW210068   6.204   1.207   5.344
 3057SOL     OW10069   3.799   6.244   3.718
 3057SOL    HW110070   3.866   6.241   3.644
 3057SOL    HW210071   3.747   6.159   3.720
 3058SOL     OW10072   6.754   5.543   0.824
 3058SOL    HW110073   6.796   5.633   0.816
 3058SOL    HW210074   6.676   5.536   0.762
 3059SOL     OW10075   2.435   2.053   4.367
 3059SOL    HW110076   2.344   2.093   4.356
 3059SOL    HW210077   2.445   1.974   4.308
 3060SOL     OW10078   0.535   5.493   0.177
 3060SOL    HW110079   0.505   5.527   0.266
 3060SOL    HW210080   0.461   5.442   0.134
 3061SOL     OW10081   5.698   0.554   5.217
 3061SOL    HW110082   5.762   0.615   5.171
 3061SOL    HW210083   5.605   0.578   5.192
 3062SOL     OW10084   1.328   6.951   6.998
 3062SOL    HW110085   1.347   6.854   6.980
 3062SOL    HW210086   1.337   6.970   0.071
 3063SOL     OW10087   2.457   5.526   1.478
 3063SOL    HW110088   2.398   5.493   1.552
 3063SOL    HW210089   2.510   5.450   1.441
 3064SOL     OW10090   5.665   3.991   3.332
 3064SOL    HW110091   5.738   3.923   3.329
 3064SOL    HW210092   5.669   4.040   3.419
 3065SOL     OW10093   2.678   0.985   0.137
 3065SOL    HW110094   2.670   1.026   0.047
 3065SOL    HW210095   2.774   0.979   0.164
 3066SOL     OW10096   5.078   4.874   1.348
 3066SOL    HW110097   5.080   4.778   1.321
 3066SOL    HW210098   4.986   4.900   1.377
 3067SOL     OW10099   3.787   2.165   5.082
 3067SOL    HW110100   3.839   2.131   5.161
 3067SOL    HW210101   3.697   2.122   5.080
 3068SOL     OW10102   6.238   6.347   1.721
 3068SOL    HW110103   6.290   6.431   1.735
 3068SOL    HW210104   6.183   6.355   1.637
 3069SOL     OW10105   6.429   6.289   2.274
 3069SOL    HW110106   6.402   6.278   2.178
 3069SOL    HW210107   6.527   6.270   2.283
 3070SOL     OW10108   1.294   1.010   2.012
 3070SOL    HW110109   1.338   0.931   2.055
 3070SOL    HW210110   1.320   1.093   2.061
 3071SOL     OW10111   6.365   5.926   3.175
 3071SOL    HW110112   6.330   6.018   3.194
 3071SOL    HW210113   6.359   5.871   3.259
 3072SOL     OW10114   1.164   0.078   0.135
 3072SOL    HW110115   1.249   0.131   0.144
 3072SOL    HW210116   1.168   0.022   0.053
 3073SOL     OW10117   6.498   2.671   4.985
 3073SOL    HW110118   6.477   2.731   4.908
 3073SOL    HW210119   6.592   2.638   4.977
 3074SOL     OW10120   5.809   3.470   0.618
 3074SOL    HW110121   5.851   3.544   0.565
 3074SOL    HW210122   5.755   3.509   0.693
 3075SOL     OW10123   2.210   5.854   1.823
 3075SOL    HW110124   2.160   5.930   1.783
 3075SOL    HW210125   2.308   5.872   1.816
 3076SOL     OW10126   0.017   1.015   4.328
 3076SOL    HW110127   6.944   1.001   4.311
 3076SOL    HW210128   0.033   1.110   4.354
 3077SOL     OW10129   4.533   5.681   2.735
 3077SOL    HW110130   4.570   5.689   2.642
 3077SOL    HW210131   4.584   5.742   2.796
 3078SOL     OW10132   1.159   3.312   1.934
 3078SOL    HW110133   1.210   3.397   1.922
 3078SOL    HW210134   1.196   3.262   2.013
 3079SOL     OW10135   2.387   1.819   4.209
 3079SOL    HW110136   2.458   1.756   4.242
 3079SOL    HW210137   2.297   1.778   4.224
 3080SOL     OW10138   4.828   3.905   3.445
 3080SOL    HW110139   4.792   3.839   3.379
 3080SOL    HW210140   4.907   3.951   3.406
 3081SOL     OW10141   0.870   2.595   6.105
 3081SOL    HW110142   0.921   2.671   6.146
 3081SOL    HW210143   0.908   2.574   6.014
 3082SOL     OW10144   2.915   7.008   4.115
 3082SOL    HW110145   2.948   0.066   4.161
 3082SOL    HW210146   2.964   6.928   4.149
 3083SOL     OW10147   4.126   6.567   2.917
 3083SOL    HW110148   4.216   6.576   2.959
 3083SOL    HW210149   4.063   6.524   2.982
 3084SOL     OW10150   5.115   4.095   5.133
 3084SOL    HW110151   5.084   4.002   5.151
 3084SOL    HW210152   5.062   4.134   5.058
 3085SOL     OW10153   0.155   4.697   1.741
 3085SOL    HW110154   0.101   4.687   1.825
 3085SOL    HW210155   0.227   4.765   1.756
 3086SOL     OW10156   3.977   2.178   2.073
 3086SOL    HW110157   3.891   2.227   2.069
 3086SOL    HW210158   3.965   2.086   2.034
 3087SOL     OW10159   0.556   5.346   4.113
 3087SOL    HW110160   0.544   5.259   4.065
 3087SOL    HW210161   0.611   5.408   4.057
 3088SOL     OW10162   2.587   4.933   5.593
 3088SOL    HW110163   2.533   5.017   5.597
 3088SOL    HW210164   2.531   4.858   5.559
 3089SOL     OW10165   1.044   3.453   0.330
 3089SOL    HW110166   1.071   3.389   0.257
 3089SOL    HW210167   0.981   3.521   0.292
 3090SOL     OW10168   1.972   1.847   2.181
 3090SOL    HW110169   1.999   1.809   2.270
 3090SOL    HW210170   2.051   1.844   2.119
 3091SOL     OW10171   1.773   0.531   0.934
 3091SOL    HW110172   1.819   0.600   0.878
 3091SOL    HW210173   1.838   0.491   0.998
 3092SOL     OW10174   5.233   6.601   0.559
 3092SOL    HW110175   5.237   6.657   0.641
 3092SOL    HW210176   5.148   6.549   0.558
 3093SOL     OW10177   5.223   6.356   5.933
 3093SOL    HW110178   5.228   6.446   5.977
 3093SOL    HW210179   5.132   6.318   5.947
 3094SOL     OW10180   2.339   6.517   4.150
 3094SOL    HW110181   2.378   6.599   4.191
 3094SOL    HW210182   2.286   6.543   4.069
 3095SOL     OW10183   2.030   5.406   5.941
 3095SOL    HW110184   2.050   5.309   5.951
 3095SOL    HW210185   1.934   5.422   5.965
 3096SOL     OW10186   1.365   6.683   4.949
 3096SOL    HW110187   1.298   6.611   4.965
 3096SOL    HW210188   1.440   6.647   4.893
 3097SOL     OW10189   6.854   2.789   0.646
 3097SOL    HW110190   6.917   2.712   0.642
 3097SOL    HW210191   6.859   2.840   0.560
 3098SOL     OW10192   2.986   3.032   1.018
 3098SOL    HW110193   2.919   2.998   1.084
 3098SOL    HW210194   2.993   3.132   1.025
 3099SOL     OW10195   0.712   6.854   3.399
 3099SOL    HW110196   0.698   6.825   3.305
 3099SOL    HW210197   0.641   6.815   3.458
 3100SOL     OW10198   6.558   6.661   4.673
 3100SOL    HW110199   6.466   6.629   4.698
 3100SOL    HW210200   6.611   6.677   4.757
 3101SOL     OW10201   4.914   6.603   5.925
 3101SOL    HW110202   4.875   6.556   5.846
 3101SOL    HW210203   4.843   6.616   5.994
 3102SOL     OW10204   0.455   4.789   2.340
 3102SOL    HW110205   0.374   4.841   2.365
 3102SOL    HW210206   0.451   4.698   2.381
 3103SOL     OW10207   3.346   0.404   1.962
 3103SOL    HW110208   3.269   0.344   1.941
 3103SOL    HW210209   3.322   0.499   1.938
 3104SOL     OW10210   5.616   6.653   5.170
 3104SOL    HW110211   5.649   6.704   5.090
 3104SOL    HW210212   5.605   6.716   5.247
 3105SOL     OW10213   6.520   4.379   1.938
 3105SOL    HW110214   6.616   4.356   1.925
 3105SOL    HW210215   6.497   4.460   1.884
 3106SOL     OW10216   5.773   1.685   2.470
 3106SOL    HW110217   5.770   1.770   2.522
 3106SOL    HW210218   5.779   1.706   2.372
 3107SOL     OW10219   4.134   1.114   4.284
 3107SOL    HW110220   4.187   1.029   4.287
 3107SOL    HW210221   4.174   1.180   4.348
 3108SOL     OW10222   0.590   6.911   4.155
 3108SOL    HW110223   0.580   7.002   4.196
 3108SOL    HW210224   0.669   6.912   4.093
 3109SOL     OW10225   5.077   6.142   2.114
 3109SOL    HW110226   5.015   6.221   2.110
 3109SOL    HW210227   5.153   6.156   2.051
 3110SOL     OW10228   1.811   2.214   3.777
 3110SOL    HW110229   1.898   2.210   3.825
 3110SOL    HW210230   1.820   2.170   3.688
 3111SOL     OW10231   5.851   6.105   3.833
 3111SOL    HW110232   5.901   6.177   3.785
 3111SOL    HW210233   5.910   6.025   3.844
 3112SOL     OW10234   4.817   2.492   6.383
 3112SOL    HW110235   4.872   2.410   6.368
 3112SOL    HW210236   4.865   2.554   6.445
 3113SOL     OW10237   1.748   5.965   3.889
 3113SOL    HW110238   1.840   5.927   3.879
 3113SOL    HW210239   1.692   5.902   3.942
 3114SOL     OW10240   3.948   2.375   0.217
 3114SOL    HW110241   3.889   2.312   0.267
 3114SOL    HW210242   4.002   2.325   0.150
 3115SOL     OW10243   4.104   3.175   6.318
 3115SOL    HW110244   4.056   3.153   6.233
 3115SOL    HW210245   4.122   3.091   6.369
 3116SOL     OW10246   0.058   3.265   0.332
 3116SOL    HW110247   0.113   3.302   0.407
 3116SOL    HW210248   0.048   3.333   0.260
 3117SOL     OW10249   4.375   3.354   5.409
 3117SOL    HW110250   4.472   3.357   5.388
 3117SOL    HW210251   4.328   3.431   5.366
 3118SOL     OW10252   0.029   4.582   0.907
 3118SOL    HW110253   0.063   4.506   0.852
 3118SOL    HW210254   0.099   4.653   0.912
 3119SOL     OW10255   1.731   3.659   5.704
 3119SOL    HW110256   1.699   3.565   5.705
 3119SOL    HW210257   1.733   3.694   5.798
 3120SOL     OW10258   3.011   6.787   4.215
 3120SOL    HW110259   2.946   6.723   4.174
 3120SOL    HW210260   3.096   6.739   4.238
 3121SOL     OW10261   6.819   1.697   2.851
 3121SOL    HW110262   6.910   1.685   2.811
 3121SOL    HW210263   6.828   1.719   2.949
 3122SOL     OW10264   3.484   6.429   5.809
 3122SOL    HW110265   3.512   6.350   5.863
 3122SOL    HW210266   3.423   6.486   5.863
 3123SOL     OW10267   4.242   1.416   4.135
 3123SOL    HW110268   4.326   1.421   4.189
 3123SOL    HW210269   4.247   1.483   4.061
 3124SOL     OW10270   4.456   6.385   4.523
 3124SOL    HW110271   4.478   6.364   4.618
 3124SOL    HW210272   4.357   6.384   4.510
 3125SOL     OW10273   6.575   2.172   4.988
 3125SOL    HW110274   6.529   2.261   4.982
 3125SOL    HW210275   6.508   2.099   4.972
 3126SOL     OW10276   4.228   4.727   6.312
 3126SOL    HW110277   4.138   4.686   6.295
 3126SOL    HW210278   4.298   4.655   6.311
 3127SOL     OW10279   0.913   3.316   3.839
 3127SOL    HW110280   0.962   3.404   3.841
 3127SOL    HW210281   0.835   3.322   3.776
 3128SOL     OW10282   2.073   0.787   6.633
 3128SOL    HW110283   2.104   0.725   6.705
 3128SOL    HW210284   2.067   0.737   6.547
 3129SOL     OW10285   0.613   3.992   6.560
 3129SOL    HW110286   0.582   3.947   6.476
 3129SOL    HW210287   0.545   4.058   6.590
 3130SOL     OW10288   1.676   4.528   1.795
 3130SOL    HW110289   1.589   4.556   1.836
 3130SOL    HW210290   1.743   4.601   1.804
 3131SOL     OW10291   6.794   2.750   1.672
 3131SOL    HW110292   6.861   2.796   1.730
 3131SOL    HW210293   6.731   2.818   1.634
 3132SOL     OW10294   4.491   5.215   5.862
 3132SOL    HW110295   4.452   5.170   5.942
 3132SOL    HW210296   4.505   5.147   5.789
 3133SOL     OW10297   3.590   1.997   3.975
 3133SOL    HW110298   3.539   2.037   4.051
 3133SOL    HW210299   3.568   1.900   3.968
 3134SOL     OW10300   4.676   4.368   1.462
 3134SOL    HW110301   4.760   4.411   1.495
 3134SOL    HW210302   4.631   4.429   1.397
 3135SOL     OW10303   5.167   0.349   5.282
 3135SOL    HW110304   5.266   0.339   5.281
 3135SOL    HW210305   5.127   0.282   5.344
 3136SOL     OW10306   5.461   0.549   0.552
 3136SOL    HW110307   5.527   0.542   0.477
 3136SOL    HW210308   5.394   0.620   0.530
 3137SOL     OW10309   6.285   0.543   3.321
 3137SOL    HW110310   6.298   0.642   3.324
 3137SOL    HW210311   6.201   0.523   3.270
 3138SOL     OW10312   6.502   2.855   4.022
 3138SOL    HW110313   6.533   2.809   4.105
 3138SOL    HW210314   6.561   2.933   4.002
 3139SOL     OW10315   5.092   6.846   0.207
 3139SOL    HW110316   5.012   6.831   0.265
 3139SOL    HW210317   5.172   6.806   0.251
 3140SOL     OW10318   5.919   0.043   6.621
 3140SOL    HW110319   5.945   6.981   6.577
 3140SOL    HW210320   5.851   0.025   6.692
 3141SOL     OW10321   7.021   5.836   6.260
 3141SOL    HW110322   6.983   5.886   6.338
 3141SOL    HW210323   0.029   5.746   6.291
 3142SOL     OW10324   4.349   6.548   1.675
 3142SOL    HW110325   4.285   6.550   1.598
 3142SOL    HW210326   4.375   6.453   1.695
 3143SOL     OW10327   7.022   1.894   6.829
 3143SOL    HW110328   0.043   1.812   6.864
 3143SOL    HW210329   0.054   1.974   6.848
 3144SOL     OW10330   4.058   3.997   1.160
 3144SOL    HW110331   4.058   4.078   1.218
 3144SOL    HW210332   3.972   3.947   1.172
 3145SOL     OW10333   1.704   5.059   2.374
 3145SOL    HW110334   1.617   5.060   2.424
 3145SOL    HW210335   1.776   5.098   2.432
 3146SOL     OW10336   1.561   0.040   2.524
 3146SOL    HW110337   1.542   6.992   2.458
 3146SOL    HW210338   1.505   0.027   2.605
 3147SOL     OW10339   2.828   5.084   0.220
 3147SOL    HW110340   2.772   5.069   0.138
 3147SOL    HW210341   2.924   5.089   0.195
 3148SOL     OW10342   5.060   5.988   4.934
 3148SOL    HW110343   4.975   6.012   4.982
 3148SOL    HW210344   5.110   5.920   4.988
 3149SOL     OW10345   2.777   0.708   5.213
 3149SOL    HW110346   2.844   0.762   5.263
 3149SOL    HW210347   2.807   0.697   5.118
 3150SOL     OW10348   6.915   6.149   4.252
 3150SOL    HW110349   6.909   6.177   4.347
 3150SOL    HW210350   6.835   6.094   4.228
 3151SOL     OW10351   4.170   1.426   6.355
 3151SOL    HW110352   4.144   1.434   6.452
 3151SOL    HW210353   4.111   1.485   6.300
 3152SOL     OW10354   1.475   5.461   1.004
 3152SOL    HW110355   1.528   5.538   1.038
 3152SOL    HW210356   1.399   5.443   1.066
 3153SOL     OW10357   6.547   4.513   2.375
 3153SOL    HW110358   6.499   4.474   2.296
 3153SOL    HW210359   6.541   4.613   2.372
 3154SOL     OW10360   7.010   1.771   0.600
 3154SOL    HW110361   0.084   1.758   0.597
 3154SOL    HW210362   6.967   1.699   0.654
 3155SOL     OW10363   6.428   4.770   1.384
 3155SOL    HW110364   6.335   4.750   1.417
 3155SOL    HW210365   6.465   4.689   1.339
 3156SOL     OW10366   3.414   3.349   3.549
 3156SOL    HW110367   3.317   3.325   3.555
 3156SOL    HW210368   3.463   3.312   3.627
 3157SOL     OW10369   1.855   2.855   4.857
 3157SOL    HW110370   1.828   2.932   4.914
 3157SOL    HW210371   1.943   2.819   4.889
 3158SOL     OW10372   4.147   6.821   2.012
 3158SOL    HW110373   4.080   6.882   1.968
 3158SOL    HW210374   4.200   6.872   2.079
 3159SOL     OW10375   5.743   1.072   0.410
 3159SOL    HW110376   5.759   0.988   0.357
 3159SOL    HW210377   5.818   1.086   0.474
 3160SOL     OW10378   0.206   6.206   5.008
 3160SOL    HW110379   0.178   6.302   5.011
 3160SOL    HW210380   0.299   6.196   5.044
 3161SOL     OW10381   1.998   1.534   3.755
 3161SOL    HW110382   2.033   1.572   3.670
 3161SOL    HW210383   1.900   1.554   3.763
 3162SOL     OW10384   1.331   6.574   1.347
 3162SOL    HW110385   1.265   6.540   1.414
 3162SOL    HW210386   1.283   6.625   1.275
 3163SOL     OW10387   3.462   1.980   6.714
 3163SOL    HW110388   3.369   1.978   6.750
 3163SOL    HW210389   3.480   1.897   6.661
 3164SOL     OW10390   4.608   4.094   1.493
 3164SOL    HW110391   4.528   4.098   1.553
 3164SOL    HW210392   4.645   4.186   1.481
 3165SOL     OW10393   1.105   5.714   1.043
 3165SOL    HW110394   1.058   5.801   1.030
 3165SOL    HW210395   1.037   5.641   1.051
 3166SOL     OW10396   4.276   0.717   6.221
 3166SOL    HW110397   4.284   0.730   6.320
 3166SOL    HW210398   4.366   0.729   6.179
 3167SOL     OW10399   6.707   3.964   1.506
 3167SOL    HW110400   6.757   3.887   1.546
 3167SOL    HW210401   6.650   4.007   1.577
 3168SOL     OW10402   4.759   2.832   6.607
 3168SOL    HW110403   4.750   2.904   6.537
 3168SOL    HW210404   4.830   2.768   6.579
 3169SOL     OW10405   1.969   3.301   5.023
 3169SOL    HW110406   1.913   3.220   5.003
 3169SOL    HW210407   1.943   3.376   4.961
 3170SOL     OW10408   4.385   1.007   1.381
 3170SOL    HW110409   4.469   0.986   1.431
 3170SOL    HW210410   4.311   1.024   1.446
 3171SOL     OW10411   0.270   6.580   1.288
 3171SOL    HW110412   0.182   6.582   1.239
 3171SOL    HW210413   0.343   6.608   1.225
 3172SOL     OW10414   0.312   5.214   5.944
 3172SOL    HW110415   0.372   5.195   6.022
 3172SOL    HW210416   0.366   5.223   5.861
 3173SOL     OW10417   3.285   1.843   1.081
 3173SOL    HW110418   3.329   1.839   0.991
 3173SOL    HW210419   3.231   1.760   1.096
 3174SOL     OW10420   2.813   2.477   6.309
 3174SOL    HW110421   2.797   2.571   6.281
 3174SOL    HW210422   2.821   2.419   6.227
 3175SOL     OW10423   0.635   6.632   0.728
 3175SOL    HW110424   0.663   6.656   0.635
 3175SOL    HW210425   0.712   6.646   0.790
 3176SOL     OW10426   2.028   5.196   4.672
 3176SOL    HW110427   2.011   5.271   4.608
 3176SOL    HW210428   2.036   5.110   4.622
 3177SOL     OW10429   4.859   4.829   4.823
 3177SOL    HW110430   4.829   4.740   4.856
 3177SOL    HW210431   4.807   4.901   4.870
 3178SOL     OW10432   6.763   2.512   0.071
 3178SOL    HW110433   6.852   2.549   0.098
 3178SOL    HW210434   6.737   2.438   0.133
 3179SOL     OW10435   1.733   2.712   2.440
 3179SOL    HW110436   1.794   2.641   2.476
 3179SOL    HW210437   1.698   2.767   2.515
 3180SOL     OW10438   4.721   0.163   0.278
 3180SOL    HW110439   4.700   0.066   0.264
 3180SOL    HW210440   4.735   0.180   0.376
 3181SOL     OW10441   1.332   1.171   3.234
 3181SOL    HW110442   1.235   1.175   3.258
 3181SOL    HW210443   1.387   1.210   3.308
 3182SOL     OW10444   1.772   1.453   5.569
 3182SOL    HW110445   1.830   1.468   5.490
 3182SOL    HW210446   1.742   1.542   5.606
 3183SOL     OW10447   4.903   3.916   1.247
 3183SOL    HW110448   4.809   3.945   1.229
 3183SOL    HW210449   4.906   3.865   1.333
 3184SOL     OW10450   1.863   2.304   3.081
 3184SOL    HW110451   1.929   2.238   3.046
 3184SOL    HW210452   1.910   2.390   3.101
 3185SOL     OW10453   5.836   0.270   6.269
 3185SOL    HW110454   5.902   0.340   6.240
 3185SOL    HW210455   5.838   0.261   6.368
 3186SOL     OW10456   3.887   1.951   2.833
 3186SOL    HW110457   3.836   1.984   2.754
 3186SOL    HW210458   3.834   1.881   2.881
 3187SOL     OW10459   4.795   4.525   0.390
 3187SOL    HW110460   4.753   4.441   0.424
 3187SOL    HW210461   4.816   4.586   0.466
 3188SOL     OW10462   3.462   6.505   4.583
 3188SOL    HW110463   3.408   6.584   4.612
 3188SOL    HW210464   3.536   6.489   4.648
 3189SOL     OW10465   2.070   1.112   2.365
 3189SOL    HW110466   1.988   1.168   2.354
 3189SOL    HW210467   2.044   1.018   2.384
 3190SOL     OW10468   0.534   5.699   1.556
 3190SOL    HW110469   0.500   5.706   1.462
 3190SOL    HW210470   0.552   5.790   1.592
 3191SOL     OW10471   4.108   6.687   0.904
 3191SOL    HW110472   4.035   6.750   0.930
 3191SOL    HW210473   4.197   6.726   0.929
 3192SOL     OW10474   0.215   2.303   1.185
 3192SOL    HW110475   0.132   2.293   1.130
 3192SOL    HW210476   0.279   2.229   1.163
 3193SOL     OW10477   4.529   1.662   5.881
 3193SOL    HW110478   4.470   1.657   5.800
 3193SOL    HW210479   4.550   1.569   5.912
 3194SOL     OW10480   0.993   3.255   5.988
 3194SOL    HW110481   0.904   3.269   6.031
 3194SOL    HW210482   0.979   3.227   5.893
 3195SOL     OW10483   2.192   2.663   2.381
 3195SOL    HW110484   2.180   2.762   2.378
 3195SOL    HW210485   2.275   2.638   2.331
 3196SOL     OW10486   6.855   0.509   4.830
 3196SOL    HW110487   6.807   0.586   4.873
 3196SOL    HW210488   6.950   0.534   4.815
 3197SOL     OW10489   2.101   5.923   3.450
 3197SOL    HW110490   2.117   5.980   3.530
 3197SOL    HW210491   2.069   5.981   3.374
 3198SOL     OW10492   6.371   2.389   6.186
 3198SOL    HW110493   6.412   2.298   6.176
 3198SOL    HW210494   6.344   2.402   6.281
 3199SOL     OW10495   4.414   2.801   1.708
 3199SOL    HW110496   4.373   2.886   1.674
 3199SOL    HW210497   4.495   2.822   1.762
 3200SOL     OW10498   0.178   1.918   1.946
 3200SOL    HW110499   0.209   1.857   2.019
 3200SOL    HW210500   0.085   1.894   1.919
 3201SOL     OW10501   5.345   4.362   4.914
 3201SOL    HW110502   5.421   4.309   4.951
 3201SOL    HW210503   5.369   4.459   4.912
 3202SOL     OW10504   1.140   4.758   1.621
 3202SOL    HW110505   1.159   4.806   1.707
 3202SOL    HW210506   1.157   4.660   1.633
 3203SOL     OW10507   5.423   1.516   0.707
 3203SOL    HW110508   5.346   1.509   0.644
 3203SOL    HW210509   5.507   1.533   0.655
 3204SOL     OW10510   4.943   5.686   1.970
 3204SOL    HW110511   4.989   5.601   1.944
 3204SOL    HW210512   4.900   5.675   2.060
 3205SOL     OW10513   0.208   3.903   6.446
 3205SOL    HW110514   0.205   3.931   6.542
 3205SOL    HW210515   0.246   3.811   6.439
 3206SOL     OW10516   0.077   6.313   6.024
 3206SOL    HW110517   0.055   6.374   5.947
 3206SOL    HW210518   0.165   6.340   6.063
 3207SOL     OW10519   0.108   1.305   6.032
 3207SOL    HW110520   0.060   1.372   5.975
 3207SOL    HW210521   0.058   1.293   6.118
 3208SOL     OW10522   5.131   6.066   5.757
 3208SOL    HW110523   5.201   6.097   5.694
 3208SOL    HW210524   5.044   6.111   5.735
 3209SOL     OW10525   3.207   5.509   3.452
 3209SOL    HW110526   3.298   5.473   3.475
 3209SOL    HW210527   3.171   5.460   3.373
 3210SOL     OW10528   0.648   3.915   2.179
 3210SOL    HW110529   0.675   3.993   2.123
 3210SOL    HW210530   0.549   3.906   2.179
 3211SOL     OW10531   2.535   3.591   1.025
 3211SOL    HW110532   2.485   3.653   0.964
 3211SOL    HW210533   2.565   3.641   1.106
 3212SOL     OW10534   3.697   1.427   6.679
 3212SOL    HW110535   3.603   1.418   6.644
 3212SOL    HW210536   3.742   1.505   6.634
 3213SOL     OW10537   6.168   5.332   2.608
 3213SOL    HW110538   6.097   5.394   2.642
 3213SOL    HW210539   6.127   5.263   2.548
 3214SOL     OW10540   5.127   5.831   0.235
 3214SOL    HW110541   5.148   5.813   0.139
 3214SOL    HW210542   5.028   5.830   0.249
 3215SOL     OW10543   0.068   3.507   1.569
 3215SOL    HW110544   0.085   3.578   1.637
 3215SOL    HW210545   0.148   3.446   1.564
 3216SOL     OW10546   5.283   5.542   2.084
 3216SOL    HW110547   5.206   5.521   2.023
 3216SOL    HW210548   5.248   5.592   2.164
 3217SOL     OW10549   1.010   5.445   2.619
 3217SOL    HW110550   0.938   5.414   2.681
 3217SOL    HW210551   0.995   5.406   2.528
 3218SOL     OW10552   3.823   6.490   3.838
 3218SOL    HW110553   3.738   6.539   3.820
 3218SOL    HW210554   3.828   6.408   3.782
 3219SOL     OW10555   6.987   1.677   3.098
 3219SOL    HW110556   0.017   1.621   3.160
 3219SOL    HW210557   6.893   1.685   3.133
 3220SOL     OW10558   6.435   5.564   6.103
 3220SOL    HW110559   6.350   5.512   6.113
 3220SOL    HW210560   6.422   5.655   6.142
 3221SOL     OW10561   2.956   0.245   2.343
 3221SOL    HW110562   2.928   0.286   2.256
 3221SOL    HW210563   3.022   0.172   2.325
 3222SOL     OW10564   4.905   1.873   3.790
 3222SOL    HW110565   4.837   1.852   3.860
 3222SOL    HW210566   4.923   1.972   3.789
 3223SOL     OW10567   1.660   5.310   6.481
 3223SOL    HW110568   1.637   5.221   6.441
 3223SOL    HW210569   1.740   5.301   6.540
 3224SOL     OW10570   4.165   4.997   6.224
 3224SOL    HW110571   4.206   4.912   6.259
 3224SOL    HW210572   4.066   4.987   6.220
 3225SOL     OW10573   4.310   2.548   5.550
 3225SOL    HW110574   4.212   2.557   5.566
 3225SOL    HW210575   4.360   2.582   5.629
 3226SOL     OW10576   1.835   1.738   5.152
 3226SOL    HW110577   1.828   1.827   5.197
 3226SOL    HW210578   1.822   1.750   5.053
 3227SOL     OW10579   3.233   2.077   6.188
 3227SOL    HW110580   3.301   2.120   6.247
 3227SOL    HW210581   3.219   1.982   6.217
 3228SOL     OW10582   5.475   3.501   4.475
 3228SOL    HW110583   5.481   3.488   4.376
 3228SOL    HW210584   5.389   3.545   4.498
 3229SOL     OW10585   3.356   1.601   5.790
 3229SOL    HW110586   3.446   1.643   5.802
 3229SOL    HW210587   3.352   1.556   5.700
 3230SOL     OW10588   1.125   2.477   4.172
 3230SOL    HW110589   1.084   2.532   4.099
 3230SOL    HW210590   1.141   2.535   4.253
 3231SOL     OW10591   3.427   6.299   2.276
 3231SOL    HW110592   3.412   6.200   2.271
 3231SOL    HW210593   3.380   6.336   2.356
 3232SOL     OW10594   4.359   5.334   3.940
 3232SOL    HW110595   4.348   5.239   3.968
 3232SOL    HW210596   4.424   5.339   3.864
 3233SOL     OW10597   2.093   3.187   1.166
 3233SOL    HW110598   2.182   3.234   1.159
 3233SOL    HW210599   2.027   3.249   1.208
 3234SOL     OW10600   6.851   2.907   0.401
 3234SOL    HW110601   6.878   2.875   0.310
 3234SOL    HW210602   6.846   3.007   0.400
 3235SOL     OW10603   4.995   6.111   1.533
 3235SOL    HW110604   4.916   6.124   1.473
 3235SOL    HW210605   5.072   6.077   1.479
 3236SOL     OW10606   1.567   3.552   1.399
 3236SOL    HW110607   1.589   3.455   1.401
 3236SOL    HW210608   1.637   3.603   1.450
 3237SOL     OW10609   5.505   1.350   3.695
 3237SOL    HW110610   5.531   1.265   3.740
 3237SOL    HW210611   5.456   1.329   3.610
 3238SOL     OW10612   0.013   5.150   0.204
 3238SOL    HW110613   0.015   5.117   0.109
 3238SOL    HW210614   0.070   5.231   0.213
 3239SOL     OW10615   6.139   1.376   0.326
 3239SOL    HW110616   6.220   1.376   0.267
 3239SOL    HW210617   6.084   1.457   0.306
 3240SOL     OW10618   1.408   6.292   5.072
 3240SOL    HW110619   1.402   6.295   5.172
 3240SOL    HW210620   1.352   6.365   5.034
 3241SOL     OW10621   5.325   1.501   4.503
 3241SOL    HW110622   5.233   1.493   4.466
 3241SOL    HW210623   5.392   1.480   4.431
 3242SOL     OW10624   3.512   4.796   0.968
 3242SOL    HW110625   3.474   4.858   0.899
 3242SOL    HW210626   3.490   4.702   0.945
 3243SOL     OW10627   5.843   5.394   0.478
 3243SOL    HW110628   5.800   5.370   0.565
 3243SOL    HW210629   5.789   5.464   0.432
 3244SOL     OW10630   4.757   5.175   6.581
 3244SOL    HW110631   4.816   5.254   6.597
 3244SOL    HW210632   4.776   5.137   6.491
 3245SOL     OW10633   5.078   2.117   5.657
 3245SOL    HW110634   5.146   2.183   5.625
 3245SOL    HW210635   5.120   2.026   5.660
 3246SOL     OW10636   6.473   0.366   3.085
 3246SOL    HW110637   6.533   0.350   3.163
 3246SOL    HW210638   6.523   0.349   3.000
 3247SOL     OW10639   0.157   5.201   3.067
 3247SOL    HW110640   0.205   5.136   3.125
 3247SOL    HW210641   0.061   5.207   3.094
 3248SOL     OW10642   5.471   3.416   1.578
 3248SOL    HW110643   5.454   3.494   1.518
 3248SOL    HW210644   5.569   3.396   1.579
 3249SOL     OW10645   4.065   4.153   5.644
 3249SOL    HW110646   4.099   4.239   5.682
 3249SOL    HW210647   4.091   4.078   5.705
 3250SOL     OW10648   5.376   0.547   2.710
 3250SOL    HW110649   5.457   0.606   2.711
 3250SOL    HW210650   5.314   0.576   2.637
 3251SOL     OW10651   4.216   0.917   2.620
 3251SOL    HW110652   4.217   0.948   2.715
 3251SOL    HW210653   4.308   0.923   2.581
 3252SOL     OW10654   3.079   1.148   2.000
 3252SOL    HW110655   3.019   1.170   2.077
 3252SOL    HW210656   3.069   1.217   1.929
 3253SOL     OW10657   4.891   3.377   2.530
 3253SOL    HW110658   4.989   3.385   2.550
 3253SOL    HW210659   4.855   3.295   2.575
 3254SOL     OW10660   4.027   5.122   4.991
 3254SOL    HW110661   3.931   5.093   4.991
 3254SOL    HW210662   4.078   5.066   4.927
 3255SOL     OW10663   4.521   5.949   1.689
 3255SOL    HW110664   4.541   5.853   1.673
 3255SOL    HW210665   4.572   5.982   1.769
 3256SOL     OW10666   5.500   0.546   6.694
 3256SOL    HW110667   5.596   0.533   6.672
 3256SOL    HW210668   5.445   0.537   6.610
 3257SOL     OW10669   1.472   1.909   1.392
 3257SOL    HW110670   1.559   1.958   1.383
 3257SOL    HW210671   1.490   1.812   1.408
 3258SOL     OW10672   4.287   5.749   2.619
 3258SOL    HW110673   4.314   5.798   2.537
 3258SOL    HW210674   4.369   5.725   2.672
 3259SOL     OW10675   4.764   6.094   4.195
 3259SOL    HW110676   4.827   6.066   4.267
 3259SOL    HW210677   4.700   6.162   4.230
 3260SOL     OW10678   2.294   2.571   1.522
 3260SOL    HW110679   2.218   2.575   1.458
 3260SOL    HW210680   2.259   2.560   1.615
 3261SOL     OW10681   4.267   6.132   0.511
 3261SOL    HW110682   4.344   6.082   0.550
 3261SOL    HW210683   4.185   6.075   0.515
 3262SOL     OW10684   3.726   1.740   2.239
 3262SOL    HW110685   3.806   1.736   2.298
 3262SOL    HW210686   3.701   1.835   2.223
 3263SOL     OW10687   5.043   0.511   3.780
 3263SOL    HW110688   5.018   0.599   3.739
 3263SOL    HW210689   5.136   0.487   3.752
 3264SOL     OW10690   0.994   4.659   0.129
 3264SOL    HW110691   1.001   4.560   0.145
 3264SOL    HW210692   1.018   4.708   0.213
 3265SOL     OW10693   4.309   2.050   5.811
 3265SOL    HW110694   4.283   2.129   5.866
 3265SOL    HW210695   4.255   2.049   5.726
 3266SOL     OW10696   0.959   2.736   0.261
 3266SOL    HW110697   0.971   2.650   0.211
 3266SOL    HW210698   1.048   2.780   0.273
 3267SOL     OW10699   3.413   2.533   0.566
 3267SOL    HW110700   3.491   2.512   0.507
 3267SOL    HW210701   3.330   2.540   0.510
 3268SOL     OW10702   0.853   3.795   6.358
 3268SOL    HW110703   0.936   3.749   6.327
 3268SOL    HW210704   0.875   3.856   6.435
 3269SOL     OW10705   4.385   5.147   2.001
 3269SOL    HW110706   4.288   5.142   1.977
 3269SOL    HW210707   4.416   5.057   2.033
 3270SOL     OW10708   1.562   5.429   4.854
 3270SOL    HW110709   1.539   5.478   4.770
 3270SOL    HW210710   1.492   5.361   4.873
 3271SOL     OW10711   5.469   3.306   2.597
 3271SOL    HW110712   5.465   3.220   2.546
 3271SOL    HW210713   5.391   3.363   2.573
 3272SOL     OW10714   3.783   4.606   0.497
 3272SOL    HW110715   3.687   4.584   0.514
 3272SOL    HW210716   3.791   4.703   0.476
 3273SOL     OW10717   0.776   6.489   2.101
 3273SOL    HW110718   0.807   6.410   2.049
 3273SOL    HW210719   0.751   6.461   2.193
 3274SOL     OW10720   3.634   2.332   6.744
 3274SOL    HW110721   3.674   2.421   6.723
 3274SOL    HW210722   3.611   2.285   6.658
 3275SOL     OW10723   1.678   0.518   7.001
 3275SOL    HW110724   1.658   0.597   0.035
 3275SOL    HW210725   1.720   0.446   0.031
 3276SOL     OW10726   3.077   4.860   6.289
 3276SOL    HW110727   3.125   4.774   6.307
 3276SOL    HW210728   3.021   4.851   6.207
 3277SOL     OW10729   5.641   6.886   5.986
 3277SOL    HW110730   5.698   6.957   6.029
 3277SOL    HW210731   5.688   6.851   5.904
 3278SOL     OW10732   6.567   1.171   5.544
 3278SOL    HW110733   6.553   1.072   5.537
 3278SOL    HW210734   6.483   1.215   5.576
 3279SOL     OW10735   0.596   0.921   1.240
 3279SOL    HW110736   0.657   0.855   1.284
 3279SOL    HW210737   0.536   0.962   1.309
 3280SOL     OW10738   2.950   5.406   6.146
 3280SOL    HW110739   2.911   5.390   6.055
 3280SOL    HW210740   3.025   5.472   6.139
 3281SOL     OW10741   1.966   5.401   1.263
 3281SOL    HW110742   2.020   5.324   1.227
 3281SOL    HW210743   1.872   5.393   1.233
 3282SOL     OW10744   2.268   5.454   4.361
 3282SOL    HW110745   2.267   5.462   4.261
 3282SOL    HW210746   2.357   5.481   4.396
 3283SOL     OW10747   3.124   1.367   1.847
 3283SOL    HW110748   3.161   1.456   1.874
 3283SOL    HW210749   3.052   1.381   1.779
 3284SOL     OW10750   6.251   6.948   6.420
 3284SOL    HW110751   6.174   6.904   6.466
 3284SOL    HW210752   6.319   6.976   6.488
 3285SOL     OW10753   6.468   3.246   3.361
 3285SOL    HW110754   6.506   3.327   3.407
 3285SOL    HW210755   6.512   3.234   3.272
 3286SOL     OW10756   4.042   3.386   3.957
 3286SOL    HW110757   4.107   3.362   4.030
 3286SOL    HW210758   3.979   3.311   3.942
 3287SOL     OW10759   1.207   5.598   0.278
 3287SOL    HW110760   1.166   5.674   0.228
 3287SOL    HW210761   1.163   5.588   0.367
 3288SOL     OW10762   0.792   5.279   6.753
 3288SOL    HW110763   0.879   5.240   6.724
 3288SOL    HW210764   0.738   5.209   6.800
 3289SOL     OW10765   2.000   6.762   5.659
 3289SOL    HW110766   1.914   6.760   5.608
 3289SOL    HW210767   1.984   6.798   5.750
 3290SOL     OW10768   0.409   6.613   1.728
 3290SOL    HW110769   0.316   6.600   1.694
 3290SOL    HW210770   0.463   6.530   1.710
 3291SOL     OW10771   1.112   6.729   6.743
 3291SOL    HW110772   1.059   6.814   6.746
 3291SOL    HW210773   1.209   6.750   6.750
 3292SOL     OW10774   0.435   1.598   0.010
 3292SOL    HW110775   0.415   1.595   6.937
 3292SOL    HW210776   0.464   1.507   0.041
 3293SOL     OW10777   6.377   2.488   3.027
 3293SOL    HW110778   6.335   2.427   2.960
 3293SOL    HW210779   6.381   2.443   3.116
 3294SOL     OW10780   7.008   0.297   5.985
 3294SOL    HW110781   6.987   0.289   5.888
 3294SOL    HW210782   0.074   0.338   5.997
 3295SOL     OW10783   2.071   2.560   0.733
 3295SOL    HW110784   2.169   2.537   0.731
 3295SOL    HW210785   2.026   2.522   0.653
 3296SOL     OW10786   2.485   6.505   1.202
 3296SOL    HW110787   2.412   6.473   1.140
 3296SOL    HW210788   2.502   6.602   1.186
 3297SOL     OW10789   2.888   1.254   4.521
 3297SOL    HW110790   2.956   1.286   4.587
 3297SOL    HW210791   2.881   1.154   4.526
 3298SOL     OW10792   6.104   2.938   3.421
 3298SOL    HW110793   6.090   2.999   3.499
 3298SOL    HW210794   6.202   2.929   3.403
 3299SOL     OW10795   1.923   6.612   3.654
 3299SOL    HW110796   1.978   6.607   3.570
 3299SOL    HW210797   1.888   6.704   3.665
 3300SOL     OW10798   7.009   0.082   6.174
 3300SOL    HW110799   0.056   0.098   6.242
 3300SOL    HW210800   6.991   0.166   6.123
 3301SOL     OW10801   2.239   4.079   3.539
 3301SOL    HW110802   2.304   4.117   3.604
 3301SOL    HW210803   2.257   4.117   3.448
 3302SOL     OW10804   1.463   5.799   4.572
 3302SOL    HW110805   1.465   5.883   4.518
 3302SOL    HW210806   1.420   5.818   4.661
 3303SOL     OW10807   3.547   3.059   1.593
 3303SOL    HW110808   3.472   3.025   1.537
 3303SOL    HW210809   3.559   3.157   1.578
 3304SOL     OW10810   1.730   5.056   3.419
 3304SOL    HW110811   1.643   5.012   3.398
 3304SOL    HW210812   1.756   5.034   3.513
 3305SOL     OW10813   2.909   1.898   2.706
 3305SOL    HW110814   2.968   1.978   2.710
 3305SOL    HW210815   2.951   1.823   2.758
 3306SOL     OW10816   2.433   4.806   3.777
 3306SOL    HW110817   2.397   4.888   3.733
 3306SOL    HW210818   2.520   4.781   3.736
 3307SOL     OW10819   0.799   5.898   6.458
 3307SOL    HW110820   0.702   5.901   6.434
 3307SOL    HW210821   0.847   5.836   6.396
 3308SOL     OW10822   4.662   5.899   6.327
 3308SOL    HW110823   4.754   5.890   6.289
 3308SOL    HW210824   4.596   5.909   6.252
 3309SOL     OW10825   0.838   5.454   2.842
 3309SOL    HW110826   0.781   5.535   2.855
 3309SOL    HW210827   0.870   5.420   2.930
 3310SOL     OW10828   6.858   3.997   3.634
 3310SOL    HW110829   6.943   4.047   3.624
 3310SOL    HW210830   6.783   4.049   3.592
 3311SOL     OW10831   3.060   4.889   1.321
 3311SOL    HW110832   2.990   4.884   1.249
 3311SOL    HW210833   3.099   4.981   1.323
 3312SOL     OW10834   2.905   4.122   6.162
 3312SOL    HW110835   2.829   4.120   6.227
 3312SOL    HW210836   2.871   4.098   6.071
 3313SOL     OW10837   0.619   5.193   2.849
 3313SOL    HW110838   0.607   5.167   2.945
 3313SOL    HW210839   0.641   5.290   2.842
 3314SOL     OW10840   2.048   2.390   5.533
 3314SOL    HW110841   1.966   2.344   5.567
 3314SOL    HW210842   2.025   2.444   5.452
 3315SOL     OW10843   6.637   2.795   4.258
 3315SOL    HW110844   6.700   2.719   4.241
 3315SOL    HW210845   6.681   2.861   4.320
 3316SOL     OW10846   3.459   1.224   5.752
 3316SOL    HW110847   3.436   1.191   5.660
 3316SOL    HW210848   3.545   1.276   5.748
 3317SOL     OW10849   4.950   2.865   1.925
 3317SOL    HW110850   4.914   2.954   1.953
 3317SOL    HW210851   4.888   2.823   1.859
 3318SOL     OW10852   2.874   6.835   0.256
 3318SOL    HW110853   2.946   6.779   0.296
 3318SOL    HW210854   2.915   6.914   0.209
 3319SOL     OW10855   6.389   6.706   3.500
 3319SOL    HW110856   6.301   6.671   3.469
 3319SOL    HW210857   6.451   6.630   3.520
 3320SOL     OW10858   5.572   1.143   5.713
 3320SOL    HW110859   5.502   1.142   5.642
 3320SOL    HW210860   5.530   1.166   5.801
 3321SOL     OW10861   3.222   2.545   1.532
 3321SOL    HW110862   3.265   2.594   1.456
 3321SOL    HW210863   3.213   2.448   1.508
 3322SOL     OW10864   5.054   2.538   1.877
 3322SOL    HW110865   4.982   2.537   1.946
 3322SOL    HW210866   5.056   2.627   1.832
 3323SOL     OW10867   1.955   3.821   6.724
 3323SOL    HW110868   2.023   3.888   6.751
 3323SOL    HW210869   1.872   3.835   6.778
 3324SOL     OW10870   0.765   3.883   0.010
 3324SOL    HW110871   0.701   3.807   7.022
 3324SOL    HW210872   0.846   3.850   0.058
 3325SOL     OW10873   1.965   3.233   0.089
 3325SOL    HW110874   1.885   3.200   0.040
 3325SOL    HW210875   1.945   3.321   0.132
 3326SOL     OW10876   5.131   1.882   1.527
 3326SOL    HW110877   5.087   1.867   1.438
 3326SOL    HW210878   5.188   1.964   1.522
 3327SOL     OW10879   2.795   6.269   0.854
 3327SOL    HW110880   2.756   6.278   0.945
 3327SOL    HW210881   2.729   6.224   0.794
 3328SOL     OW10882   4.664   1.052   2.919
 3328SOL    HW110883   4.694   1.059   3.014
 3328SOL    HW210884   4.645   1.143   2.882
 3329SOL     OW10885   4.464   0.551   5.403
 3329SOL    HW110886   4.374   0.531   5.364
 3329SOL    HW210887   4.492   0.644   5.377
 3330SOL     OW10888   5.679   6.380   2.202
 3330SOL    HW110889   5.762   6.339   2.240
 3330SOL    HW210890   5.608   6.384   2.272
 3331SOL     OW10891   1.768   3.514   2.346
 3331SOL    HW110892   1.683   3.465   2.369
 3331SOL    HW210893   1.763   3.547   2.252
 3332SOL     OW10894   6.285   4.117   0.014
 3332SOL    HW110895   6.351   4.174   6.990
 3332SOL    HW210896   6.324   4.026   0.028
 3333SOL     OW10897   2.541   3.634   0.042
 3333SOL    HW110898   2.474   3.648   6.993
 3333SOL    HW210899   2.536   3.539   0.072
 3334SOL     OW10900   1.928   3.044   1.752
 3334SOL    HW110901   1.833   3.058   1.781
 3334SOL    HW210902   1.945   3.098   1.670
 3335SOL     OW10903   4.503   5.967   6.125
 3335SOL    HW110904   4.449   6.048   6.103
 3335SOL    HW210905   4.489   5.898   6.054
 3336SOL     OW10906   2.222   0.213   4.363
 3336SOL    HW110907   2.183   0.121   4.353
 3336SOL    HW210908   2.318   0.205   4.391
 3337SOL     OW10909   3.547   3.530   1.532
 3337SOL    HW110910   3.585   3.440   1.554
 3337SOL    HW210911   3.525   3.578   1.616
 3338SOL     OW10912   0.152   2.472   1.666
 3338SOL    HW110913   0.234   2.423   1.697
 3338SOL    HW210914   0.092   2.489   1.744
 3339SOL     OW10915   1.725   0.169   6.276
 3339SOL    HW110916   1.788   0.174   6.353
 3339SOL    HW210917   1.636   0.208   6.302
 3340SOL     OW10918   4.542   0.848   4.016
 3340SOL    HW110919   4.448   0.818   4.033
 3340SOL    HW210920   4.602   0.812   4.087
 3341SOL     OW10921   2.250   4.195   3.923
 3341SOL    HW110922   2.334   4.245   3.943
 3341SOL    HW210923   2.172   4.259   3.923
 3342SOL     OW10924   0.404   0.390   2.601
 3342SOL    HW110925   0.354   0.474   2.623
 3342SOL    HW210926   0.470   0.409   2.528
 3343SOL     OW10927   5.254   5.253   6.067
 3343SOL    HW110928   5.246   5.199   5.983
 3343SOL    HW210929   5.183   5.224   6.132
 3344SOL     OW10930   6.325   2.912   3.837
 3344SOL    HW110931   6.378   2.880   3.915
 3344SOL    HW210932   6.342   2.852   3.759
 3345SOL     OW10933   0.745   4.056   6.273
 3345SOL    HW110934   0.702   3.978   6.320
 3345SOL    HW210935   0.811   4.022   6.206
 3346SOL     OW10936   1.601   1.094   6.815
 3346SOL    HW110937   1.632   1.174   6.763
 3346SOL    HW210938   1.510   1.112   6.852
 3347SOL     OW10939   1.924   2.593   6.446
 3347SOL    HW110940   1.951   2.533   6.371
 3347SOL    HW210941   1.876   2.673   6.409
 3348SOL     OW10942   4.509   3.782   5.403
 3348SOL    HW110943   4.582   3.741   5.349
 3348SOL    HW210944   4.425   3.731   5.390
 3349SOL     OW10945   2.823   5.010   3.850
 3349SOL    HW110946   2.853   5.100   3.819
 3349SOL    HW210947   2.877   4.939   3.804
 3350SOL     OW10948   0.650   2.987   5.825
 3350SOL    HW110949   0.682   2.926   5.897
 3350SOL    HW210950   0.671   3.081   5.849
 3351SOL     OW10951   4.966   1.272   1.222
 3351SOL    HW110952   4.941   1.343   1.157
 3351SOL    HW210953   4.896   1.200   1.222
 3352SOL     OW10954   5.497   2.467   0.834
 3352SOL    HW110955   5.546   2.546   0.870
 3352SOL    HW210956   5.550   2.384   0.851
 3353SOL     OW10957   2.031   6.450   0.494
 3353SOL    HW110958   2.130   6.443   0.507
 3353SOL    HW210959   1.997   6.531   0.541
 3354SOL     OW10960   3.984   2.759   5.315
 3354SOL    HW110961   4.040   2.691   5.267
 3354SOL    HW210962   4.030   2.786   5.400
 3355SOL     OW10963   2.198   1.487   5.837
 3355SOL    HW110964   2.216   1.550   5.913
 3355SOL    HW210965   2.184   1.540   5.753
 3356SOL     OW10966   0.746   6.663   6.598
 3356SOL    HW110967   0.803   6.600   6.651
 3356SOL    HW210968   0.798   6.697   6.520
 3357SOL     OW10969   3.124   3.198   1.606
 3357SOL    HW110970   3.189   3.127   1.577
 3357SOL    HW210971   3.172   3.285   1.616
 3358SOL     OW10972   5.496   1.026   3.444
 3358SOL    HW110973   5.493   0.945   3.385
 3358SOL    HW210974   5.495   1.109   3.389
 3359SOL     OW10975   0.150   5.634   3.479
 3359SOL    HW110976   0.153   5.641   3.579
 3359SOL    HW210977   0.070   5.682   3.445
 3360SOL     OW10978   0.821   2.224   6.078
 3360SOL    HW110979   0.863   2.211   6.168
 3360SOL    HW210980   0.728   2.258   6.090
 3361SOL     OW10981   0.800   0.281   4.093
 3361SOL    HW110982   0.822   0.318   4.183
 3361SOL    HW210983   0.736   0.204   4.104
 3362SOL     OW10984   3.675   1.312   2.721
 3362SOL    HW110985   3.772   1.316   2.747
 3362SOL    HW210986   3.668   1.309   2.621
 3363SOL     OW10987   6.910   3.301   1.731
 3363SOL    HW110988   6.864   3.257   1.655
 3363SOL    HW210989   6.943   3.392   1.703
 3364SOL     OW10990   1.866   4.498   2.842
 3364SOL    HW110991   1.900   4.537   2.756
 3364SOL    HW210992   1.884   4.400   2.844
 3365SOL     OW10993   1.046   2.477   4.536
 3365SOL    HW110994   1.111   2.512   4.467
 3365SOL    HW210995   0.980   2.549   4.558
 3366SOL     OW10996   6.400   4.594   3.927
 3366SOL    HW110997   6.444   4.599   3.838
 3366SOL    HW210998   6.469   4.588   3.999
 3367SOL     OW10999   3.137   3.131   3.114
 3367SOL    HW111000   3.135   3.074   3.032
 3367SOL    HW211001   3.215   3.193   3.109
 3368SOL     OW11002   0.696   5.676   6.664
 3368SOL    HW111003   0.634   5.622   6.720
 3368SOL    HW211004   0.644   5.746   6.615
 3369SOL     OW11005   4.535   2.218   1.682
 3369SOL    HW111006   4.450   2.177   1.717
 3369SOL    HW211007   4.610   2.152   1.692
 3370SOL     OW11008   5.925   6.658   1.458
 3370SOL    HW111009   6.024   6.646   1.449
 3370SOL    HW211010   5.880   6.631   1.373
 3371SOL     OW11011   2.084   3.529   1.713
 3371SOL    HW111012   2.153   3.553   1.782
 3371SOL    HW211013   1.993   3.552   1.747
 3372SOL     OW11014   6.737   2.270   0.236
 3372SOL    HW111015   6.761   2.249   0.332
 3372SOL    HW211016   6.769   2.196   0.178
 3373SOL     OW11017   0.213   2.379   3.590
 3373SOL    HW111018   0.210   2.355   3.687
 3373SOL    HW211019   0.132   2.433   3.567
 3374SOL     OW11020   1.250   0.567   3.954
 3374SOL    HW111021   1.198   0.571   4.039
 3374SOL    HW211022   1.208   0.625   3.885
 3375SOL     OW11023   6.601   4.546   0.742
 3375SOL    HW111024   6.535   4.472   0.732
 3375SOL    HW211025   6.616   4.563   0.840
 3376SOL     OW11026   3.064   3.192   4.837
 3376SOL    HW111027   3.058   3.108   4.784
 3376SOL    HW211028   3.159   3.208   4.864
 3377SOL     OW11029   6.818   4.586   4.924
 3377SOL    HW111030   6.882   4.661   4.940
 3377SOL    HW211031   6.847   4.534   4.844
 3378SOL     OW11032   0.778   0.062   6.883
 3378SOL    HW111033   0.841   0.139   6.880
 3378SOL    HW211034   0.684   0.096   6.890
 3379SOL     OW11035   0.885   2.946   4.845
 3379SOL    HW111036   0.949   2.887   4.794
 3379SOL    HW211037   0.817   2.983   4.782
 3380SOL     OW11038   4.308   5.479   5.000
 3380SOL    HW111039   4.214   5.454   4.978
 3380SOL    HW211040   4.308   5.556   5.064
 3381SOL     OW11041   6.821   3.133   1.535
 3381SOL    HW111042   6.776   3.158   1.450
 3381SOL    HW211043   6.846   3.036   1.532
 3382SOL     OW11044   0.232   2.988   0.932
 3382SOL    HW111045   0.240   3.068   0.991
 3382SOL    HW211046   0.221   2.906   0.989
 3383SOL     OW11047   3.393   5.214   0.672
 3383SOL    HW111048   3.316   5.253   0.725
 3383SOL    HW211049   3.360   5.186   0.582
 3384SOL     OW11050   2.935   4.405   0.794
 3384SOL    HW111051   2.973   4.497   0.804
 3384SOL    HW211052   2.909   4.370   0.885
 3385SOL     OW11053   6.751   3.257   3.901
 3385SOL    HW111054   6.700   3.301   3.827
 3385SOL    HW211055   6.836   3.307   3.918
 3386SOL     OW11056   6.306   4.466   6.881
 3386SOL    HW111057   6.295   4.543   6.819
 3386SOL    HW211058   6.276   4.382   6.836
 3387SOL     OW11059   4.958   0.530   2.833
 3387SOL    HW111060   4.890   0.529   2.906
 3387SOL    HW211061   4.931   0.595   2.763
 3388SOL     OW11062   5.071   4.100   2.621
 3388SOL    HW111063   5.067   4.109   2.720
 3388SOL    HW211064   5.159   4.062   2.593
 3389SOL     OW11065   6.604   5.436   6.478
 3389SOL    HW111066   6.587   5.372   6.552
 3389SOL    HW211067   6.522   5.491   6.463
 3390SOL     OW11068   4.187   6.569   6.650
 3390SOL    HW111069   4.245   6.648   6.667
 3390SOL    HW211070   4.093   6.590   6.674
 3391SOL     OW11071   5.234   2.030   2.940
 3391SOL    HW111072   5.248   2.123   2.908
 3391SOL    HW211073   5.216   1.970   2.862
 3392SOL     OW11074   3.198   0.145   3.892
 3392SOL    HW111075   3.150   0.233   3.889
 3392SOL    HW211076   3.277   0.152   3.952
 3393SOL     OW11077   5.768   6.505   0.312
 3393SOL    HW111078   5.709   6.579   0.280
 3393SOL    HW211079   5.840   6.489   0.245
 3394SOL     OW11080   4.440   4.485   0.519
 3394SOL    HW111081   4.443   4.389   0.491
 3394SOL    HW211082   4.345   4.512   0.535
 3395SOL     OW11083   4.653   1.771   3.031
 3395SOL    HW111084   4.674   1.802   2.939
 3395SOL    HW211085   4.574   1.709   3.029
 3396SOL     OW11086   5.712   1.695   3.947
 3396SOL    HW111087   5.681   1.781   3.906
 3396SOL    HW211088   5.695   1.697   4.045
 3397SOL     OW11089   3.173   5.655   6.337
 3397SOL    HW111090   3.245   5.587   6.348
 3397SOL    HW211091   3.129   5.643   6.248
 3398SOL     OW11092   0.626   6.958   5.516
 3398SOL    HW111093   0.633   0.033   5.516
 3398SOL    HW211094   0.707   6.919   5.474
 3399SOL     OW11095   6.389   4.827   2.691
 3399SOL    HW111096   6.305   4.799   2.738
 3399SOL    HW211097   6.366   4.856   2.598
 3400SOL     OW11098   6.175   3.348   0.053
 3400SOL    HW111099   6.120   3.391   0.124
 3400SOL    HW211100   6.120   3.337   6.994
 3401SOL     OW11101   5.997   3.642   6.331
 3401SOL    HW111102   6.055   3.653   6.250
 3401SOL    HW211103   6.027   3.706   6.402
 3402SOL     OW11104   6.139   5.556   0.834
 3402SOL    HW111105   6.114   5.462   0.858
 3402SOL    HW211106   6.102   5.619   0.902
 3403SOL     OW11107   4.924   5.618   6.268
 3403SOL    HW111108   4.931   5.592   6.172
 3403SOL    HW211109   4.905   5.716   6.276
 3404SOL     OW11110   4.593   3.047   6.733
 3404SOL    HW111111   4.665   3.102   6.689
 3404SOL    HW211112   4.610   2.950   6.716
 3405SOL     OW11113   5.452   4.657   6.282
 3405SOL    HW111114   5.473   4.560   6.275
 3405SOL    HW211115   5.502   4.697   6.358
 3406SOL     OW11116   2.029   3.466   2.378
 3406SOL    HW111117   2.059   3.527   2.451
 3406SOL    HW211118   1.930   3.476   2.365
 3407SOL     OW11119   2.920   4.275   0.339
 3407SOL    HW111120   2.845   4.311   0.284
 3407SOL    HW211121   2.901   4.291   0.436
 3408SOL     OW11122   4.927   2.767   4.713
 3408SOL    HW111123   4.899   2.715   4.794
 3408SOL    HW211124   4.857   2.758   4.643
 3409SOL     OW11125   3.632   6.162   0.620
 3409SOL    HW111126   3.543   6.171   0.577
 3409SOL    HW211127   3.661   6.066   0.619
 3410SOL     OW11128   5.664   6.197   2.822
 3410SOL    HW111129   5.567   6.217   2.805
 3410SOL    HW211130   5.706   6.274   2.871
 3411SOL     OW11131   6.876   2.912   0.142
 3411SOL    HW111132   6.818   2.909   0.060
 3411SOL    HW211133   6.937   2.991   0.136
 3412SOL     OW11134   5.269   3.809   1.152
 3412SOL    HW111135   5.236   3.900   1.173
 3412SOL    HW211136   5.244   3.746   1.225
 3413SOL     OW11137   6.283   2.020   6.992
 3413SOL    HW111138   6.343   2.048   6.917
 3413SOL    HW211139   6.232   2.099   0.002
 3414SOL     OW11140   3.287   1.817   5.429
 3414SOL    HW111141   3.249   1.865   5.350
 3414SOL    HW211142   3.346   1.879   5.481
 3415SOL     OW11143   2.545   2.534   4.139
 3415SOL    HW111144   2.621   2.477   4.171
 3415SOL    HW211145   2.502   2.490   4.060
 3416SOL     OW11146   5.880   0.298   6.538
 3416SOL    HW111147   5.887   0.202   6.567
 3416SOL    HW211148   5.875   0.357   6.618
 3417SOL     OW11149   0.094   6.594   2.542
 3417SOL    HW111150   0.167   6.576   2.608
 3417SOL    HW211151   0.126   6.662   2.475
 3418SOL     OW11152   3.653   5.950   3.705
 3418SOL    HW111153   3.554   5.953   3.692
 3418SOL    HW211154   3.675   5.976   3.799
 3419SOL     OW11155   3.991   5.576   6.152
 3419SOL    HW111156   4.033   5.561   6.063
 3419SOL    HW211157   4.039   5.649   6.201
 3420SOL     OW11158   5.677   2.988   4.638
 3420SOL    HW111159   5.721   2.911   4.592
 3420SOL    HW211160   5.581   2.967   4.654
 3421SOL     OW11161   5.923   1.850   3.112
 3421SOL    HW111162   5.897   1.845   3.016
 3421SOL    HW211163   5.976   1.768   3.136
 3422SOL     OW11164   2.616   0.599   0.535
 3422SOL    HW111165   2.672   0.658   0.476
 3422SOL    HW211166   2.555   0.544   0.478
 3423SOL     OW11167   0.109   4.277   6.095
 3423SOL    HW111168   0.049   4.346   6.136
 3423SOL    HW211169   0.103   4.192   6.148
 3424SOL     OW11170   3.443   0.575   1.116
 3424SOL    HW111171   3.497   0.658   1.120
 3424SOL    HW211172   3.346   0.598   1.106
 3425SOL     OW11173   4.626   4.724   2.009
 3425SOL    HW111174   4.548   4.674   1.972
 3425SOL    HW211175   4.696   4.733   1.938
 3426SOL     OW11176   4.832   2.962   0.180
 3426SOL    HW111177   4.850   3.051   0.220
 3426SOL    HW211178   4.764   2.971   0.107
 3427SOL     OW11179   0.702   2.459   1.580
 3427SOL    HW111180   0.752   2.432   1.498
 3427SOL    HW211181   0.604   2.450   1.565
 3428SOL     OW11182   4.496   4.610   6.421
 3428SOL    HW111183   4.526   4.692   6.373
 3428SOL    HW211184   4.574   4.571   6.471
 3429SOL     OW11185   0.705   1.498   0.924
 3429SOL    HW111186   0.678   1.438   0.849
 3429SOL    HW211187   0.803   1.491   0.939
 3430SOL     OW11188   2.371   5.237   6.052
 3430SOL    HW111189   2.468   5.209   6.052
 3430SOL    HW211190   2.318   5.172   6.106
 3431SOL     OW11191   1.825   6.918   1.835
 3431SOL    HW111192   1.900   6.870   1.789
 3431SOL    HW211193   1.863   6.985   1.899
 3432SOL     OW11194   2.544   4.780   6.316
 3432SOL    HW111195   2.569   4.695   6.270
 3432SOL    HW211196   2.444   4.786   6.322
 3433SOL     OW11197   1.879   1.067   6.133
 3433SOL    HW111198   1.832   1.039   6.049
 3433SOL    HW211199   1.954   1.003   6.153
 3434SOL     OW11200   3.498   1.871   1.593
 3434SOL    HW111201   3.469   1.868   1.688
 3434SOL    HW211202   3.503   1.966   1.562
 3435SOL     OW11203   2.818   1.197   0.307
 3435SOL    HW111204   2.738   1.192   0.367
 3435SOL    HW211205   2.806   1.271   0.241
 3436SOL     OW11206   3.697   5.294   0.301
 3436SOL    HW111207   3.753   5.290   0.384
 3436SOL    HW211208   3.609   5.335   0.324
 3437SOL     OW11209   1.963   6.846   5.912
 3437SOL    HW111210   1.901   6.924   5.919
 3437SOL    HW211211   2.016   6.838   5.996
 3438SOL     OW11212   0.494   4.191   1.240
 3438SOL    HW111213   0.501   4.144   1.152
 3438SOL    HW211214   0.514   4.127   1.314
 3439SOL     OW11215   3.297   6.028   3.903
 3439SOL    HW111216   3.217   5.968   3.907
 3439SOL    HW211217   3.306   6.066   3.812
 3440SOL     OW11218   4.054   3.156   3.338
 3440SOL    HW111219   4.075   3.251   3.314
 3440SOL    HW211220   4.108   3.130   3.418
 3441SOL     OW11221   0.711   6.219   6.631
 3441SOL    HW111222   0.796   6.168   6.645
 3441SOL    HW211223   0.715   6.304   6.684
 3442SOL     OW11224   2.983   3.563   0.711
 3442SOL    HW111225   3.026   3.557   0.621
 3442SOL    HW211226   2.891   3.602   0.701
 3443SOL     OW11227   3.382   5.941   1.984
 3443SOL    HW111228   3.402   5.996   2.065
 3443SOL    HW211229   3.284   5.920   1.982
 3444SOL     OW11230   5.215   5.040   1.645
 3444SOL    HW111231   5.194   4.942   1.647
 3444SOL    HW211232   5.307   5.054   1.609
 3445SOL     OW11233   0.084   5.184   4.055
 3445SOL    HW111234   0.094   5.237   4.139
 3445SOL    HW211235   0.174   5.149   4.027
 3446SOL     OW11236   5.517   0.568   1.286
 3446SOL    HW111237   5.549   0.474   1.294
 3446SOL    HW211238   5.562   0.624   1.356
 3447SOL     OW11239   5.088   0.579   0.338
 3447SOL    HW111240   5.129   0.624   0.417
 3447SOL    HW211241   4.997   0.544   0.362
 3448SOL     OW11242   2.981   6.526   6.292
 3448SOL    HW111243   2.910   6.592   6.269
 3448SOL    HW211244   3.069   6.573   6.302
 3449SOL     OW11245   6.100   5.153   4.846
 3449SOL    HW111246   6.126   5.095   4.923
 3449SOL    HW211247   6.019   5.206   4.870
 3450SOL     OW11248   1.299   1.150   6.703
 3450SOL    HW111249   1.277   1.105   6.789
 3450SOL    HW211250   1.332   1.082   6.637
 3451SOL     OW11251   1.522   5.853   0.408
 3451SOL    HW111252   1.493   5.762   0.381
 3451SOL    HW211253   1.508   5.864   0.507
 3452SOL     OW11254   5.825   0.493   5.663
 3452SOL    HW111255   5.730   0.506   5.636
 3452SOL    HW211256   5.833   0.498   5.762
 3453SOL     OW11257   5.766   5.695   5.923
 3453SOL    HW111258   5.831   5.640   5.870
 3453SOL    HW211259   5.711   5.751   5.860
 3454SOL     OW11260   1.387   3.923   4.603
 3454SOL    HW111261   1.470   3.893   4.651
 3454SOL    HW211262   1.308   3.874   4.640
 3455SOL     OW11263   2.400   1.410   5.072
 3455SOL    HW111264   2.453   1.364   5.001
 3455SOL    HW211265   2.428   1.376   5.162
 3456SOL     OW11266   4.417   4.559   1.919
 3456SOL    HW111267   4.422   4.465   1.951
 3456SOL    HW211268   4.405   4.561   1.820
 3457SOL     OW11269   4.302   4.997   4.601
 3457SOL    HW111270   4.219   5.028   4.555
 3457SOL    HW211271   4.331   4.910   4.561
 3458SOL     OW11272   4.631   1.915   2.240
 3458SOL    HW111273   4.554   1.852   2.251
 3458SOL    HW211274   4.626   1.959   2.151
 3459SOL     OW11275   5.218   1.867   3.458
 3459SOL    HW111276   5.157   1.944   3.473
 3459SOL    HW211277   5.169   1.796   3.407
 3460SOL     OW11278   3.068   1.667   5.797
 3460SOL    HW111279   3.036   1.762   5.794
 3460SOL    HW211280   3.165   1.664   5.774
 3461SOL     OW11281   5.912   4.462   6.776
 3461SOL    HW111282   5.848   4.537   6.792
 3461SOL    HW211283   5.988   4.494   6.720
 3462SOL     OW11284   0.880   3.866   5.503
 3462SOL    HW111285   0.968   3.856   5.550
 3462SOL    HW211286   0.807   3.837   5.564
 3463SOL     OW11287   1.021   4.174   0.913
 3463SOL    HW111288   1.116   4.204   0.923
 3463SOL    HW211289   0.961   4.251   0.934
 3464SOL     OW11290   0.173   4.397   6.374
 3464SOL    HW111291   0.152   4.462   6.447
 3464SOL    HW211292   0.090   4.349   6.348
 3465SOL     OW11293   2.221   1.823   2.032
 3465SOL    HW111294   2.221   1.727   2.005
 3465SOL    HW211295   2.299   1.841   2.092
 3466SOL     OW11296   0.050   5.599   6.375
 3466SOL    HW111297   6.992   5.549   6.401
 3466SOL    HW211298   0.108   5.540   6.319
 3467SOL     OW11299   1.733   1.853   6.730
 3467SOL    HW111300   1.739   1.883   6.635
 3467SOL    HW211301   1.640   1.869   6.764
 3468SOL     OW11302   3.357   5.166   2.861
 3468SOL    HW111303   3.329   5.201   2.771
 3468SOL    HW211304   3.350   5.067   2.861
 3469SOL     OW11305   6.361   1.790   4.087
 3469SOL    HW111306   6.428   1.851   4.044
 3469SOL    HW211307   6.275   1.795   4.037
 3470SOL     OW11308   0.105   5.119   1.120
 3470SOL    HW111309   0.144   5.166   1.199
 3470SOL    HW211310   0.128   5.170   1.037
 3471SOL     OW11311   4.690   5.345   4.677
 3471SOL    HW111312   4.735   5.274   4.624
 3471SOL    HW211313   4.728   5.434   4.653
 3472SOL     OW11314   2.693   0.710   3.704
 3472SOL    HW111315   2.790   0.688   3.695
 3472SOL    HW211316   2.675   0.801   3.666
 3473SOL     OW11317   5.500   1.317   6.117
 3473SOL    HW111318   5.599   1.309   6.134
 3473SOL    HW211319   5.480   1.408   6.081
 3474SOL     OW11320   2.675   5.080   1.545
 3474SOL    HW111321   2.728   5.154   1.588
 3474SOL    HW211322   2.664   5.098   1.448
 3475SOL     OW11323   1.375   6.451   4.222
 3475SOL    HW111324   1.288   6.452   4.270
 3475SOL    HW211325   1.449   6.433   4.287
 3476SOL     OW11326   3.817   0.326   4.292
 3476SOL    HW111327   3.797   0.421   4.312
 3476SOL    HW211328   3.732   0.273   4.291
 3477SOL     OW11329   2.991   5.560   1.539
 3477SOL    HW111330   3.046   5.626   1.589
 3477SOL    HW211331   2.897   5.561   1.575
 3478SOL     OW11332   2.815   6.059   5.903
 3478SOL    HW111333   2.731   6.086   5.949
 3478SOL    HW211334   2.893   6.104   5.946
 3479SOL     OW11335   0.683   6.850   3.130
 3479SOL    HW111336   0.779   6.878   3.127
 3479SOL    HW211337   0.634   6.891   3.054
 3480SOL     OW11338   6.512   1.134   4.120
 3480SOL    HW111339   6.462   1.081   4.052
 3480SOL    HW211340   6.592   1.176   4.078
 3481SOL     OW11341   4.518   6.584   6.723
 3481SOL    HW111342   4.591   6.518   6.708
 3481SOL    HW211343   4.555   6.677   6.721
 3482SOL     OW11344   5.512   1.598   1.097
 3482SOL    HW111345   5.530   1.525   1.032
 3482SOL    HW211346   5.430   1.648   1.069
 3483SOL     OW11347   3.266   0.503   0.648
 3483SOL    HW111348   3.356   0.488   0.606
 3483SOL    HW211349   3.248   0.431   0.714
 3484SOL     OW11350   3.025   3.201   2.469
 3484SOL    HW111351   2.982   3.172   2.383
 3484SOL    HW211352   3.080   3.127   2.506
 3485SOL     OW11353   1.471   0.822   5.119
 3485SOL    HW111354   1.554   0.807   5.172
 3485SOL    HW211355   1.432   0.911   5.145
 3486SOL     OW11356   3.885   1.298   2.113
 3486SOL    HW111357   3.893   1.373   2.179
 3486SOL    HW211358   3.789   1.283   2.091
 3487SOL     OW11359   5.576   1.595   6.596
 3487SOL    HW111360   5.668   1.628   6.574
 3487SOL    HW211361   5.529   1.568   6.512
 3488SOL     OW11362   5.872   3.132   4.335
 3488SOL    HW111363   5.855   3.146   4.432
 3488SOL    HW211364   5.970   3.140   4.316
 3489SOL     OW11365   3.357   6.769   0.459
 3489SOL    HW111366   3.402   6.797   0.374
 3489SOL    HW211367   3.358   6.846   0.524
 3490SOL     OW11368   4.556   4.579   0.169
 3490SOL    HW111369   4.491   4.505   0.185
 3490SOL    HW211370   4.615   4.591   0.248
 3491SOL     OW11371   6.796   2.898   6.061
 3491SOL    HW111372   6.874   2.959   6.079
 3491SOL    HW211373   6.713   2.953   6.058
 3492SOL     OW11374   0.875   5.616   0.683
 3492SOL    HW111375   0.843   5.528   0.720
 3492SOL    HW211376   0.951   5.599   0.619
 3493SOL     OW11377   6.489   4.919   6.746
 3493SOL    HW111378   6.486   4.967   6.659
 3493SOL    HW211379   6.469   4.983   6.820
 3494SOL     OW11380   4.469   6.859   0.603
 3494SOL    HW111381   4.412   6.926   0.555
 3494SOL    HW211382   4.431   6.842   0.694
 3495SOL     OW11383   4.412   4.575   2.701
 3495SOL    HW111384   4.484   4.550   2.636
 3495SOL    HW211385   4.333   4.515   2.689
 3496SOL     OW11386   0.918   3.204   1.159
 3496SOL    HW111387   0.931   3.295   1.120
 3496SOL    HW211388   0.989   3.186   1.226
 3497SOL     OW11389   4.015   0.646   2.784
 3497SOL    HW111390   3.932   0.665   2.835
 3497SOL    HW211391   4.019   0.704   2.703
 3498SOL     OW11392   3.382   1.876   0.831
 3498SOL    HW111393   3.375   1.791   0.779
 3498SOL    HW211394   3.340   1.951   0.778
 3499SOL     OW11395   6.038   3.226   4.787
 3499SOL    HW111396   6.080   3.315   4.768
 3499SOL    HW211397   6.000   3.226   4.879
 3500SOL     OW11398   6.549   4.398   6.332
 3500SOL    HW111399   6.526   4.496   6.331
 3500SOL    HW211400   6.626   4.382   6.271
 3501SOL     OW11401   0.155   5.089   4.913
 3501SOL    HW111402   0.088   5.083   4.987
 3501SOL    HW211403   0.176   4.997   4.880
 3502SOL     OW11404   0.523   2.252   1.973
 3502SOL    HW111405   0.546   2.191   1.897
 3502SOL    HW211406   0.467   2.327   1.939
 3503SOL     OW11407   5.018   5.714   5.198
 3503SOL    HW111408   5.021   5.760   5.286
 3503SOL    HW211409   5.094   5.744   5.141
 3504SOL     OW11410   2.620   2.840   1.406
 3504SOL    HW111411   2.640   2.814   1.311
 3504SOL    HW211412   2.689   2.801   1.466
 3505SOL     OW11413   5.208   5.269   4.952
 3505SOL    HW111414   5.183   5.342   5.016
 3505SOL    HW211415   5.132   5.205   4.943
 3506SOL     OW11416   4.128   5.449   4.682
 3506SOL    HW111417   4.068   5.412   4.752
 3506SOL    HW211418   4.222   5.418   4.699
 3507SOL     OW11419   1.500   0.612   6.808
 3507SOL    HW111420   1.507   0.709   6.783
 3507SOL    HW211421   1.581   0.585   6.859
 3508SOL     OW11422   4.424   2.210   6.305
 3508SOL    HW111423   4.373   2.159   6.375
 3508SOL    HW211424   4.483   2.147   6.255
 3509SOL     OW11425   5.602   5.916   6.727
 3509SOL    HW111426   5.662   5.939   6.650
 3509SOL    HW211427   5.657   5.879   6.802
 3510SOL     OW11428   1.483   2.670   1.970
 3510SOL    HW111429   1.383   2.667   1.979
 3510SOL    HW211430   1.523   2.597   2.025
 3511SOL     OW11431   1.522   3.520   6.663
 3511SOL    HW111432   1.492   3.428   6.637
 3511SOL    HW211433   1.572   3.561   6.588
 3512SOL     OW11434   0.925   4.402   0.484
 3512SOL    HW111435   0.950   4.389   0.388
 3512SOL    HW211436   1.008   4.407   0.539
 3513SOL     OW11437   5.968   4.507   0.602
 3513SOL    HW111438   5.927   4.579   0.658
 3513SOL    HW211439   5.920   4.501   0.514
 3514SOL     OW11440   0.528   0.332   1.580
 3514SOL    HW111441   0.469   0.291   1.650
 3514SOL    HW211442   0.560   0.421   1.611
 3515SOL     OW11443   3.272   6.160   2.510
 3515SOL    HW111444   3.298   6.219   2.587
 3515SOL    HW211445   3.260   6.066   2.543
 3516SOL     OW11446   3.748   0.760   0.889
 3516SOL    HW111447   3.699   0.828   0.945
 3516SOL    HW211448   3.683   0.711   0.832
 3517SOL     OW11449   0.619   1.389   0.379
 3517SOL    HW111450   0.567   1.360   0.299
 3517SOL    HW211451   0.705   1.338   0.384
 3518SOL     OW11452   4.865   3.958   5.735
 3518SOL    HW111453   4.885   4.046   5.691
 3518SOL    HW211454   4.767   3.951   5.751
 3519SOL     OW11455   1.102   0.628   6.501
 3519SOL    HW111456   1.016   0.577   6.495
 3519SOL    HW211457   1.148   0.605   6.588
 3520SOL     OW11458   3.542   4.672   1.446
 3520SOL    HW111459   3.554   4.696   1.350
 3520SOL    HW211460   3.595   4.734   1.503
 3521SOL     OW11461   5.654   2.854   1.252
 3521SOL    HW111462   5.695   2.923   1.191
 3521SOL    HW211463   5.725   2.791   1.282
 3522SOL     OW11464   3.148   5.283   2.071
 3522SOL    HW111465   3.166   5.322   1.981
 3522SOL    HW211466   3.233   5.248   2.110
 3523SOL     OW11467   3.090   4.663   5.294
 3523SOL    HW111468   3.018   4.597   5.270
 3523SOL    HW211469   3.179   4.617   5.289
 3524SOL     OW11470   2.787   0.979   1.139
 3524SOL    HW111471   2.722   1.037   1.187
 3524SOL    HW211472   2.875   1.026   1.131
 3525SOL     OW11473   0.761   3.220   2.097
 3525SOL    HW111474   0.826   3.163   2.147
 3525SOL    HW211475   0.806   3.256   2.015
 3526SOL     OW11476   1.481   0.540   4.188
 3526SOL    HW111477   1.385   0.522   4.168
 3526SOL    HW211478   1.508   0.627   4.145
 3527SOL     OW11479   5.047   2.813   5.726
 3527SOL    HW111480   5.087   2.738   5.777
 3527SOL    HW211481   5.085   2.815   5.633
 3528SOL     OW11482   0.722   6.409   3.503
 3528SOL    HW111483   0.762   6.483   3.557
 3528SOL    HW211484   0.731   6.431   3.405
 3529SOL     OW11485   4.033   6.810   5.541
 3529SOL    HW111486   3.972   6.778   5.613
 3529SOL    HW211487   4.026   6.748   5.462
 3530SOL     OW11488   2.368   5.842   3.084
 3530SOL    HW111489   2.318   5.775   3.030
 3530SOL    HW211490   2.418   5.796   3.157
 3531SOL     OW11491   5.876   3.866   0.288
 3531SOL    HW111492   5.915   3.931   0.222
 3531SOL    HW211493   5.780   3.888   0.304
 3532SOL     OW11494   2.750   0.545   6.978
 3532SOL    HW111495   2.719   0.570   0.046
 3532SOL    HW211496   2.698   0.466   6.946
 3533SOL     OW11497   1.164   2.234   3.493
 3533SOL    HW111498   1.207   2.223   3.583
 3533SOL    HW211499   1.115   2.150   3.469
 3534SOL     OW11500   5.802   1.717   5.453
 3534SOL    HW111501   5.737   1.743   5.525
 3534SOL    HW211502   5.759   1.726   5.364
 3535SOL     OW11503   6.924   6.182   0.170
 3535SOL    HW111504   7.011   6.227   0.150
 3535SOL    HW211505   6.893   6.131   0.089
 3536SOL     OW11506   1.631   3.495   3.251
 3536SOL    HW111507   1.574   3.436   3.193
 3536SOL    HW211508   1.575   3.532   3.325
 3537SOL     OW11509   2.268   4.779   0.619
 3537SOL    HW111510   2.294   4.839   0.543
 3537SOL    HW211511   2.168   4.772   0.623
 3538SOL     OW11512   3.402   0.815   4.152
 3538SOL    HW111513   3.314   0.860   4.160
 3538SOL    HW211514   3.475   0.883   4.158
 3539SOL     OW11515   6.319   3.289   5.512
 3539SOL    HW111516   6.396   3.272   5.573
 3539SOL    HW211517   6.350   3.291   5.418
 3540SOL     OW11518   2.164   3.332   6.729
 3540SOL    HW111519   2.081   3.287   6.696
 3540SOL    HW211520   2.237   3.264   6.739
 3541SOL     OW11521   2.699   2.809   0.435
 3541SOL    HW111522   2.668   2.859   0.516
 3541SOL    HW211523   2.760   2.867   0.382
 3542SOL     OW11524   5.668   2.332   0.210
 3542SOL    HW111525   5.681   2.431   0.205
 3542SOL    HW211526   5.570   2.311   0.203
 3543SOL     OW11527   1.156   3.476   3.128
 3543SOL    HW111528   1.149   3.568   3.087
 3543SOL    HW211529   1.072   3.425   3.110
 3544SOL     OW11530   3.171   4.339   0.230
 3544SOL    HW111531   3.089   4.314   0.281
 3544SOL    HW211532   3.160   4.311   0.134
 3545SOL     OW11533   3.974   5.259   0.406
 3545SOL    HW111534   3.966   5.209   0.492
 3545SOL    HW211535   4.069   5.260   0.376
 3546SOL     OW11536   6.402   4.405   3.220
 3546SOL    HW111537   6.311   4.443   3.204
 3546SOL    HW211538   6.458   4.473   3.268
 3547SOL     OW11539   6.835   3.281   4.374
 3547SOL    HW111540   6.777   3.302   4.295
 3547SOL    HW211541   6.804   3.335   4.452
 3548SOL     OW11542   5.010   1.007   5.880
 3548SOL    HW111543   5.083   1.064   5.842
 3548SOL    HW211544   4.947   1.064   5.933
 3549SOL     OW11545   2.156   5.231   6.573
 3549SOL    HW111546   2.224   5.194   6.636
 3549SOL    HW211547   2.143   5.328   6.590
 3550SOL     OW11548   5.745   2.332   5.237
 3550SOL    HW111549   5.759   2.428   5.213
 3550SOL    HW211550   5.648   2.309   5.227
 3551SOL     OW11551   3.188   1.794   4.960
 3551SOL    HW111552   3.170   1.746   5.045
 3551SOL    HW211553   3.232   1.882   4.980
 3552SOL     OW11554   6.492   5.589   1.894
 3552SOL    HW111555   6.538   5.501   1.905
 3552SOL    HW211556   6.431   5.604   1.972
 3553SOL     OW11557   3.255   5.897   6.248
 3553SOL    HW111558   3.223   5.806   6.272
 3553SOL    HW211559   3.183   5.964   6.268
 3554SOL     OW11560   3.785   3.930   0.837
 3554SOL    HW111561   3.723   3.979   0.776
 3554SOL    HW211562   3.878   3.965   0.825
 3555SOL     OW11563   2.168   2.425   4.320
 3555SOL    HW111564   2.191   2.517   4.286
 3555SOL    HW211565   2.216   2.357   4.264
 3556SOL     OW11566   3.861   0.975   4.566
 3556SOL    HW111567   3.831   1.041   4.635
 3556SOL    HW211568   3.939   0.924   4.601
 3557SOL     OW11569   0.558   7.018   2.568
 3557SOL    HW111570   0.570   6.985   2.661
 3557SOL    HW211571   0.471   0.043   2.560
 3558SOL     OW11572   2.668   5.873   0.745
 3558SOL    HW111573   2.766   5.854   0.740
 3558SOL    HW211574   2.631   5.831   0.828
 3559SOL     OW11575   2.742   0.198   5.003
 3559SOL    HW111576   2.695   0.283   5.028
 3559SOL    HW211577   2.679   0.121   5.014
 3560SOL     OW11578   1.651   4.840   4.075
 3560SOL    HW111579   1.646   4.906   4.150
 3560SOL    HW211580   1.709   4.763   4.103
 3561SOL     OW11581   5.814   4.554   5.598
 3561SOL    HW111582   5.877   4.482   5.627
 3561SOL    HW211583   5.720   4.526   5.618
 3562SOL     OW11584   3.470   1.521   4.173
 3562SOL    HW111585   3.385   1.476   4.146
 3562SOL    HW211586   3.534   1.454   4.208
 3563SOL     OW11587   5.791   2.120   6.374
 3563SOL    HW111588   5.889   2.117   6.390
 3563SOL    HW211589   5.773   2.160   6.284
 3564SOL     OW11590   0.518   4.889   2.709
 3564SOL    HW111591   0.536   4.911   2.805
 3564SOL    HW211592   0.478   4.969   2.664
 3565SOL     OW11593   3.666   5.041   2.804
 3565SOL    HW111594   3.726   5.068   2.729
 3565SOL    HW211595   3.717   4.986   2.870
 3566SOL     OW11596   6.873   1.139   5.455
 3566SOL    HW111597   6.790   1.172   5.499
 3566SOL    HW211598   6.851   1.108   5.363
 3567SOL     OW11599   0.459   2.849   6.302
 3567SOL    HW111600   0.456   2.922   6.370
 3567SOL    HW211601   0.465   2.888   6.211
 3568SOL     OW11602   6.649   4.086   5.762
 3568SOL    HW111603   6.579   4.065   5.693
 3568SOL    HW211604   6.655   4.011   5.827
 3569SOL     OW11605   2.300   2.005   5.348
 3569SOL    HW111606   2.227   2.002   5.280
 3569SOL    HW211607   2.333   1.912   5.364
 3570SOL     OW11608   4.767   0.288   5.871
 3570SOL    HW111609   4.734   0.196   5.893
 3570SOL    HW211610   4.773   0.342   5.955
 3571SOL     OW11611   0.249   5.527   0.045
 3571SOL    HW111612   0.231   5.488   0.136
 3571SOL    HW211613   0.162   5.543   7.022
 3572SOL     OW11614   5.623   3.834   3.901
 3572SOL    HW111615   5.694   3.790   3.845
 3572SOL    HW211616   5.633   3.803   3.996
 3573SOL     OW11617   0.544   4.405   4.111
 3573SOL    HW111618   0.636   4.424   4.147
 3573SOL    HW211619   0.533   4.307   4.096
 3574SOL     OW11620   0.479   4.731   7.006
 3574SOL    HW111621   0.565   4.757   6.962
 3574SOL    HW211622   0.434   4.661   6.952
 3575SOL     OW11623   5.505   5.019   3.529
 3575SOL    HW111624   5.599   5.049   3.512
 3575SOL    HW211625   5.484   5.029   3.626
 3576SOL     OW11626   1.866   1.745   5.837
 3576SOL    HW111627   1.917   1.828   5.815
 3576SOL    HW211628   1.807   1.721   5.760
 3577SOL     OW11629   1.660   2.396   6.696
 3577SOL    HW111630   1.749   2.440   6.683
 3577SOL    HW211631   1.674   2.304   6.732
 3578SOL     OW11632   3.671   3.422   6.788
 3578SOL    HW111633   3.673   3.510   6.835
 3578SOL    HW211634   3.670   3.348   6.855
 3579SOL     OW11635   0.142   3.822   4.511
 3579SOL    HW111636   0.045   3.817   4.486
 3579SOL    HW211637   0.194   3.758   4.453
 3580SOL     OW11638   6.044   1.801   1.462
 3580SOL    HW111639   5.963   1.796   1.521
 3580SOL    HW211640   6.094   1.715   1.468
 3581SOL     OW11641   6.434   0.697   3.788
 3581SOL    HW111642   6.493   0.618   3.767
 3581SOL    HW211643   6.339   0.666   3.798
 3582SOL     OW11644   0.686   2.453   6.280
 3582SOL    HW111645   0.773   2.439   6.233
 3582SOL    HW211646   0.677   2.548   6.309
 3583SOL     OW11647   0.783   4.039   6.784
 3583SOL    HW111648   0.746   3.989   6.706
 3583SOL    HW211649   0.753   3.994   6.869
 3584SOL     OW11650   6.091   6.091   6.550
 3584SOL    HW111651   6.122   6.078   6.456
 3584SOL    HW211652   6.081   6.002   6.595
 3585SOL     OW11653   3.619   5.425   5.410
 3585SOL    HW111654   3.611   5.380   5.499
 3585SOL    HW211655   3.669   5.511   5.420
 3586SOL     OW11656   6.723   2.268   5.399
 3586SOL    HW111657   6.680   2.333   5.338
 3586SOL    HW211658   6.661   2.192   5.418
 3587SOL     OW11659   2.595   5.442   0.174
 3587SOL    HW111660   2.684   5.443   0.218
 3587SOL    HW211661   2.593   5.373   0.102
 3588SOL     OW11662   0.946   3.109   5.771
 3588SOL    HW111663   0.959   3.047   5.848
 3588SOL    HW211664   0.985   3.068   5.688
 3589SOL     OW11665   3.875   1.163   3.865
 3589SOL    HW111666   3.826   1.237   3.818
 3589SOL    HW211667   3.930   1.202   3.939
 3590SOL     OW11668   6.926   4.367   6.348
 3590SOL    HW111669   6.897   4.281   6.391
 3590SOL    HW211670   6.850   4.406   6.298
 3591SOL     OW11671   4.923   3.455   6.547
 3591SOL    HW111672   4.888   3.548   6.564
 3591SOL    HW211673   4.876   3.417   6.467
 3592SOL     OW11674   5.414   3.899   3.120
 3592SOL    HW111675   5.467   3.983   3.106
 3592SOL    HW211676   5.431   3.863   3.211
 3593SOL     OW11677   2.144   6.183   4.396
 3593SOL    HW111678   2.088   6.116   4.445
 3593SOL    HW211679   2.228   6.202   4.448
 3594SOL     OW11680   3.793   0.744   2.386
 3594SOL    HW111681   3.756   0.832   2.357
 3594SOL    HW211682   3.871   0.759   2.447
 3595SOL     OW11683   1.832   6.218   6.618
 3595SOL    HW111684   1.920   6.182   6.650
 3595SOL    HW211685   1.786   6.148   6.563
 3596SOL     OW11686   6.664   1.928   2.932
 3596SOL    HW111687   6.688   1.835   2.903
 3596SOL    HW211688   6.566   1.933   2.951
 3597SOL     OW11689   2.786   6.641   5.161
 3597SOL    HW111690   2.758   6.563   5.105
 3597SOL    HW211691   2.729   6.645   5.244
 3598SOL     OW11692   1.249   0.319   5.824
 3598SOL    HW111693   1.202   0.302   5.910
 3598SOL    HW211694   1.256   0.233   5.773
 3599SOL     OW11695   0.730   2.035   5.574
 3599SOL    HW111696   0.684   2.121   5.551
 3599SOL    HW211697   0.828   2.044   5.557
 3600SOL     OW11698   0.302   3.367   0.984
 3600SOL    HW111699   0.284   3.282   1.035
 3600SOL    HW211700   0.259   3.361   0.894
 3601SOL     OW11701   6.511   4.054   0.238
 3601SOL    HW111702   6.469   3.968   0.267
 3601SOL    HW211703   6.509   4.119   0.314
 3602SOL     OW11704   1.804   1.167   1.177
 3602SOL    HW111705   1.880   1.147   1.115
 3602SOL    HW211706   1.833   1.234   1.245
 3603SOL     OW11707   3.398   6.582   4.024
 3603SOL    HW111708   3.438   6.674   4.025
 3603SOL    HW211709   3.369   6.558   4.117
 3604SOL     OW11710   6.262   4.825   3.804
 3604SOL    HW111711   6.228   4.872   3.886
 3604SOL    HW211712   6.313   4.743   3.832
 3605SOL     OW11713   6.253   4.712   5.887
 3605SOL    HW111714   6.169   4.671   5.923
 3605SOL    HW211715   6.237   4.809   5.869
 3606SOL     OW11716   6.459   5.135   5.560
 3606SOL    HW111717   6.558   5.148   5.558
 3606SOL    HW211718   6.413   5.224   5.560
 3607SOL     OW11719   5.158   6.688   0.824
 3607SOL    HW111720   5.221   6.703   0.900
 3607SOL    HW211721   5.103   6.607   0.841
 3608SOL     OW11722   6.959   1.764   1.904
 3608SOL    HW111723   6.931   1.734   1.812
 3608SOL    HW211724   6.960   1.686   1.965
 3609SOL     OW11725   0.187   0.382   4.162
 3609SOL    HW111726   0.180   0.441   4.081
 3609SOL    HW211727   0.100   0.335   4.176
 3610SOL     OW11728   0.416   0.255   5.717
 3610SOL    HW111729   0.366   0.287   5.636
 3610SOL    HW211730   0.514   0.270   5.704
 3611SOL     OW11731   3.827   5.251   5.303
 3611SOL    HW111732   3.789   5.297   5.383
 3611SOL    HW211733   3.809   5.153   5.309
 3612SOL     OW11734   6.370   0.200   5.646
 3612SOL    HW111735   6.281   0.159   5.667
 3612SOL    HW211736   6.422   0.211   5.730
 3613SOL     OW11737   5.662   5.365   1.313
 3613SOL    HW111738   5.672   5.353   1.214
 3613SOL    HW211739   5.722   5.301   1.361
 3614SOL     OW11740   3.429   3.377   3.278
 3614SOL    HW111741   3.410   3.402   3.373
 3614SOL    HW211742   3.372   3.432   3.217
 3615SOL     OW11743   5.871   6.178   5.989
 3615SOL    HW111744   5.896   6.094   6.036
 3615SOL    HW211745   5.835   6.244   6.055
 3616SOL     OW11746   7.020   1.591   6.479
 3616SOL    HW111747   0.043   1.679   6.479
 3616SOL    HW211748   6.962   1.585   6.560
 3617SOL     OW11749   5.504   1.204   6.786
 3617SOL    HW111750   5.459   1.251   6.862
 3617SOL    HW211751   5.577   1.261   6.749
 3618SOL     OW11752   1.983   2.110   5.520
 3618SOL    HW111753   2.007   2.164   5.439
 3618SOL    HW211754   1.992   2.013   5.499
 3619SOL     OW11755   5.894   2.455   3.904
 3619SOL    HW111756   5.834   2.375   3.901
 3619SOL    HW211757   5.868   2.519   3.832
 3620SOL     OW11758   5.914   5.617   5.724
 3620SOL    HW111759   5.977   5.576   5.791
 3620SOL    HW211760   5.954   5.700   5.687
 3621SOL     OW11761   2.991   1.923   5.851
 3621SOL    HW111762   3.014   2.018   5.874
 3621SOL    HW211763   2.894   1.908   5.868
 3622SOL     OW11764   2.673   1.827   3.097
 3622SOL    HW111765   2.673   1.889   3.018
 3622SOL    HW211766   2.760   1.777   3.099
 3623SOL     OW11767   5.671   6.261   3.957
 3623SOL    HW111768   5.736   6.197   3.916
 3623SOL    HW211769   5.655   6.337   3.894
 3624SOL     OW11770   2.205   0.308   2.341
 3624SOL    HW111771   2.143   0.282   2.415
 3624SOL    HW211772   2.160   0.376   2.283
 3625SOL     OW11773   6.075   3.082   6.940
 3625SOL    HW111774   5.979   3.065   6.963
 3625SOL    HW211775   6.132   3.061   7.019
 3626SOL     OW11776   1.648   3.624   5.408
 3626SOL    HW111777   1.694   3.680   5.339
 3626SOL    HW211778   1.706   3.547   5.434
 3627SOL     OW11779   3.830   2.971   3.751
 3627SOL    HW111780   3.829   3.043   3.681
 3627SOL    HW211781   3.884   2.893   3.719
 3628SOL     OW11782   2.269   6.912   1.571
 3628SOL    HW111783   2.292   6.945   1.479
 3628SOL    HW211784   2.316   6.825   1.587
 3629SOL     OW11785   6.441   2.095   4.071
 3629SOL    HW111786   6.389   2.145   4.002
 3629SOL    HW211787   6.378   2.059   4.140
 3630SOL     OW11788   5.481   2.960   3.372
 3630SOL    HW111789   5.422   2.908   3.311
 3630SOL    HW211790   5.549   2.899   3.414
 3631SOL     OW11791   2.015   6.830   4.058
 3631SOL    HW111792   1.921   6.837   4.090
 3631SOL    HW211793   2.066   6.912   4.086
 3632SOL     OW11794   5.343   0.462   0.772
 3632SOL    HW111795   5.404   0.503   0.704
 3632SOL    HW211796   5.397   0.411   0.839
 3633SOL     OW11797   3.168   1.352   5.793
 3633SOL    HW111798   3.152   1.447   5.817
 3633SOL    HW211799   3.264   1.329   5.811
 3634SOL     OW11800   0.191   5.115   5.542
 3634SOL    HW111801   0.197   5.086   5.638
 3634SOL    HW211802   0.243   5.053   5.485
 3635SOL     OW11803   2.505   0.120   6.101
 3635SOL    HW111804   2.474   0.031   6.134
 3635SOL    HW211805   2.455   0.192   6.149
 3636SOL     OW11806   0.905   5.999   6.730
 3636SOL    HW111807   0.878   5.943   6.808
 3636SOL    HW211808   0.936   5.940   6.656
 3637SOL     OW11809   6.571   2.202   1.332
 3637SOL    HW111810   6.581   2.188   1.234
 3637SOL    HW211811   6.545   2.296   1.350
 3638SOL     OW11812   0.155   4.557   4.081
 3638SOL    HW111813   0.065   4.560   4.037
 3638SOL    HW211814   0.187   4.462   4.085
 3639SOL     OW11815   3.995   3.586   0.637
 3639SOL    HW111816   4.066   3.522   0.607
 3639SOL    HW211817   3.936   3.541   0.704
 3640SOL     OW11818   3.564   0.079   6.707
 3640SOL    HW111819   3.576   0.128   6.794
 3640SOL    HW211820   3.566   7.005   6.724
 3641SOL     OW11821   4.833   2.877   4.066
 3641SOL    HW111822   4.801   2.818   3.992
 3641SOL    HW211823   4.922   2.844   4.098
 3642SOL     OW11824   5.026   0.845   0.218
 3642SOL    HW111825   5.077   0.759   0.209
 3642SOL    HW211826   5.017   0.887   0.127
 3643SOL     OW11827   2.963   5.729   4.849
 3643SOL    HW111828   2.974   5.648   4.908
 3643SOL    HW211829   3.045   5.740   4.792
 3644SOL     OW11830   6.932   1.202   1.494
 3644SOL    HW111831   6.991   1.127   1.525
 3644SOL    HW211832   6.926   1.270   1.566
 3645SOL     OW11833   6.663   1.479   3.830
 3645SOL    HW111834   6.646   1.444   3.922
 3645SOL    HW211835   6.586   1.535   3.800
 3646SOL     OW11836   6.562   4.370   6.615
 3646SOL    HW111837   6.561   4.273   6.639
 3646SOL    HW211838   6.566   4.381   6.516
 3647SOL     OW11839   2.258   3.512   0.265
 3647SOL    HW111840   2.182   3.504   0.201
 3647SOL    HW211841   2.281   3.608   0.277
 3648SOL     OW11842   3.188   5.166   3.111
 3648SOL    HW111843   3.201   5.225   3.032
 3648SOL    HW211844   3.229   5.077   3.093
 3649SOL     OW11845   4.748   3.120   1.655
 3649SOL    HW111846   4.691   3.088   1.731
 3649SOL    HW211847   4.808   3.193   1.687
 3650SOL     OW11848   6.943   4.895   0.420
 3650SOL    HW111849   6.950   4.938   0.330
 3650SOL    HW211850   6.884   4.814   0.414
 3651SOL     OW11851   0.500   6.208   3.437
 3651SOL    HW111852   0.426   6.199   3.505
 3651SOL    HW211853   0.569   6.271   3.472
 3652SOL     OW11854   5.898   6.354   3.122
 3652SOL    HW111855   5.966   6.305   3.068
 3652SOL    HW211856   5.829   6.394   3.061
 3653SOL     OW11857   0.121   0.710   3.597
 3653SOL    HW111858   0.092   0.782   3.533
 3653SOL    HW211859   0.073   0.722   3.683
 3654SOL     OW11860   2.304   6.217   0.371
 3654SOL    HW111861   2.360   6.134   0.374
 3654SOL    HW211862   2.296   6.255   0.463
 3655SOL     OW11863   1.599   0.032   3.422
 3655SOL    HW111864   1.605   0.052   3.520
 3655SOL    HW211865   1.685   0.059   3.378
 3656SOL     OW11866   1.354   3.468   2.204
 3656SOL    HW111867   1.373   3.555   2.249
 3656SOL    HW211868   1.345   3.482   2.106
 3657SOL     OW11869   5.403   5.722   6.334
 3657SOL    HW111870   5.366   5.652   6.273
 3657SOL    HW211871   5.353   5.807   6.323
 3658SOL     OW11872   1.773   6.058   3.587
 3658SOL    HW111873   1.795   6.003   3.668
 3658SOL    HW211874   1.835   6.136   3.583
 3659SOL     OW11875   2.420   3.119   6.045
 3659SOL    HW111876   2.400   3.217   6.037
 3659SOL    HW211877   2.517   3.107   6.067
 3660SOL     OW11878   4.797   0.052   3.033
 3660SOL    HW111879   4.853   0.069   3.114
 3660SOL    HW211880   4.743   0.134   3.013
 3661SOL     OW11881   4.840   1.333   5.641
 3661SOL    HW111882   4.925   1.326   5.588
 3661SOL    HW211883   4.852   1.401   5.713
 3662SOL     OW11884   4.432   0.744   3.291
 3662SOL    HW111885   4.359   0.800   3.251
 3662SOL    HW211886   4.395   0.655   3.316
 3663SOL     OW11887   2.062   1.853   0.528
 3663SOL    HW111888   2.086   1.886   0.620
 3663SOL    HW211889   2.142   1.859   0.469
 3664SOL     OW11890   4.663   2.051   1.410
 3664SOL    HW111891   4.723   2.125   1.441
 3664SOL    HW211892   4.645   1.989   1.486
 3665SOL     OW11893   1.312   6.255   5.633
 3665SOL    HW111894   1.249   6.183   5.660
 3665SOL    HW211895   1.351   6.298   5.714
 3666SOL     OW11896   1.924   3.776   3.096
 3666SOL    HW111897   1.825   3.763   3.091
 3666SOL    HW211898   1.944   3.871   3.118
 3667SOL     OW11899   6.960   0.803   0.773
 3667SOL    HW111900   6.881   0.854   0.808
 3667SOL    HW211901   0.007   0.800   0.844
 3668SOL     OW11902   1.706   0.912   2.270
 3668SOL    HW111903   1.772   0.906   2.195
 3668SOL    HW211904   1.689   1.008   2.291
 3669SOL     OW11905   6.006   1.285   3.668
 3669SOL    HW111906   5.921   1.337   3.676
 3669SOL    HW211907   6.004   1.232   3.583
 3670SOL     OW11908   2.078   4.251   0.365
 3670SOL    HW111909   2.007   4.276   0.431
 3670SOL    HW211910   2.159   4.307   0.381
 3671SOL     OW11911   6.260   0.280   3.955
 3671SOL    HW111912   6.187   0.245   4.013
 3671SOL    HW211913   6.322   0.205   3.931
 3672SOL     OW11914   5.382   2.474   1.358
 3672SOL    HW111915   5.403   2.434   1.447
 3672SOL    HW211916   5.373   2.573   1.367
 3673SOL     OW11917   3.772   7.024   6.207
 3673SOL    HW111918   3.869   0.007   6.183
 3673SOL    HW211919   3.717   0.011   6.124
 3674SOL     OW11920   0.239   6.837   5.170
 3674SOL    HW111921   0.203   6.924   5.136
 3674SOL    HW211922   0.197   6.816   5.259
 3675SOL     OW11923   1.604   3.133   5.242
 3675SOL    HW111924   1.576   3.122   5.337
 3675SOL    HW211925   1.540   3.193   5.194
 3676SOL     OW11926   4.888   4.550   4.602
 3676SOL    HW111927   4.876   4.611   4.680
 3676SOL    HW211928   4.973   4.498   4.613
 3677SOL     OW11929   1.721   6.347   3.280
 3677SOL    HW111930   1.812   6.358   3.238
 3677SOL    HW211931   1.731   6.338   3.379
 3678SOL     OW11932   1.013   3.721   4.290
 3678SOL    HW111933   0.933   3.721   4.350
 3678SOL    HW211934   0.986   3.744   4.197
 3679SOL     OW11935   1.956   0.241   3.187
 3679SOL    HW111936   2.037   0.283   3.145
 3679SOL    HW211937   1.906   0.189   3.117
 3680SOL     OW11938   5.697   2.207   3.097
 3680SOL    HW111939   5.714   2.302   3.069
 3680SOL    HW211940   5.771   2.177   3.157
 3681SOL     OW11941   0.799   0.567   5.208
 3681SOL    HW111942   0.862   0.589   5.133
 3681SOL    HW211943   0.849   0.569   5.295
 3682SOL     OW11944   5.074   2.222   7.015
 3682SOL    HW111945   5.131   2.140   7.000
 3682SOL    HW211946   4.987   2.211   6.966
 3683SOL     OW11947   6.853   6.708   3.216
 3683SOL    HW111948   6.862   6.749   3.125
 3683SOL    HW211949   6.759   6.716   3.247
 3684SOL     OW11950   1.291   4.273   7.017
 3684SOL    HW111951   1.355   4.328   6.964
 3684SOL    HW211952   1.322   4.269   0.088
 3685SOL     OW11953   6.733   6.555   6.340
 3685SOL    HW111954   6.703   6.646   6.368
 3685SOL    HW211955   6.776   6.509   6.417
 3686SOL     OW11956   6.231   6.162   3.233
 3686SOL    HW111957   6.261   6.245   3.281
 3686SOL    HW211958   6.171   6.189   3.157
 3687SOL     OW11959   3.789   6.143   5.670
 3687SOL    HW111960   3.883   6.116   5.692
 3687SOL    HW211961   3.772   6.129   5.572
 3688SOL     OW11962   0.183   2.954   6.493
 3688SOL    HW111963   0.282   2.970   6.487
 3688SOL    HW211964   0.145   2.950   6.401
 3689SOL     OW11965   2.003   0.740   6.947
 3689SOL    HW111966   1.984   0.673   7.018
 3689SOL    HW211967   1.918   0.761   6.897
 3690SOL     OW11968   4.363   6.853   6.554
 3690SOL    HW111969   4.404   6.941   6.532
 3690SOL    HW211970   4.306   6.863   6.636
 3691SOL     OW11971   2.924   2.316   0.056
 3691SOL    HW111972   2.852   2.269   0.108
 3691SOL    HW211973   2.911   2.415   0.064
 3692SOL     OW11974   0.652   5.836   5.300
 3692SOL    HW111975   0.558   5.850   5.330
 3692SOL    HW211976   0.684   5.746   5.330
 3693SOL     OW11977   2.322   2.833   2.782
 3693SOL    HW111978   2.421   2.822   2.775
 3693SOL    HW211979   2.277   2.744   2.779
 3694SOL     OW11980   1.548   5.307   2.792
 3694SOL    HW111981   1.587   5.232   2.845
 3694SOL    HW211982   1.454   5.286   2.768
 3695SOL     OW11983   6.248   2.758   2.278
 3695SOL    HW111984   6.304   2.807   2.212
 3695SOL    HW211985   6.304   2.730   2.356
 3696SOL     OW11986   2.816   6.043   5.215
 3696SOL    HW111987   2.779   5.960   5.257
 3696SOL    HW211988   2.866   6.019   5.132
 3697SOL     OW11989   0.322   6.261   3.667
 3697SOL    HW111990   0.341   6.318   3.747
 3697SOL    HW211991   0.285   6.173   3.697
 3698SOL     OW11992   2.556   7.014   5.019
 3698SOL    HW111993   2.583   6.942   5.083
 3698SOL    HW211994   2.580   6.987   4.926
 3699SOL     OW11995   0.302   3.191   3.264
 3699SOL    HW111996   0.212   3.199   3.308
 3699SOL    HW211997   0.315   3.268   3.201
 3700SOL     OW11998   6.918   0.428   4.501
 3700SOL    HW111999   6.826   0.395   4.521
 3700SOL    HW212000   6.963   0.456   4.586
 3701SOL     OW12001   0.738   0.623   3.616
 3701SOL    HW112002   0.824   0.631   3.666
 3701SOL    HW212003   0.697   0.534   3.634
 3702SOL     OW12004   5.534   6.363   2.473
 3702SOL    HW112005   5.567   6.420   2.548
 3702SOL    HW212006   5.478   6.418   2.412
 3703SOL     OW12007   4.131   1.868   6.269
 3703SOL    HW112008   4.223   1.869   6.228
 3703SOL    HW212009   4.074   1.936   6.224
 3704SOL     OW12010   3.518   1.262   0.916
 3704SOL    HW112011   3.590   1.273   0.984
 3704SOL    HW212012   3.526   1.333   0.846
 3705SOL     OW12013   5.148   5.617   3.798
 3705SOL    HW112014   5.066   5.602   3.744
 3705SOL    HW212015   5.162   5.715   3.812
 3706SOL     OW12016   1.382   3.512   5.349
 3706SOL    HW112017   1.314   3.563   5.403
 3706SOL    HW212018   1.466   3.566   5.341
 3707SOL     OW12019   5.994   3.972   5.355
 3707SOL    HW112020   5.907   3.999   5.397
 3707SOL    HW212021   5.987   3.878   5.321
 3708SOL     OW12022   6.427   0.828   6.047
 3708SOL    HW112023   6.444   0.923   6.022
 3708SOL    HW212024   6.435   0.818   6.146
 3709SOL     OW12025   3.817   0.554   0.603
 3709SOL    HW112026   3.814   0.479   0.669
 3709SOL    HW212027   3.739   0.615   0.617
 3710SOL     OW12028   0.139   5.848   0.349
 3710SOL    HW112029   0.123   5.944   0.369
 3710SOL    HW212030   0.056   5.806   0.313
 3711SOL     OW12031   6.808   6.490   2.224
 3711SOL    HW112032   6.759   6.577   2.215
 3711SOL    HW212033   6.905   6.507   2.237
 3712SOL     OW12034   0.036   6.573   6.843
 3712SOL    HW112035   0.089   6.490   6.824
 3712SOL    HW212036   6.963   6.551   6.848
 3713SOL     OW12037   1.814   6.351   4.415
 3713SOL    HW112038   1.836   6.340   4.511
 3713SOL    HW212039   1.864   6.283   4.361
 3714SOL     OW12040   4.812   5.088   5.306
 3714SOL    HW112041   4.896   5.140   5.318
 3714SOL    HW212042   4.735   5.139   5.345
 3715SOL     OW12043   6.018   3.897   3.058
 3715SOL    HW112044   6.038   3.853   3.146
 3715SOL    HW212045   6.104   3.926   3.015
 3716SOL     OW12046   5.999   6.398   5.225
 3716SOL    HW112047   6.013   6.492   5.255
 3716SOL    HW212048   6.081   6.363   5.180
 3717SOL     OW12049   5.710   5.467   6.076
 3717SOL    HW112050   5.761   5.550   6.056
 3717SOL    HW212051   5.649   5.446   5.999
 3718SOL     OW12052   2.179   0.504   6.774
 3718SOL    HW112053   2.096   0.523   6.827
 3718SOL    HW212054   2.163   0.423   6.716
 3719SOL     OW12055   5.350   4.451   0.789
 3719SOL    HW112056   5.437   4.484   0.754
 3719SOL    HW212057   5.277   4.476   0.726
 3720SOL     OW12058   6.569   2.057   5.353
 3720SOL    HW112059   6.490   2.069   5.293
 3720SOL    HW212060   6.598   1.961   5.351
 3721SOL     OW12061   5.481   4.668   1.211
 3721SOL    HW112062   5.531   4.585   1.233
 3721SOL    HW212063   5.438   4.658   1.121
 3722SOL     OW12064   6.233   6.921   1.618
 3722SOL    HW112065   6.238   6.967   1.529
 3722SOL    HW212066   6.311   6.860   1.628
 3723SOL     OW12067   5.926   6.318   1.560
 3723SOL    HW112068   5.834   6.295   1.528
 3723SOL    HW212069   5.924   6.407   1.606
 3724SOL     OW12070   1.746   5.151   6.042
 3724SOL    HW112071   1.768   5.248   6.033
 3724SOL    HW212072   1.804   5.098   5.981
 3725SOL     OW12073   5.629   5.520   0.348
 3725SOL    HW112074   5.585   5.530   0.437
 3725SOL    HW212075   5.658   5.609   0.314
 3726SOL     OW12076   6.520   5.501   0.676
 3726SOL    HW112077   6.436   5.545   0.708
 3726SOL    HW212078   6.515   5.491   0.576
 3727SOL     OW12079   6.678   2.231   6.267
 3727SOL    HW112080   6.668   2.315   6.320
 3727SOL    HW212081   6.772   2.225   6.232
 3728SOL     OW12082   1.424   3.872   0.549
 3728SOL    HW112083   1.497   3.910   0.492
 3728SOL    HW212084   1.460   3.855   0.641
 3729SOL     OW12085   1.087   2.159   3.851
 3729SOL    HW112086   1.142   2.174   3.933
 3729SOL    HW212087   1.053   2.065   3.850
 3730SOL     OW12088   2.458   5.178   6.381
 3730SOL    HW112089   2.441   5.276   6.390
 3730SOL    HW212090   2.399   5.140   6.310
 3731SOL     OW12091   4.926   0.501   1.018
 3731SOL    HW112092   4.964   0.425   0.966
 3731SOL    HW212093   4.984   0.520   1.097
 3732SOL     OW12094   1.462   2.131   6.350
 3732SOL    HW112095   1.522   2.127   6.430
 3732SOL    HW212096   1.379   2.181   6.374
 3733SOL     OW12097   1.422   3.582   1.662
 3733SOL    HW112098   1.406   3.679   1.682
 3733SOL    HW212099   1.425   3.569   1.563
 3734SOL     OW12100   4.727   1.105   1.721
 3734SOL    HW112101   4.674   1.161   1.785
 3734SOL    HW212102   4.786   1.043   1.773
 3735SOL     OW12103   2.219   0.543   3.345
 3735SOL    HW112104   2.223   0.447   3.314
 3735SOL    HW212105   2.306   0.567   3.388
 3736SOL     OW12106   6.558   2.531   0.891
 3736SOL    HW112107   6.479   2.499   0.838
 3736SOL    HW212108   6.585   2.621   0.859
 3737SOL     OW12109   5.070   0.750   3.478
 3737SOL    HW112110   5.067   0.787   3.571
 3737SOL    HW212111   5.129   0.807   3.421
 3738SOL     OW12112   0.110   5.596   2.441
 3738SOL    HW112113   0.207   5.613   2.425
 3738SOL    HW212114   0.071   5.673   2.492
 3739SOL     OW12115   2.451   4.704   1.438
 3739SOL    HW112116   2.524   4.742   1.494
 3739SOL    HW212117   2.375   4.770   1.434
 3740SOL     OW12118   5.233   0.047   0.440
 3740SOL    HW112119   5.258   0.143   0.427
 3740SOL    HW212120   5.153   0.041   0.500
 3741SOL     OW12121   4.738   3.261   1.309
 3741SOL    HW112122   4.732   3.361   1.313
 3741SOL    HW212123   4.653   3.222   1.344
 3742SOL     OW12124   2.475   1.817   6.219
 3742SOL    HW112125   2.469   1.910   6.184
 3742SOL    HW212126   2.531   1.816   6.302
 3743SOL     OW12127   5.338   4.067   0.947
 3743SOL    HW112128   5.287   4.020   0.875
 3743SOL    HW212129   5.410   4.007   0.982
 3744SOL     OW12130   0.570   6.173   2.776
 3744SOL    HW112131   0.525   6.086   2.792
 3744SOL    HW212132   0.668   6.158   2.760
 3745SOL     OW12133   3.737   4.842   2.500
 3745SOL    HW112134   3.820   4.862   2.552
 3745SOL    HW212135   3.759   4.834   2.403
 3746SOL     OW12136   5.100   1.733   2.873
 3746SOL    HW112137   5.007   1.696   2.867
 3746SOL    HW212138   5.124   1.748   2.969
 3747SOL     OW12139   3.170   0.138   5.631
 3747SOL    HW112140   3.117   0.219   5.657
 3747SOL    HW212141   3.253   0.167   5.584
 3748SOL     OW12142   5.414   0.609   1.686
 3748SOL    HW112143   5.460   0.521   1.679
 3748SOL    HW212144   5.466   0.669   1.747
 3749SOL     OW12145   1.763   6.838   4.172
 3749SOL    HW112146   1.668   6.862   4.155
 3749SOL    HW212147   1.770   6.740   4.190
 3750SOL     OW12148   1.578   3.813   0.778
 3750SOL    HW112149   1.645   3.875   0.820
 3750SOL    HW212150   1.592   3.721   0.813
 3751SOL     OW12151   6.480   3.615   2.362
 3751SOL    HW112152   6.485   3.707   2.402
 3751SOL    HW212153   6.498   3.621   2.264
 3752SOL     OW12154   5.098   0.605   6.964
 3752SOL    HW112155   5.002   0.616   6.990
 3752SOL    HW212156   5.108   0.624   6.867
 3753SOL     OW12157   6.423   0.703   5.364
 3753SOL    HW112158   6.369   0.646   5.426
 3753SOL    HW212159   6.464   0.779   5.415
 3754SOL     OW12160   2.388   0.519   1.589
 3754SOL    HW112161   2.457   0.452   1.560
 3754SOL    HW212162   2.328   0.477   1.657
 3755SOL     OW12163   4.455   5.246   5.112
 3755SOL    HW112164   4.498   5.241   5.022
 3755SOL    HW212165   4.377   5.309   5.108
 3756SOL     OW12166   2.475   5.530   6.859
 3756SOL    HW112167   2.556   5.564   6.812
 3756SOL    HW212168   2.494   5.525   6.957
 3757SOL     OW12169   6.170   5.182   1.777
 3757SOL    HW112170   6.153   5.274   1.812
 3757SOL    HW212171   6.097   5.121   1.806
 3758SOL     OW12172   2.122   1.182   4.446
 3758SOL    HW112173   2.092   1.087   4.455
 3758SOL    HW212174   2.216   1.191   4.479
 3759SOL     OW12175   4.234   0.220   5.189
 3759SOL    HW112176   4.229   0.164   5.271
 3759SOL    HW212177   4.176   0.181   5.117
 3760SOL     OW12178   0.811   1.482   3.778
 3760SOL    HW112179   0.793   1.497   3.876
 3760SOL    HW212180   0.907   1.500   3.759
 3761SOL     OW12181   6.640   1.215   4.955
 3761SOL    HW112182   6.563   1.267   4.916
 3761SOL    HW212183   6.605   1.146   5.018
 3762SOL     OW12184   1.848   3.995   1.288
 3762SOL    HW112185   1.823   4.063   1.221
 3762SOL    HW212186   1.766   3.950   1.323
 3763SOL     OW12187   6.611   3.733   0.177
 3763SOL    HW112188   6.593   3.816   0.125
 3763SOL    HW212189   6.704   3.736   0.214
 3764SOL     OW12190   1.770   6.791   2.591
 3764SOL    HW112191   1.787   6.859   2.520
 3764SOL    HW212192   1.853   6.737   2.606
 3765SOL     OW12193   6.093   1.486   1.211
 3765SOL    HW112194   6.165   1.551   1.188
 3765SOL    HW212195   6.106   1.401   1.160
 3766SOL     OW12196   2.298   2.662   4.141
 3766SOL    HW112197   2.259   2.580   4.098
 3766SOL    HW212198   2.396   2.649   4.153
 3767SOL     OW12199   3.130   3.985   6.149
 3767SOL    HW112200   3.052   4.046   6.164
 3767SOL    HW212201   3.104   3.891   6.169
 3768SOL     OW12202   0.609   0.142   5.074
 3768SOL    HW112203   0.677   0.077   5.107
 3768SOL    HW212204   0.522   0.125   5.121
 3769SOL     OW12205   6.340   5.451   5.025
 3769SOL    HW112206   6.329   5.353   5.008
 3769SOL    HW212207   6.250   5.494   5.030
 3770SOL     OW12208   1.175   0.941   0.182
 3770SOL    HW112209   1.168   0.909   0.276
 3770SOL    HW212210   1.232   1.024   0.179
 3771SOL     OW12211   5.335   4.195   6.430
 3771SOL    HW112212   5.340   4.153   6.521
 3771SOL    HW212213   5.370   4.131   6.362
 3772SOL     OW12214   0.755   0.235   0.225
 3772SOL    HW112215   0.679   0.300   0.229
 3772SOL    HW212216   0.722   0.146   0.193
 3773SOL     OW12217   6.807   3.069   5.486
 3773SOL    HW112218   6.821   3.067   5.387
 3773SOL    HW212219   6.846   3.154   5.523
 3774SOL     OW12220   5.478   5.565   1.883
 3774SOL    HW112221   5.573   5.573   1.912
 3774SOL    HW212222   5.419   5.554   1.963
 3775SOL     OW12223   4.041   5.226   3.496
 3775SOL    HW112224   3.941   5.228   3.491
 3775SOL    HW212225   4.071   5.251   3.588
 3776SOL     OW12226   4.046   2.248   6.480
 3776SOL    HW112227   3.972   2.287   6.424
 3776SOL    HW212228   4.098   2.321   6.522
 3777SOL     OW12229   2.677   5.401   3.865
 3777SOL    HW112230   2.689   5.343   3.945
 3777SOL    HW212231   2.656   5.494   3.894
 3778SOL     OW12232   2.403   5.809   3.561
 3778SOL    HW112233   2.399   5.904   3.530
 3778SOL    HW212234   2.323   5.760   3.528
 3779SOL     OW12235   0.525   5.110   0.984
 3779SOL    HW112236   0.613   5.114   1.032
 3779SOL    HW212237   0.464   5.181   1.020
 3780SOL     OW12238   6.522   3.801   4.351
 3780SOL    HW112239   6.492   3.741   4.277
 3780SOL    HW212240   6.580   3.749   4.414
 3781SOL     OW12241   0.317   0.118   4.198
 3781SOL    HW112242   0.276   0.206   4.175
 3781SOL    HW212243   0.396   0.132   4.257
 3782SOL     OW12244   3.100   7.020   2.527
 3782SOL    HW112245   3.142   0.048   2.452
 3782SOL    HW212246   3.051   0.058   2.587
 3783SOL     OW12247   6.617   5.854   3.840
 3783SOL    HW112248   6.651   5.936   3.888
 3783SOL    HW212249   6.615   5.777   3.904
 3784SOL     OW12250   5.297   2.904   2.699
 3784SOL    HW112251   5.219   2.927   2.756
 3784SOL    HW212252   5.293   2.957   2.614
 3785SOL     OW12253   1.439   3.297   4.762
 3785SOL    HW112254   1.399   3.382   4.796
 3785SOL    HW212255   1.537   3.297   4.779
 3786SOL     OW12256   2.281   4.194   3.300
 3786SOL    HW112257   2.224   4.147   3.232
 3786SOL    HW212258   2.360   4.235   3.255
 3787SOL     OW12259   5.475   0.699   2.417
 3787SOL    HW112260   5.559   0.646   2.412
 3787SOL    HW212261   5.495   0.795   2.397
 3788SOL     OW12262   6.113   4.260   4.949
 3788SOL    HW112263   6.081   4.353   4.964
 3788SOL    HW212264   6.036   4.203   4.919
 3789SOL     OW12265   0.252   3.870   3.297
 3789SOL    HW112266   0.170   3.815   3.315
 3789SOL    HW212267   0.319   3.815   3.247
 3790SOL     OW12268   0.591   4.569   6.184
 3790SOL    HW112269   0.626   4.489   6.232
 3790SOL    HW212270   0.625   4.652   6.228
 3791SOL     OW12271   5.479   2.156   6.624
 3791SOL    HW112272   5.418   2.158   6.544
 3791SOL    HW212273   5.571   2.133   6.595
 3792SOL     OW12274   1.430   1.676   4.146
 3792SOL    HW112275   1.376   1.596   4.173
 3792SOL    HW212276   1.416   1.750   4.211
 3793SOL     OW12277   4.980   6.368   1.566
 3793SOL    HW112278   4.986   6.269   1.561
 3793SOL    HW212279   5.064   6.409   1.532
 3794SOL     OW12280   2.746   3.007   1.743
 3794SOL    HW112281   2.768   2.909   1.737
 3794SOL    HW212282   2.650   3.021   1.720
 3795SOL     OW12283   4.066   5.656   1.239
 3795SOL    HW112284   4.081   5.573   1.293
 3795SOL    HW212285   4.137   5.724   1.262
 3796SOL     OW12286   4.291   2.135   1.759
 3796SOL    HW112287   4.275   2.189   1.841
 3796SOL    HW212288   4.241   2.049   1.765
 3797SOL     OW12289   0.847   3.522   3.167
 3797SOL    HW112290   0.885   3.431   3.156
 3797SOL    HW212291   0.802   3.551   3.083
 3798SOL     OW12292   2.813   6.609   2.444
 3798SOL    HW112293   2.767   6.672   2.381
 3798SOL    HW212294   2.771   6.616   2.535
 3799SOL     OW12295   0.120   2.703   3.616
 3799SOL    HW112296   0.182   2.720   3.539
 3799SOL    HW212297   0.037   2.659   3.582
 3800SOL     OW12298   5.323   1.856   3.709
 3800SOL    HW112299   5.307   1.860   3.611
 3800SOL    HW212300   5.369   1.770   3.733
 3801SOL     OW12301   6.124   6.601   2.150
 3801SOL    HW112302   6.122   6.540   2.071
 3801SOL    HW212303   6.031   6.619   2.180
 3802SOL     OW12304   0.630   1.489   2.215
 3802SOL    HW112305   0.594   1.547   2.142
 3802SOL    HW212306   0.709   1.534   2.256
 3803SOL     OW12307   4.124   3.393   3.215
 3803SOL    HW112308   4.048   3.448   3.248
 3803SOL    HW212309   4.167   3.439   3.137
 3804SOL     OW12310   4.311   1.548   3.731
 3804SOL    HW112311   4.287   1.597   3.647
 3804SOL    HW212312   4.265   1.459   3.731
 3805SOL     OW12313   1.757   2.525   1.863
 3805SOL    HW112314   1.681   2.491   1.919
 3805SOL    HW212315   1.752   2.625   1.856
 3806SOL     OW12316   3.596   3.808   5.468
 3806SOL    HW112317   3.609   3.711   5.487
 3806SOL    HW212318   3.542   3.819   5.385
 3807SOL     OW12319   2.539   5.216   3.739
 3807SOL    HW112320   2.492   5.265   3.665
 3807SOL    HW212321   2.597   5.280   3.789
 3808SOL     OW12322   4.314   1.058   6.727
 3808SOL    HW112323   4.299   1.145   6.773
 3808SOL    HW212324   4.282   1.064   6.633
 3809SOL     OW12325   5.406   2.754   1.355
 3809SOL    HW112326   5.328   2.799   1.312
 3809SOL    HW212327   5.488   2.771   1.302
 3810SOL     OW12328   5.940   2.800   3.609
 3810SOL    HW112329   5.970   2.836   3.520
 3810SOL    HW212330   6.008   2.734   3.642
 3811SOL     OW12331   0.394   6.448   4.877
 3811SOL    HW112332   0.375   6.463   4.780
 3811SOL    HW212333   0.427   6.355   4.890
 3812SOL     OW12334   3.481   4.474   5.608
 3812SOL    HW112335   3.471   4.540   5.682
 3812SOL    HW212336   3.460   4.382   5.642
 3813SOL     OW12337   5.918   3.697   0.494
 3813SOL    HW112338   5.909   3.764   0.421
 3813SOL    HW212339   6.014   3.687   0.519
 3814SOL     OW12340   6.927   6.925   4.718
 3814SOL    HW112341   6.846   6.965   4.676
 3814SOL    HW212342   7.005   6.934   4.656
 3815SOL     OW12343   3.827   3.230   1.000
 3815SOL    HW112344   3.787   3.178   0.924
 3815SOL    HW212345   3.873   3.312   0.964
 3816SOL     OW12346   0.877   5.049   6.283
 3816SOL    HW112347   0.952   5.022   6.344
 3816SOL    HW212348   0.836   5.134   6.316
 3817SOL     OW12349   5.076   3.710   2.553
 3817SOL    HW112350   5.106   3.805   2.554
 3817SOL    HW212351   5.043   3.686   2.461
 3818SOL     OW12352   6.406   1.245   0.712
 3818SOL    HW112353   6.434   1.260   0.618
 3818SOL    HW212354   6.437   1.321   0.769
 3819SOL     OW12355   6.146   4.695   2.762
 3819SOL    HW112356   6.160   4.655   2.672
 3819SOL    HW212357   6.104   4.626   2.823
 3820SOL     OW12358   5.695   0.154   4.001
 3820SOL    HW112359   5.661   0.239   4.041
 3820SOL    HW212360   5.623   0.110   3.948
 3821SOL     OW12361   1.475   0.513   1.832
 3821SOL    HW112362   1.553   0.451   1.833
 3821SOL    HW212363   1.459   0.550   1.924
 3822SOL     OW12364   1.790   0.022   0.218
 3822SOL    HW112365   1.743   0.024   0.307
 3822SOL    HW212366   1.723   0.015   0.145
 3823SOL     OW12367   3.685   3.372   6.247
 3823SOL    HW112368   3.771   3.415   6.275
 3823SOL    HW212369   3.697   3.329   6.158
 3824SOL     OW12370   1.084   2.240   0.649
 3824SOL    HW112371   1.135   2.253   0.734
 3824SOL    HW212372   1.054   2.330   0.615
 3825SOL     OW12373   0.751   4.762   6.893
 3825SOL    HW112374   0.767   4.705   6.974
 3825SOL    HW212375   0.762   4.707   6.811
 3826SOL     OW12376   0.211   3.621   1.074
 3826SOL    HW112377   0.252   3.536   1.042
 3826SOL    HW212378   0.269   3.663   1.144
 3827SOL     OW12379   1.170   0.828   1.574
 3827SOL    HW112380   1.163   0.777   1.659
 3827SOL    HW212381   1.234   0.904   1.585
 3828SOL     OW12382   3.486   3.838   3.982
 3828SOL    HW112383   3.574   3.878   3.956
 3828SOL    HW212384   3.458   3.874   4.071
 3829SOL     OW12385   0.567   4.634   1.951
 3829SOL    HW112386   0.504   4.686   1.893
 3829SOL    HW212387   0.634   4.587   1.893
 3830SOL     OW12388   0.676   1.514   5.651
 3830SOL    HW112389   0.708   1.419   5.657
 3830SOL    HW212390   0.755   1.575   5.646
 3831SOL     OW12391   4.539   2.523   2.165
 3831SOL    HW112392   4.584   2.532   2.254
 3831SOL    HW212393   4.575   2.591   2.102
 3832SOL     OW12394   6.853   0.388   2.327
 3832SOL    HW112395   6.909   0.333   2.264
 3832SOL    HW212396   6.892   0.384   2.419
 3833SOL     OW12397   0.535   5.906   6.418
 3833SOL    HW112398   0.484   5.855   6.348
 3833SOL    HW212399   0.505   6.001   6.418
 3834SOL     OW12400   3.533   4.329   0.584
 3834SOL    HW112401   3.557   4.416   0.541
 3834SOL    HW212402   3.510   4.262   0.514
 3835SOL     OW12403   4.131   6.125   4.990
 3835SOL    HW112404   4.212   6.082   5.027
 3835SOL    HW212405   4.125   6.107   4.892
 3836SOL     OW12406   6.703   5.133   5.849
 3836SOL    HW112407   6.611   5.143   5.887
 3836SOL    HW212408   6.765   5.195   5.896
 3837SOL     OW12409   4.596   4.490   5.689
 3837SOL    HW112410   4.550   4.402   5.685
 3837SOL    HW212411   4.568   4.539   5.772
 3838SOL     OW12412   0.843   2.729   4.226
 3838SOL    HW112413   0.889   2.670   4.160
 3838SOL    HW212414   0.909   2.790   4.268
 3839SOL     OW12415   5.429   1.625   2.750
 3839SOL    HW112416   5.361   1.698   2.746
 3839SOL    HW212417   5.425   1.581   2.840
 3840SOL     OW12418   2.953   1.098   6.094
 3840SOL    HW112419   2.918   1.146   6.013
 3840SOL    HW212420   2.883   1.097   6.165
 3841SOL     OW12421   0.288   3.250   4.240
 3841SOL    HW112422   0.259   3.188   4.167
 3841SOL    HW212423   0.351   3.202   4.301
 3842SOL     OW12424   2.052   2.474   3.212
 3842SOL    HW112425   1.979   2.508   3.271
 3842SOL    HW212426   2.120   2.427   3.268
 3843SOL     OW12427   5.375   3.712   2.559
 3843SOL    HW112428   5.324   3.650   2.617
 3843SOL    HW212429   5.473   3.692   2.567
 3844SOL     OW12430   1.003   2.997   5.509
 3844SOL    HW112431   1.102   2.998   5.521
 3844SOL    HW212432   0.975   2.914   5.461
 3845SOL     OW12433   3.339   4.380   5.871
 3845SOL    HW112434   3.324   4.329   5.955
 3845SOL    HW212435   3.262   4.367   5.809
 3846SOL     OW12436   1.252   4.606   3.717
 3846SOL    HW112437   1.324   4.546   3.752
 3846SOL    HW212438   1.206   4.651   3.793
 3847SOL     OW12439   5.424   2.943   4.757
 3847SOL    HW112440   5.457   2.851   4.735
 3847SOL    HW212441   5.355   2.971   4.690
 3848SOL     OW12442   4.955   4.561   3.184
 3848SOL    HW112443   5.018   4.639   3.186
 3848SOL    HW212444   4.874   4.582   3.238
 3849SOL     OW12445   0.719   1.520   6.276
 3849SOL    HW112446   0.681   1.581   6.346
 3849SOL    HW212447   0.816   1.503   6.296
 3850SOL     OW12448   2.843   3.209   1.556
 3850SOL    HW112449   2.820   3.119   1.594
 3850SOL    HW212450   2.940   3.229   1.573
 3851SOL     OW12451   0.651   3.928   3.296
 3851SOL    HW112452   0.578   3.996   3.298
 3851SOL    HW212453   0.635   3.864   3.221
 3852SOL     OW12454   4.364   6.557   3.905
 3852SOL    HW112455   4.269   6.528   3.891
 3852SOL    HW212456   4.412   6.555   3.817
 3853SOL     OW12457   1.015   3.981   3.728
 3853SOL    HW112458   1.075   3.923   3.783
 3853SOL    HW212459   1.035   3.966   3.631
 3854SOL     OW12460   1.456   2.233   2.954
 3854SOL    HW112461   1.433   2.315   3.007
 3854SOL    HW212462   1.541   2.248   2.904
 3855SOL     OW12463   4.860   6.421   6.423
 3855SOL    HW112464   4.837   6.334   6.379
 3855SOL    HW212465   4.938   6.462   6.377
 3856SOL     OW12466   6.689   0.387   5.663
 3856SOL    HW112467   6.649   0.479   5.666
 3856SOL    HW212468   6.652   0.333   5.739
 3857SOL     OW12469   0.907   6.136   6.420
 3857SOL    HW112470   0.850   6.056   6.438
 3857SOL    HW212471   0.849   6.213   6.394
 3858SOL     OW12472   2.203   0.726   5.530
 3858SOL    HW112473   2.183   0.674   5.447
 3858SOL    HW212474   2.137   0.801   5.539
 3859SOL     OW12475   6.044   1.516   1.498
 3859SOL    HW112476   6.054   1.513   1.398
 3859SOL    HW212477   6.127   1.479   1.540
 3860SOL     OW12478   1.908   1.820   4.080
 3860SOL    HW112479   1.919   1.855   3.987
 3860SOL    HW212480   1.819   1.774   4.087
 3861SOL     OW12481   4.326   5.622   3.726
 3861SOL    HW112482   4.391   5.547   3.729
 3861SOL    HW212483   4.243   5.592   3.679
 3862SOL     OW12484   0.493   0.721   5.018
 3862SOL    HW112485   0.582   0.751   5.051
 3862SOL    HW212486   0.455   0.653   5.080
 3863SOL     OW12487   5.817   2.377   6.875
 3863SOL    HW112488   5.722   2.346   6.873
 3863SOL    HW212489   5.819   2.475   6.896
 3864SOL     OW12490   2.062   0.980   5.923
 3864SOL    HW112491   2.152   1.022   5.932
 3864SOL    HW212492   2.054   0.904   5.988
 3865SOL     OW12493   4.169   0.956   0.543
 3865SOL    HW112494   4.133   1.044   0.514
 3865SOL    HW212495   4.095   0.889   0.548
 3866SOL     OW12496   4.399   0.081   0.177
 3866SOL    HW112497   4.409   0.024   0.096
 3866SOL    HW212498   4.411   0.177   0.153
 3867SOL     OW12499   0.509   6.052   4.342
 3867SOL    HW112500   0.585   6.028   4.403
 3867SOL    HW212501   0.432   6.084   4.397
 3868SOL     OW12502   3.053   7.011   0.540
 3868SOL    HW112503   3.030   6.935   0.479
 3868SOL    HW212504   2.985   7.016   0.614
 3869SOL     OW12505   6.210   3.400   4.454
 3869SOL    HW112506   6.289   3.376   4.397
 3869SOL    HW212507   6.170   3.485   4.421
 3870SOL     OW12508   6.364   6.603   0.164
 3870SOL    HW112509   6.347   6.507   0.186
 3870SOL    HW212510   6.392   6.652   0.246
 3871SOL     OW12511   3.826   1.286   3.096
 3871SOL    HW112512   3.749   1.327   3.048
 3871SOL    HW212513   3.832   1.325   3.188
 3872SOL     OW12514   3.647   3.003   4.183
 3872SOL    HW112515   3.562   3.021   4.233
 3872SOL    HW212516   3.719   2.978   4.247
 3873SOL     OW12517   6.536   3.745   1.310
 3873SOL    HW112518   6.611   3.739   1.376
 3873SOL    HW212519   6.526   3.657   1.262
 3874SOL     OW12520   4.841   6.263   6.864
 3874SOL    HW112521   4.845   6.363   6.853
 3874SOL    HW212522   4.751   6.238   6.901
 3875SOL     OW12523   2.185   2.963   2.346
 3875SOL    HW112524   2.267   3.005   2.307
 3875SOL    HW212525   2.182   2.980   2.444
 3876SOL     OW12526   4.009   6.012   1.249
 3876SOL    HW112527   4.051   5.955   1.319
 3876SOL    HW212528   4.079   6.072   1.209
 3877SOL     OW12529   5.781   2.626   0.655
 3877SOL    HW112530   5.687   2.644   0.628
 3877SOL    HW212531   5.825   2.711   0.682
 3878SOL     OW12532   3.728   6.816   4.537
 3878SOL    HW112533   3.689   6.869   4.612
 3878SOL    HW212534   3.654   6.778   4.481
 3879SOL     OW12535   5.746   5.066   0.755
 3879SOL    HW112536   5.783   5.089   0.666
 3879SOL    HW212537   5.668   5.005   0.744
 3880SOL     OW12538   6.045   4.976   4.225
 3880SOL    HW112539   5.977   4.907   4.201
 3880SOL    HW212540   5.998   5.060   4.254
 3881SOL     OW12541   1.543   3.253   1.804
 3881SOL    HW112542   1.564   3.341   1.763
 3881SOL    HW212543   1.538   3.263   1.904
 3882SOL     OW12544   1.602   0.902   5.740
 3882SOL    HW112545   1.538   0.832   5.772
 3882SOL    HW212546   1.607   0.900   5.640
 3883SOL     OW12547   4.758   1.170   3.142
 3883SOL    HW112548   4.845   1.145   3.185
 3883SOL    HW212549   4.688   1.184   3.212
 3884SOL     OW12550   0.647   5.489   2.556
 3884SOL    HW112551   0.653   5.584   2.588
 3884SOL    HW212552   0.672   5.427   2.630
 3885SOL     OW12553   5.587   6.532   2.679
 3885SOL    HW112554   5.537   6.617   2.693
 3885SOL    HW212555   5.679   6.552   2.647
 3886SOL     OW12556   5.590   5.388   4.817
 3886SOL    HW112557   5.548   5.404   4.728
 3886SOL    HW212558   5.533   5.427   4.889
 3887SOL     OW12559   0.604   0.447   0.190
 3887SOL    HW112560   0.682   0.501   0.156
 3887SOL    HW212561   0.540   0.431   0.115
 3888SOL     OW12562   6.708   0.694   4.994
 3888SOL    HW112563   6.683   0.769   4.933
 3888SOL    HW212564   6.626   0.658   5.038
 3889SOL     OW12565   0.114   3.878   0.503
 3889SOL    HW112566   0.021   3.915   0.503
 3889SOL    HW212567   0.161   3.906   0.420
 3890SOL     OW12568   5.979   5.906   3.576
 3890SOL    HW112569   5.979   5.831   3.642
 3890SOL    HW212570   5.913   5.887   3.503
 3891SOL     OW12571   6.242   4.799   4.335
 3891SOL    HW112572   6.170   4.861   4.305
 3891SOL    HW212573   6.228   4.773   4.430
 3892SOL     OW12574   6.812   2.270   1.755
 3892SOL    HW112575   6.839   2.220   1.837
 3892SOL    HW212576   6.758   2.211   1.696
 3893SOL     OW12577   4.686   4.862   0.361
 3893SOL    HW112578   4.699   4.900   0.453
 3893SOL    HW212579   4.767   4.809   0.335
 3894SOL     OW12580   4.025   1.549   0.537
 3894SOL    HW112581   3.967   1.629   0.551
 3894SOL    HW212582   3.971   1.475   0.496
 3895SOL     OW12583   1.355   0.702   5.441
 3895SOL    HW112584   1.323   0.649   5.519
 3895SOL    HW212585   1.284   0.704   5.371
 3896SOL     OW12586   6.614   0.837   5.818
 3896SOL    HW112587   6.579   0.766   5.879
 3896SOL    HW212588   6.569   0.924   5.839
 3897SOL     OW12589   3.480   5.699   2.657
 3897SOL    HW112590   3.406   5.639   2.686
 3897SOL    HW212591   3.530   5.732   2.737
 3898SOL     OW12592   2.924   3.822   5.182
 3898SOL    HW112593   2.918   3.882   5.102
 3898SOL    HW212594   2.843   3.833   5.239
 3899SOL     OW12595   5.726   0.059   4.910
 3899SOL    HW112596   5.684   0.132   4.965
 3899SOL    HW212597   5.812   0.092   4.871
 3900SOL     OW12598   4.940   3.596   4.142
 3900SOL    HW112599   4.985   3.627   4.058
 3900SOL    HW212600   4.912   3.501   4.132
 3901SOL     OW12601   2.954   0.363   5.964
 3901SOL    HW112602   3.014   0.305   6.019
 3901SOL    HW212603   2.860   0.357   5.999
 3902SOL     OW12604   5.218   3.586   2.024
 3902SOL    HW112605   5.245   3.536   1.942
 3902SOL    HW212606   5.238   3.684   2.011
 3903SOL     OW12607   3.895   6.143   6.478
 3903SOL    HW112608   3.842   6.060   6.498
 3903SOL    HW212609   3.869   6.179   6.389
 3904SOL     OW12610   2.282   1.143   4.746
 3904SOL    HW112611   2.305   1.124   4.841
 3904SOL    HW212612   2.183   1.131   4.733
 3905SOL     OW12613   0.162   0.023   6.416
 3905SOL    HW112614   0.233   6.979   6.396
 3905SOL    HW212615   0.074   7.002   6.426
 3906SOL     OW12616   4.157   5.251   5.761
 3906SOL    HW112617   4.137   5.189   5.685
 3906SOL    HW212618   4.084   5.245   5.829
 3907SOL     OW12619   5.325   0.027   4.856
 3907SOL    HW112620   5.344   0.118   4.892
 3907SOL    HW212621   5.336   6.983   4.928
 3908SOL     OW12622   1.237   1.578   0.769
 3908SOL    HW112623   1.218   1.483   0.790
 3908SOL    HW212624   1.296   1.583   0.688
 3909SOL     OW12625   7.002   4.914   5.375
 3909SOL    HW112626   6.952   5.001   5.374
 3909SOL    HW212627   0.049   4.916   5.305
 3910SOL     OW12628   3.543   3.662   1.784
 3910SOL    HW112629   3.621   3.723   1.800
 3910SOL    HW212630   3.505   3.633   1.872
 3911SOL     OW12631   4.599   0.755   0.150
 3911SOL    HW112632   4.640   0.764   0.059
 3911SOL    HW212633   4.499   0.761   0.143
 3912SOL     OW12634   4.007   0.138   6.065
 3912SOL    HW112635   4.045   0.224   6.030
 3912SOL    HW212636   4.033   0.064   6.003
 3913SOL     OW12637   2.329   6.809   5.943
 3913SOL    HW112638   2.318   6.774   5.850
 3913SOL    HW212639   2.347   6.733   6.005
 3914SOL     OW12640   4.252   1.193   0.384
 3914SOL    HW112641   4.296   1.243   0.458
 3914SOL    HW212642   4.317   1.127   0.346
 3915SOL     OW12643   3.439   6.014   2.252
 3915SOL    HW112644   3.506   6.022   2.326
 3915SOL    HW212645   3.381   5.934   2.269
 3916SOL     OW12646   1.640   5.770   4.045
 3916SOL    HW112647   1.676   5.695   3.989
 3916SOL    HW212648   1.696   5.780   4.127
 3917SOL     OW12649   1.112   4.804   6.953
 3917SOL    HW112650   1.064   4.792   0.016
 3917SOL    HW212651   1.099   4.897   6.920
 3918SOL     OW12652   4.846   0.074   2.402
 3918SOL    HW112653   4.789   0.042   2.478
 3918SOL    HW212654   4.919   0.132   2.437
 3919SOL     OW12655   2.244   5.824   6.451
 3919SOL    HW112656   2.176   5.752   6.448
 3919SOL    HW212657   2.211   5.904   6.399
 3920SOL     OW12658   2.811   3.044   0.336
 3920SOL    HW112659   2.857   3.114   0.390
 3920SOL    HW212660   2.804   3.074   0.241
 3921SOL     OW12661   6.699   3.215   1.299
 3921SOL    HW112662   6.625   3.181   1.241
 3921SOL    HW212663   6.785   3.213   1.249
 3922SOL     OW12664   6.029   4.187   1.262
 3922SOL    HW112665   5.968   4.138   1.325
 3922SOL    HW212666   6.088   4.122   1.215
 3923SOL     OW12667   6.810   1.809   6.975
 3923SOL    HW112668   6.880   1.842   6.912
 3923SOL    HW212669   6.853   1.753   0.022
 3924SOL     OW12670   0.703   4.886   2.934
 3924SOL    HW112671   0.701   4.786   2.944
 3924SOL    HW212672   0.719   4.908   2.838
 3925SOL     OW12673   4.175   4.524   0.589
 3925SOL    HW112674   4.131   4.473   0.515
 3925SOL    HW212675   4.123   4.513   0.674
 3926SOL     OW12676   6.576   5.523   2.887
 3926SOL    HW112677   6.662   5.574   2.881
 3926SOL    HW212678   6.591   5.438   2.938
 3927SOL     OW12679   6.846   3.561   3.637
 3927SOL    HW112680   6.889   3.475   3.609
 3927SOL    HW212681   6.856   3.571   3.736
 3928SOL     OW12682   2.840   5.518   5.868
 3928SOL    HW112683   2.862   5.598   5.811
 3928SOL    HW212684   2.757   5.537   5.921
 3929SOL     OW12685   0.621   1.913   5.824
 3929SOL    HW112686   0.668   1.965   5.752
 3929SOL    HW212687   0.667   1.825   5.837
 3930SOL     OW12688   2.491   1.502   4.027
 3930SOL    HW112689   2.414   1.548   4.072
 3930SOL    HW212690   2.573   1.511   4.084
 3931SOL     OW12691   1.696   1.769   2.948
 3931SOL    HW112692   1.649   1.844   2.903
 3931SOL    HW212693   1.782   1.802   2.989
 3932SOL     OW12694   2.135   3.934   2.756
 3932SOL    HW112695   2.170   3.880   2.832
 3932SOL    HW212696   2.036   3.923   2.749
 3933SOL     OW12697   1.908   6.804   0.289
 3933SOL    HW112698   1.889   6.891   0.244
 3933SOL    HW212699   1.858   6.731   0.243
 3934SOL     OW12700   6.884   0.959   1.106
 3934SOL    HW112701   6.957   0.892   1.093
 3934SOL    HW212702   6.856   0.961   1.202
 3935SOL     OW12703   2.208   6.944   0.083
 3935SOL    HW112704   2.264   6.962   0.002
 3935SOL    HW212705   2.143   7.018   0.096
 3936SOL     OW12706   6.738   5.188   5.570
 3936SOL    HW112707   6.757   5.162   5.664
 3936SOL    HW212708   6.824   5.189   5.518
 3937SOL     OW12709   7.002   0.173   1.852
 3937SOL    HW112710   6.922   0.113   1.859
 3937SOL    HW212711   0.061   0.119   1.860
 3938SOL     OW12712   6.998   1.909   3.667
 3938SOL    HW112713   0.046   1.881   3.604
 3938SOL    HW212714   6.911   1.869   3.639
 3939SOL     OW12715   2.838   1.981   1.823
 3939SOL    HW112716   2.905   2.051   1.800
 3939SOL    HW212717   2.801   1.998   1.914
 3940SOL     OW12718   4.029   5.281   2.152
 3940SOL    HW112719   4.109   5.322   2.198
 3940SOL    HW212720   3.966   5.353   2.125
 3941SOL     OW12721   5.073   1.296   6.162
 3941SOL    HW112722   5.078   1.395   6.178
 3941SOL    HW212723   5.165   1.259   6.157
 3942SOL     OW12724   0.118   0.297   6.468
 3942SOL    HW112725   0.213   0.315   6.444
 3942SOL    HW212726   0.104   0.199   6.479
 3943SOL     OW12727   1.151   3.957   2.886
 3943SOL    HW112728   1.217   3.976   2.813
 3943SOL    HW212729   1.173   4.012   2.966
 3944SOL     OW12730   5.715   3.625   5.561
 3944SOL    HW112731   5.664   3.572   5.628
 3944SOL    HW212732   5.773   3.564   5.507
 3945SOL     OW12733   0.839   2.654   1.874
 3945SOL    HW112734   0.752   2.700   1.892
 3945SOL    HW212735   0.843   2.570   1.928
 3946SOL     OW12736   5.775   5.451   5.556
 3946SOL    HW112737   5.823   5.529   5.596
 3946SOL    HW212738   5.838   5.374   5.548
 3947SOL     OW12739   6.323   5.104   1.224
 3947SOL    HW112740   6.292   5.182   1.170
 3947SOL    HW212741   6.357   5.032   1.163
 3948SOL     OW12742   0.966   5.390   1.712
 3948SOL    HW112743   1.029   5.313   1.715
 3948SOL    HW212744   1.017   5.476   1.703
 3949SOL     OW12745   6.049   0.410   2.865
 3949SOL    HW112746   6.126   0.358   2.902
 3949SOL    HW212747   6.021   0.480   2.930
 3950SOL     OW12748   3.058   4.175   1.725
 3950SOL    HW112749   3.153   4.204   1.713
 3950SOL    HW212750   3.001   4.255   1.744
 3951SOL     OW12751   0.070   0.167   1.005
 3951SOL    HW112752   0.078   0.161   0.906
 3951SOL    HW212753   0.148   0.120   1.047
 3952SOL     OW12754   6.683   3.920   3.153
 3952SOL    HW112755   6.699   4.012   3.190
 3952SOL    HW212756   6.585   3.905   3.143
 3953SOL     OW12757   3.970   4.162   0.681
 3953SOL    HW112758   4.003   4.235   0.621
 3953SOL    HW212759   3.928   4.090   0.626
 3954SOL     OW12760   5.495   5.578   5.017
 3954SOL    HW112761   5.492   5.580   5.117
 3954SOL    HW212762   5.404   5.559   4.981
 3955SOL     OW12763   3.512   5.750   5.855
 3955SOL    HW112764   3.598   5.787   5.819
 3955SOL    HW212765   3.459   5.710   5.780
 3956SOL     OW12766   0.077   0.983   2.768
 3956SOL    HW112767   0.132   0.958   2.848
 3956SOL    HW212768   0.138   1.002   2.691
 3957SOL     OW12769   5.012   6.953   3.624
 3957SOL    HW112770   4.921   6.933   3.661
 3957SOL    HW212771   5.003   6.992   3.532
 3958SOL     OW12772   5.690   0.771   5.939
 3958SOL    HW112773   5.713   0.800   5.847
 3958SOL    HW212774   5.606   0.716   5.937
 3959SOL     OW12775   4.159   6.286   1.323
 3959SOL    HW112776   4.224   6.217   1.289
 3959SOL    HW212777   4.120   6.335   1.246
 3960SOL     OW12778   4.160   1.404   6.662
 3960SOL    HW112779   4.074   1.356   6.680
 3960SOL    HW212780   4.228   1.378   6.729
 3961SOL     OW12781   5.858   2.382   1.584
 3961SOL    HW112782   5.914   2.452   1.628
 3961SOL    HW212783   5.767   2.381   1.626
 3962SOL     OW12784   2.170   4.573   6.868
 3962SOL    HW112785   2.131   4.659   6.901
 3962SOL    HW212786   2.266   4.568   6.896
 3963SOL     OW12787   4.765   4.122   4.482
 3963SOL    HW112788   4.821   4.153   4.405
 3963SOL    HW212789   4.790   4.029   4.507
 3964SOL     OW12790   4.327   5.094   3.577
 3964SOL    HW112791   4.262   5.137   3.641
 3964SOL    HW212792   4.309   4.996   3.572
 3965SOL     OW12793   4.181   3.150   5.936
 3965SOL    HW112794   4.184   3.128   5.839
 3965SOL    HW212795   4.274   3.150   5.974
 3966SOL     OW12796   5.722   5.922   0.531
 3966SOL    HW112797   5.649   5.985   0.504
 3966SOL    HW212798   5.700   5.830   0.500
 3967SOL     OW12799   1.432   4.190   2.362
 3967SOL    HW112800   1.473   4.227   2.445
 3967SOL    HW212801   1.411   4.093   2.376
 3968SOL     OW12802   5.953   6.989   1.346
 3968SOL    HW112803   5.856   6.968   1.331
 3968SOL    HW212804   5.962   0.021   1.427
 3969SOL     OW12805   1.886   3.570   2.837
 3969SOL    HW112806   1.855   3.570   2.742
 3969SOL    HW212807   1.854   3.654   2.883
 3970SOL     OW12808   5.620   6.030   3.706
 3970SOL    HW112809   5.628   5.947   3.651
 3970SOL    HW212810   5.708   6.050   3.749
 3971SOL     OW12811   2.785   5.253   1.950
 3971SOL    HW112812   2.845   5.186   1.907
 3971SOL    HW212813   2.762   5.223   2.042
 3972SOL     OW12814   1.257   5.247   0.774
 3972SOL    HW112815   1.266   5.250   0.675
 3972SOL    HW212816   1.171   5.292   0.801
 3973SOL     OW12817   0.858   4.393   6.032
 3973SOL    HW112818   0.805   4.327   5.979
 3973SOL    HW212819   0.946   4.409   5.987
 3974SOL     OW12820   1.230   0.805   4.726
 3974SOL    HW112821   1.199   0.829   4.818
 3974SOL    HW212822   1.328   0.786   4.729
 3975SOL     OW12823   5.123   0.049   5.909
 3975SOL    HW112824   5.076   6.992   5.873
 3975SOL    HW212825   5.218   0.026   5.928
 3976SOL     OW12826   1.327   5.391   2.370
 3976SOL    HW112827   1.290   5.317   2.426
 3976SOL    HW212828   1.359   5.354   2.282
 3977SOL     OW12829   2.757   4.517   5.795
 3977SOL    HW112830   2.800   4.426   5.799
 3977SOL    HW212831   2.791   4.566   5.715
 3978SOL     OW12832   5.861   6.397   4.862
 3978SOL    HW112833   5.840   6.320   4.922
 3978SOL    HW212834   5.790   6.405   4.792
 3979SOL     OW12835   2.917   5.664   1.216
 3979SOL    HW112836   2.926   5.634   1.311
 3979SOL    HW212837   2.939   5.761   1.209
 3980SOL     OW12838   0.386   5.784   6.788
 3980SOL    HW112839   0.320   5.732   6.734
 3980SOL    HW212840   0.430   5.723   6.854
 3981SOL     OW12841   1.942   1.553   0.440
 3981SOL    HW112842   1.972   1.649   0.434
 3981SOL    HW212843   1.876   1.535   0.367
 3982SOL     OW12844   1.957   0.352   4.297
 3982SOL    HW112845   2.028   0.284   4.315
 3982SOL    HW212846   1.898   0.360   4.377
 3983SOL     OW12847   4.796   5.362   4.248
 3983SOL    HW112848   4.804   5.275   4.198
 3983SOL    HW212849   4.701   5.394   4.241
 3984SOL     OW12850   0.197   0.823   2.445
 3984SOL    HW112851   0.118   0.839   2.504
 3984SOL    HW212852   0.269   0.777   2.497
 3985SOL     OW12853   3.399   4.821   6.322
 3985SOL    HW112854   3.395   4.918   6.298
 3985SOL    HW212855   3.448   4.809   6.408
 3986SOL     OW12856   6.232   1.933   2.714
 3986SOL    HW112857   6.288   1.851   2.697
 3986SOL    HW212858   6.236   1.993   2.635
 3987SOL     OW12859   2.976   5.347   4.303
 3987SOL    HW112860   2.945   5.310   4.391
 3987SOL    HW212861   3.068   5.384   4.314
 3988SOL     OW12862   4.155   3.660   6.688
 3988SOL    HW112863   4.097   3.682   6.766
 3988SOL    HW212864   4.101   3.662   6.604
 3989SOL     OW12865   6.710   2.243   6.911
 3989SOL    HW112866   6.754   2.178   6.973
 3989SOL    HW212867   6.630   2.282   6.957
 3990SOL     OW12868   5.412   2.250   2.787
 3990SOL    HW112869   5.324   2.290   2.811
 3990SOL    HW212870   5.482   2.322   2.788
 3991SOL     OW12871   6.031   1.102   1.949
 3991SOL    HW112872   6.067   1.091   1.856
 3991SOL    HW212873   5.949   1.046   1.960
 3992SOL     OW12874   3.424   2.393   6.891
 3992SOL    HW112875   3.503   2.371   6.833
 3992SOL    HW212876   3.350   2.328   6.874
 3993SOL     OW12877   0.750   2.152   3.139
 3993SOL    HW112878   0.832   2.109   3.100
 3993SOL    HW212879   0.730   2.111   3.228
 3994SOL     OW12880   0.470   0.982   6.332
 3994SOL    HW112881   0.478   0.931   6.247
 3994SOL    HW212882   0.441   1.076   6.312
 3995SOL     OW12883   1.619   3.988   4.931
 3995SOL    HW112884   1.709   3.947   4.917
 3995SOL    HW212885   1.620   4.082   4.897
 3996SOL     OW12886   0.922   1.202   4.203
 3996SOL    HW112887   0.838   1.227   4.155
 3996SOL    HW212888   0.899   1.151   4.286
 3997SOL     OW12889   5.193   1.584   3.570
 3997SOL    HW112890   5.132   1.623   3.640
 3997SOL    HW212891   5.285   1.574   3.608
 3998SOL     OW12892   4.042   1.384   2.918
 3998SOL    HW112893   4.020   1.349   2.827
 3998SOL    HW212894   3.972   1.356   2.982
 3999SOL     OW12895   5.917   3.528   4.021
 3999SOL    HW112896   5.918   3.553   4.118
 3999SOL    HW212897   5.903   3.429   4.013
 4000SOL     OW12898   3.440   5.769   3.256
 4000SOL    HW112899   3.499   5.849   3.247
 4000SOL    HW212900   3.350   5.797   3.290
 4001SOL     OW12901   2.785   2.130   4.022
 4001SOL    HW112902   2.704   2.137   3.964
 4001SOL    HW212903   2.867   2.152   3.968
 4002SOL     OW12904   2.803   2.653   0.869
 4002SOL    HW112905   2.764   2.568   0.904
 4002SOL    HW212906   2.900   2.659   0.893
 4003SOL     OW12907   3.322   6.118   5.122
 4003SOL    HW112908   3.260   6.195   5.136
 4003SOL    HW212909   3.326   6.095   5.025
 4004SOL     OW12910   5.695   2.169   3.567
 4004SOL    HW112911   5.658   2.181   3.475
 4004SOL    HW212912   5.793   2.188   3.566
 4005SOL     OW12913   5.414   5.723   0.730
 4005SOL    HW112914   5.466   5.745   0.812
 4005SOL    HW212915   5.331   5.673   0.755
 4006SOL     OW12916   3.819   5.729   3.322
 4006SOL    HW112917   3.840   5.671   3.243
 4006SOL    HW212918   3.792   5.671   3.399
 4007SOL     OW12919   1.015   2.737   1.671
 4007SOL    HW112920   1.044   2.645   1.644
 4007SOL    HW212921   0.943   2.730   1.740
 4008SOL     OW12922   3.521   1.924   3.724
 4008SOL    HW112923   3.423   1.920   3.745
 4008SOL    HW212924   3.574   1.924   3.809
 4009SOL     OW12925   5.687   3.088   0.950
 4009SOL    HW112926   5.597   3.119   0.919
 4009SOL    HW212927   5.755   3.159   0.933
 4010SOL     OW12928   2.564   2.737   1.772
 4010SOL    HW112929   2.525   2.648   1.794
 4010SOL    HW212930   2.491   2.806   1.772
 4011SOL     OW12931   0.112   0.888   1.902
 4011SOL    HW112932   0.084   0.866   1.996
 4011SOL    HW212933   0.067   0.972   1.872
 4012SOL     OW12934   3.880   5.725   1.554
 4012SOL    HW112935   3.864   5.774   1.640
 4012SOL    HW212936   3.815   5.756   1.485
 4013SOL     OW12937   2.895   6.551   7.022
 4013SOL    HW112938   2.989   6.518   7.010
 4013SOL    HW212939   2.879   6.571   0.094
 4014SOL     OW12940   3.954   6.228   3.487
 4014SOL    HW112941   3.989   6.135   3.473
 4014SOL    HW212942   3.904   6.257   3.405
 4015SOL     OW12943   4.832   5.041   6.362
 4015SOL    HW112944   4.786   5.058   6.274
 4015SOL    HW212945   4.868   4.948   6.362
 4016SOL     OW12946   2.012   6.068   6.762
 4016SOL    HW112947   2.097   6.015   6.762
 4016SOL    HW212948   1.935   6.007   6.743
 4017SOL     OW12949   0.438   6.332   1.015
 4017SOL    HW112950   0.524   6.299   1.053
 4017SOL    HW212951   0.362   6.280   1.055
 4018SOL     OW12952   5.097   6.044   3.281
 4018SOL    HW112953   4.999   6.031   3.295
 4018SOL    HW212954   5.114   6.136   3.245
 4019SOL     OW12955   5.603   3.886   2.875
 4019SOL    HW112956   5.649   3.797   2.880
 4019SOL    HW212957   5.519   3.883   2.928
 4020SOL     OW12958   5.268   2.229   5.982
 4020SOL    HW112959   5.191   2.242   5.920
 4020SOL    HW212960   5.294   2.132   5.983
 4021SOL     OW12961   3.620   3.616   6.061
 4021SOL    HW112962   3.647   3.571   5.976
 4021SOL    HW212963   3.624   3.550   6.136
 4022SOL     OW12964   4.081   0.115   0.167
 4022SOL    HW112965   4.173   0.084   0.143
 4022SOL    HW212966   4.081   0.215   0.173
 4023SOL     OW12967   6.351   2.087   5.142
 4023SOL    HW112968   6.304   2.164   5.099
 4023SOL    HW212969   6.303   2.002   5.121
 4024SOL     OW12970   3.712   6.049   3.988
 4024SOL    HW112971   3.701   5.987   4.066
 4024SOL    HW212972   3.802   6.091   3.990
 4025SOL     OW12973   1.018   6.007   4.434
 4025SOL    HW112974   1.100   6.037   4.385
 4025SOL    HW212975   1.026   5.910   4.457
 4026SOL     OW12976   6.512   6.092   4.541
 4026SOL    HW112977   6.506   6.184   4.579
 4026SOL    HW212978   6.462   6.088   4.454
 4027SOL     OW12979   3.899   4.071   1.877
 4027SOL    HW112980   3.957   4.055   1.798
 4027SOL    HW212981   3.866   4.166   1.875
 4028SOL     OW12982   1.261   2.305   4.027
 4028SOL    HW112983   1.217   2.364   4.096
 4028SOL    HW212984   1.302   2.362   3.956
 4029SOL     OW12985   1.704   3.997   6.420
 4029SOL    HW112986   1.714   3.972   6.516
 4029SOL    HW212987   1.608   4.015   6.400
 4030SOL     OW12988   1.261   1.941   5.832
 4030SOL    HW112989   1.314   2.000   5.893
 4030SOL    HW212990   1.280   1.845   5.853
 4031SOL     OW12991   4.763   6.222   3.022
 4031SOL    HW112992   4.832   6.150   3.016
 4031SOL    HW212993   4.722   6.222   3.114
 4032SOL     OW12994   5.756   0.383   2.923
 4032SOL    HW112995   5.741   0.306   2.985
 4032SOL    HW212996   5.837   0.366   2.867
 4033SOL     OW12997   3.436   2.894   3.159
 4033SOL    HW112998   3.357   2.870   3.102
 4033SOL    HW212999   3.422   2.858   3.251
 4034SOL     OW13000   5.517   1.839   5.407
 4034SOL    HW113001   5.558   1.916   5.456
 4034SOL    HW213002   5.492   1.868   5.314
 4035SOL     OW13003   6.405   3.991   1.299
 4035SOL    HW113004   6.430   3.896   1.320
 4035SOL    HW213005   6.484   4.050   1.316
 4036SOL     OW13006   5.541   6.408   3.113
 4036SOL    HW113007   5.527   6.477   3.184
 4036SOL    HW213008   5.599   6.445   3.041
 4037SOL     OW13009   1.771   2.193   0.884
 4037SOL    HW113010   1.744   2.163   0.975
 4037SOL    HW213011   1.864   2.231   0.887
 4038SOL     OW13012   4.936   4.903   2.064
 4038SOL    HW113013   4.842   4.893   2.096
 4038SOL    HW213014   4.962   4.823   2.010
 4039SOL     OW13015   4.968   5.346   1.237
 4039SOL    HW113016   4.944   5.342   1.334
 4039SOL    HW213017   4.942   5.436   1.201
 4040SOL     OW13018   2.905   6.507   0.306
 4040SOL    HW113019   2.825   6.538   0.358
 4040SOL    HW213020   2.970   6.463   0.368
 4041SOL     OW13021   1.731   5.385   2.286
 4041SOL    HW113022   1.635   5.360   2.278
 4041SOL    HW213023   1.740   5.485   2.283
 4042SOL     OW13024   6.086   4.201   2.892
 4042SOL    HW113025   6.068   4.146   2.811
 4042SOL    HW213026   6.173   4.174   2.932
 4043SOL     OW13027   5.317   2.479   4.210
 4043SOL    HW113028   5.252   2.419   4.256
 4043SOL    HW213029   5.360   2.430   4.134
 4044SOL     OW13030   4.946   0.570   4.904
 4044SOL    HW113031   4.999   0.655   4.897
 4044SOL    HW213032   4.940   0.543   5.001
 4045SOL     OW13033   3.026   4.243   6.458
 4045SOL    HW113034   3.062   4.291   6.378
 4045SOL    HW213035   3.086   4.166   6.480
 4046SOL     OW13036   0.944   2.014   3.421
 4046SOL    HW113037   0.854   2.005   3.377
 4046SOL    HW213038   0.943   1.966   3.508
 4047SOL     OW13039   2.550   2.763   0.843
 4047SOL    HW113040   2.642   2.723   0.850
 4047SOL    HW213041   2.556   2.849   0.792
 4048SOL     OW13042   5.892   0.829   1.703
 4048SOL    HW113043   5.886   0.847   1.605
 4048SOL    HW213044   5.941   0.743   1.719
 4049SOL     OW13045   6.321   6.382   6.245
 4049SOL    HW113046   6.244   6.373   6.307
 4049SOL    HW213047   6.372   6.466   6.267
 4050SOL     OW13048   1.235   0.069   0.559
 4050SOL    HW113049   1.153   0.093   0.508
 4050SOL    HW213050   1.268   0.150   0.608
 4051SOL     OW13051   2.688   3.379   6.619
 4051SOL    HW113052   2.758   3.449   6.615
 4051SOL    HW213053   2.714   3.309   6.685
 4052SOL     OW13054   1.150   0.150   1.232
 4052SOL    HW113055   1.147   0.228   1.170
 4052SOL    HW213056   1.121   0.179   1.323
 4053SOL     OW13057   3.289   4.950   4.263
 4053SOL    HW113058   3.259   4.959   4.358
 4053SOL    HW213059   3.210   4.931   4.205
 4054SOL     OW13060   1.922   3.133   0.956
 4054SOL    HW113061   1.929   3.189   0.874
 4054SOL    HW213062   1.992   3.161   1.022
 4055SOL     OW13063   2.792   3.124   5.568
 4055SOL    HW113064   2.735   3.144   5.648
 4055SOL    HW213065   2.746   3.054   5.512
 4056SOL     OW13066   4.161   2.924   6.485
 4056SOL    HW113067   4.131   2.925   6.581
 4056SOL    HW213068   4.134   2.838   6.443
 4057SOL     OW13069   4.922   3.211   0.251
 4057SOL    HW113070   5.014   3.247   0.234
 4057SOL    HW213071   4.854   3.280   0.226
 4058SOL     OW13072   1.240   1.505   4.256
 4058SOL    HW113073   1.239   1.409   4.286
 4058SOL    HW213074   1.161   1.522   4.196
 4059SOL     OW13075   2.254   2.196   3.116
 4059SOL    HW113076   2.279   2.142   3.197
 4059SOL    HW213077   2.336   2.237   3.077
 4060SOL     OW13078   3.785   4.964   5.285
 4060SOL    HW113079   3.874   4.920   5.297
 4060SOL    HW213080   3.770   4.984   5.188
 4061SOL     OW13081   3.460   4.518   1.693
 4061SOL    HW113082   3.527   4.570   1.745
 4061SOL    HW213083   3.485   4.520   1.596
 4062SOL     OW13084   4.141   1.630   3.009
 4062SOL    HW113085   4.118   1.536   2.986
 4062SOL    HW213086   4.124   1.646   3.107
 4063SOL     OW13087   4.208   6.424   5.317
 4063SOL    HW113088   4.258   6.410   5.231
 4063SOL    HW213089   4.241   6.358   5.385
 4064SOL     OW13090   2.388   6.675   2.687
 4064SOL    HW113091   2.291   6.693   2.671
 4064SOL    HW213092   2.422   6.611   2.618
 4065SOL     OW13093   1.270   6.852   0.426
 4065SOL    HW113094   1.342   6.866   0.359
 4065SOL    HW213095   1.259   6.935   0.481
 4066SOL     OW13096   5.390   4.924   2.225
 4066SOL    HW113097   5.426   4.952   2.135
 4066SOL    HW213098   5.430   4.836   2.250
 4067SOL     OW13099   5.973   2.245   2.583
 4067SOL    HW113100   5.875   2.256   2.568
 4067SOL    HW213101   6.001   2.153   2.556
 4068SOL     OW13102   4.621   0.275   4.598
 4068SOL    HW113103   4.665   0.243   4.515
 4068SOL    HW213104   4.669   0.239   4.678
 4069SOL     OW13105   4.699   3.390   6.888
 4069SOL    HW113106   4.792   3.422   6.908
 4069SOL    HW213107   4.680   3.401   6.790
 4070SOL     OW13108   1.910   3.218   2.672
 4070SOL    HW113109   1.989   3.280   2.664
 4070SOL    HW213110   1.895   3.196   2.768
 4071SOL     OW13111   1.671   1.256   5.157
 4071SOL    HW113112   1.697   1.192   5.084
 4071SOL    HW213113   1.651   1.345   5.117
 4072SOL     OW13114   1.754   6.755   4.492
 4072SOL    HW113115   1.678   6.691   4.493
 4072SOL    HW213116   1.720   6.846   4.467
 4073SOL     OW13117   2.594   5.496   5.981
 4073SOL    HW113118   2.564   5.463   6.071
 4073SOL    HW213119   2.554   5.438   5.910
 4074SOL     OW13120   0.881   3.279   1.863
 4074SOL    HW113121   0.897   3.211   1.791
 4074SOL    HW213122   0.968   3.309   1.901
 4075SOL     OW13123   5.041   2.342   2.626
 4075SOL    HW113124   5.073   2.427   2.584
 4075SOL    HW213125   5.087   2.329   2.714
 4076SOL     OW13126   2.372   3.874   5.682
 4076SOL    HW113127   2.305   3.912   5.745
 4076SOL    HW213128   2.333   3.871   5.590
 4077SOL     OW13129   2.638   5.920   1.553
 4077SOL    HW113130   2.734   5.899   1.537
 4077SOL    HW213131   2.583   5.889   1.475
 4078SOL     OW13132   6.136   5.463   1.882
 4078SOL    HW113133   6.184   5.523   1.946
 4078SOL    HW213134   6.138   5.504   1.791
 4079SOL     OW13135   1.582   0.519   3.058
 4079SOL    HW113136   1.598   0.614   3.084
 4079SOL    HW213137   1.659   0.463   3.087
 4080SOL     OW13138   2.679   3.815   6.667
 4080SOL    HW113139   2.745   3.870   6.617
 4080SOL    HW213140   2.723   3.733   6.703
 4081SOL     OW13141   1.786   1.157   4.534
 4081SOL    HW113142   1.801   1.208   4.449
 4081SOL    HW213143   1.702   1.190   4.578
 4082SOL     OW13144   1.510   1.849   6.921
 4082SOL    HW113145   1.561   1.821   7.003
 4082SOL    HW213146   1.439   1.913   6.947
 4083SOL     OW13147   5.856   4.441   3.729
 4083SOL    HW113148   5.800   4.372   3.682
 4083SOL    HW213149   5.945   4.448   3.684
 4084SOL     OW13150   4.829   3.027   3.301
 4084SOL    HW113151   4.837   3.061   3.395
 4084SOL    HW213152   4.849   3.102   3.237
 4085SOL     OW13153   2.689   5.078   1.282
 4085SOL    HW113154   2.661   4.987   1.253
 4085SOL    HW213155   2.730   5.127   1.205
 4086SOL     OW13156   0.157   4.830   0.567
 4086SOL    HW113157   0.192   4.910   0.520
 4086SOL    HW213158   0.058   4.835   0.574
 4087SOL     OW13159   2.539   1.248   2.658
 4087SOL    HW113160   2.513   1.244   2.755
 4087SOL    HW213161   2.468   1.203   2.603
 4088SOL     OW13162   6.129   1.024   5.127
 4088SOL    HW113163   6.116   0.963   5.205
 4088SOL    HW213164   6.065   1.100   5.133
 4089SOL     OW13165   0.242   5.562   4.454
 4089SOL    HW113166   0.261   5.533   4.360
 4089SOL    HW213167   0.153   5.526   4.483
 4090SOL     OW13168   1.779   6.212   5.364
 4090SOL    HW113169   1.687   6.248   5.377
 4090SOL    HW213170   1.774   6.114   5.345
 4091SOL     OW13171   0.991   5.311   0.221
 4091SOL    HW113172   0.936   5.389   0.191
 4091SOL    HW213173   0.964   5.287   0.315
 4092SOL     OW13174   5.069   3.209   4.283
 4092SOL    HW113175   5.157   3.163   4.290
 4092SOL    HW213176   5.013   3.188   4.363
 4093SOL     OW13177   5.422   5.801   1.643
 4093SOL    HW113178   5.464   5.716   1.611
 4093SOL    HW213179   5.427   5.806   1.742
 4094SOL     OW13180   1.220   4.618   6.802
 4094SOL    HW113181   1.157   4.668   6.862
 4094SOL    HW213182   1.198   4.637   6.706
 4095SOL     OW13183   0.564   3.133   0.382
 4095SOL    HW113184   0.663   3.118   0.387
 4095SOL    HW213185   0.547   3.222   0.340
 4096SOL     OW13186   1.880   0.937   6.465
 4096SOL    HW113187   1.934   1.003   6.412
 4096SOL    HW213188   1.939   0.892   6.532
 4097SOL     OW13189   5.923   4.298   5.630
 4097SOL    HW113190   5.959   4.221   5.683
 4097SOL    HW213191   5.860   4.264   5.560
 4098SOL     OW13192   2.030   2.685   1.733
 4098SOL    HW113193   2.052   2.736   1.650
 4098SOL    HW213194   1.939   2.712   1.765
 4099SOL     OW13195   3.457   5.150   0.209
 4099SOL    HW113196   3.412   5.191   0.130
 4099SOL    HW213197   3.553   5.179   0.211
 4100SOL     OW13198   1.001   0.907   4.158
 4100SOL    HW113199   0.968   0.821   4.119
 4100SOL    HW213200   1.101   0.911   4.151
 4101SOL     OW13201   6.529   0.972   6.302
 4101SOL    HW113202   6.561   1.041   6.238
 4101SOL    HW213203   6.602   0.952   6.368
 4102SOL     OW13204   1.992   0.832   0.442
 4102SOL    HW113205   2.035   0.906   0.389
 4102SOL    HW213206   1.968   0.866   0.533
 4103SOL     OW13207   0.196   0.001   1.928
 4103SOL    HW113208   0.201   0.076   1.993
 4103SOL    HW213209   0.250   6.948   1.961
 4104SOL     OW13210   0.322   5.045   3.209
 4104SOL    HW113211   0.327   5.122   3.272
 4104SOL    HW213212   0.269   4.971   3.252
 4105SOL     OW13213   4.955   1.397   2.104
 4105SOL    HW113214   5.020   1.369   2.033
 4105SOL    HW213215   4.910   1.317   2.142
 4106SOL     OW13216   0.189   1.944   3.823
 4106SOL    HW113217   0.093   1.965   3.804
 4106SOL    HW213218   0.222   2.003   3.897
 4107SOL     OW13219   0.576   6.012   6.786
 4107SOL    HW113220   0.501   5.948   6.769
 4107SOL    HW213221   0.629   6.025   6.703
 4108SOL     OW13222   0.771   5.639   4.510
 4108SOL    HW113223   0.688   5.587   4.531
 4108SOL    HW213224   0.746   5.731   4.482
 4109SOL     OW13225   5.522   6.329   3.411
 4109SOL    HW113226   5.437   6.282   3.433
 4109SOL    HW213227   5.588   6.264   3.372
 4110SOL     OW13228   3.863   3.016   6.187
 4110SOL    HW113229   3.813   2.978   6.265
 4110SOL    HW213230   3.798   3.055   6.122
 4111SOL     OW13231   5.898   4.987   6.410
 4111SOL    HW113232   5.875   5.083   6.423
 4111SOL    HW213233   5.903   4.967   6.312
 4112SOL     OW13234   5.247   6.652   4.722
 4112SOL    HW113235   5.330   6.682   4.675
 4112SOL    HW213236   5.223   6.560   4.693
 4113SOL     OW13237   4.694   5.001   4.583
 4113SOL    HW113238   4.703   4.912   4.539
 4113SOL    HW213239   4.784   5.041   4.597
 4114SOL     OW13240   6.308   1.239   2.953
 4114SOL    HW113241   6.286   1.155   2.903
 4114SOL    HW213242   6.279   1.318   2.900
 4115SOL     OW13243   2.695   4.677   3.646
 4115SOL    HW113244   2.681   4.625   3.731
 4115SOL    HW213245   2.792   4.697   3.635
 4116SOL     OW13246   4.826   2.703   3.831
 4116SOL    HW113247   4.869   2.629   3.778
 4116SOL    HW213248   4.754   2.745   3.776
 4117SOL     OW13249   1.469   1.960   2.935
 4117SOL    HW113250   1.454   2.056   2.957
 4117SOL    HW213251   1.464   1.906   3.019
 4118SOL     OW13252   6.516   6.672   5.916
 4118SOL    HW113253   6.565   6.608   5.976
 4118SOL    HW213254   6.525   6.643   5.821
 4119SOL     OW13255   3.029   0.761   3.333
 4119SOL    HW113256   3.110   0.708   3.308
 4119SOL    HW213257   2.947   0.710   3.308
 4120SOL     OW13258   4.059   1.606   6.176
 4120SOL    HW113259   3.961   1.591   6.157
 4120SOL    HW213260   4.075   1.703   6.190
 4121SOL     OW13261   6.649   6.720   2.317
 4121SOL    HW113262   6.592   6.644   2.284
 4121SOL    HW213263   6.659   6.788   2.244
 4122SOL     OW13264   1.027   6.724   4.752
 4122SOL    HW113265   0.947   6.738   4.810
 4122SOL    HW213266   1.094   6.796   4.770
 4123SOL     OW13267   4.276   5.113   4.099
 4123SOL    HW113268   4.325   5.027   4.111
 4123SOL    HW213269   4.250   5.150   4.188
 4124SOL     OW13270   6.761   6.703   1.025
 4124SOL    HW113271   6.859   6.689   1.013
 4124SOL    HW213272   6.739   6.799   1.009
 4125SOL     OW13273   4.785   2.754   2.626
 4125SOL    HW113274   4.729   2.799   2.695
 4125SOL    HW213275   4.835   2.678   2.667
 4126SOL     OW13276   1.610   2.870   2.121
 4126SOL    HW113277   1.699   2.837   2.153
 4126SOL    HW213278   1.560   2.794   2.079
 4127SOL     OW13279   4.898   2.613   4.974
 4127SOL    HW113280   4.918   2.608   5.072
 4127SOL    HW213281   4.807   2.576   4.957
 4128SOL     OW13282   0.869   3.171   1.590
 4128SOL    HW113283   0.946   3.162   1.527
 4128SOL    HW213284   0.786   3.192   1.539
 4129SOL     OW13285   3.399   1.175   0.198
 4129SOL    HW113286   3.322   1.115   0.179
 4129SOL    HW213287   3.384   1.265   0.157
 4130SOL     OW13288   5.965   2.154   0.631
 4130SOL    HW113289   6.044   2.206   0.600
 4130SOL    HW213290   5.886   2.215   0.639
 4131SOL     OW13291   6.502   0.613   2.660
 4131SOL    HW113292   6.549   0.675   2.723
 4131SOL    HW213293   6.403   0.623   2.672
 4132SOL     OW13294   5.899   3.880   4.441
 4132SOL    HW113295   5.853   3.964   4.412
 4132SOL    HW213296   5.835   3.824   4.492
 4133SOL     OW13297   4.556   6.229   1.177
 4133SOL    HW113298   4.536   6.316   1.221
 4133SOL    HW213299   4.567   6.243   1.079
 4134SOL     OW13300   2.398   3.279   0.777
 4134SOL    HW113301   2.473   3.345   0.774
 4134SOL    HW213302   2.430   3.193   0.817
 4135SOL     OW13303   0.204   2.267   2.688
 4135SOL    HW113304   0.221   2.184   2.634
 4135SOL    HW213305   0.107   2.272   2.711
 4136SOL     OW13306   1.305   3.540   1.912
 4136SOL    HW113307   1.345   3.543   1.820
 4136SOL    HW213308   1.229   3.604   1.918
 4137SOL     OW13309   1.280   2.939   0.033
 4137SOL    HW113310   1.274   2.850   7.013
 4137SOL    HW213311   1.355   2.937   0.100
 4138SOL     OW13312   3.991   5.155   1.338
 4138SOL    HW113313   4.047   5.078   1.306
 4138SOL    HW213314   3.924   5.122   1.405
 4139SOL     OW13315   1.208   1.933   3.730
 4139SOL    HW113316   1.175   1.872   3.802
 4139SOL    HW213317   1.285   1.987   3.764
 4140SOL     OW13318   3.278   2.162   4.020
 4140SOL    HW113319   3.339   2.213   4.081
 4140SOL    HW213320   3.185   2.163   4.057
 4141SOL     OW13321   4.932   0.274   0.121
 4141SOL    HW113322   4.859   0.231   0.174
 4141SOL    HW213323   4.907   0.369   0.101
 4142SOL     OW13324   0.005   4.259   1.717
 4142SOL    HW113325   0.009   4.292   1.811
 4142SOL    HW213326   6.961   4.186   1.711
 4143SOL     OW13327   5.558   3.085   0.620
 4143SOL    HW113328   5.549   3.019   0.545
 4143SOL    HW213329   5.472   3.134   0.631
 4144SOL     OW13330   5.032   1.646   0.176
 4144SOL    HW113331   4.942   1.662   0.215
 4144SOL    HW213332   5.087   1.593   0.241
 4145SOL     OW13333   1.277   5.895   0.771
 4145SOL    HW113334   1.206   5.961   0.796
 4145SOL    HW213335   1.254   5.805   0.809
 4146SOL     OW13336   6.781   0.785   3.714
 4146SOL    HW113337   6.735   0.859   3.764
 4146SOL    HW213338   6.725   0.702   3.719
 4147SOL     OW13339   5.294   4.489   6.004
 4147SOL    HW113340   5.353   4.409   5.990
 4147SOL    HW213341   5.226   4.468   6.074
 4148SOL     OW13342   2.676   0.530   5.393
 4148SOL    HW113343   2.612   0.581   5.450
 4148SOL    HW213344   2.708   0.590   5.319
 4149SOL     OW13345   0.436   3.516   1.985
 4149SOL    HW113346   0.408   3.425   1.953
 4149SOL    HW213347   0.434   3.580   1.908
 4150SOL     OW13348   6.960   1.854   5.215
 4150SOL    HW113349   0.016   1.836   5.159
 4150SOL    HW213350   6.887   1.791   5.189
 4151SOL     OW13351   1.799   0.095   5.782
 4151SOL    HW113352   1.824   0.131   5.871
 4151SOL    HW213353   1.781   0.171   5.719
 4152SOL     OW13354   3.877   5.518   2.050
 4152SOL    HW113355   3.885   5.583   2.125
 4152SOL    HW213356   3.856   5.566   1.966
 4153SOL     OW13357   6.417   5.179   1.676
 4153SOL    HW113358   6.322   5.177   1.709
 4153SOL    HW213359   6.421   5.232   1.591
 4154SOL     OW13360   0.428   5.871   3.955
 4154SOL    HW113361   0.450   5.776   3.933
 4154SOL    HW213362   0.508   5.915   3.996
 4155SOL     OW13363   0.136   1.808   0.985
 4155SOL    HW113364   0.140   1.821   1.085
 4155SOL    HW213365   0.041   1.796   0.957
 4156SOL     OW13366   6.665   5.203   5.097
 4156SOL    HW113367   6.585   5.146   5.113
 4156SOL    HW213368   6.650   5.294   5.135
 4157SOL     OW13369   5.747   5.901   3.396
 4157SOL    HW113370   5.763   5.837   3.321
 4157SOL    HW213371   5.718   5.989   3.359
 4158SOL     OW13372   1.917   2.320   2.289
 4158SOL    HW113373   1.922   2.260   2.209
 4158SOL    HW213374   1.910   2.415   2.258
 4159SOL     OW13375   3.096   2.170   3.499
 4159SOL    HW113376   3.159   2.098   3.526
 4159SOL    HW213377   3.078   2.230   3.578
 4160SOL     OW13378   5.743   0.206   0.032
 4160SOL    HW113379   5.726   0.188   0.128
 4160SOL    HW213380   5.676   0.271   7.022
 4161SOL     OW13381   1.723   1.919   1.937
 4161SOL    HW113382   1.798   1.955   1.992
 4161SOL    HW213383   1.661   1.867   1.995
 4162SOL     OW13384   6.168   5.815   1.345
 4162SOL    HW113385   6.241   5.857   1.399
 4162SOL    HW213386   6.207   5.749   1.281
 4163SOL     OW13387   5.727   1.408   3.225
 4163SOL    HW113388   5.783   1.325   3.226
 4163SOL    HW213389   5.728   1.447   3.134
 4164SOL     OW13390   0.937   6.649   5.620
 4164SOL    HW113391   0.887   6.666   5.705
 4164SOL    HW213392   0.997   6.727   5.600
 4165SOL     OW13393   4.779   7.018   5.948
 4165SOL    HW113394   4.825   0.033   6.027
 4165SOL    HW213395   4.844   6.965   5.894
 4166SOL     OW13396   5.481   1.402   1.576
 4166SOL    HW113397   5.558   1.421   1.515
 4166SOL    HW213398   5.434   1.319   1.546
 4167SOL     OW13399   3.128   5.150   6.183
 4167SOL    HW113400   3.126   5.154   6.083
 4167SOL    HW213401   3.128   5.055   6.213
 4168SOL     OW13402   0.317   4.106   0.635
 4168SOL    HW113403   0.231   4.056   0.628
 4168SOL    HW213404   0.317   4.181   0.569
 4169SOL     OW13405   6.122   4.027   5.120
 4169SOL    HW113406   6.136   4.119   5.082
 4169SOL    HW213407   6.079   4.034   5.209
 4170SOL     OW13408   4.741   2.827   5.098
 4170SOL    HW113409   4.712   2.801   5.006
 4170SOL    HW213410   4.816   2.768   5.128
 4171SOL     OW13411   0.659   5.470   1.067
 4171SOL    HW113412   0.562   5.463   1.091
 4171SOL    HW213413   0.675   5.424   0.980
 4172SOL     OW13414   2.230   2.642   0.352
 4172SOL    HW113415   2.131   2.655   0.351
 4172SOL    HW213416   2.251   2.554   0.395
 4173SOL     OW13417   5.205   3.258   5.100
 4173SOL    HW113418   5.158   3.315   5.032
 4173SOL    HW213419   5.184   3.291   5.192
 4174SOL     OW13420   5.508   1.558   2.331
 4174SOL    HW113421   5.542   1.540   2.424
 4174SOL    HW213422   5.425   1.505   2.316
 4175SOL     OW13423   1.634   4.568   4.830
 4175SOL    HW113424   1.718   4.597   4.875
 4175SOL    HW213425   1.649   4.560   4.732
 4176SOL     OW13426   4.215   0.103   1.361
 4176SOL    HW113427   4.276   0.044   1.307
 4176SOL    HW213428   4.252   0.113   1.453
 4177SOL     OW13429   5.545   4.719   4.957
 4177SOL    HW113430   5.560   4.812   4.923
 4177SOL    HW213431   5.618   4.694   5.021
 4178SOL     OW13432   4.281   0.509   3.327
 4178SOL    HW113433   4.257   0.552   3.414
 4178SOL    HW213434   4.211   0.442   3.302
 4179SOL     OW13435   5.282   4.166   3.255
 4179SOL    HW113436   5.315   4.152   3.349
 4179SOL    HW213437   5.342   4.118   3.191
 4180SOL     OW13438   4.686   2.763   0.960
 4180SOL    HW113439   4.713   2.791   1.052
 4180SOL    HW213440   4.714   2.669   0.944
 4181SOL     OW13441   4.592   0.737   6.900
 4181SOL    HW113442   4.662   0.738   6.829
 4181SOL    HW213443   4.561   0.830   6.918
 4182SOL     OW13444   0.583   5.069   3.091
 4182SOL    HW113445   0.498   5.058   3.143
 4182SOL    HW213446   0.608   4.982   3.049
 4183SOL     OW13447   3.039   1.179   0.484
 4183SOL    HW113448   2.990   1.203   0.400
 4183SOL    HW213449   3.035   1.255   0.548
 4184SOL     OW13450   3.621   0.142   2.300
 4184SOL    HW113451   3.711   0.151   2.343
 4184SOL    HW213452   3.584   0.232   2.280
 4185SOL     OW13453   0.899   4.171   3.454
 4185SOL    HW113454   0.834   4.210   3.518
 4185SOL    HW213455   0.941   4.089   3.494
 4186SOL     OW13456   2.284   5.625   6.659
 4186SOL    HW113457   2.312   5.683   6.583
 4186SOL    HW213458   2.357   5.622   6.727
 4187SOL     OW13459   2.544   2.700   5.937
 4187SOL    HW113460   2.511   2.732   6.025
 4187SOL    HW213461   2.487   2.738   5.864
 4188SOL     OW13462   4.951   0.519   5.181
 4188SOL    HW113463   4.871   0.461   5.192
 4188SOL    HW213464   5.034   0.466   5.198
 4189SOL     OW13465   3.704   4.998   4.489
 4189SOL    HW113466   3.720   5.087   4.532
 4189SOL    HW213467   3.745   4.996   4.398
 4190SOL     OW13468   0.925   0.291   1.084
 4190SOL    HW113469   0.919   0.218   1.016
 4190SOL    HW213470   0.839   0.342   1.085
 4191SOL     OW13471   5.512   4.181   5.054
 4191SOL    HW113472   5.513   4.245   5.131
 4191SOL    HW213473   5.491   4.089   5.088
 4192SOL     OW13474   0.941   1.669   2.841
 4192SOL    HW113475   0.886   1.623   2.910
 4192SOL    HW213476   1.002   1.734   2.885
 4193SOL     OW13477   5.678   0.581   0.782
 4193SOL    HW113478   5.636   0.627   0.860
 4193SOL    HW213479   5.622   0.596   0.701
 4194SOL     OW13480   4.848   0.291   4.402
 4194SOL    HW113481   4.906   0.228   4.350
 4194SOL    HW213482   4.833   0.374   4.349
 4195SOL     OW13483   4.322   4.954   1.630
 4195SOL    HW113484   4.254   4.984   1.697
 4195SOL    HW213485   4.405   4.924   1.678
 4196SOL     OW13486   6.564   2.596   2.728
 4196SOL    HW113487   6.637   2.562   2.787
 4196SOL    HW213488   6.483   2.618   2.784
 4197SOL     OW13489   4.996   5.271   5.423
 4197SOL    HW113490   5.043   5.190   5.458
 4197SOL    HW213491   5.033   5.352   5.466
 4198SOL     OW13492   6.760   1.939   1.099
 4198SOL    HW113493   6.660   1.942   1.110
 4198SOL    HW213494   6.793   2.030   1.074
 4199SOL     OW13495   1.284   2.226   5.582
 4199SOL    HW113496   1.187   2.248   5.570
 4199SOL    HW213497   1.310   2.244   5.677
 4200SOL     OW13498   2.807   0.059   6.653
 4200SOL    HW113499   2.852   7.008   6.606
 4200SOL    HW213500   2.737   0.024   6.715
 4201SOL     OW13501   6.113   6.967   3.713
 4201SOL    HW113502   6.206   6.994   3.738
 4201SOL    HW213503   6.048   7.004   3.780
 4202SOL     OW13504   2.476   5.501   6.244
 4202SOL    HW113505   2.383   5.466   6.257
 4202SOL    HW213506   2.477   5.599   6.259
 4203SOL     OW13507   4.936   3.950   0.393
 4203SOL    HW113508   4.915   3.853   0.378
 4203SOL    HW213509   4.993   3.959   0.475
 4204SOL     OW13510   4.114   3.603   4.362
 4204SOL    HW113511   4.108   3.615   4.263
 4204SOL    HW213512   4.186   3.662   4.397
 4205SOL     OW13513   4.262   6.014   4.681
 4205SOL    HW113514   4.189   6.082   4.681
 4205SOL    HW213515   4.226   5.926   4.650
 4206SOL     OW13516   6.452   1.462   4.901
 4206SOL    HW113517   6.391   1.456   4.822
 4206SOL    HW213518   6.399   1.456   4.985
 4207SOL     OW13519   2.117   2.483   1.903
 4207SOL    HW113520   2.075   2.541   1.833
 4207SOL    HW213521   2.149   2.398   1.861
 4208SOL     OW13522   6.939   3.596   5.337
 4208SOL    HW113523   0.008   3.629   5.327
 4208SOL    HW213524   6.892   3.649   5.407
 4209SOL     OW13525   7.020   6.180   3.810
 4209SOL    HW113526   0.030   6.273   3.796
 4209SOL    HW213527   0.055   6.132   3.875
 4210SOL     OW13528   3.581   3.227   2.567
 4210SOL    HW113529   3.577   3.321   2.532
 4210SOL    HW213530   3.572   3.163   2.491
 4211SOL     OW13531   3.730   0.790   5.741
 4211SOL    HW113532   3.673   0.746   5.811
 4211SOL    HW213533   3.807   0.732   5.719
 4212SOL     OW13534   6.219   2.325   2.673
 4212SOL    HW113535   6.261   2.303   2.761
 4212SOL    HW213536   6.122   2.298   2.675
 4213SOL     OW13537   2.808   0.647   2.342
 4213SOL    HW113538   2.845   0.739   2.356
 4213SOL    HW213539   2.783   0.636   2.245
 4214SOL     OW13540   0.247   5.570   5.652
 4214SOL    HW113541   0.217   5.526   5.738
 4214SOL    HW213542   0.219   5.666   5.653
 4215SOL     OW13543   4.662   6.656   5.551
 4215SOL    HW113544   4.568   6.673   5.581
 4215SOL    HW213545   4.708   6.598   5.618
 4216SOL     OW13546   1.775   1.048   3.186
 4216SOL    HW113547   1.855   1.034   3.128
 4216SOL    HW213548   1.693   1.016   3.138
 4217SOL     OW13549   1.294   1.179   2.907
 4217SOL    HW113550   1.350   1.158   2.988
 4217SOL    HW213551   1.199   1.157   2.928
 4218SOL     OW13552   3.326   1.063   1.289
 4218SOL    HW113553   3.286   1.105   1.370
 4218SOL    HW213554   3.300   1.115   1.208
 4219SOL     OW13555   4.540   5.460   4.243
 4219SOL    HW113556   4.500   5.449   4.334
 4219SOL    HW213557   4.529   5.555   4.213
 4220SOL     OW13558   6.516   3.144   2.794
 4220SOL    HW113559   6.495   3.129   2.697
 4220SOL    HW213560   6.614   3.165   2.803
 4221SOL     OW13561   6.017   4.924   6.153
 4221SOL    HW113562   6.110   4.888   6.161
 4221SOL    HW213563   5.998   4.946   6.058
 4222SOL     OW13564   7.002   1.641   2.186
 4222SOL    HW113565   0.050   1.709   2.201
 4222SOL    HW213566   6.922   1.664   2.242
 4223SOL     OW13567   2.907   3.580   1.103
 4223SOL    HW113568   2.825   3.575   1.045
 4223SOL    HW213569   2.899   3.657   1.166
 4224SOL     OW13570   5.590   5.203   4.185
 4224SOL    HW113571   5.546   5.264   4.119
 4224SOL    HW213572   5.654   5.143   4.138
 4225SOL     OW13573   2.129   2.880   5.150
 4225SOL    HW113574   2.216   2.907   5.110
 4225SOL    HW213575   2.142   2.855   5.245
 4226SOL     OW13576   1.015   6.621   2.880
 4226SOL    HW113577   0.963   6.538   2.861
 4226SOL    HW213578   0.962   6.701   2.854
 4227SOL     OW13579   3.485   5.399   1.795
 4227SOL    HW113580   3.561   5.387   1.860
 4227SOL    HW213581   3.449   5.492   1.803
 4228SOL     OW13582   0.653   5.831   5.618
 4228SOL    HW113583   0.573   5.884   5.590
 4228SOL    HW213584   0.732   5.891   5.626
 4229SOL     OW13585   5.028   5.806   5.814
 4229SOL    HW113586   5.088   5.873   5.770
 4229SOL    HW213587   4.976   5.851   5.887
 4230SOL     OW13588   1.525   5.647   2.919
 4230SOL    HW113589   1.531   5.549   2.900
 4230SOL    HW213590   1.615   5.681   2.945
 4231SOL     OW13591   5.216   6.620   6.024
 4231SOL    HW113592   5.219   6.690   6.095
 4231SOL    HW213593   5.122   6.609   5.992
 4232SOL     OW13594   1.381   4.624   3.274
 4232SOL    HW113595   1.467   4.672   3.255
 4232SOL    HW213596   1.352   4.574   3.193
 4233SOL     OW13597   6.062   0.801   5.290
 4233SOL    HW113598   6.132   0.743   5.250
 4233SOL    HW213599   6.019   0.754   5.367
 4234SOL     OW13600   2.024   5.314   5.269
 4234SOL    HW113601   2.080   5.384   5.313
 4234SOL    HW213602   2.001   5.243   5.335
 4235SOL     OW13603   5.660   4.062   5.970
 4235SOL    HW113604   5.680   4.126   6.043
 4235SOL    HW213605   5.675   3.968   6.002
 4236SOL     OW13606   6.590   3.720   2.117
 4236SOL    HW113607   6.674   3.753   2.075
 4236SOL    HW213608   6.530   3.797   2.138
 4237SOL     OW13609   6.091   5.370   3.608
 4237SOL    HW113610   6.159   5.417   3.665
 4237SOL    HW213611   6.045   5.437   3.550
 4238SOL     OW13612   1.771   6.289   2.936
 4238SOL    HW113613   1.722   6.374   2.958
 4238SOL    HW213614   1.811   6.296   2.845
 4239SOL     OW13615   5.103   1.206   2.927
 4239SOL    HW113616   5.065   1.149   3.000
 4239SOL    HW213617   5.080   1.302   2.944
 4240SOL     OW13618   2.034   5.757   0.288
 4240SOL    HW113619   2.024   5.660   0.312
 4240SOL    HW213620   1.945   5.802   0.294
 4241SOL     OW13621   5.709   1.145   0.981
 4241SOL    HW113622   5.642   1.116   1.049
 4241SOL    HW213623   5.693   1.240   0.956
 4242SOL     OW13624   3.095   2.174   4.258
 4242SOL    HW113625   3.168   2.172   4.327
 4242SOL    HW213626   3.034   2.251   4.278
 4243SOL     OW13627   6.433   2.709   2.497
 4243SOL    HW113628   6.515   2.666   2.458
 4243SOL    HW213629   6.448   2.726   2.594
 4244SOL     OW13630   4.281   4.304   1.404
 4244SOL    HW113631   4.239   4.389   1.373
 4244SOL    HW213632   4.278   4.301   1.504
 4245SOL     OW13633   6.802   1.275   6.379
 4245SOL    HW113634   6.881   1.266   6.439
 4245SOL    HW213635   6.730   1.326   6.425
 4246SOL     OW13636   6.923   3.813   3.036
 4246SOL    HW113637   6.931   3.808   2.936
 4246SOL    HW213638   6.829   3.833   3.061
 4247SOL     OW13639   2.840   6.241   3.615
 4247SOL    HW113640   2.783   6.159   3.626
 4247SOL    HW213641   2.785   6.314   3.575
 4248SOL     OW13642   3.660   1.508   3.541
 4248SOL    HW113643   3.609   1.435   3.587
 4248SOL    HW213644   3.636   1.510   3.444
 4249SOL     OW13645   6.441   2.866   4.768
 4249SOL    HW113646   6.541   2.871   4.762
 4249SOL    HW213647   6.404   2.956   4.791
 4250SOL     OW13648   6.636   4.178   2.806
 4250SOL    HW113649   6.596   4.240   2.873
 4250SOL    HW213650   6.674   4.230   2.730
 4251SOL     OW13651   5.699   4.527   0.928
 4251SOL    HW113652   5.764   4.597   0.958
 4251SOL    HW213653   5.684   4.461   1.002
 4252SOL     OW13654   5.667   6.411   5.317
 4252SOL    HW113655   5.663   6.490   5.256
 4252SOL    HW213656   5.576   6.394   5.356
 4253SOL     OW13657   3.372   6.188   0.498
 4253SOL    HW113658   3.315   6.216   0.574
 4253SOL    HW213659   3.316   6.140   0.430
 4254SOL     OW13660   0.783   2.389   2.277
 4254SOL    HW113661   0.767   2.487   2.293
 4254SOL    HW213662   0.725   2.336   2.338
 4255SOL     OW13663   5.820   3.790   3.432
 4255SOL    HW113664   5.832   3.692   3.421
 4255SOL    HW213665   5.885   3.824   3.500
 4256SOL     OW13666   1.743   0.036   0.790
 4256SOL    HW113667   1.698   0.056   0.703
 4256SOL    HW213668   1.687   6.997   0.843
 4257SOL     OW13669   3.377   0.744   3.895
 4257SOL    HW113670   3.278   0.746   3.876
 4257SOL    HW213671   3.392   0.760   3.993
 4258SOL     OW13672   5.346   5.930   1.217
 4258SOL    HW113673   5.294   5.912   1.300
 4258SOL    HW213674   5.433   5.880   1.220
 4259SOL     OW13675   2.762   0.769   0.385
 4259SOL    HW113676   2.786   0.697   0.320
 4259SOL    HW213677   2.841   0.786   0.445
 4260SOL     OW13678   5.232   6.946   6.765
 4260SOL    HW113679   5.135   6.945   6.743
 4260SOL    HW213680   5.273   6.858   6.742
 4261SOL     OW13681   1.825   0.149   1.512
 4261SOL    HW113682   1.777   0.219   1.459
 4261SOL    HW213683   1.777   0.134   1.598
 4262SOL     OW13684   0.454   4.492   5.311
 4262SOL    HW113685   0.395   4.481   5.391
 4262SOL    HW213686   0.521   4.564   5.328
 4263SOL     OW13687   2.733   6.484   3.540
 4263SOL    HW113688   2.647   6.519   3.501
 4263SOL    HW213689   2.810   6.529   3.497
 4264SOL     OW13690   0.345   2.744   2.758
 4264SOL    HW113691   0.358   2.776   2.852
 4264SOL    HW213692   0.420   2.683   2.732
 4265SOL     OW13693   5.605   1.403   0.909
 4265SOL    HW113694   5.543   1.395   0.831
 4265SOL    HW213695   5.681   1.463   0.884
 4266SOL     OW13696   1.904   5.104   0.442
 4266SOL    HW113697   1.919   5.011   0.475
 4266SOL    HW213698   1.906   5.168   0.519
 4267SOL     OW13699   2.002   3.831   4.682
 4267SOL    HW113700   2.061   3.750   4.683
 4267SOL    HW213701   1.944   3.829   4.600
 4268SOL     OW13702   1.443   5.927   6.563
 4268SOL    HW113703   1.439   5.970   6.653
 4268SOL    HW213704   1.410   5.833   6.569
 4269SOL     OW13705   2.314   1.312   1.782
 4269SOL    HW113706   2.274   1.253   1.852
 4269SOL    HW213707   2.254   1.390   1.766
 4270SOL     OW13708   3.907   3.908   3.653
 4270SOL    HW113709   3.863   3.831   3.606
 4270SOL    HW213710   3.888   3.993   3.604
 4271SOL     OW13711   0.117   1.319   6.846
 4271SOL    HW113712   0.151   1.316   6.752
 4271SOL    HW213713   0.051   1.245   6.860
 4272SOL     OW13714   6.590   3.048   5.104
 4272SOL    HW113715   6.623   3.060   5.010
 4272SOL    HW213716   6.644   2.977   5.149
 4273SOL     OW13717   4.514   6.184   5.233
 4273SOL    HW113718   4.505   6.111   5.165
 4273SOL    HW213719   4.479   6.269   5.195
 4274SOL     OW13720   1.568   6.731   1.909
 4274SOL    HW113721   1.650   6.788   1.917
 4274SOL    HW213722   1.526   6.720   1.999
 4275SOL     OW13723   6.370   0.901   4.562
 4275SOL    HW113724   6.352   0.958   4.482
 4275SOL    HW213725   6.428   0.952   4.626
 4276SOL     OW13726   2.062   4.917   3.829
 4276SOL    HW113727   2.144   4.969   3.805
 4276SOL    HW213728   1.982   4.962   3.790
 4277SOL     OW13729   6.266   4.972   4.060
 4277SOL    HW113730   6.189   4.970   4.123
 4277SOL    HW213731   6.350   4.953   4.110
 4278SOL     OW13732   0.127   0.398   4.762
 4278SOL    HW113733   0.112   0.339   4.842
 4278SOL    HW213734   0.137   0.492   4.792
 4279SOL     OW13735   3.691   0.215   4.966
 4279SOL    HW113736   3.684   0.315   4.966
 4279SOL    HW213737   3.607   0.176   5.004
 4280SOL     OW13738   5.094   0.254   6.144
 4280SOL    HW113739   5.114   0.225   6.238
 4280SOL    HW213740   5.122   0.182   6.081
 4281SOL     OW13741   0.976   5.288   3.939
 4281SOL    HW113742   0.935   5.264   3.851
 4281SOL    HW213743   1.060   5.340   3.923
 4282SOL     OW13744   3.214   3.833   6.721
 4282SOL    HW113745   3.269   3.785   6.652
 4282SOL    HW213746   3.137   3.775   6.748
 4283SOL     OW13747   2.023   0.719   3.390
 4283SOL    HW113748   1.949   0.710   3.323
 4283SOL    HW213749   2.088   0.644   3.379
 4284SOL     OW13750   4.267   5.048   1.254
 4284SOL    HW113751   4.233   4.969   1.304
 4284SOL    HW213752   4.345   5.087   1.303
 4285SOL     OW13753   0.410   0.803   6.129
 4285SOL    HW113754   0.398   0.761   6.219
 4285SOL    HW213755   0.320   0.827   6.091
 4286SOL     OW13756   4.904   5.890   6.220
 4286SOL    HW113757   4.902   5.930   6.128
 4286SOL    HW213758   4.974   5.936   6.275
 4287SOL     OW13759   5.665   1.447   0.032
 4287SOL    HW113760   5.632   1.542   0.034
 4287SOL    HW213761   5.658   1.407   0.124
 4288SOL     OW13762   1.257   5.712   3.617
 4288SOL    HW113763   1.205   5.653   3.678
 4288SOL    HW213764   1.327   5.761   3.670
 4289SOL     OW13765   6.635   3.331   0.988
 4289SOL    HW113766   6.733   3.316   0.974
 4289SOL    HW213767   6.595   3.373   0.906
 4290SOL     OW13768   1.910   0.012   2.710
 4290SOL    HW113769   1.905   6.962   2.777
 4290SOL    HW213770   2.003   0.016   2.672
 4291SOL     OW13771   3.988   3.543   1.095
 4291SOL    HW113772   3.923   3.502   1.159
 4291SOL    HW213773   4.051   3.602   1.145
 4292SOL     OW13774   6.260   4.767   6.177
 4292SOL    HW113775   6.211   4.680   6.166
 4292SOL    HW213776   6.346   4.763   6.126
 4293SOL     OW13777   1.341   3.240   0.694
 4293SOL    HW113778   1.352   3.142   0.705
 4293SOL    HW213779   1.245   3.265   0.705
 4294SOL     OW13780   2.759   3.162   6.825
 4294SOL    HW113781   2.661   3.160   6.847
 4294SOL    HW213782   2.804   3.230   6.884
 4295SOL     OW13783   3.801   5.672   4.415
 4295SOL    HW113784   3.813   5.617   4.333
 4295SOL    HW213785   3.704   5.694   4.427
 4296SOL     OW13786   4.430   0.941   0.372
 4296SOL    HW113787   4.358   0.947   0.441
 4296SOL    HW213788   4.418   0.857   0.319
 4297SOL     OW13789   5.399   0.805   6.803
 4297SOL    HW113790   5.433   0.725   6.752
 4297SOL    HW213791   5.477   0.857   6.839
 4298SOL     OW13792   3.288   5.285   6.947
 4298SOL    HW113793   3.345   5.242   6.876
 4298SOL    HW213794   3.346   5.335   7.011
 4299SOL     OW13795   1.209   2.737   6.882
 4299SOL    HW113796   1.202   2.767   6.787
 4299SOL    HW213797   1.278   2.665   6.888
 4300SOL     OW13798   4.179   0.534   0.007
 4300SOL    HW113799   4.267   0.527   6.984
 4300SOL    HW213800   4.106   0.547   6.965
 4301SOL     OW13801   3.828   1.834   0.999
 4301SOL    HW113802   3.749   1.810   0.943
 4301SOL    HW213803   3.814   1.923   1.041
 4302SOL     OW13804   1.535   6.773   5.665
 4302SOL    HW113805   1.539   6.871   5.682
 4302SOL    HW213806   1.623   6.741   5.630
 4303SOL     OW13807   6.274   4.387   4.296
 4303SOL    HW113808   6.305   4.330   4.220
 4303SOL    HW213809   6.289   4.483   4.274
 4304SOL     OW13810   3.195   3.959   2.981
 4304SOL    HW113811   3.169   3.991   2.890
 4304SOL    HW213812   3.293   3.938   2.983
 4305SOL     OW13813   6.506   0.507   4.474
 4305SOL    HW113814   6.557   0.433   4.519
 4305SOL    HW213815   6.568   0.581   4.450
 4306SOL     OW13816   6.433   3.305   0.038
 4306SOL    HW113817   6.336   3.313   0.061
 4306SOL    HW213818   6.443   3.287   6.965
 4307SOL     OW13819   4.326   3.629   6.095
 4307SOL    HW113820   4.304   3.540   6.135
 4307SOL    HW213821   4.391   3.617   6.020
 4308SOL     OW13822   5.970   5.346   6.655
 4308SOL    HW113823   6.061   5.363   6.693
 4308SOL    HW213824   5.906   5.327   6.729
 4309SOL     OW13825   1.274   1.481   0.435
 4309SOL    HW113826   1.351   1.432   0.476
 4309SOL    HW213827   1.191   1.425   0.444
 4310SOL     OW13828   1.653   2.941   3.112
 4310SOL    HW113829   1.750   2.944   3.087
 4310SOL    HW213830   1.635   3.006   3.185
 4311SOL     OW13831   1.759   5.755   3.583
 4311SOL    HW113832   1.695   5.815   3.630
 4311SOL    HW213833   1.848   5.802   3.575
 4312SOL     OW13834   1.367   4.938   0.837
 4312SOL    HW113835   1.405   5.016   0.887
 4312SOL    HW213836   1.330   4.872   0.902
 4313SOL     OW13837   4.714   1.911   1.028
 4313SOL    HW113838   4.795   1.911   1.087
 4313SOL    HW213839   4.632   1.901   1.084
 4314SOL     OW13840   5.497   1.401   4.329
 4314SOL    HW113841   5.543   1.335   4.388
 4314SOL    HW213842   5.564   1.449   4.273
 4315SOL     OW13843   2.723   0.119   1.941
 4315SOL    HW113844   2.651   0.068   1.893
 4315SOL    HW213845   2.709   0.110   2.040
 4316SOL     OW13846   5.309   6.891   1.313
 4316SOL    HW113847   5.325   6.812   1.254
 4316SOL    HW213848   5.225   6.877   1.365
 4317SOL     OW13849   4.340   1.544   5.108
 4317SOL    HW113850   4.261   1.484   5.122
 4317SOL    HW213851   4.371   1.536   5.013
 4318SOL     OW13852   0.539   3.708   4.204
 4318SOL    HW113853   0.490   3.772   4.145
 4318SOL    HW213854   0.583   3.638   4.147
 4319SOL     OW13855   1.952   2.651   0.379
 4319SOL    HW113856   1.960   2.740   0.424
 4319SOL    HW213857   1.861   2.643   0.339
 4320SOL     OW13858   5.888   6.250   1.870
 4320SOL    HW113859   5.924   6.305   1.795
 4320SOL    HW213860   5.788   6.254   1.869
 4321SOL     OW13861   0.224   6.575   5.049
 4321SOL    HW113862   0.261   6.565   4.956
 4321SOL    HW213863   0.210   6.672   5.069
 4322SOL     OW13864   6.462   2.114   6.803
 4322SOL    HW113865   6.482   2.196   6.858
 4322SOL    HW213866   6.544   2.090   6.750
 4323SOL     OW13867   5.128   4.066   1.223
 4323SOL    HW113868   5.112   4.136   1.153
 4323SOL    HW213869   5.042   4.022   1.248
 4324SOL     OW13870   5.246   4.042   6.007
 4324SOL    HW113871   5.154   4.077   5.989
 4324SOL    HW213872   5.309   4.118   6.022
 4325SOL     OW13873   2.788   1.227   1.661
 4325SOL    HW113874   2.753   1.225   1.567
 4325SOL    HW213875   2.815   1.320   1.684
 4326SOL     OW13876   5.273   4.133   5.374
 4326SOL    HW113877   5.207   4.111   5.302
 4326SOL    HW213878   5.304   4.048   5.418
 4327SOL     OW13879   6.282   5.634   2.064
 4327SOL    HW113880   6.268   5.733   2.066
 4327SOL    HW213881   6.235   5.592   2.143
 4328SOL     OW13882   4.412   3.328   5.688
 4328SOL    HW113883   4.331   3.271   5.700
 4328SOL    HW213884   4.404   3.381   5.604
 4329SOL     OW13885   3.950   1.910   5.669
 4329SOL    HW113886   3.999   1.866   5.744
 4329SOL    HW213887   3.982   1.873   5.582
 4330SOL     OW13888   3.074   0.553   5.162
 4330SOL    HW113889   3.068   0.646   5.123
 4330SOL    HW213890   3.128   0.556   5.246
 4331SOL     OW13891   5.157   2.777   0.495
 4331SOL    HW113892   5.176   2.783   0.397
 4331SOL    HW213893   5.172   2.866   0.538
 4332SOL     OW13894   4.905   4.754   2.338
 4332SOL    HW113895   4.978   4.798   2.285
 4332SOL    HW213896   4.816   4.791   2.309
 4333SOL     OW13897   3.667   0.807   5.404
 4333SOL    HW113898   3.666   0.890   5.459
 4333SOL    HW213899   3.696   0.829   5.311
 4334SOL     OW13900   1.889   1.937   2.729
 4334SOL    HW113901   1.927   1.949   2.820
 4334SOL    HW213902   1.957   1.962   2.660
 4335SOL     OW13903   3.434   3.882   2.793
 4335SOL    HW113904   3.339   3.909   2.776
 4335SOL    HW213905   3.466   3.825   2.718
 4336SOL     OW13906   1.432   6.693   6.958
 4336SOL    HW113907   1.485   6.648   0.006
 4336SOL    HW213908   1.348   6.641   6.941
 4337SOL     OW13909   0.588   4.732   0.618
 4337SOL    HW113910   0.541   4.677   0.548
 4337SOL    HW213911   0.678   4.692   0.635
 4338SOL     OW13912   5.039   5.704   4.540
 4338SOL    HW113913   5.124   5.726   4.588
 4338SOL    HW213914   4.963   5.702   4.604
 4339SOL     OW13915   5.698   2.839   5.246
 4339SOL    HW113916   5.741   2.784   5.318
 4339SOL    HW213917   5.760   2.845   5.167
 4340SOL     OW13918   6.293   4.094   1.651
 4340SOL    HW113919   6.266   4.176   1.601
 4340SOL    HW213920   6.249   4.014   1.609
 4341SOL     OW13921   0.336   5.870   2.241
 4341SOL    HW113922   0.323   5.786   2.188
 4341SOL    HW213923   0.307   5.949   2.187
 4342SOL     OW13924   6.152   3.678   4.408
 4342SOL    HW113925   6.057   3.695   4.382
 4342SOL    HW213926   6.211   3.695   4.330
 4343SOL     OW13927   2.647   6.187   6.035
 4343SOL    HW113928   2.632   6.224   6.127
 4343SOL    HW213929   2.611   6.251   5.967
 4344SOL     OW13930   1.626   5.098   2.952
 4344SOL    HW113931   1.672   5.135   3.033
 4344SOL    HW213932   1.541   5.052   2.980
 4345SOL     OW13933   2.446   2.715   5.390
 4345SOL    HW113934   2.526   2.685   5.442
 4345SOL    HW213935   2.476   2.764   5.308
 4346SOL     OW13936   1.827   3.164   2.096
 4346SOL    HW113937   1.863   3.247   2.053
 4346SOL    HW213938   1.729   3.157   2.078
 4347SOL     OW13939   5.930   6.882   2.768
 4347SOL    HW113940   5.833   6.884   2.741
 4347SOL    HW213941   5.987   6.900   2.689
 4348SOL     OW13942   0.025   4.226   2.711
 4348SOL    HW113943   0.026   4.126   2.706
 4348SOL    HW213944   0.032   4.255   2.806
 4349SOL     OW13945   7.013   1.920   2.258
 4349SOL    HW113946   6.932   1.919   2.318
 4349SOL    HW213947   7.014   2.004   2.205
 4350SOL     OW13948   5.403   2.048   4.079
 4350SOL    HW113949   5.478   2.023   4.018
 4350SOL    HW213950   5.365   1.965   4.121
 4351SOL     OW13951   2.039   6.336   1.048
 4351SOL    HW113952   2.029   6.433   1.026
 4351SOL    HW213953   2.009   6.320   1.142
 4352SOL     OW13954   1.350   2.960   2.318
 4352SOL    HW113955   1.401   3.020   2.381
 4352SOL    HW213956   1.414   2.914   2.257
 4353SOL     OW13957   3.382   3.527   6.930
 4353SOL    HW113958   3.464   3.581   6.909
 4353SOL    HW213959   3.400   3.431   6.908
 4354SOL     OW13960   2.665   0.057   5.860
 4354SOL    HW113961   2.621   0.075   5.948
 4354SOL    HW213962   2.764   0.064   5.871
 4355SOL     OW13963   2.924   0.475   2.532
 4355SOL    HW113964   2.988   0.400   2.518
 4355SOL    HW213965   2.922   0.534   2.451
 4356SOL     OW13966   4.999   4.164   0.998
 4356SOL    HW113967   5.012   4.099   0.923
 4356SOL    HW213968   5.072   4.232   0.997
 4357SOL     OW13969   6.160   0.555   0.356
 4357SOL    HW113970   6.068   0.554   0.316
 4357SOL    HW213971   6.224   0.511   0.293
 4358SOL     OW13972   0.221   6.509   0.128
 4358SOL    HW113973   0.204   6.411   0.113
 4358SOL    HW213974   0.288   6.541   0.061
 4359SOL     OW13975   2.412   2.069   6.453
 4359SOL    HW113976   2.494   2.101   6.405
 4359SOL    HW213977   2.333   2.073   6.392
 4360SOL     OW13978   1.443   2.543   4.519
 4360SOL    HW113979   1.504   2.576   4.448
 4360SOL    HW213980   1.439   2.443   4.517
 4361SOL     OW13981   2.522   3.247   1.331
 4361SOL    HW113982   2.598   3.312   1.340
 4361SOL    HW213983   2.542   3.182   1.258
 4362SOL     OW13984   6.322   5.239   2.844
 4362SOL    HW113985   6.265   5.268   2.768
 4362SOL    HW213986   6.375   5.159   2.818
 4363SOL     OW13987   4.782   2.600   0.111
 4363SOL    HW113988   4.770   2.502   0.126
 4363SOL    HW213989   4.770   2.649   0.198
 4364SOL     OW13990   3.415   3.604   5.067
 4364SOL    HW113991   3.417   3.703   5.080
 4364SOL    HW213992   3.500   3.574   5.022
 4365SOL     OW13993   2.269   2.256   1.841
 4365SOL    HW113994   2.231   2.173   1.882
 4365SOL    HW213995   2.280   2.242   1.742
 4366SOL     OW13996   6.000   6.504   0.166
 4366SOL    HW113997   6.094   6.480   0.144
 4366SOL    HW213998   5.997   6.595   0.207
 4367SOL     OW13999   2.457   4.484   4.931
 4367SOL    HW114000   2.541   4.536   4.918
 4367SOL    HW214001   2.456   4.443   5.022
 4368SOL     OW14002   4.202   4.157   0.814
 4368SOL    HW114003   4.230   4.079   0.871
 4368SOL    HW214004   4.105   4.147   0.790
 4369SOL     OW14005   3.904   5.584   3.855
 4369SOL    HW114006   3.819   5.608   3.807
 4369SOL    HW214007   3.949   5.668   3.886
 4370SOL     OW14008   5.252   5.367   2.971
 4370SOL    HW114009   5.346   5.355   3.001
 4370SOL    HW214010   5.245   5.343   2.874
 4371SOL     OW14011   0.853   1.772   1.409
 4371SOL    HW114012   0.889   1.752   1.500
 4371SOL    HW214013   0.915   1.735   1.339
 4372SOL     OW14014   3.501   1.067   2.968
 4372SOL    HW114015   3.422   1.127   2.971
 4372SOL    HW214016   3.534   1.060   2.873
 4373SOL     OW14017   6.992   2.154   6.602
 4373SOL    HW114018   6.894   2.142   6.583
 4373SOL    HW214019   7.005   2.234   6.661
 4374SOL     OW14020   1.029   1.928   2.313
 4374SOL    HW114021   1.019   1.830   2.297
 4374SOL    HW214022   1.018   1.947   2.410
 4375SOL     OW14023   3.511   0.443   3.254
 4375SOL    HW114024   3.517   0.354   3.299
 4375SOL    HW214025   3.526   0.431   3.156
 4376SOL     OW14026   6.462   6.584   2.170
 4376SOL    HW114027   6.379   6.639   2.173
 4376SOL    HW214028   6.447   6.497   2.217
 4377SOL     OW14029   5.322   4.113   0.614
 4377SOL    HW114030   5.397   4.172   0.641
 4377SOL    HW214031   5.237   4.146   0.654
 4378SOL     OW14032   2.084   1.596   2.872
 4378SOL    HW114033   2.176   1.623   2.843
 4378SOL    HW214034   2.059   1.510   2.827
 4379SOL     OW14035   2.059   1.054   2.741
 4379SOL    HW114036   2.056   1.102   2.654
 4379SOL    HW214037   2.132   0.985   2.739
 4380SOL     OW14038   1.633   6.821   2.824
 4380SOL    HW114039   1.563   6.891   2.808
 4380SOL    HW214040   1.698   6.821   2.749
 4381SOL     OW14041   0.680   5.589   5.493
 4381SOL    HW114042   0.680   5.670   5.551
 4381SOL    HW214043   0.628   5.516   5.538
 4382SOL     OW14044   0.715   3.779   5.243
 4382SOL    HW114045   0.645   3.808   5.178
 4382SOL    HW214046   0.690   3.808   5.335
 4383SOL     OW14047   0.557   3.417   6.789
 4383SOL    HW114048   0.606   3.504   6.786
 4383SOL    HW214049   0.607   3.351   6.844
 4384SOL     OW14050   5.891   0.591   4.577
 4384SOL    HW114051   5.990   0.584   4.585
 4384SOL    HW214052   5.868   0.656   4.503
 4385SOL     OW14053   5.626   2.566   5.130
 4385SOL    HW114054   5.648   2.654   5.087
 4385SOL    HW214055   5.543   2.529   5.088
 4386SOL     OW14056   1.812   3.373   5.964
 4386SOL    HW114057   1.879   3.443   5.989
 4386SOL    HW214058   1.733   3.379   6.026
 4387SOL     OW14059   6.566   2.439   1.506
 4387SOL    HW114060   6.632   2.381   1.555
 4387SOL    HW214061   6.500   2.476   1.571
 4388SOL     OW14062   4.175   2.150   5.553
 4388SOL    HW114063   4.090   2.197   5.578
 4388SOL    HW214064   4.248   2.216   5.542
 4389SOL     OW14065   6.029   3.110   1.063
 4389SOL    HW114066   5.987   3.162   0.988
 4389SOL    HW214067   6.077   3.031   1.026
 4390SOL     OW14068   3.665   6.907   1.711
 4390SOL    HW114069   3.637   6.817   1.677
 4390SOL    HW214070   3.696   6.900   1.806
 4391SOL     OW14071   2.252   5.754   6.933
 4391SOL    HW114072   2.201   5.722   6.854
 4391SOL    HW214073   2.234   5.851   6.949
 4392SOL     OW14074   0.268   2.860   5.367
 4392SOL    HW114075   0.208   2.781   5.355
 4392SOL    HW214076   0.363   2.829   5.368
 4393SOL     OW14077   6.535   1.180   2.011
 4393SOL    HW114078   6.501   1.127   2.089
 4393SOL    HW214079   6.466   1.180   1.939
 4394SOL     OW14080   6.807   5.284   2.287
 4394SOL    HW114081   6.754   5.260   2.368
 4394SOL    HW214082   6.825   5.383   2.288
 4395SOL     OW14083   2.020   0.319   1.909
 4395SOL    HW114084   2.025   0.294   1.812
 4395SOL    HW214085   1.929   0.353   1.931
 4396SOL     OW14086   1.868   1.427   4.029
 4396SOL    HW114087   1.799   1.483   4.074
 4396SOL    HW214088   1.902   1.357   4.092
 4397SOL     OW14089   1.947   2.634   4.002
 4397SOL    HW114090   1.946   2.734   3.992
 4397SOL    HW214091   1.888   2.607   4.078
 4398SOL     OW14092   1.036   3.528   5.902
 4398SOL    HW114093   0.976   3.592   5.950
 4398SOL    HW214094   1.035   3.439   5.949
 4399SOL     OW14095   3.607   6.645   2.678
 4399SOL    HW114096   3.651   6.556   2.667
 4399SOL    HW214097   3.565   6.672   2.591
 4400SOL     OW14098   2.211   6.500   5.239
 4400SOL    HW114099   2.176   6.522   5.330
 4400SOL    HW214100   2.311   6.489   5.244
 4401SOL     OW14101   2.895   6.954   5.561
 4401SOL    HW114102   2.860   6.923   5.650
 4401SOL    HW214103   2.838   0.004   5.526
 4402SOL     OW14104   1.578   0.495   2.492
 4402SOL    HW114105   1.500   0.458   2.542
 4402SOL    HW214106   1.553   0.584   2.453
 4403SOL     OW14107   0.908   0.434   0.713
 4403SOL    HW114108   0.956   0.490   0.780
 4403SOL    HW214109   0.909   0.481   0.625
 4404SOL     OW14110   1.806   6.613   5.956
 4404SOL    HW114111   1.826   6.533   5.898
 4404SOL    HW214112   1.873   6.684   5.937
 4405SOL     OW14113   1.859   4.322   1.818
 4405SOL    HW114114   1.818   4.234   1.843
 4405SOL    HW214115   1.792   4.395   1.829
 4406SOL     OW14116   0.679   2.655   0.770
 4406SOL    HW114117   0.619   2.674   0.694
 4406SOL    HW214118   0.702   2.557   0.771
 4407SOL     OW14119   6.616   5.735   1.114
 4407SOL    HW114120   6.590   5.643   1.084
 4407SOL    HW214121   6.690   5.729   1.181
 4408SOL     OW14122   2.445   6.980   0.767
 4408SOL    HW114123   2.465   6.903   0.706
 4408SOL    HW214124   2.517   0.025   0.759
 4409SOL     OW14125   4.520   1.208   2.362
 4409SOL    HW114126   4.505   1.295   2.316
 4409SOL    HW214127   4.504   1.133   2.299
 4410SOL     OW14128   0.456   4.606   0.371
 4410SOL    HW114129   0.389   4.538   0.341
 4410SOL    HW214130   0.547   4.576   0.345
 4411SOL     OW14131   3.928   4.227   5.154
 4411SOL    HW114132   3.937   4.301   5.220
 4411SOL    HW214133   3.981   4.248   5.072
 4412SOL     OW14134   4.777   6.316   3.895
 4412SOL    HW114135   4.826   6.386   3.843
 4412SOL    HW214136   4.838   6.239   3.914
 4413SOL     OW14137   5.860   4.774   4.135
 4413SOL    HW114138   5.890   4.718   4.058
 4413SOL    HW214139   5.829   4.715   4.209
 4414SOL     OW14140   3.677   5.660   1.373
 4414SOL    HW114141   3.694   5.568   1.408
 4414SOL    HW214142   3.734   5.676   1.292
 4415SOL     OW14143   4.528   2.754   0.058
 4415SOL    HW114144   4.588   2.674   0.056
 4415SOL    HW214145   4.581   2.836   0.038
 4416SOL     OW14146   4.156   1.980   3.671
 4416SOL    HW114147   4.076   1.922   3.654
 4416SOL    HW214148   4.224   1.929   3.723
 4417SOL     OW14149   5.987   3.878   4.029
 4417SOL    HW114150   6.024   3.816   4.098
 4417SOL    HW214151   5.974   3.969   4.069
 4418SOL     OW14152   6.383   1.995   2.343
 4418SOL    HW114153   6.309   2.061   2.359
 4418SOL    HW214154   6.365   1.945   2.258
 4419SOL     OW14155   5.982   0.313   5.482
 4419SOL    HW114156   5.947   0.387   5.541
 4419SOL    HW214157   5.906   0.259   5.447
 4420SOL     OW14158   4.091   1.144   1.816
 4420SOL    HW114159   4.017   1.085   1.783
 4420SOL    HW214160   4.060   1.239   1.817
 4421SOL     OW14161   1.919   1.861   4.906
 4421SOL    HW114162   2.008   1.815   4.901
 4421SOL    HW214163   1.932   1.959   4.914
 4422SOL     OW14164   1.076   4.370   6.722
 4422SOL    HW114165   1.144   4.435   6.754
 4422SOL    HW214166   0.984   4.403   6.746
 4423SOL     OW14167   0.224   3.488   5.537
 4423SOL    HW114168   0.211   3.551   5.614
 4423SOL    HW214169   0.189   3.529   5.453
 4424SOL     OW14170   5.441   0.788   3.981
 4424SOL    HW114171   5.449   0.852   4.057
 4424SOL    HW214172   5.362   0.728   3.995
 4425SOL     OW14173   3.299   5.126   0.450
 4425SOL    HW114174   3.374   5.117   0.385
 4425SOL    HW214175   3.258   5.036   0.467
 4426SOL     OW14176   1.066   1.119   3.944
 4426SOL    HW114177   1.044   1.044   4.007
 4426SOL    HW214178   1.042   1.206   3.987
 4427SOL     OW14179   5.838   6.607   2.609
 4427SOL    HW114180   5.916   6.550   2.581
 4427SOL    HW214181   5.869   6.676   2.675
 4428SOL     OW14182   3.991   0.705   3.542
 4428SOL    HW114183   3.992   0.619   3.593
 4428SOL    HW214184   4.027   0.779   3.599
 4429SOL     OW14185   2.960   0.298   2.057
 4429SOL    HW114186   3.010   0.369   2.007
 4429SOL    HW214187   2.892   0.257   1.997
 4430SOL     OW14188   5.139   4.782   4.789
 4430SOL    HW114189   5.041   4.802   4.791
 4430SOL    HW214190   5.188   4.844   4.851
 4431SOL     OW14191   2.386   0.826   2.925
 4431SOL    HW114192   2.348   0.915   2.951
 4431SOL    HW214193   2.480   0.819   2.958
 4432SOL     OW14194   2.813   3.125   5.883
 4432SOL    HW114195   2.731   3.173   5.853
 4432SOL    HW214196   2.793   3.028   5.896
 4433SOL     OW14197   6.015   2.176   4.051
 4433SOL    HW114198   5.995   2.188   4.148
 4433SOL    HW214199   5.930   2.153   4.002
 4434SOL     OW14200   5.717   1.520   2.991
 4434SOL    HW114201   5.783   1.593   2.975
 4434SOL    HW214202   5.722   1.453   2.916
 4435SOL     OW14203   4.462   3.805   1.198
 4435SOL    HW114204   4.427   3.768   1.283
 4435SOL    HW214205   4.454   3.736   1.126
 4436SOL     OW14206   4.600   1.261   1.532
 4436SOL    HW114207   4.643   1.186   1.582
 4436SOL    HW214208   4.501   1.256   1.543
 4437SOL     OW14209   1.178   2.867   2.711
 4437SOL    HW114210   1.149   2.931   2.640
 4437SOL    HW214211   1.247   2.805   2.674
 4438SOL     OW14212   4.666   6.861   6.719
 4438SOL    HW114213   4.634   6.921   6.646
 4438SOL    HW214214   4.673   6.911   6.805
 4439SOL     OW14215   0.221   4.292   1.541
 4439SOL    HW114216   0.141   4.270   1.598
 4439SOL    HW214217   0.193   4.299   1.446
 4440SOL     OW14218   3.181   5.078   1.004
 4440SOL    HW114219   3.193   5.161   0.949
 4440SOL    HW214220   3.179   5.103   1.101
 4441SOL     OW14221   0.653   1.598   1.956
 4441SOL    HW114222   0.737   1.554   1.923
 4441SOL    HW214223   0.667   1.697   1.958
 4442SOL     OW14224   1.636   4.999   4.298
 4442SOL    HW114225   1.567   4.930   4.319
 4442SOL    HW214226   1.654   5.054   4.379
 4443SOL     OW14227   1.415   3.567   5.620
 4443SOL    HW114228   1.429   3.659   5.583
 4443SOL    HW214229   1.503   3.531   5.652
 4444SOL     OW14230   3.445   3.854   6.901
 4444SOL    HW114231   3.511   3.898   6.840
 4444SOL    HW214232   3.353   3.861   6.861
 4445SOL     OW14233   1.354   6.566   0.444
 4445SOL    HW114234   1.351   6.666   0.440
 4445SOL    HW214235   1.425   6.538   0.509
 4446SOL     OW14236   5.250   2.348   0.768
 4446SOL    HW114237   5.174   2.396   0.811
 4446SOL    HW214238   5.336   2.381   0.807
 4447SOL     OW14239   5.766   4.055   5.481
 4447SOL    HW114240   5.753   4.007   5.568
 4447SOL    HW214241   5.713   4.140   5.482
 4448SOL     OW14242   2.349   5.402   1.700
 4448SOL    HW114243   2.300   5.489   1.711
 4448SOL    HW214244   2.284   5.327   1.693
 4449SOL     OW14245   5.399   0.706   6.130
 4449SOL    HW114246   5.335   0.714   6.054
 4449SOL    HW214247   5.367   0.634   6.192
 4450SOL     OW14248   3.517   2.176   5.997
 4450SOL    HW114249   3.610   2.190   6.029
 4450SOL    HW214250   3.454   2.230   6.053
 4451SOL     OW14251   5.260   4.760   4.141
 4451SOL    HW114252   5.292   4.698   4.212
 4451SOL    HW214253   5.222   4.708   4.065
 4452SOL     OW14254   5.611   5.797   4.240
 4452SOL    HW114255   5.599   5.755   4.150
 4452SOL    HW214256   5.547   5.755   4.305
 4453SOL     OW14257   1.765   2.773   1.772
 4453SOL    HW114258   1.770   2.860   1.820
 4453SOL    HW214259   1.732   2.789   1.678
 4454SOL     OW14260   1.158   1.743   0.020
 4454SOL    HW114261   1.125   1.683   0.093
 4454SOL    HW214262   1.226   1.694   6.989
 4455SOL     OW14263   5.564   5.378   5.307
 4455SOL    HW114264   5.522   5.468   5.312
 4455SOL    HW214265   5.498   5.311   5.273
 4456SOL     OW14266   2.449   6.436   3.455
 4456SOL    HW114267   2.536   6.397   3.427
 4456SOL    HW214268   2.374   6.389   3.407
 4457SOL     OW14269   3.779   1.745   2.958
 4457SOL    HW114270   3.689   1.738   3.002
 4457SOL    HW214271   3.849   1.710   3.021
 4458SOL     OW14272   1.962   3.286   0.723
 4458SOL    HW114273   1.920   3.270   0.634
 4458SOL    HW214274   2.052   3.242   0.725
 4459SOL     OW14275   4.241   2.124   4.561
 4459SOL    HW114276   4.174   2.173   4.618
 4459SOL    HW214277   4.197   2.045   4.518
 4460SOL     OW14278   1.033   3.054   0.052
 4460SOL    HW114279   1.113   2.996   0.041
 4460SOL    HW214280   0.954   2.997   0.076
 4461SOL     OW14281   1.982   0.900   0.711
 4461SOL    HW114282   2.028   0.820   0.751
 4461SOL    HW214283   1.967   0.969   0.782
 4462SOL     OW14284   6.171   4.682   2.277
 4462SOL    HW114285   6.255   4.668   2.225
 4462SOL    HW214286   6.104   4.613   2.250
 4463SOL     OW14287   4.503   1.144   0.883
 4463SOL    HW114288   4.444   1.135   0.963
 4463SOL    HW214289   4.563   1.064   0.877
 4464SOL     OW14290   0.301   5.793   0.577
 4464SOL    HW114291   0.355   5.872   0.547
 4464SOL    HW214292   0.215   5.791   0.526
 4465SOL     OW14293   3.766   5.184   0.876
 4465SOL    HW114294   3.833   5.196   0.949
 4465SOL    HW214295   3.685   5.139   0.913
 4466SOL     OW14296   0.938   2.294   3.336
 4466SOL    HW114297   0.966   2.201   3.359
 4466SOL    HW214298   0.984   2.359   3.395
 4467SOL     OW14299   2.150   5.231   3.500
 4467SOL    HW114300   2.100   5.256   3.583
 4467SOL    HW214301   2.098   5.162   3.450
 4468SOL     OW14302   1.730   4.086   0.818
 4468SOL    HW114303   1.795   4.011   0.836
 4468SOL    HW214304   1.742   4.119   0.725
 4469SOL     OW14305   3.571   0.967   0.970
 4469SOL    HW114306   3.572   1.067   0.974
 4469SOL    HW214307   3.485   0.935   0.930
 4470SOL     OW14308   0.536   1.690   2.731
 4470SOL    HW114309   0.503   1.746   2.655
 4470SOL    HW214310   0.475   1.700   2.809
 4471SOL     OW14311   0.698   2.692   6.623
 4471SOL    HW114312   0.702   2.771   6.684
 4471SOL    HW214313   0.774   2.630   6.644
 4472SOL     OW14314   0.208   2.731   1.530
 4472SOL    HW114315   0.203   2.653   1.593
 4472SOL    HW214316   0.299   2.733   1.487
 4473SOL     OW14317   5.838   3.210   4.592
 4473SOL    HW114318   5.926   3.207   4.640
 4473SOL    HW214319   5.779   3.138   4.625
 4474SOL     OW14320   3.063   0.032   1.967
 4474SOL    HW114321   2.980   7.012   1.933
 4474SOL    HW214322   3.038   0.118   2.012
 4475SOL     OW14323   1.313   4.087   1.855
 4475SOL    HW114324   1.377   4.163   1.845
 4475SOL    HW214325   1.322   4.047   1.946
 4476SOL     OW14326   6.224   1.153   3.385
 4476SOL    HW114327   6.273   1.133   3.469
 4476SOL    HW214328   6.129   1.124   3.394
 4477SOL     OW14329   1.737   0.594   5.368
 4477SOL    HW114330   1.736   0.517   5.305
 4477SOL    HW214331   1.670   0.579   5.441
 4478SOL     OW14332   2.716   6.966   2.422
 4478SOL    HW114333   2.637   6.936   2.476
 4478SOL    HW214334   2.769   0.008   2.475
 4479SOL     OW14335   0.359   2.091   1.490
 4479SOL    HW114336   0.312   2.137   1.565
 4479SOL    HW214337   0.307   2.011   1.461
 4480SOL     OW14338   6.953   4.063   5.229
 4480SOL    HW114339   6.941   4.155   5.191
 4480SOL    HW214340   0.026   4.041   5.233
 4481SOL     OW14341   2.428   5.488   4.992
 4481SOL    HW114342   2.386   5.519   5.078
 4481SOL    HW214343   2.417   5.559   4.922
 4482SOL     OW14344   1.885   2.957   5.213
 4482SOL    HW114345   1.978   2.963   5.178
 4482SOL    HW214346   1.823   3.003   5.149
 4483SOL     OW14347   6.794   2.417   2.067
 4483SOL    HW114348   6.823   2.406   1.971
 4483SOL    HW214349   6.729   2.346   2.091
 4484SOL     OW14350   3.152   2.077   6.518
 4484SOL    HW114351   3.210   2.099   6.439
 4484SOL    HW214352   3.206   2.087   6.602
 4485SOL     OW14353   5.899   2.403   4.624
 4485SOL    HW114354   5.820   2.415   4.562
 4485SOL    HW214355   5.881   2.451   4.710
 4486SOL     OW14356   6.127   5.473   4.506
 4486SOL    HW114357   6.177   5.390   4.529
 4486SOL    HW214358   6.047   5.481   4.566
 4487SOL     OW14359   2.874   2.392   6.754
 4487SOL    HW114360   2.902   2.321   6.819
 4487SOL    HW214361   2.941   2.467   6.757
 4488SOL     OW14362   1.239   3.353   5.600
 4488SOL    HW114363   1.306   3.427   5.594
 4488SOL    HW214364   1.275   3.280   5.659
 4489SOL     OW14365   5.206   5.397   4.682
 4489SOL    HW114366   5.118   5.413   4.637
 4489SOL    HW214367   5.201   5.428   4.777
 4490SOL     OW14368   4.988   2.138   1.332
 4490SOL    HW114369   4.934   2.189   1.400
 4490SOL    HW214370   5.085   2.145   1.355
 4491SOL     OW14371   0.051   3.588   3.870
 4491SOL    HW114372   0.056   3.674   3.819
 4491SOL    HW214373   0.031   3.608   3.966
 4492SOL     OW14374   6.160   3.668   2.048
 4492SOL    HW114375   6.211   3.695   2.129
 4492SOL    HW214376   6.188   3.576   2.019
 4493SOL     OW14377   5.375   5.950   4.822
 4493SOL    HW114378   5.291   5.997   4.850
 4493SOL    HW214379   5.436   5.943   4.900
 4494SOL     OW14380   0.173   0.870   6.023
 4494SOL    HW114381   0.122   0.934   6.080
 4494SOL    HW214382   0.114   0.793   5.998
 4495SOL     OW14383   4.696   0.536   3.739
 4495SOL    HW114384   4.786   0.565   3.705
 4495SOL    HW214385   4.665   0.456   3.687
 4496SOL     OW14386   5.496   6.245   0.687
 4496SOL    HW114387   5.428   6.198   0.744
 4496SOL    HW214388   5.573   6.274   0.744
 4497SOL     OW14389   4.042   1.781   6.529
 4497SOL    HW114390   4.094   1.804   6.446
 4497SOL    HW214391   4.100   1.728   6.590
 4498SOL     OW14392   0.050   4.594   7.004
 4498SOL    HW114393   0.054   4.546   6.917
 4498SOL    HW214394   0.053   4.693   6.988
 4499SOL     OW14395   6.203   3.243   3.534
 4499SOL    HW114396   6.280   3.207   3.481
 4499SOL    HW214397   6.217   3.341   3.549
 4500SOL     OW14398   3.562   3.821   5.767
 4500SOL    HW114399   3.549   3.842   5.671
 4500SOL    HW214400   3.627   3.745   5.776
 4501SOL     OW14401   6.615   3.505   2.815
 4501SOL    HW114402   6.582   3.435   2.878
 4501SOL    HW214403   6.714   3.515   2.824
 4502SOL     OW14404   0.600   3.266   0.005
 4502SOL    HW114405   0.511   3.304   0.030
 4502SOL    HW214406   0.601   3.169   0.026
 4503SOL     OW14407   3.800   7.007   1.484
 4503SOL    HW114408   3.746   6.981   1.564
 4503SOL    HW214409   3.758   6.969   1.402
 4504SOL     OW14410   1.020   1.566   4.525
 4504SOL    HW114411   1.120   1.569   4.531
 4504SOL    HW214412   0.985   1.657   4.507
 4505SOL     OW14413   6.423   4.902   1.703
 4505SOL    HW114414   6.463   4.993   1.691
 4505SOL    HW214415   6.493   4.832   1.690
 4506SOL     OW14416   5.030   2.807   3.244
 4506SOL    HW114417   4.989   2.791   3.154
 4506SOL    HW214418   4.972   2.869   3.296
 4507SOL     OW14419   6.991   3.818   3.467
 4507SOL    HW114420   6.942   3.873   3.535
 4507SOL    HW214421   6.984   3.721   3.491
 4508SOL     OW14422   1.529   5.084   6.383
 4508SOL    HW114423   1.524   5.048   6.476
 4508SOL    HW214424   1.607   5.042   6.336
 4509SOL     OW14425   5.018   2.153   3.087
 4509SOL    HW114426   5.072   2.069   3.092
 4509SOL    HW214427   4.938   2.138   3.029
 4510SOL     OW14428   4.171   1.593   4.398
 4510SOL    HW114429   4.145   1.531   4.472
 4510SOL    HW214430   4.219   1.542   4.327
 4511SOL     OW14431   6.022   3.452   6.546
 4511SOL    HW114432   6.000   3.502   6.463
 4511SOL    HW214433   6.121   3.444   6.555
 4512SOL     OW14434   3.085   0.611   5.932
 4512SOL    HW114435   3.048   0.683   5.991
 4512SOL    HW214436   3.041   0.524   5.954
 4513SOL     OW14437   0.660   4.840   6.270
 4513SOL    HW114438   0.616   4.807   6.353
 4513SOL    HW214439   0.671   4.940   6.275
 4514SOL     OW14440   3.203   2.576   5.853
 4514SOL    HW114441   3.126   2.513   5.859
 4514SOL    HW214442   3.195   2.630   5.769
 4515SOL     OW14443   5.781   2.034   5.286
 4515SOL    HW114444   5.785   2.133   5.274
 4515SOL    HW214445   5.738   2.012   5.373
 4516SOL     OW14446   2.481   0.148   0.168
 4516SOL    HW114447   2.423   0.096   0.105
 4516SOL    HW214448   2.423   0.199   0.232
 4517SOL     OW14449   4.979   6.843   6.639
 4517SOL    HW114450   4.881   6.851   6.658
 4517SOL    HW214451   5.004   6.747   6.631
 4518SOL     OW14452   0.265   6.805   2.075
 4518SOL    HW114453   0.216   6.773   2.156
 4518SOL    HW214454   0.353   6.758   2.067
 4519SOL     OW14455   5.338   6.786   1.044
 4519SOL    HW114456   5.389   6.865   1.010
 4519SOL    HW214457   5.401   6.709   1.059
 4520SOL     OW14458   4.316   6.108   6.027
 4520SOL    HW114459   4.248   6.167   6.071
 4520SOL    HW214460   4.284   6.013   6.030
 4521SOL     OW14461   5.887   2.076   5.669
 4521SOL    HW114462   5.973   2.117   5.639
 4521SOL    HW214463   5.901   2.024   5.753
 4522SOL     OW14464   5.795   5.039   3.431
 4522SOL    HW114465   5.783   5.028   3.332
 4522SOL    HW214466   5.893   5.051   3.451
 4523SOL     OW14467   1.632   4.283   0.227
 4523SOL    HW114468   1.665   4.362   0.279
 4523SOL    HW214469   1.565   4.313   0.159
 4524SOL     OW14470   6.210   3.297   2.500
 4524SOL    HW114471   6.158   3.286   2.584
 4524SOL    HW214472   6.302   3.330   2.521
 4525SOL     OW14473   4.151   2.080   5.266
 4525SOL    HW114474   4.062   2.042   5.292
 4525SOL    HW214475   4.207   2.093   5.348
 4526SOL     OW14476   6.385   0.256   6.729
 4526SOL    HW114477   6.305   0.198   6.713
 4526SOL    HW214478   6.356   0.342   6.770
 4527SOL     OW14479   6.662   6.839   2.647
 4527SOL    HW114480   6.736   6.805   2.590
 4527SOL    HW214481   6.578   6.845   2.593
 4528SOL     OW14482   4.426   0.367   6.425
 4528SOL    HW114483   4.408   0.284   6.477
 4528SOL    HW214484   4.476   0.432   6.483
 4529SOL     OW14485   2.196   0.913   5.151
 4529SOL    HW114486   2.181   0.842   5.220
 4529SOL    HW214487   2.187   1.003   5.193
 4530SOL     OW14488   2.823   5.402   3.367
 4530SOL    HW114489   2.911   5.433   3.329
 4530SOL    HW214490   2.822   5.417   3.465
 4531SOL     OW14491   0.607   3.207   6.000
 4531SOL    HW114492   0.634   3.218   6.096
 4531SOL    HW214493   0.631   3.290   5.949
 4532SOL     OW14494   6.528   1.066   2.344
 4532SOL    HW114495   6.606   1.041   2.285
 4532SOL    HW214496   6.561   1.083   2.437
 4533SOL     OW14497   2.018   0.992   3.005
 4533SOL    HW114498   2.112   1.013   3.032
 4533SOL    HW214499   1.992   1.051   2.928
 4534SOL     OW14500   5.494   3.641   5.413
 4534SOL    HW114501   5.461   3.547   5.409
 4534SOL    HW214502   5.571   3.646   5.477
 4535SOL     OW14503   3.956   0.997   2.194
 4535SOL    HW114504   3.861   0.966   2.195
 4535SOL    HW214505   3.965   1.074   2.131
 4536SOL     OW14506   3.380   1.788   4.780
 4536SOL    HW114507   3.476   1.766   4.796
 4536SOL    HW214508   3.329   1.782   4.866
 4537SOL     OW14509   4.263   3.362   1.190
 4537SOL    HW114510   4.181   3.316   1.222
 4537SOL    HW214511   4.336   3.351   1.258
 4538SOL     OW14512   2.727   0.629   2.076
 4538SOL    HW114513   2.768   0.719   2.063
 4538SOL    HW214514   2.729   0.579   1.989
 4539SOL     OW14515   2.978   5.723   5.307
 4539SOL    HW114516   3.040   5.794   5.274
 4539SOL    HW214517   2.909   5.763   5.367
 4540SOL     OW14518   2.369   1.499   0.368
 4540SOL    HW114519   2.343   1.408   0.400
 4540SOL    HW214520   2.343   1.509   0.272
 4541SOL     OW14521   5.265   1.400   6.346
 4541SOL    HW114522   5.238   1.313   6.388
 4541SOL    HW214523   5.331   1.446   6.405
 4542SOL     OW14524   0.107   2.899   1.758
 4542SOL    HW114525   0.113   2.896   1.659
 4542SOL    HW214526   0.182   2.955   1.794
 4543SOL     OW14527   5.012   2.450   0.917
 4543SOL    HW114528   5.005   2.546   0.945
 4543SOL    HW214529   4.995   2.391   0.996
 4544SOL     OW14530   3.422   5.482   0.096
 4544SOL    HW114531   3.507   5.512   0.139
 4544SOL    HW214532   3.406   5.535   0.013
 4545SOL     OW14533   6.075   2.976   5.036
 4545SOL    HW114534   6.130   3.021   5.106
 4545SOL    HW214535   5.980   3.006   5.044
 4546SOL     OW14536   2.802   6.773   4.417
 4546SOL    HW114537   2.886   6.784   4.365
 4546SOL    HW214538   2.739   6.848   4.396
 4547SOL     OW14539   6.287   1.474   0.537
 4547SOL    HW114540   6.224   1.441   0.467
 4547SOL    HW214541   6.370   1.509   0.494
 4548SOL     OW14542   2.484   2.557   3.685
 4548SOL    HW114543   2.431   2.635   3.720
 4548SOL    HW214544   2.518   2.579   3.594
 4549SOL     OW14545   5.471   3.928   2.141
 4549SOL    HW114546   5.489   3.965   2.232
 4549SOL    HW214547   5.391   3.868   2.145
 4550SOL     OW14548   1.073   4.340   3.116
 4550SOL    HW114549   1.110   4.313   3.205
 4550SOL    HW214550   0.981   4.375   3.128
 4551SOL     OW14551   0.480   3.715   4.731
 4551SOL    HW114552   0.417   3.637   4.725
 4551SOL    HW214553   0.431   3.796   4.763
 4552SOL     OW14554   5.332   2.219   1.009
 4552SOL    HW114555   5.423   2.178   1.010
 4552SOL    HW214556   5.297   2.221   0.916
 4553SOL     OW14557   5.172   3.323   0.225
 4553SOL    HW114558   5.268   3.296   0.228
 4553SOL    HW214559   5.161   3.397   0.159
 4554SOL     OW14560   6.733   0.484   1.647
 4554SOL    HW114561   6.776   0.399   1.617
 4554SOL    HW214562   6.795   0.533   1.708
 4555SOL     OW14563   1.716   1.091   5.892
 4555SOL    HW114564   1.683   1.005   5.851
 4555SOL    HW214565   1.759   1.147   5.821
 4556SOL     OW14566   5.815   3.563   4.762
 4556SOL    HW114567   5.903   3.516   4.767
 4556SOL    HW214568   5.780   3.558   4.668
 4557SOL     OW14569   4.944   5.518   4.057
 4557SOL    HW114570   4.893   5.484   4.136
 4557SOL    HW214571   5.012   5.451   4.029
 4558SOL     OW14572   6.934   3.926   4.712
 4558SOL    HW114573   6.959   3.954   4.619
 4558SOL    HW214574   6.982   3.842   4.736
 4559SOL     OW14575   6.829   3.235   2.797
 4559SOL    HW114576   6.824   3.220   2.698
 4559SOL    HW214577   6.850   3.331   2.815
 4560SOL     OW14578   5.980   3.375   1.510
 4560SOL    HW114579   6.058   3.410   1.562
 4560SOL    HW214580   6.010   3.297   1.454
 4561SOL     OW14581   3.487   2.051   3.322
 4561SOL    HW114582   3.400   2.089   3.293
 4561SOL    HW214583   3.551   2.051   3.246
 4562SOL     OW14584   1.465   6.987   0.673
 4562SOL    HW114585   1.420   0.028   0.612
 4562SOL    HW214586   1.434   7.002   0.766
 4563SOL     OW14587   0.089   3.073   1.431
 4563SOL    HW114588   0.091   3.118   1.520
 4563SOL    HW214589   0.061   2.978   1.441
 4564SOL     OW14590   6.699   6.131   1.999
 4564SOL    HW114591   6.790   6.171   1.985
 4564SOL    HW214592   6.664   6.160   2.089
 4565SOL     OW14593   1.461   0.511   4.464
 4565SOL    HW114594   1.505   0.425   4.490
 4565SOL    HW214595   1.466   0.523   4.364
 4566SOL     OW14596   0.084   3.439   1.265
 4566SOL    HW114597   0.065   3.471   1.358
 4566SOL    HW214598   0.146   3.503   1.219
 4567SOL     OW14599   6.900   1.497   6.252
 4567SOL    HW114600   6.935   1.540   6.334
 4567SOL    HW214601   6.846   1.416   6.277
 4568SOL     OW14602   1.877   3.670   5.944
 4568SOL    HW114603   1.973   3.661   5.917
 4568SOL    HW214604   1.872   3.697   6.041
 4569SOL     OW14605   2.303   0.258   3.343
 4569SOL    HW114606   2.248   0.191   3.394
 4569SOL    HW214607   2.267   0.267   3.250
 4570SOL     OW14608   6.292   6.445   2.476
 4570SOL    HW114609   6.344   6.485   2.552
 4570SOL    HW214610   6.353   6.388   2.421
 4571SOL     OW14611   4.878   3.158   6.199
 4571SOL    HW114612   4.808   3.099   6.157
 4571SOL    HW214613   4.964   3.108   6.207
 4572SOL     OW14614   2.157   1.020   6.362
 4572SOL    HW114615   2.219   1.048   6.435
 4572SOL    HW214616   2.199   0.945   6.310
 4573SOL     OW14617   0.167   0.053   0.415
 4573SOL    HW114618   0.146   7.009   0.346
 4573SOL    HW214619   0.094   0.055   0.484
 4574SOL     OW14620   5.663   4.055   0.331
 4574SOL    HW114621   5.600   4.042   0.407
 4574SOL    HW214622   5.753   4.080   0.366
 4575SOL     OW14623   5.404   0.267   5.040
 4575SOL    HW114624   5.307   0.245   5.030
 4575SOL    HW214625   5.417   0.365   5.023
 4576SOL     OW14626   3.474   5.226   5.297
 4576SOL    HW114627   3.530   5.298   5.337
 4576SOL    HW214628   3.508   5.137   5.325
 4577SOL     OW14629   1.104   3.139   4.236
 4577SOL    HW114630   1.080   3.053   4.192
 4577SOL    HW214631   1.021   3.185   4.268
 4578SOL     OW14632   0.976   2.113   4.983
 4578SOL    HW114633   0.884   2.118   4.943
 4578SOL    HW214634   1.040   2.078   4.915
 4579SOL     OW14635   4.605   0.780   2.849
 4579SOL    HW114636   4.627   0.751   2.755
 4579SOL    HW214637   4.611   0.880   2.855
 4580SOL     OW14638   5.658   3.759   0.609
 4580SOL    HW114639   5.757   3.767   0.623
 4580SOL    HW214640   5.640   3.689   0.540
 4581SOL     OW14641   2.451   5.997   2.839
 4581SOL    HW114642   2.467   6.091   2.870
 4581SOL    HW214643   2.432   5.939   2.918
 4582SOL     OW14644   4.870   1.047   3.721
 4582SOL    HW114645   4.816   1.099   3.788
 4582SOL    HW214646   4.828   1.057   3.630
 4583SOL     OW14647   2.741   1.575   6.805
 4583SOL    HW114648   2.760   1.671   6.785
 4583SOL    HW214649   2.825   1.530   6.835
 4584SOL     OW14650   1.657   5.079   5.256
 4584SOL    HW114651   1.572   5.120   5.288
 4584SOL    HW214652   1.695   5.135   5.182
 4585SOL     OW14653   2.469   5.090   3.343
 4585SOL    HW114654   2.512   5.022   3.402
 4585SOL    HW214655   2.377   5.111   3.376
 4586SOL     OW14656   3.960   3.876   0.573
 4586SOL    HW114657   4.023   3.808   0.610
 4586SOL    HW214658   3.866   3.848   0.591
 4587SOL     OW14659   3.360   3.666   3.571
 4587SOL    HW114660   3.369   3.570   3.546
 4587SOL    HW214661   3.320   3.717   3.494
 4588SOL     OW14662   3.210   2.902   5.858
 4588SOL    HW114663   3.218   2.865   5.765
 4588SOL    HW214664   3.137   2.854   5.907
 4589SOL     OW14665   5.855   0.734   2.186
 4589SOL    HW114666   5.833   0.788   2.105
 4589SOL    HW214667   5.938   0.681   2.169
 4590SOL     OW14668   3.958   5.237   1.077
 4590SOL    HW114669   4.044   5.220   1.029
 4590SOL    HW214670   3.971   5.223   1.176
 4591SOL     OW14671   1.730   0.367   5.199
 4591SOL    HW114672   1.795   0.360   5.124
 4591SOL    HW214673   1.716   0.277   5.240
 4592SOL     OW14674   3.264   1.213   3.079
 4592SOL    HW114675   3.172   1.249   3.096
 4592SOL    HW214676   3.284   1.140   3.144
 4593SOL     OW14677   6.088   6.433   1.939
 4593SOL    HW114678   6.033   6.361   1.982
 4593SOL    HW214679   6.150   6.392   1.872
 4594SOL     OW14680   3.050   0.256   3.061
 4594SOL    HW114681   3.130   0.208   3.024
 4594SOL    HW214682   3.025   0.330   2.999
 4595SOL     OW14683   4.560   2.719   5.659
 4595SOL    HW114684   4.511   2.801   5.630
 4595SOL    HW214685   4.514   2.679   5.738
 4596SOL     OW14686   6.663   0.297   2.903
 4596SOL    HW114687   6.651   0.218   2.843
 4596SOL    HW214688   6.687   0.377   2.848
 4597SOL     OW14689   2.853   5.481   6.596
 4597SOL    HW114690   2.802   5.457   6.513
 4597SOL    HW214691   2.951   5.472   6.578
 4598SOL     OW14692   1.376   5.477   1.285
 4598SOL    HW114693   1.312   5.551   1.306
 4598SOL    HW214694   1.468   5.505   1.310
 4599SOL     OW14695   1.157   4.865   0.997
 4599SOL    HW114696   1.066   4.893   0.968
 4599SOL    HW214697   1.177   4.905   1.087
 4600SOL     OW14698   0.417   5.987   5.621
 4600SOL    HW114699   0.340   5.931   5.651
 4600SOL    HW214700   0.384   6.065   5.569
 4601SOL     OW14701   1.113   1.519   5.213
 4601SOL    HW114702   1.069   1.566   5.136
 4601SOL    HW214703   1.086   1.563   5.299
 4602SOL     OW14704   3.206   6.002   0.347
 4602SOL    HW114705   3.135   5.945   0.307
 4602SOL    HW214706   3.294   5.982   0.302
 4603SOL     OW14707   3.718   5.905   0.648
 4603SOL    HW114708   3.633   5.859   0.622
 4603SOL    HW214709   3.796   5.851   0.616
 4604SOL     OW14710   4.421   6.912   6.998
 4604SOL    HW114711   4.440   6.818   0.001
 4604SOL    HW214712   4.507   6.957   6.973
 4605SOL     OW14713   1.617   6.439   1.958
 4605SOL    HW114714   1.666   6.427   2.044
 4605SOL    HW214715   1.621   6.535   1.931
 4606SOL     OW14716   0.628   6.619   2.476
 4606SOL    HW114717   0.685   6.570   2.410
 4606SOL    HW214718   0.583   6.554   2.537
 4607SOL     OW14719   1.884   3.483   3.367
 4607SOL    HW114720   1.955   3.511   3.302
 4607SOL    HW214721   1.794   3.495   3.324
 4608SOL     OW14722   0.172   4.836   3.636
 4608SOL    HW114723   0.211   4.748   3.607
 4608SOL    HW214724   0.148   4.831   3.733
 4609SOL     OW14725   4.878   4.820   6.647
 4609SOL    HW114726   4.834   4.895   6.696
 4609SOL    HW214727   4.966   4.799   6.690
 4610SOL     OW14728   4.436   1.688   6.884
 4610SOL    HW114729   4.465   1.600   6.922
 4610SOL    HW214730   4.425   1.755   6.957
 4611SOL     OW14731   0.861   6.690   6.121
 4611SOL    HW114732   0.829   6.713   6.029
 4611SOL    HW214733   0.785   6.655   6.175
 4612SOL     OW14734   2.474   6.751   0.908
 4612SOL    HW114735   2.388   6.703   0.892
 4612SOL    HW214736   2.471   6.840   0.863
 4613SOL     OW14737   1.539   5.863   2.231
 4613SOL    HW114738   1.460   5.811   2.200
 4613SOL    HW214739   1.511   5.927   2.303
 4614SOL     OW14740   5.954   3.526   3.451
 4614SOL    HW114741   5.971   3.451   3.387
 4614SOL    HW214742   5.905   3.491   3.530
 4615SOL     OW14743   0.568   1.854   0.604
 4615SOL    HW114744   0.563   1.772   0.661
 4615SOL    HW214745   0.476   1.885   0.581
 4616SOL     OW14746   5.585   1.671   4.699
 4616SOL    HW114747   5.552   1.585   4.661
 4616SOL    HW214748   5.513   1.713   4.755
 4617SOL     OW14749   1.382   1.924   2.660
 4617SOL    HW114750   1.439   1.929   2.742
 4617SOL    HW214751   1.423   1.859   2.595
 4618SOL     OW14752   2.026   3.696   5.625
 4618SOL    HW114753   2.029   3.780   5.571
 4618SOL    HW214754   1.932   3.680   5.657
 4619SOL     OW14755   2.968   6.160   3.846
 4619SOL    HW114756   2.948   6.191   3.753
 4619SOL    HW214757   3.014   6.233   3.897
 4620SOL     OW14758   0.922   4.853   0.837
 4620SOL    HW114759   0.942   4.941   0.793
 4620SOL    HW214760   0.827   4.853   0.869
 4621SOL     OW14761   4.931   1.257   2.564
 4621SOL    HW114762   5.022   1.252   2.604
 4621SOL    HW214763   4.925   1.192   2.488
 4622SOL     OW14764   4.024   4.812   0.636
 4622SOL    HW114765   3.995   4.717   0.649
 4622SOL    HW214766   4.075   4.843   0.716
 4623SOL     OW14767   4.737   5.860   1.421
 4623SOL    HW114768   4.712   5.800   1.497
 4623SOL    HW214769   4.715   5.954   1.444
 4624SOL     OW14770   3.419   0.282   2.878
 4624SOL    HW114771   3.476   0.228   2.816
 4624SOL    HW214772   3.477   0.326   2.946
 4625SOL     OW14773   1.898   5.265   2.094
 4625SOL    HW114774   1.959   5.197   2.133
 4625SOL    HW214775   1.840   5.303   2.166
 4626SOL     OW14776   4.772   4.261   2.058
 4626SOL    HW114777   4.700   4.192   2.065
 4626SOL    HW214778   4.841   4.244   2.128
 4627SOL     OW14779   1.358   4.838   5.138
 4627SOL    HW114780   1.456   4.826   5.154
 4627SOL    HW214781   1.341   4.933   5.112
 4628SOL     OW14782   4.591   4.392   4.862
 4628SOL    HW114783   4.511   4.433   4.906
 4628SOL    HW214784   4.586   4.409   4.763
 4629SOL     OW14785   2.332   5.283   5.470
 4629SOL    HW114786   2.431   5.291   5.458
 4629SOL    HW214787   2.290   5.374   5.462
 4630SOL     OW14788   2.292   5.432   2.231
 4630SOL    HW114789   2.348   5.492   2.289
 4630SOL    HW214790   2.195   5.449   2.249
 4631SOL     OW14791   1.140   6.385   3.385
 4631SOL    HW114792   1.214   6.410   3.448
 4631SOL    HW214793   1.130   6.286   3.383
 4632SOL     OW14794   2.269   4.486   2.942
 4632SOL    HW114795   2.341   4.556   2.939
 4632SOL    HW214796   2.276   4.429   2.860
 4633SOL     OW14797   5.922   1.114   4.535
 4633SOL    HW114798   5.922   1.158   4.445
 4633SOL    HW214799   5.930   1.015   4.524
 4634SOL     OW14800   2.683   3.872   5.286
 4634SOL    HW114801   2.645   3.779   5.289
 4634SOL    HW214802   2.619   3.932   5.238
 4635SOL     OW14803   4.208   4.310   1.656
 4635SOL    HW114804   4.264   4.278   1.733
 4635SOL    HW214805   4.111   4.300   1.680
 4636SOL     OW14806   2.323   4.237   0.938
 4636SOL    HW114807   2.399   4.286   0.980
 4636SOL    HW214808   2.244   4.239   0.999
 4637SOL     OW14809   0.916   6.986   1.190
 4637SOL    HW114810   0.850   0.020   1.237
 4637SOL    HW214811   1.005   0.008   1.187
 4638SOL     OW14812   3.801   6.062   6.820
 4638SOL    HW114813   3.730   6.044   6.752
 4638SOL    HW214814   3.890   6.034   6.783
 4639SOL     OW14815   3.202   2.608   6.154
 4639SOL    HW114816   3.117   2.652   6.182
 4639SOL    HW214817   3.202   2.593   6.056
 4640SOL     OW14818   5.653   3.768   4.538
 4640SOL    HW114819   5.596   3.828   4.482
 4640SOL    HW214820   5.594   3.715   4.600
 4641SOL     OW14821   2.324   0.331   4.071
 4641SOL    HW114822   2.349   0.372   3.984
 4641SOL    HW214823   2.369   0.242   4.079
 4642SOL     OW14824   1.332   6.503   2.902
 4642SOL    HW114825   1.327   6.458   2.992
 4642SOL    HW214826   1.392   6.451   2.842
 4643SOL     OW14827   6.528   1.628   0.185
 4643SOL    HW114828   6.467   1.601   0.110
 4643SOL    HW214829   6.509   1.722   0.211
 4644SOL     OW14830   0.160   0.552   5.486
 4644SOL    HW114831   0.243   0.503   5.460
 4644SOL    HW214832   0.143   0.538   5.584
 4645SOL     OW14833   1.510   0.750   4.583
 4645SOL    HW114834   1.552   0.756   4.674
 4645SOL    HW214835   1.517   0.656   4.550
 4646SOL     OW14836   2.609   5.603   3.571
 4646SOL    HW114837   2.587   5.512   3.536
 4646SOL    HW214838   2.526   5.659   3.571
 4647SOL     OW14839   1.832   0.520   2.593
 4647SOL    HW114840   1.843   0.431   2.636
 4647SOL    HW214841   1.742   0.524   2.548
 4648SOL     OW14842   3.692   1.070   3.464
 4648SOL    HW114843   3.691   0.975   3.495
 4648SOL    HW214844   3.638   1.078   3.380
 4649SOL     OW14845   6.447   0.854   0.723
 4649SOL    HW114846   6.498   0.878   0.806
 4649SOL    HW214847   6.361   0.810   0.748
 4650SOL     OW14848   4.779   5.324   2.099
 4650SOL    HW114849   4.758   5.360   2.190
 4650SOL    HW214850   4.865   5.272   2.103
 4651SOL     OW14851   6.984   3.238   6.354
 4651SOL    HW114852   0.043   3.193   6.385
 4651SOL    HW214853   6.910   3.171   6.347
 4652SOL     OW14854   6.780   5.970   5.022
 4652SOL    HW114855   6.680   5.967   5.035
 4652SOL    HW214856   6.800   5.997   4.928
 4653SOL     OW14857   4.954   6.009   1.266
 4653SOL    HW114858   5.035   5.950   1.274
 4653SOL    HW214859   4.877   5.965   1.312
 4654SOL     OW14860   0.763   5.682   6.005
 4654SOL    HW114861   0.815   5.652   5.924
 4654SOL    HW214862   0.746   5.604   6.065
 4655SOL     OW14863   5.894   3.677   1.390
 4655SOL    HW114864   5.805   3.705   1.427
 4655SOL    HW214865   5.933   3.606   1.448
 4656SOL     OW14866   1.218   1.194   1.827
 4656SOL    HW114867   1.293   1.238   1.779
 4656SOL    HW214868   1.250   1.108   1.867
 4657SOL     OW14869   4.469   5.609   1.892
 4657SOL    HW114870   4.492   5.514   1.916
 4657SOL    HW214871   4.513   5.671   1.956
 4658SOL     OW14872   3.061   1.280   4.738
 4658SOL    HW114873   3.105   1.204   4.786
 4658SOL    HW214874   3.130   1.338   4.696
 4659SOL     OW14875   2.798   4.021   6.508
 4659SOL    HW114876   2.891   4.059   6.506
 4659SOL    HW214877   2.733   4.094   6.528
 4660SOL     OW14878   1.126   6.294   4.749
 4660SOL    HW114879   1.188   6.216   4.743
 4660SOL    HW214880   1.097   6.321   4.657
 4661SOL     OW14881   3.049   4.772   6.018
 4661SOL    HW114882   3.085   4.734   5.933
 4661SOL    HW214883   2.966   4.723   6.044
 4662SOL     OW14884   2.918   0.556   5.539
 4662SOL    HW114885   2.835   0.514   5.501
 4662SOL    HW214886   2.977   0.587   5.465
 4663SOL     OW14887   0.606   0.501   0.779
 4663SOL    HW114888   0.580   0.532   0.687
 4663SOL    HW214889   0.704   0.482   0.781
 4664SOL     OW14890   0.635   0.508   0.473
 4664SOL    HW114891   0.733   0.520   0.488
 4664SOL    HW214892   0.614   0.524   0.376
 4665SOL     OW14893   2.751   6.775   6.301
 4665SOL    HW114894   2.724   6.861   6.258
 4665SOL    HW214895   2.764   6.705   6.231
 4666SOL     OW14896   1.870   2.460   0.133
 4666SOL    HW114897   1.817   2.499   0.209
 4666SOL    HW214898   1.850   2.510   0.049
 4667SOL     OW14899   6.148   3.870   1.499
 4667SOL    HW114900   6.184   3.787   1.455
 4667SOL    HW214901   6.084   3.844   1.571
 4668SOL     OW14902   4.666   1.582   4.384
 4668SOL    HW114903   4.628   1.666   4.423
 4668SOL    HW214904   4.694   1.599   4.289
 4669SOL     OW14905   5.115   6.287   6.376
 4669SOL    HW114906   5.094   6.264   6.471
 4669SOL    HW214907   5.148   6.381   6.371
 4670SOL     OW14908   1.083   2.835   6.654
 4670SOL    HW114909   1.045   2.902   6.717
 4670SOL    HW214910   1.096   2.878   6.564
 4671SOL     OW14911   0.147   3.397   6.687
 4671SOL    HW114912   0.126   3.440   6.599
 4671SOL    HW214913   0.065   3.353   6.723
 4672SOL     OW14914   3.216   4.615   6.359
 4672SOL    HW114915   3.286   4.687   6.357
 4672SOL    HW214916   3.206   4.581   6.453
 4673SOL     OW14917   4.803   0.310   1.190
 4673SOL    HW114918   4.827   0.404   1.166
 4673SOL    HW214919   4.760   0.266   1.112
 4674SOL     OW14920   5.271   1.622   0.380
 4674SOL    HW114921   5.237   1.545   0.434
 4674SOL    HW214922   5.261   1.707   0.433
 4675SOL     OW14923   3.817   0.657   0.114
 4675SOL    HW114924   3.816   0.603   0.198
 4675SOL    HW214925   3.727   0.697   0.099
 4676SOL     OW14926   0.369   6.539   4.540
 4676SOL    HW114927   0.283   6.586   4.518
 4676SOL    HW214928   0.438   6.563   4.471
 4677SOL     OW14929   2.971   0.861   0.508
 4677SOL    HW114930   2.991   0.949   0.467
 4677SOL    HW214931   2.979   0.868   0.608
 4678SOL     OW14932   1.803   4.300   2.627
 4678SOL    HW114933   1.789   4.281   2.530
 4678SOL    HW214934   1.874   4.239   2.663
 4679SOL     OW14935   3.688   1.129   6.715
 4679SOL    HW114936   3.666   1.226   6.702
 4679SOL    HW214937   3.743   1.118   6.797
 4680SOL     OW14938   1.773   0.420   1.920
 4680SOL    HW114939   1.802   0.509   1.887
 4680SOL    HW214940   1.734   0.429   2.012
 4681SOL     OW14941   5.773   5.676   5.390
 4681SOL    HW114942   5.843   5.657   5.322
 4681SOL    HW214943   5.755   5.594   5.444
 4682SOL     OW14944   4.526   4.397   6.669
 4682SOL    HW114945   4.506   4.493   6.692
 4682SOL    HW214946   4.625   4.384   6.663
 4683SOL     OW14947   4.761   4.803   2.599
 4683SOL    HW114948   4.792   4.806   2.693
 4683SOL    HW214949   4.736   4.709   2.574
 4684SOL     OW14950   0.118   1.598   4.069
 4684SOL    HW114951   0.021   1.620   4.059
 4684SOL    HW214952   0.129   1.512   4.118
 4685SOL     OW14953   0.458   6.112   5.092
 4685SOL    HW114954   0.461   6.013   5.078
 4685SOL    HW214955   0.448   6.132   5.190
 4686SOL     OW14956   5.452   5.893   0.143
 4686SOL    HW114957   5.492   5.805   0.119
 4686SOL    HW214958   5.412   5.935   0.062
 4687SOL     OW14959   6.977   4.826   4.986
 4687SOL    HW114960   0.039   4.843   5.034
 4687SOL    HW214961   6.901   4.838   5.050
 4688SOL     OW14962   6.868   3.613   6.126
 4688SOL    HW114963   6.811   3.549   6.074
 4688SOL    HW214964   6.843   3.707   6.100
 4689SOL     OW14965   6.072   0.347   6.792
 4689SOL    HW114966   5.985   0.396   6.791
 4689SOL    HW214967   6.144   0.406   6.828
 4690SOL     OW14968   1.034   1.375   0.296
 4690SOL    HW114969   1.053   1.362   0.199
 4690SOL    HW214970   0.960   1.313   0.324
 4691SOL     OW14971   3.015   4.730   1.711
 4691SOL    HW114972   2.955   4.684   1.777
 4691SOL    HW214973   2.959   4.773   1.641
 4692SOL     OW14974   6.765   5.765   2.719
 4692SOL    HW114975   6.727   5.800   2.804
 4692SOL    HW214976   6.865   5.761   2.726
 4693SOL     OW14977   0.754   0.598   4.457
 4693SOL    HW114978   0.755   0.638   4.549
 4693SOL    HW214979   0.755   0.672   4.390
 4694SOL     OW14980   3.202   0.069   0.316
 4694SOL    HW114981   3.160   0.054   0.405
 4694SOL    HW214982   3.153   0.018   0.246
 4695SOL     OW14983   2.424   3.402   1.631
 4695SOL    HW114984   2.370   3.423   1.713
 4695SOL    HW214985   2.367   3.355   1.565
 4696SOL     OW14986   0.548   4.199   5.412
 4696SOL    HW114987   0.526   4.219   5.507
 4696SOL    HW214988   0.627   4.254   5.383
 4697SOL     OW14989   1.599   3.045   0.864
 4697SOL    HW114990   1.503   3.039   0.837
 4697SOL    HW214991   1.653   2.979   0.812
 4698SOL     OW14992   3.952   6.018   3.204
 4698SOL    HW114993   3.856   5.988   3.202
 4698SOL    HW214994   3.993   5.993   3.292
 4699SOL     OW14995   0.839   6.752   2.116
 4699SOL    HW114996   0.806   6.661   2.091
 4699SOL    HW214997   0.938   6.749   2.129
 4700SOL     OW14998   6.017   1.495   2.291
 4700SOL    HW114999   5.995   1.423   2.225
 4700SOL    HW215000   6.084   1.461   2.357
 4701SOL     OW15001   1.372   2.188   0.900
 4701SOL    HW115002   1.457   2.171   0.851
 4701SOL    HW215003   1.341   2.281   0.883
 4702SOL     OW15004   6.107   4.845   6.532
 4702SOL    HW115005   6.028   4.894   6.495
 4702SOL    HW215006   6.181   4.846   6.466
 4703SOL     OW15007   1.347   2.250   1.851
 4703SOL    HW115008   1.348   2.208   1.760
 4703SOL    HW215009   1.425   2.217   1.904
 4704SOL     OW15010   0.940   6.748   0.087
 4704SOL    HW115011   0.998   6.679   0.130
 4704SOL    HW215012   0.852   6.707   0.061
 4705SOL     OW15013   3.747   3.449   2.889
 4705SOL    HW115014   3.729   3.365   2.939
 4705SOL    HW215015   3.792   3.427   2.802
 4706SOL     OW15016   3.807   6.209   6.238
 4706SOL    HW115017   3.770   6.301   6.233
 4706SOL    HW215018   3.794   6.163   6.150
 4707SOL     OW15019   2.462   5.735   0.891
 4707SOL    HW115020   2.474   5.636   0.896
 4707SOL    HW215021   2.432   5.761   0.799
 4708SOL     OW15022   1.379   2.177   6.693
 4708SOL    HW115023   1.354   2.158   6.788
 4708SOL    HW215024   1.442   2.254   6.690
 4709SOL     OW15025   4.099   5.240   5.228
 4709SOL    HW115026   4.095   5.192   5.141
 4709SOL    HW215027   4.007   5.244   5.269
 4710SOL     OW15028   3.555   1.209   5.483
 4710SOL    HW115029   3.505   1.162   5.411
 4710SOL    HW215030   3.625   1.149   5.521
 4711SOL     OW15031   5.302   0.638   2.129
 4711SOL    HW115032   5.337   0.730   2.109
 4711SOL    HW215033   5.262   0.600   2.046
 4712SOL     OW15034   3.210   4.873   0.489
 4712SOL    HW115035   3.111   4.861   0.480
 4712SOL    HW215036   3.235   4.871   0.586
 4713SOL     OW15037   2.880   3.867   1.198
 4713SOL    HW115038   2.927   3.933   1.140
 4713SOL    HW215039   2.807   3.913   1.249
 4714SOL     OW15040   1.920   1.971   0.168
 4714SOL    HW115041   2.011   1.932   0.179
 4714SOL    HW215042   1.874   1.973   0.257
 4715SOL     OW15043   6.583   4.031   1.756
 4715SOL    HW115044   6.565   3.934   1.771
 4715SOL    HW215045   6.497   4.078   1.734
 4716SOL     OW15046   4.028   6.033   6.673
 4716SOL    HW115047   3.992   6.079   6.592
 4716SOL    HW215048   4.013   5.934   6.663
 4717SOL     OW15049   0.086   6.618   3.264
 4717SOL    HW115050   0.006   6.675   3.241
 4717SOL    HW215051   0.095   6.545   3.196
 4718SOL     OW15052   5.895   1.958   6.857
 4718SOL    HW115053   5.795   1.966   6.862
 4718SOL    HW215054   5.936   2.048   6.874
 4719SOL     OW15055   4.879   3.133   2.631
 4719SOL    HW115056   4.862   3.064   2.701
 4719SOL    HW215057   4.840   3.102   2.544
 4720SOL     OW15058   2.260   6.256   5.593
 4720SOL    HW115059   2.312   6.186   5.643
 4720SOL    HW215060   2.162   6.236   5.600
 4721SOL     OW15061   6.663   2.629   1.327
 4721SOL    HW115062   6.651   2.563   1.401
 4721SOL    HW215063   6.746   2.607   1.276
 4722SOL     OW15064   1.269   5.825   0.072
 4722SOL    HW115065   1.339   5.890   0.044
 4722SOL    HW215066   1.196   5.872   0.121
 4723SOL     OW15067   2.122   4.797   5.973
 4723SOL    HW115068   2.210   4.842   5.960
 4723SOL    HW215069   2.127   4.737   6.054
 4724SOL     OW15070   5.019   5.701   3.071
 4724SOL    HW115071   5.061   5.699   2.980
 4724SOL    HW215072   4.937   5.759   3.069
 4725SOL     OW15073   6.055   6.442   2.598
 4725SOL    HW115074   6.132   6.431   2.535
 4725SOL    HW215075   6.079   6.404   2.687
 4726SOL     OW15076   1.462   3.216   6.614
 4726SOL    HW115077   1.509   3.227   6.527
 4726SOL    HW215078   1.508   3.146   6.668
 4727SOL     OW15079   0.266   6.685   0.344
 4727SOL    HW115080   0.254   6.602   0.291
 4727SOL    HW215081   0.242   6.668   0.439
 4728SOL     OW15082   4.612   1.521   0.652
 4728SOL    HW115083   4.620   1.462   0.733
 4728SOL    HW215084   4.537   1.586   0.666
 4729SOL     OW15085   2.172   1.524   2.102
 4729SOL    HW115086   2.078   1.519   2.137
 4729SOL    HW215087   2.202   1.433   2.074
 4730SOL     OW15088   2.171   5.887   5.490
 4730SOL    HW115089   2.197   5.835   5.572
 4730SOL    HW215090   2.082   5.856   5.458
 4731SOL     OW15091   4.479   0.047   6.254
 4731SOL    HW115092   4.470   0.137   6.211
 4731SOL    HW215093   4.399   0.030   6.312
 4732SOL     OW15094   7.006   3.840   5.805
 4732SOL    HW115095   7.006   3.927   5.756
 4732SOL    HW215096   6.912   3.808   5.816
 4733SOL     OW15097   1.280   4.256   2.939
 4733SOL    HW115098   1.208   4.286   3.001
 4733SOL    HW215099   1.265   4.294   2.848
 4734SOL     OW15100   4.798   3.203   6.616
 4734SOL    HW115101   4.808   3.138   6.540
 4734SOL    HW215102   4.847   3.287   6.593
 4735SOL     OW15103   0.829   5.766   4.080
 4735SOL    HW115104   0.757   5.832   4.097
 4735SOL    HW215105   0.790   5.684   4.038
 4736SOL     OW15106   0.389   1.537   6.504
 4736SOL    HW115107   0.477   1.576   6.476
 4736SOL    HW215108   0.326   1.539   6.427
 4737SOL     OW15109   1.236   5.247   2.095
 4737SOL    HW115110   1.225   5.183   2.171
 4737SOL    HW215111   1.154   5.302   2.084
 4738SOL     OW15112   0.077   5.848   3.137
 4738SOL    HW115113   0.168   5.886   3.124
 4738SOL    HW215114   0.009   5.909   3.097
 4739SOL     OW15115   4.548   6.482   3.334
 4739SOL    HW115116   4.598   6.568   3.341
 4739SOL    HW215117   4.563   6.441   3.244
 4740SOL     OW15118   0.551   1.443   1.146
 4740SOL    HW115119   0.462   1.402   1.125
 4740SOL    HW215120   0.611   1.434   1.066
 4741SOL     OW15121   3.292   2.262   1.534
 4741SOL    HW115122   3.333   2.297   1.450
 4741SOL    HW215123   3.244   2.177   1.515
 4742SOL     OW15124   1.879   6.553   5.331
 4742SOL    HW115125   1.922   6.636   5.297
 4742SOL    HW215126   1.822   6.514   5.259
 4743SOL     OW15127   2.166   3.788   2.985
 4743SOL    HW115128   2.069   3.777   3.009
 4743SOL    HW215129   2.209   3.698   2.979
 4744SOL     OW15130   1.891   5.037   0.898
 4744SOL    HW115131   1.810   5.059   0.843
 4744SOL    HW215132   1.937   5.121   0.927
 4745SOL     OW15133   3.188   4.001   6.472
 4745SOL    HW115134   3.201   3.943   6.391
 4745SOL    HW215135   3.200   3.946   6.555
 4746SOL     OW15136   4.721   6.712   3.673
 4746SOL    HW115137   4.717   6.810   3.652
 4746SOL    HW215138   4.783   6.667   3.608
 4747SOL     OW15139   0.805   3.958   0.463
 4747SOL    HW115140   0.855   3.910   0.391
 4747SOL    HW215141   0.854   3.949   0.549
 4748SOL     OW15142   1.834   6.217   1.529
 4748SOL    HW115143   1.840   6.117   1.532
 4748SOL    HW215144   1.838   6.253   1.622
 4749SOL     OW15145   1.764   6.928   6.478
 4749SOL    HW115146   1.771   6.843   6.427
 4749SOL    HW215147   1.836   6.991   6.448
 4750SOL     OW15148   6.884   3.341   5.357
 4750SOL    HW115149   6.786   3.325   5.350
 4750SOL    HW215150   6.904   3.436   5.332
 4751SOL     OW15151   4.652   2.567   3.005
 4751SOL    HW115152   4.569   2.542   3.055
 4751SOL    HW215153   4.705   2.632   3.058
 4752SOL     OW15154   4.430   0.312   0.367
 4752SOL    HW115155   4.434   0.329   0.268
 4752SOL    HW215156   4.378   0.385   0.411
 4753SOL     OW15157   1.093   6.736   3.710
 4753SOL    HW115158   1.120   6.768   3.619
 4753SOL    HW215159   1.104   6.811   3.775
 4754SOL     OW15160   5.072   3.828   5.102
 4754SOL    HW115161   4.974   3.834   5.122
 4754SOL    HW215162   5.108   3.741   5.134
 4755SOL     OW15163   2.938   0.856   0.779
 4755SOL    HW115164   2.926   0.830   0.875
 4755SOL    HW215165   2.942   0.956   0.773
 4756SOL     OW15166   6.194   3.792   5.677
 4756SOL    HW115167   6.134   3.824   5.604
 4756SOL    HW215168   6.194   3.859   5.752
 4757SOL     OW15169   1.870   2.432   1.477
 4757SOL    HW115170   1.781   2.472   1.499
 4757SOL    HW215171   1.892   2.451   1.381
 4758SOL     OW15172   1.481   6.219   3.352
 4758SOL    HW115173   1.484   6.187   3.446
 4758SOL    HW215174   1.573   6.248   3.324
 4759SOL     OW15175   0.779   5.295   6.398
 4759SOL    HW115176   0.696   5.326   6.351
 4759SOL    HW215177   0.831   5.374   6.429
 4760SOL     OW15178   2.104   1.243   0.602
 4760SOL    HW115179   2.170   1.210   0.670
 4760SOL    HW215180   2.068   1.332   0.632
 4761SOL     OW15181   1.583   0.917   1.007
 4761SOL    HW115182   1.528   0.836   1.029
 4761SOL    HW215183   1.672   0.910   1.052
 4762SOL     OW15184   1.540   6.103   2.032
 4762SOL    HW115185   1.488   6.185   2.008
 4762SOL    HW215186   1.497   6.023   1.991
 4763SOL     OW15187   4.890   0.268   2.747
 4763SOL    HW115188   4.912   0.361   2.774
 4763SOL    HW215189   4.804   0.267   2.697
 4764SOL     OW15190   4.615   3.421   5.321
 4764SOL    HW115191   4.640   3.499   5.263
 4764SOL    HW215192   4.683   3.348   5.309
 4765SOL     OW15193   3.707   1.013   5.587
 4765SOL    HW115194   3.805   1.032   5.580
 4765SOL    HW215195   3.691   0.943   5.656
 4766SOL     OW15196   6.331   6.284   4.024
 4766SOL    HW115197   6.349   6.281   3.926
 4766SOL    HW215198   6.355   6.196   4.065
 4767SOL     OW15199   3.013   4.957   5.271
 4767SOL    HW115200   3.097   5.007   5.287
 4767SOL    HW215201   3.016   4.870   5.320
 4768SOL     OW15202   3.460   2.819   5.619
 4768SOL    HW115203   3.436   2.760   5.542
 4768SOL    HW215204   3.418   2.909   5.605
 4769SOL     OW15205   4.027   6.141   0.874
 4769SOL    HW115206   4.082   6.076   0.821
 4769SOL    HW215207   3.971   6.091   0.939
 4770SOL     OW15208   0.578   1.942   4.643
 4770SOL    HW115209   0.545   1.923   4.551
 4770SOL    HW215210   0.559   1.862   4.701
 4771SOL     OW15211   2.485   6.441   6.446
 4771SOL    HW115212   2.444   6.522   6.487
 4771SOL    HW215213   2.473   6.363   6.506
 4772SOL     OW15214   3.268   4.706   1.247
 4772SOL    HW115215   3.200   4.761   1.294
 4772SOL    HW215216   3.350   4.761   1.230
 4773SOL     OW15217   0.399   5.814   5.399
 4773SOL    HW115218   0.327   5.880   5.418
 4773SOL    HW215219   0.404   5.748   5.474
 4774SOL     OW15220   1.309   4.052   1.265
 4774SOL    HW115221   1.330   3.954   1.257
 4774SOL    HW215222   1.370   4.093   1.333
 4775SOL     OW15223   4.955   0.370   4.020
 4775SOL    HW115224   4.867   0.401   4.057
 4775SOL    HW215225   4.979   0.425   3.940
 4776SOL     OW15226   0.977   0.983   5.452
 4776SOL    HW115227   0.913   1.028   5.389
 4776SOL    HW215228   1.032   1.052   5.498
 4777SOL     OW15229   2.123   5.908   1.098
 4777SOL    HW115230   2.120   5.814   1.134
 4777SOL    HW215231   2.037   5.954   1.121
 4778SOL     OW15232   6.868   2.664   4.644
 4778SOL    HW115233   6.906   2.721   4.571
 4778SOL    HW215234   6.780   2.626   4.614
 4779SOL     OW15235   5.690   6.887   3.607
 4779SOL    HW115236   5.704   6.856   3.513
 4779SOL    HW215237   5.722   6.981   3.616
 4780SOL     OW15238   5.548   2.287   6.866
 4780SOL    HW115239   5.535   2.269   6.768
 4780SOL    HW215240   5.461   2.310   6.908
 4781SOL     OW15241   2.948   5.515   1.936
 4781SOL    HW115242   3.020   5.541   1.872
 4781SOL    HW215243   2.925   5.419   1.925
 4782SOL     OW15244   6.279   5.870   6.465
 4782SOL    HW115245   6.294   5.929   6.545
 4782SOL    HW215246   6.262   5.927   6.384
 4783SOL     OW15247   5.830   3.822   6.988
 4783SOL    HW115248   5.794   3.740   0.009
 4783SOL    HW215249   5.773   3.900   7.011
 4784SOL     OW15250   6.290   2.083   6.262
 4784SOL    HW115251   6.320   2.124   6.175
 4784SOL    HW215252   6.370   2.062   6.318
 4785SOL     OW15253   0.243   6.682   2.979
 4785SOL    HW115254   0.312   6.736   3.028
 4785SOL    HW215255   0.220   6.601   3.033
 4786SOL     OW15256   2.316   6.675   6.848
 4786SOL    HW115257   2.229   6.651   6.892
 4786SOL    HW215258   2.391   6.625   6.892
 4787SOL     OW15259   3.884   1.910   3.413
 4787SOL    HW115260   3.805   1.955   3.371
 4787SOL    HW215261   3.967   1.956   3.383
 4788SOL     OW15262   6.697   5.801   0.642
 4788SOL    HW115263   6.695   5.852   0.556
 4788SOL    HW215264   6.606   5.764   0.661
 4789SOL     OW15265   4.822   2.229   1.558
 4789SOL    HW115266   4.744   2.287   1.581
 4789SOL    HW215267   4.881   2.220   1.639
 4790SOL     OW15268   5.954   1.920   5.903
 4790SOL    HW115269   5.916   1.999   5.950
 4790SOL    HW215270   5.951   1.841   5.963
 4791SOL     OW15271   0.112   3.137   1.954
 4791SOL    HW115272   0.042   3.094   1.897
 4791SOL    HW215273   0.100   3.106   2.049
 4792SOL     OW15274   2.116   4.204   4.578
 4792SOL    HW115275   2.132   4.142   4.655
 4792SOL    HW215276   2.203   4.231   4.538
 4793SOL     OW15277   1.809   3.751   5.200
 4793SOL    HW115278   1.794   3.691   5.122
 4793SOL    HW215279   1.900   3.793   5.192
 4794SOL     OW15280   4.454   6.773   4.553
 4794SOL    HW115281   4.465   6.716   4.472
 4794SOL    HW215282   4.513   6.738   4.626
 4795SOL     OW15283   6.293   1.559   4.257
 4795SOL    HW115284   6.379   1.509   4.270
 4795SOL    HW215285   6.312   1.649   4.218
 4796SOL     OW15286   3.770   0.312   6.246
 4796SOL    HW115287   3.825   0.237   6.210
 4796SOL    HW215288   3.709   0.278   6.317
 4797SOL     OW15289   0.554   6.014   4.738
 4797SOL    HW115290   0.494   6.015   4.658
 4797SOL    HW215291   0.547   6.100   4.787
 4798SOL     OW15292   6.240   4.944   5.023
 4798SOL    HW115293   6.179   4.960   5.101
 4798SOL    HW215294   6.227   4.850   4.990
 4799SOL     OW15295   4.363   1.598   0.500
 4799SOL    HW115296   4.285   1.536   0.490
 4799SOL    HW215297   4.394   1.627   0.409
 4800SOL     OW15298   1.674   4.048   6.676
 4800SOL    HW115299   1.673   4.148   6.673
 4800SOL    HW215300   1.585   4.013   6.647
 4801SOL     OW15301   3.722   2.574   6.676
 4801SOL    HW115302   3.707   2.646   6.744
 4801SOL    HW215303   3.646   2.574   6.611
 4802SOL     OW15304   6.675   6.496   1.932
 4802SOL    HW115305   6.597   6.435   1.938
 4802SOL    HW215306   6.755   6.453   1.975
 4803SOL     OW15307   6.668   4.531   1.008
 4803SOL    HW115308   6.699   4.450   0.958
 4803SOL    HW215309   6.743   4.567   1.062
 4804SOL     OW15310   6.166   0.046   0.988
 4804SOL    HW115311   6.258   0.071   1.019
 4804SOL    HW215312   6.145   6.977   1.015
 4805SOL     OW15313   6.405   1.329   2.331
 4805SOL    HW115314   6.442   1.239   2.358
 4805SOL    HW215315   6.474   1.379   2.280
 4806SOL     OW15316   0.789   3.389   2.775
 4806SOL    HW115317   0.814   3.315   2.837
 4806SOL    HW215318   0.844   3.382   2.691
 4807SOL     OW15319   1.400   4.067   6.571
 4807SOL    HW115320   1.339   4.139   6.537
 4807SOL    HW215321   1.389   4.059   6.670
 4808SOL     OW15322   4.485   5.081   0.546
 4808SOL    HW115323   4.445   5.093   0.455
 4808SOL    HW215324   4.451   5.152   0.608
 4809SOL     OW15325   3.907   4.582   1.118
 4809SOL    HW115326   3.844   4.508   1.095
 4809SOL    HW215327   3.861   4.670   1.105
 4810SOL     OW15328   1.697   4.641   3.256
 4810SOL    HW115329   1.676   4.551   3.294
 4810SOL    HW215330   1.746   4.695   3.324
 4811SOL     OW15331   3.779   3.700   3.553
 4811SOL    HW115332   3.819   3.626   3.606
 4811SOL    HW215333   3.796   3.685   3.456
 4812SOL     OW15334   0.283   0.084   2.203
 4812SOL    HW115335   0.311   0.172   2.164
 4812SOL    HW215336   0.364   0.028   2.219
 4813SOL     OW15337   6.113   1.394   6.464
 4813SOL    HW115338   6.100   1.468   6.529
 4813SOL    HW215339   6.047   1.402   6.389
 4814SOL     OW15340   6.988   3.439   1.979
 4814SOL    HW115341   0.026   3.409   2.051
 4814SOL    HW215342   6.984   3.369   1.908
 4815SOL     OW15343   5.383   4.509   2.880
 4815SOL    HW115344   5.421   4.600   2.897
 4815SOL    HW215345   5.435   4.465   2.807
 4816SOL     OW15346   2.100   5.281   1.678
 4816SOL    HW115347   2.057   5.323   1.758
 4816SOL    HW215348   2.090   5.341   1.599
 4817SOL     OW15349   3.222   1.053   1.625
 4817SOL    HW115350   3.143   1.023   1.678
 4817SOL    HW215351   3.251   1.143   1.656
 4818SOL     OW15352   0.706   1.563   4.033
 4818SOL    HW115353   0.612   1.582   4.008
 4818SOL    HW215354   0.710   1.534   4.129
 4819SOL     OW15355   3.329   2.108   1.135
 4819SOL    HW115356   3.311   2.178   1.066
 4819SOL    HW215357   3.296   2.020   1.103
 4820SOL     OW15358   6.234   2.329   0.270
 4820SOL    HW115359   6.218   2.421   0.234
 4820SOL    HW215360   6.209   2.325   0.366
 4821SOL     OW15361   6.798   0.040   1.431
 4821SOL    HW115362   6.884   0.022   1.383
 4821SOL    HW215363   6.722   0.031   1.368
 4822SOL     OW15364   1.705   3.035   3.913
 4822SOL    HW115365   1.643   2.971   3.867
 4822SOL    HW215366   1.698   3.125   3.871
 4823SOL     OW15367   0.129   1.328   3.465
 4823SOL    HW115368   0.226   1.307   3.455
 4823SOL    HW215369   0.117   1.393   3.540
 4824SOL     OW15370   5.894   1.956   3.625
 4824SOL    HW115371   5.940   2.037   3.587
 4824SOL    HW215372   5.811   1.938   3.573
 4825SOL     OW15373   2.143   2.728   4.361
 4825SOL    HW115374   2.201   2.732   4.280
 4825SOL    HW215375   2.200   2.722   4.443
 4826SOL     OW15376   0.700   0.827   7.019
 4826SOL    HW115377   0.602   0.825   7.000
 4826SOL    HW215378   0.750   0.851   6.936
 4827SOL     OW15379   6.167   0.806   1.503
 4827SOL    HW115380   6.213   0.771   1.584
 4827SOL    HW215381   6.188   0.904   1.492
 4828SOL     OW15382   5.707   3.508   0.886
 4828SOL    HW115383   5.720   3.515   0.985
 4828SOL    HW215384   5.610   3.504   0.865
 4829SOL     OW15385   3.666   6.640   6.584
 4829SOL    HW115386   3.739   6.572   6.590
 4829SOL    HW215387   3.610   6.620   6.503
 4830SOL     OW15388   5.424   6.217   4.098
 4830SOL    HW115389   5.366   6.135   4.101
 4830SOL    HW215390   5.501   6.202   4.037
 4831SOL     OW15391   6.734   5.518   6.132
 4831SOL    HW115392   6.634   5.509   6.132
 4831SOL    HW215393   6.771   5.482   6.217
 4832SOL     OW15394   2.292   2.531   5.939
 4832SOL    HW115395   2.232   2.526   5.859
 4832SOL    HW215396   2.279   2.618   5.985
 4833SOL     OW15397   5.465   1.222   2.956
 4833SOL    HW115398   5.403   1.144   2.955
 4833SOL    HW215399   5.504   1.236   2.865
 4834SOL     OW15400   3.841   0.448   0.331
 4834SOL    HW115401   3.831   0.493   0.420
 4834SOL    HW215402   3.761   0.390   0.314
 4835SOL     OW15403   0.941   1.090   6.637
 4835SOL    HW115404   1.009   1.084   6.565
 4835SOL    HW215405   0.853   1.117   6.597
 4836SOL     OW15406   4.671   2.585   3.444
 4836SOL    HW115407   4.674   2.550   3.351
 4836SOL    HW215408   4.649   2.510   3.507
 4837SOL     OW15409   4.460   3.492   1.669
 4837SOL    HW115410   4.462   3.592   1.679
 4837SOL    HW215411   4.372   3.458   1.703
 4838SOL     OW15412   2.482   5.287   2.081
 4838SOL    HW115413   2.427   5.233   2.017
 4838SOL    HW215414   2.425   5.355   2.126
 4839SOL     OW15415   1.739   3.917   5.593
 4839SOL    HW115416   1.639   3.923   5.587
 4839SOL    HW215417   1.764   3.824   5.620
 4840SOL     OW15418   0.738   6.473   5.497
 4840SOL    HW115419   0.810   6.543   5.506
 4840SOL    HW215420   0.663   6.495   5.560
 4841SOL     OW15421   3.135   6.307   1.377
 4841SOL    HW115422   3.109   6.216   1.409
 4841SOL    HW215423   3.064   6.373   1.402
 4842SOL     OW15424   3.282   4.789   1.921
 4842SOL    HW115425   3.228   4.849   1.981
 4842SOL    HW215426   3.357   4.748   1.973
 4843SOL     OW15427   5.872   4.119   0.494
 4843SOL    HW115428   5.938   4.156   0.429
 4843SOL    HW215429   5.916   4.103   0.582
 4844SOL     OW15430   6.607   3.430   6.023
 4844SOL    HW115431   6.539   3.397   5.958
 4844SOL    HW215432   6.654   3.352   6.066
 4845SOL     OW15433   6.690   5.877   4.543
 4845SOL    HW115434   6.611   5.931   4.514
 4845SOL    HW215435   6.659   5.790   4.582
 4846SOL     OW15436   6.516   3.169   3.074
 4846SOL    HW115437   6.515   3.170   2.974
 4846SOL    HW215438   6.561   3.086   3.107
 4847SOL     OW15439   3.688   1.710   5.537
 4847SOL    HW115440   3.715   1.632   5.479
 4847SOL    HW215441   3.684   1.680   5.632
 4848SOL     OW15442   1.425   0.564   3.741
 4848SOL    HW115443   1.357   0.587   3.671
 4848SOL    HW215444   1.378   0.535   3.825
 4849SOL     OW15445   0.985   6.952   6.749
 4849SOL    HW115446   1.063   7.015   6.754
 4849SOL    HW215447   0.912   6.985   6.809
 4850SOL     OW15448   3.941   1.275   2.681
 4850SOL    HW115449   3.974   1.183   2.661
 4850SOL    HW215450   3.984   1.341   2.620
 4851SOL     OW15451   3.358   5.688   4.583
 4851SOL    HW115452   3.375   5.598   4.623
 4851SOL    HW215453   3.331   5.752   4.654
 4852SOL     OW15454   0.736   0.558   5.773
 4852SOL    HW115455   0.745   0.603   5.685
 4852SOL    HW215456   0.688   0.618   5.837
 4853SOL     OW15457   2.778   1.133   2.544
 4853SOL    HW115458   2.683   1.137   2.573
 4853SOL    HW215459   2.829   1.073   2.604
 4854SOL     OW15460   4.876   6.691   2.481
 4854SOL    HW115461   4.811   6.763   2.505
 4854SOL    HW215462   4.862   6.665   2.385
 4855SOL     OW15463   5.605   2.486   2.337
 4855SOL    HW115464   5.636   2.581   2.340
 4855SOL    HW215465   5.591   2.458   2.242
 4856SOL     OW15466   2.284   4.170   2.851
 4856SOL    HW115467   2.379   4.189   2.826
 4856SOL    HW215468   2.252   4.089   2.802
 4857SOL     OW15469   1.916   3.031   5.478
 4857SOL    HW115470   1.990   2.993   5.534
 4857SOL    HW215471   1.939   3.019   5.381
 4858SOL     OW15472   1.611   1.341   4.404
 4858SOL    HW115473   1.532   1.339   4.465
 4858SOL    HW215474   1.668   1.421   4.424
 4859SOL     OW15475   1.189   0.457   4.472
 4859SOL    HW115476   1.287   0.478   4.475
 4859SOL    HW215477   1.139   0.525   4.524
 4860SOL     OW15478   3.650   5.057   1.934
 4860SOL    HW115479   3.565   5.094   1.899
 4860SOL    HW215480   3.633   4.966   1.973
 4861SOL     OW15481   5.287   5.184   0.527
 4861SOL    HW115482   5.259   5.109   0.467
 4861SOL    HW215483   5.334   5.148   0.607
 4862SOL     OW15484   2.857   4.895   5.058
 4862SOL    HW115485   2.840   4.797   5.075
 4862SOL    HW215486   2.913   4.932   5.131
 4863SOL     OW15487   6.200   4.123   1.914
 4863SOL    HW115488   6.210   4.132   1.814
 4863SOL    HW215489   6.290   4.133   1.957
 4864SOL     OW15490   3.883   1.298   3.499
 4864SOL    HW115491   3.851   1.204   3.489
 4864SOL    HW215492   3.819   1.349   3.557
 4865SOL     OW15493   2.399   0.263   5.811
 4865SOL    HW115494   2.385   0.255   5.910
 4865SOL    HW215495   2.322   0.221   5.763
 4866SOL     OW15496   7.024   2.458   0.372
 4866SOL    HW115497   0.070   2.480   0.440
 4866SOL    HW215498   7.010   2.536   0.312
 4867SOL     OW15499   3.728   5.206   3.473
 4867SOL    HW115500   3.781   5.195   3.389
 4867SOL    HW215501   3.676   5.123   3.491
 4868SOL     OW15502   0.234   5.085   2.835
 4868SOL    HW115503   0.217   5.122   2.926
 4868SOL    HW215504   0.220   4.986   2.836
 4869SOL     OW15505   1.029   1.602   2.536
 4869SOL    HW115506   1.121   1.640   2.534
 4869SOL    HW215507   0.968   1.665   2.584
 4870SOL     OW15508   0.516   6.309   2.005
 4870SOL    HW115509   0.558   6.364   1.933
 4870SOL    HW215510   0.529   6.212   1.984
 4871SOL     OW15511   1.502   0.830   3.814
 4871SOL    HW115512   1.568   0.863   3.746
 4871SOL    HW215513   1.474   0.737   3.789
 4872SOL     OW15514   5.973   0.115   3.443
 4872SOL    HW115515   6.055   0.107   3.500
 4872SOL    HW215516   5.913   0.036   3.458
 4873SOL     OW15517   6.384   5.376   3.933
 4873SOL    HW115518   6.357   5.465   3.968
 4873SOL    HW215519   6.314   5.308   3.955
 4874SOL     OW15520   5.835   3.812   2.506
 4874SOL    HW115521   5.930   3.843   2.502
 4874SOL    HW215522   5.818   3.748   2.431
 4875SOL     OW15523   6.116   1.705   0.464
 4875SOL    HW115524   6.184   1.668   0.526
 4875SOL    HW215525   6.099   1.801   0.487
 4876SOL     OW15526   6.346   2.240   2.902
 4876SOL    HW115527   6.440   2.237   2.936
 4876SOL    HW215528   6.309   2.147   2.900
 4877SOL     OW15529   1.457   1.633   5.731
 4877SOL    HW115530   1.493   1.543   5.755
 4877SOL    HW215531   1.419   1.677   5.812
 4878SOL     OW15532   6.286   1.457   1.608
 4878SOL    HW115533   6.363   1.400   1.637
 4878SOL    HW215534   6.319   1.529   1.546
 4879SOL     OW15535   4.427   1.712   2.212
 4879SOL    HW115536   4.439   1.709   2.113
 4879SOL    HW215537   4.332   1.689   2.235
 4880SOL     OW15538   5.397   3.761   0.272
 4880SOL    HW115539   5.345   3.805   0.199
 4880SOL    HW215540   5.397   3.820   0.354
 4881SOL     OW15541   1.461   1.495   0.199
 4881SOL    HW115542   1.431   1.579   0.243
 4881SOL    HW215543   1.391   1.424   0.211
 4882SOL     OW15544   4.703   0.465   4.849
 4882SOL    HW115545   4.733   0.371   4.832
 4882SOL    HW215546   4.781   0.527   4.842
 4883SOL     OW15547   4.908   4.686   1.556
 4883SOL    HW115548   4.898   4.646   1.465
 4883SOL    HW215549   4.991   4.741   1.559
 4884SOL     OW15550   2.988   5.974   1.800
 4884SOL    HW115551   2.905   5.978   1.856
 4884SOL    HW215552   2.963   5.977   1.703
 4885SOL     OW15553   2.377   5.264   1.156
 4885SOL    HW115554   2.283   5.247   1.187
 4885SOL    HW215555   2.416   5.340   1.209
 4886SOL     OW15556   1.918   6.063   1.912
 4886SOL    HW115557   1.870   6.009   1.843
 4886SOL    HW215558   2.014   6.072   1.885
 4887SOL     OW15559   7.004   7.009   1.239
 4887SOL    HW115560   7.023   0.066   1.184
 4887SOL    HW215561   6.997   6.929   1.180
 4888SOL     OW15562   3.160   0.517   4.406
 4888SOL    HW115563   3.222   0.440   4.388
 4888SOL    HW215564   3.082   0.484   4.460
 4889SOL     OW15565   6.965   1.427   5.296
 4889SOL    HW115566   6.922   1.410   5.207
 4889SOL    HW215567   6.901   1.403   5.369
 4890SOL     OW15568   6.649   1.166   6.153
 4890SOL    HW115569   6.721   1.171   6.221
 4890SOL    HW215570   6.637   1.255   6.109
 4891SOL     OW15571   1.795   4.494   0.300
 4891SOL    HW115572   1.772   4.491   0.397
 4891SOL    HW215573   1.847   4.577   0.280
 4892SOL     OW15574   3.952   5.705   2.235
 4892SOL    HW115575   4.016   5.708   2.311
 4892SOL    HW215576   3.910   5.795   2.223
 4893SOL     OW15577   6.129   2.918   1.391
 4893SOL    HW115578   6.118   2.861   1.310
 4893SOL    HW215579   6.226   2.932   1.410
 4894SOL     OW15580   3.649   0.971   2.504
 4894SOL    HW115581   3.587   0.944   2.430
 4894SOL    HW215582   3.672   1.067   2.494
 4895SOL     OW15583   0.736   4.999   4.375
 4895SOL    HW115584   0.764   4.924   4.434
 4895SOL    HW215585   0.642   4.983   4.344
 4896SOL     OW15586   2.353   4.236   1.966
 4896SOL    HW115587   2.307   4.147   1.973
 4896SOL    HW215588   2.403   4.241   1.879
 4897SOL     OW15589   1.542   5.214   5.848
 4897SOL    HW115590   1.609   5.167   5.905
 4897SOL    HW215591   1.590   5.266   5.777
 4898SOL     OW15592   4.530   1.115   5.183
 4898SOL    HW115593   4.585   1.088   5.262
 4898SOL    HW215594   4.581   1.180   5.127
 4899SOL     OW15595   5.836   5.231   2.788
 4899SOL    HW115596   5.823   5.158   2.720
 4899SOL    HW215597   5.783   5.311   2.760
 4900SOL     OW15598   3.474   6.503   5.028
 4900SOL    HW115599   3.539   6.506   5.103
 4900SOL    HW215600   3.509   6.443   4.956
 4901SOL     OW15601   2.612   1.574   5.497
 4901SOL    HW115602   2.609   1.589   5.595
 4901SOL    HW215603   2.678   1.501   5.476
 4902SOL     OW15604   1.526   1.724   5.168
 4902SOL    HW115605   1.623   1.717   5.193
 4902SOL    HW215606   1.470   1.682   5.239
 4903SOL     OW15607   3.884   5.552   0.155
 4903SOL    HW115608   3.808   5.489   0.171
 4903SOL    HW215609   3.971   5.503   0.166
 4904SOL     OW15610   2.124   0.412   5.212
 4904SOL    HW115611   2.193   0.340   5.222
 4904SOL    HW215612   2.063   0.389   5.136
 4905SOL     OW15613   3.245   0.563   3.258
 4905SOL    HW115614   3.234   0.471   3.296
 4905SOL    HW215615   3.343   0.585   3.253
 4906SOL     OW15616   5.123   1.570   6.206
 4906SOL    HW115617   5.064   1.620   6.270
 4906SOL    HW215618   5.188   1.514   6.258
 4907SOL     OW15619   4.428   6.550   2.032
 4907SOL    HW115620   4.435   6.607   1.950
 4907SOL    HW215621   4.364   6.591   2.097
 4908SOL     OW15622   5.784   6.621   6.760
 4908SOL    HW115623   5.747   6.554   6.697
 4908SOL    HW215624   5.884   6.613   6.763
 4909SOL     OW15625   0.450   5.623   3.798
 4909SOL    HW115626   0.447   5.660   3.706
 4909SOL    HW215627   0.358   5.592   3.824
 4910SOL     OW15628   4.964   1.167   4.221
 4910SOL    HW115629   5.001   1.086   4.175
 4910SOL    HW215630   5.029   1.198   4.290
 4911SOL     OW15631   1.573   4.258   2.969
 4911SOL    HW115632   1.619   4.340   3.003
 4911SOL    HW215633   1.474   4.267   2.983
 4912SOL     OW15634   5.938   1.059   6.072
 4912SOL    HW115635   5.898   1.104   5.993
 4912SOL    HW215636   5.915   1.109   6.156
 4913SOL     OW15637   3.884   3.208   4.972
 4913SOL    HW115638   3.865   3.141   5.044
 4913SOL    HW215639   3.802   3.263   4.956
 4914SOL     OW15640   4.284   6.689   5.125
 4914SOL    HW115641   4.309   6.767   5.068
 4914SOL    HW215642   4.293   6.714   5.222
 4915SOL     OW15643   3.109   5.642   6.078
 4915SOL    HW115644   3.172   5.585   6.025
 4915SOL    HW215645   3.079   5.720   6.022
 4916SOL     OW15646   0.739   0.781   4.266
 4916SOL    HW115647   0.687   0.855   4.224
 4916SOL    HW215648   0.792   0.734   4.195
 4917SOL     OW15649   2.426   5.814   1.360
 4917SOL    HW115650   2.448   5.838   1.265
 4917SOL    HW215651   2.446   5.717   1.375
 4918SOL     OW15652   5.147   6.578   1.949
 4918SOL    HW115653   5.224   6.514   1.949
 4918SOL    HW215654   5.171   6.660   1.897
 4919SOL     OW15655   3.361   3.144   0.506
 4919SOL    HW115656   3.266   3.131   0.474
 4919SOL    HW215657   3.409   3.056   0.502
 4920SOL     OW15658   5.363   0.323   4.608
 4920SOL    HW115659   5.385   0.351   4.515
 4920SOL    HW215660   5.362   0.223   4.614
 4921SOL     OW15661   0.788   5.811   0.113
 4921SOL    HW115662   0.812   5.790   0.018
 4921SOL    HW215663   0.699   5.857   0.116
 4922SOL     OW15664   2.711   2.182   4.737
 4922SOL    HW115665   2.643   2.189   4.664
 4922SOL    HW215666   2.728   2.086   4.759
 4923SOL     OW15667   3.413   1.313   2.318
 4923SOL    HW115668   3.363   1.260   2.387
 4923SOL    HW215669   3.376   1.295   2.228
 4924SOL     OW15670   3.594   1.325   4.772
 4924SOL    HW115671   3.565   1.372   4.689
 4924SOL    HW215672   3.597   1.390   4.848
 4925SOL     OW15673   6.139   0.165   2.393
 4925SOL    HW115674   6.134   0.198   2.487
 4925SOL    HW215675   6.116   0.239   2.330
 4926SOL     OW15676   5.434   1.922   1.306
 4926SOL    HW115677   5.405   1.878   1.391
 4926SOL    HW215678   5.484   1.855   1.250
 4927SOL     OW15679   3.283   3.483   4.868
 4927SOL    HW115680   3.322   3.519   4.953
 4927SOL    HW215681   3.301   3.385   4.861
 4928SOL     OW15682   1.297   0.744   0.031
 4928SOL    HW115683   1.262   0.801   0.106
 4928SOL    HW215684   1.390   0.714   0.053
 4929SOL     OW15685   6.283   6.680   4.840
 4929SOL    HW115686   6.252   6.772   4.814
 4929SOL    HW215687   6.211   6.614   4.821
 4930SOL     OW15688   5.945   0.561   3.101
 4930SOL    HW115689   5.852   0.597   3.093
 4930SOL    HW215690   5.950   0.500   3.180
 4931SOL     OW15691   6.607   6.584   1.218
 4931SOL    HW115692   6.669   6.632   1.155
 4931SOL    HW215693   6.635   6.488   1.226
 4932SOL     OW15694   4.024   3.345   2.575
 4932SOL    HW115695   4.078   3.323   2.656
 4932SOL    HW215696   4.048   3.283   2.501
 4933SOL     OW15697   2.051   0.009   2.256
 4933SOL    HW115698   2.146   7.005   2.268
 4933SOL    HW215699   2.023   0.065   2.334
 4934SOL     OW15700   3.507   5.487   3.252
 4934SOL    HW115701   3.463   5.576   3.236
 4934SOL    HW215702   3.564   5.464   3.173
 4935SOL     OW15703   1.403   2.019   6.079
 4935SOL    HW115704   1.432   1.933   6.123
 4935SOL    HW215705   1.417   2.095   6.142
 4936SOL     OW15706   3.494   5.130   1.290
 4936SOL    HW115707   3.517   5.168   1.379
 4936SOL    HW215708   3.534   5.187   1.218
 4937SOL     OW15709   5.653   3.033   6.098
 4937SOL    HW115710   5.671   2.936   6.113
 4937SOL    HW215711   5.727   3.087   6.137
 4938SOL     OW15712   1.963   5.353   5.669
 4938SOL    HW115713   1.992   5.374   5.762
 4938SOL    HW215714   1.866   5.374   5.658
 4939SOL     OW15715   5.826   2.161   4.928
 4939SOL    HW115716   5.893   2.171   4.854
 4939SOL    HW215717   5.874   2.151   5.015
 4940SOL     OW15718   0.784   1.222   4.777
 4940SOL    HW115719   0.684   1.229   4.786
 4940SOL    HW215720   0.823   1.314   4.776
 4941SOL     OW15721   4.778   1.776   5.941
 4941SOL    HW115722   4.800   1.846   5.872
 4941SOL    HW215723   4.682   1.751   5.933
 4942SOL     OW15724   5.241   2.768   6.013
 4942SOL    HW115725   5.335   2.740   6.034
 4942SOL    HW215726   5.195   2.695   5.963
 4943SOL     OW15727   4.382   3.524   0.105
 4943SOL    HW115728   4.460   3.572   0.065
 4943SOL    HW215729   4.364   3.560   0.196
 4944SOL     OW15730   2.233   4.425   2.647
 4944SOL    HW115731   2.230   4.347   2.585
 4944SOL    HW215732   2.279   4.501   2.603
 4945SOL     OW15733   1.086   1.559   3.718
 4945SOL    HW115734   1.173   1.530   3.678
 4945SOL    HW215735   1.039   1.620   3.655
 4946SOL     OW15736   0.271   3.146   1.146
 4946SOL    HW115737   0.195   3.105   1.195
 4946SOL    HW215738   0.355   3.138   1.200
 4947SOL     OW15739   1.828   0.844   1.056
 4947SOL    HW115740   1.919   0.817   1.026
 4947SOL    HW215741   1.826   0.849   1.156
 4948SOL     OW15742   1.705   0.666   2.787
 4948SOL    HW115743   1.765   0.692   2.863
 4948SOL    HW215744   1.752   0.600   2.729
 4949SOL     OW15745   4.356   6.880   5.854
 4949SOL    HW115746   4.331   6.834   5.940
 4949SOL    HW215747   4.276   6.929   5.819
 4950SOL     OW15748   2.861   5.691   4.146
 4950SOL    HW115749   2.812   5.665   4.229
 4950SOL    HW215750   2.923   5.767   4.165
 4951SOL     OW15751   5.244   1.634   4.739
 4951SOL    HW115752   5.146   1.623   4.757
 4951SOL    HW215753   5.270   1.575   4.662
 4952SOL     OW15754   0.320   0.518   5.144
 4952SOL    HW115755   0.287   0.436   5.097
 4952SOL    HW215756   0.241   0.575   5.168
 4953SOL     OW15757   2.017   6.781   2.355
 4953SOL    HW115758   1.963   6.746   2.279
 4953SOL    HW215759   2.036   6.878   2.341
 4954SOL     OW15760   4.617   3.664   0.057
 4954SOL    HW115761   4.620   3.704   6.989
 4954SOL    HW215762   4.584   3.733   0.122
 4955SOL     OW15763   1.888   6.607   6.585
 4955SOL    HW115764   1.908   6.689   6.638
 4955SOL    HW215765   1.824   6.549   6.635
 4956SOL     OW15766   2.612   0.398   4.669
 4956SOL    HW115767   2.561   0.360   4.592
 4956SOL    HW215768   2.555   0.465   4.716
 4957SOL     OW15769   0.104   1.518   3.261
 4957SOL    HW115770   0.069   1.436   3.308
 4957SOL    HW215771   0.169   1.491   3.190
 4958SOL     OW15772   6.967   5.879   5.419
 4958SOL    HW115773   6.878   5.905   5.458
 4958SOL    HW215774   6.999   5.796   5.463
 4959SOL     OW15775   6.971   1.255   6.592
 4959SOL    HW115776   6.943   1.194   6.666
 4959SOL    HW215777   6.957   1.350   6.620
 4960SOL     OW15778   3.406   5.832   4.101
 4960SOL    HW115779   3.468   5.754   4.088
 4960SOL    HW215780   3.424   5.901   4.031
 4961SOL     OW15781   5.339   1.673   5.776
 4961SOL    HW115782   5.330   1.580   5.741
 4961SOL    HW215783   5.429   1.709   5.752
 4962SOL     OW15784   6.286   2.572   0.726
 4962SOL    HW115785   6.343   2.624   0.662
 4962SOL    HW215786   6.191   2.601   0.719
 4963SOL     OW15787   6.053   6.182   0.212
 4963SOL    HW115788   6.016   6.236   0.137
 4963SOL    HW215789   6.041   6.084   0.192
 4964SOL     OW15790   3.844   6.689   3.526
 4964SOL    HW115791   3.860   6.783   3.558
 4964SOL    HW215792   3.858   6.625   3.601
 4965SOL     OW15793   0.033   0.326   3.756
 4965SOL    HW115794   0.123   0.369   3.765
 4965SOL    HW215795   0.028   0.246   3.815
 4966SOL     OW15796   1.939   0.356   4.992
 4966SOL    HW115797   1.955   0.442   4.944
 4966SOL    HW215798   2.014   0.293   4.975
 4967SOL     OW15799   3.897   3.233   5.560
 4967SOL    HW115800   3.952   3.191   5.488
 4967SOL    HW215801   3.933   3.324   5.581
 4968SOL     OW15802   5.635   3.094   2.985
 4968SOL    HW115803   5.671   3.101   3.078
 4968SOL    HW215804   5.656   3.178   2.935
 4969SOL     OW15805   2.054   1.091   1.908
 4969SOL    HW115806   1.986   1.142   1.854
 4969SOL    HW215807   2.108   1.156   1.962
 4970SOL     OW15808   1.708   2.225   4.530
 4970SOL    HW115809   1.764   2.272   4.598
 4970SOL    HW215810   1.611   2.247   4.546
 4971SOL     OW15811   6.134   6.139   3.626
 4971SOL    HW115812   6.095   6.047   3.619
 4971SOL    HW215813   6.084   6.201   3.565
 4972SOL     OW15814   1.301   2.975   0.782
 4972SOL    HW115815   1.252   3.015   0.860
 4972SOL    HW215816   1.235   2.944   0.714
 4973SOL     OW15817   6.853   6.986   1.841
 4973SOL    HW115818   6.763   6.947   1.862
 4973SOL    HW215819   6.924   6.934   1.888
 4974SOL     OW15820   5.857   4.210   0.888
 4974SOL    HW115821   5.757   4.220   0.882
 4974SOL    HW215822   5.879   4.116   0.913
 4975SOL     OW15823   5.457   6.013   6.160
 4975SOL    HW115824   5.378   6.008   6.099
 4975SOL    HW215825   5.430   6.054   6.247
 4976SOL     OW15826   3.252   0.398   4.707
 4976SOL    HW115827   3.332   0.429   4.656
 4976SOL    HW215828   3.221   0.471   4.769
 4977SOL     OW15829   4.690   4.297   0.517
 4977SOL    HW115830   4.716   4.220   0.459
 4977SOL    HW215831   4.689   4.268   0.613
 4978SOL     OW15832   6.727   3.693   5.812
 4978SOL    HW115833   6.641   3.740   5.797
 4978SOL    HW215834   6.715   3.622   5.881
 4979SOL     OW15835   0.085   1.260   5.068
 4979SOL    HW115836   0.135   1.203   5.134
 4979SOL    HW215837   0.084   1.355   5.099
 4980SOL     OW15838   4.742   0.345   3.334
 4980SOL    HW115839   4.667   0.386   3.283
 4980SOL    HW215840   4.825   0.400   3.323
 4981SOL     OW15841   4.621   5.586   6.157
 4981SOL    HW115842   4.697   5.650   6.147
 4981SOL    HW215843   4.583   5.565   6.066
 4982SOL     OW15844   1.931   1.938   6.889
 4982SOL    HW115845   1.956   1.920   6.984
 4982SOL    HW215846   1.837   1.908   6.873
 4983SOL     OW15847   5.342   2.836   4.441
 4983SOL    HW115848   5.266   2.786   4.481
 4983SOL    HW215849   5.395   2.776   4.381
 4984SOL     OW15850   5.594   3.728   4.156
 4984SOL    HW115851   5.541   3.644   4.140
 4984SOL    HW215852   5.540   3.791   4.212
 4985SOL     OW15853   6.579   6.244   3.376
 4985SOL    HW115854   6.507   6.283   3.320
 4985SOL    HW215855   6.659   6.304   3.374
 4986SOL     OW15856   6.824   4.251   3.004
 4986SOL    HW115857   6.901   4.193   3.029
 4986SOL    HW215858   6.771   4.207   2.931
 4987SOL     OW15859   0.834   2.703   1.270
 4987SOL    HW115860   0.871   2.749   1.189
 4987SOL    HW215861   0.829   2.605   1.253
 4988SOL     OW15862   6.643   1.936   3.322
 4988SOL    HW115863   6.671   2.015   3.266
 4988SOL    HW215864   6.546   1.944   3.344
 4989SOL     OW15865   5.087   1.010   1.177
 4989SOL    HW115866   5.096   1.109   1.180
 4989SOL    HW215867   4.995   0.984   1.205
 4990SOL     OW15868   1.578   1.619   6.052
 4990SOL    HW115869   1.548   1.524   6.053
 4990SOL    HW215870   1.664   1.627   6.002
 4991SOL     OW15871   0.969   3.800   4.004
 4991SOL    HW115872   0.897   3.847   3.952
 4991SOL    HW215873   1.042   3.866   4.025
 4992SOL     OW15874   5.147   0.929   4.048
 4992SOL    HW115875   5.204   0.882   4.115
 4992SOL    HW215876   5.136   0.871   3.967
 4993SOL     OW15877   3.364   5.485   4.247
 4993SOL    HW115878   3.374   5.388   4.269
 4993SOL    HW215879   3.410   5.504   4.160
 4994SOL     OW15880   1.334   0.398   2.176
 4994SOL    HW115881   1.301   0.395   2.270
 4994SOL    HW215882   1.395   0.476   2.164
 4995SOL     OW15883   6.538   3.044   5.986
 4995SOL    HW115884   6.461   3.004   6.037
 4995SOL    HW215885   6.523   3.030   5.888
 4996SOL     OW15886   1.427   1.212   2.483
 4996SOL    HW115887   1.508   1.165   2.518
 4996SOL    HW215888   1.373   1.247   2.561
 4997SOL     OW15889   6.046   2.038   2.875
 4997SOL    HW115890   5.979   2.070   2.808
 4997SOL    HW215891   6.110   1.975   2.831
 4998SOL     OW15892   2.098   3.855   5.156
 4998SOL    HW115893   2.166   3.920   5.125
 4998SOL    HW215894   2.143   3.773   5.192
 4999SOL     OW15895   5.414   5.593   1.069
 4999SOL    HW115896   5.351   5.560   0.998
 4999SOL    HW215897   5.410   5.693   1.073
 5000SOL     OW15898   1.018   0.240   3.879
 5000SOL    HW115899   1.010   0.302   3.801
 5000SOL    HW215900   0.948   0.263   3.947
 5001SOL     OW15901   1.324   4.141   6.028
 5001SOL    HW115902   1.338   4.042   6.033
 5001SOL    HW215903   1.249   4.167   6.089
 5002SOL     OW15904   1.309   3.219   3.174
 5002SOL    HW115905   1.214   3.240   3.199
 5002SOL    HW215906   1.339   3.281   3.102
 5003SOL     OW15907   1.735   5.962   3.307
 5003SOL    HW115908   1.749   5.989   3.402
 5003SOL    HW215909   1.797   5.887   3.284
 5004SOL     OW15910   2.593   5.295   5.397
 5004SOL    HW115911   2.671   5.233   5.396
 5004SOL    HW215912   2.615   5.376   5.451
 5005SOL     OW15913   3.239   2.529   0.794
 5005SOL    HW115914   3.197   2.616   0.820
 5005SOL    HW215915   3.277   2.537   0.702
 5006SOL     OW15916   5.557   6.800   6.628
 5006SOL    HW115917   5.629   6.772   6.564
 5006SOL    HW215918   5.534   6.896   6.612
 5007SOL     OW15919   2.354   0.193   6.580
 5007SOL    HW115920   2.365   0.202   6.679
 5007SOL    HW215921   2.288   0.262   6.548
 5008SOL     OW15922   6.833   0.394   3.880
 5008SOL    HW115923   6.799   0.300   3.888
 5008SOL    HW215924   6.916   0.394   3.824
 5009SOL     OW15925   2.073   6.726   1.915
 5009SOL    HW115926   2.147   6.720   1.982
 5009SOL    HW215927   2.066   6.639   1.865
 5010SOL     OW15928   3.212   3.055   3.837
 5010SOL    HW115929   3.189   3.124   3.768
 5010SOL    HW215930   3.131   3.034   3.892
 5011SOL     OW15931   2.131   3.680   2.091
 5011SOL    HW115932   2.111   3.658   2.186
 5011SOL    HW215933   2.165   3.597   2.044
 5012SOL     OW15934   4.752   3.376   6.322
 5012SOL    HW115935   4.662   3.357   6.361
 5012SOL    HW215936   4.780   3.300   6.264
 5013SOL     OW15937   5.289   1.379   0.230
 5013SOL    HW115938   5.312   1.470   0.265
 5013SOL    HW215939   5.281   1.314   0.305
 5014SOL     OW15940   5.554   5.260   0.224
 5014SOL    HW115941   5.558   5.182   0.287
 5014SOL    HW215942   5.582   5.343   0.272
 5015SOL     OW15943   4.632   1.803   3.670
 5015SOL    HW115944   4.673   1.771   3.756
 5015SOL    HW215945   4.570   1.879   3.689
 5016SOL     OW15946   2.628   1.706   2.014
 5016SOL    HW115947   2.600   1.800   1.996
 5016SOL    HW215948   2.553   1.657   2.058
 5017SOL     OW15949   1.885   2.049   0.539
 5017SOL    HW115950   1.939   1.964   0.533
 5017SOL    HW215951   1.926   2.109   0.608
 5018SOL     OW15952   0.765   5.179   1.091
 5018SOL    HW115953   0.744   5.251   1.158
 5018SOL    HW215954   0.768   5.091   1.137
 5019SOL     OW15955   2.356   4.341   0.396
 5019SOL    HW115956   2.367   4.299   0.305
 5019SOL    HW215957   2.351   4.269   0.465
 5020SOL     OW15958   4.909   6.221   5.613
 5020SOL    HW115959   4.847   6.249   5.539
 5020SOL    HW215960   4.857   6.172   5.683
 5021SOL     OW15961   1.546   2.742   5.450
 5021SOL    HW115962   1.471   2.704   5.503
 5021SOL    HW215963   1.522   2.742   5.353
 5022SOL     OW15964   2.146   0.713   0.822
 5022SOL    HW115965   2.140   0.770   0.904
 5022SOL    HW215966   2.238   0.674   0.815
 5023SOL     OW15967   6.381   3.359   1.444
 5023SOL    HW115968   6.476   3.388   1.460
 5023SOL    HW215969   6.380   3.278   1.386
 5024SOL     OW15970   6.809   4.317   2.640
 5024SOL    HW115971   6.808   4.412   2.608
 5024SOL    HW215972   6.904   4.288   2.652
 5025SOL     OW15973   4.112   1.881   1.873
 5025SOL    HW115974   4.037   1.903   1.934
 5025SOL    HW215975   4.090   1.912   1.780
 5026SOL     OW15976   5.808   5.971   6.543
 5026SOL    HW115977   5.804   5.886   6.491
 5026SOL    HW215978   5.767   6.045   6.489
 5027SOL     OW15979   0.609   0.232   2.075
 5027SOL    HW115980   0.616   0.134   2.061
 5027SOL    HW215981   0.660   0.258   2.158
 5028SOL     OW15982   0.179   6.792   2.362
 5028SOL    HW115983   0.271   6.793   2.400
 5028SOL    HW215984   0.152   6.884   2.335
 5029SOL     OW15985   6.403   2.951   3.380
 5029SOL    HW115986   6.428   2.902   3.463
 5029SOL    HW215987   6.426   3.048   3.391
 5030SOL     OW15988   6.308   0.509   6.859
 5030SOL    HW115989   6.373   0.499   6.935
 5030SOL    HW215990   6.325   0.596   6.813
 5031SOL     OW15991   5.467   1.461   4.929
 5031SOL    HW115992   5.486   1.558   4.948
 5031SOL    HW215993   5.445   1.413   5.014
 5032SOL     OW15994   0.847   4.463   1.266
 5032SOL    HW115995   0.788   4.417   1.332
 5032SOL    HW215996   0.941   4.431   1.277
 5033SOL     OW15997   1.852   4.769   6.773
 5033SOL    HW115998   1.893   4.787   6.683
 5033SOL    HW215999   1.759   4.806   6.775
 5034SOL     OW16000   6.792   3.072   2.293
 5034SOL    HW116001   6.842   2.986   2.286
 5034SOL    HW216002   6.843   3.144   2.246
 5035SOL     OW16003   5.822   4.734   0.661
 5035SOL    HW116004   5.727   4.764   0.656
 5035SOL    HW216005   5.881   4.801   0.615
 5036SOL     OW16006   0.432   5.130   6.785
 5036SOL    HW116007   0.378   5.105   6.866
 5036SOL    HW216008   0.481   5.050   6.751
 5037SOL     OW16009   4.690   2.592   2.400
 5037SOL    HW116010   4.729   2.666   2.455
 5037SOL    HW216011   4.745   2.509   2.412
 5038SOL     OW16012   1.668   5.026   5.614
 5038SOL    HW116013   1.671   4.961   5.538
 5038SOL    HW216014   1.702   5.115   5.583
 5039SOL     OW16015   2.275   3.631   5.254
 5039SOL    HW116016   2.368   3.654   5.282
 5039SOL    HW216017   2.254   3.537   5.279
 5040SOL     OW16018   2.098   4.383   6.566
 5040SOL    HW116019   2.152   4.383   6.482
 5040SOL    HW216020   2.032   4.458   6.564
 5041SOL     OW16021   1.079   3.826   1.247
 5041SOL    HW116022   1.085   3.849   1.150
 5041SOL    HW216023   1.085   3.909   1.302
 5042SOL     OW16024   0.004   3.153   7.009
 5042SOL    HW116025   7.019   3.070   6.954
 5042SOL    HW216026   6.946   3.208   7.000
 5043SOL     OW16027   3.277   0.897   5.430
 5043SOL    HW116028   3.323   0.913   5.517
 5043SOL    HW216029   3.222   0.977   5.406
 5044SOL     OW16030   5.942   6.833   3.229
 5044SOL    HW116031   5.932   6.734   3.238
 5044SOL    HW216032   6.008   6.852   3.156
 5045SOL     OW16033   5.431   3.242   0.243
 5045SOL    HW116034   5.467   3.150   0.226
 5045SOL    HW216035   5.501   3.310   0.219
 5046SOL     OW16036   3.932   3.017   4.760
 5046SOL    HW116037   4.004   3.056   4.702
 5046SOL    HW216038   3.922   3.073   4.842
 5047SOL     OW16039   6.685   2.219   2.657
 5047SOL    HW116040   6.617   2.280   2.616
 5047SOL    HW216041   6.671   2.126   2.623
 5048SOL     OW16042   6.612   2.900   1.370
 5048SOL    HW116043   6.604   2.802   1.355
 5048SOL    HW216044   6.665   2.941   1.296
 5049SOL     OW16045   0.143   1.031   3.659
 5049SOL    HW116046   0.145   1.121   3.614
 5049SOL    HW216047   0.058   0.984   3.637
 5050SOL     OW16048   0.604   1.228   2.282
 5050SOL    HW116049   0.619   1.228   2.381
 5050SOL    HW216050   0.604   1.322   2.248
 5051SOL     OW16051   4.216   3.411   0.574
 5051SOL    HW116052   4.178   3.334   0.522
 5051SOL    HW216053   4.228   3.384   0.670
 5052SOL     OW16054   2.277   5.024   6.198
 5052SOL    HW116055   2.299   4.971   6.116
 5052SOL    HW216056   2.258   4.961   6.274
 5053SOL     OW16057   1.902   4.070   3.158
 5053SOL    HW116058   1.945   4.159   3.176
 5053SOL    HW216059   1.879   4.027   3.245
 5054SOL     OW16060   3.655   5.740   5.187
 5054SOL    HW116061   3.620   5.752   5.280
 5054SOL    HW216062   3.618   5.656   5.149
 5055SOL     OW16063   6.864   1.332   4.762
 5055SOL    HW116064   6.833   1.253   4.710
 5055SOL    HW216065   6.964   1.335   4.762
 5056SOL     OW16066   6.040   3.965   6.276
 5056SOL    HW116067   6.100   4.040   6.247
 5056SOL    HW216068   6.078   3.923   6.359
 5057SOL     OW16069   1.322   5.384   3.654
 5057SOL    HW116070   1.265   5.445   3.709
 5057SOL    HW216071   1.382   5.332   3.714
 5058SOL     OW16072   2.902   3.661   6.781
 5058SOL    HW116073   2.876   3.610   6.699
 5058SOL    HW216074   2.983   3.620   6.822
 5059SOL     OW16075   5.201   3.177   4.653
 5059SOL    HW116076   5.156   3.101   4.699
 5059SOL    HW216077   5.133   3.246   4.627
 5060SOL     OW16078   0.284   2.591   5.091
 5060SOL    HW116079   0.383   2.595   5.081
 5060SOL    HW216080   0.260   2.598   5.188
 5061SOL     OW16081   2.934   3.716   3.761
 5061SOL    HW116082   2.884   3.643   3.714
 5061SOL    HW216083   2.962   3.784   3.694
 5062SOL     OW16084   6.043   0.992   2.248
 5062SOL    HW116085   5.991   0.911   2.221
 5062SOL    HW216086   6.111   1.013   2.178
 5063SOL     OW16087   1.192   5.940   1.692
 5063SOL    HW116088   1.112   5.902   1.740
 5063SOL    HW216089   1.212   6.031   1.728
 5064SOL     OW16090   4.720   5.185   1.146
 5064SOL    HW116091   4.807   5.228   1.167
 5064SOL    HW216092   4.729   5.085   1.153
 5065SOL     OW16093   1.465   0.760   2.781
 5065SOL    HW116094   1.471   0.847   2.732
 5065SOL    HW216095   1.557   0.724   2.795
 5066SOL     OW16096   2.739   4.451   1.622
 5066SOL    HW116097   2.784   4.492   1.543
 5066SOL    HW216098   2.803   4.444   1.698
 5067SOL     OW16099   4.770   1.454   2.660
 5067SOL    HW116100   4.697   1.406   2.710
 5067SOL    HW216101   4.835   1.387   2.625
 5068SOL     OW16102   3.050   5.482   7.012
 5068SOL    HW116103   3.122   5.452   6.949
 5068SOL    HW216104   3.069   5.447   0.079
 5069SOL     OW16105   2.075   3.217   5.839
 5069SOL    HW116106   2.160   3.268   5.826
 5069SOL    HW216107   2.002   3.280   5.864
 5070SOL     OW16108   5.708   3.928   4.791
 5070SOL    HW116109   5.696   3.860   4.718
 5070SOL    HW216110   5.696   3.884   4.880
 5071SOL     OW16111   4.104   2.061   3.406
 5071SOL    HW116112   4.164   2.138   3.382
 5071SOL    HW216113   4.117   2.038   3.502
 5072SOL     OW16114   1.808   1.458   1.464
 5072SOL    HW116115   1.882   1.431   1.525
 5072SOL    HW216116   1.830   1.547   1.423
 5073SOL     OW16117   1.608   5.358   1.416
 5073SOL    HW116118   1.525   5.369   1.471
 5073SOL    HW216119   1.683   5.410   1.456
 5074SOL     OW16120   4.182   2.239   1.519
 5074SOL    HW116121   4.228   2.204   1.600
 5074SOL    HW216122   4.141   2.164   1.467
 5075SOL     OW16123   1.141   2.354   6.685
 5075SOL    HW116124   1.196   2.369   6.767
 5075SOL    HW216125   1.196   2.312   6.614
 5076SOL     OW16126   5.723   0.046   6.798
 5076SOL    HW116127   5.624   0.050   6.783
 5076SOL    HW216128   5.750   0.119   6.861
 5077SOL     OW16129   0.069   4.045   6.254
 5077SOL    HW116130   7.002   4.051   6.293
 5077SOL    HW216131   0.128   3.990   6.313
 5078SOL     OW16132   0.395   0.751   4.491
 5078SOL    HW116133   0.420   0.733   4.587
 5078SOL    HW216134   0.424   0.843   4.466
 5079SOL     OW16135   2.112   2.859   5.646
 5079SOL    HW116136   2.037   2.850   5.712
 5079SOL    HW216137   2.199   2.856   5.694
 5080SOL     OW16138   5.529   5.669   5.278
 5080SOL    HW116139   5.458   5.732   5.308
 5080SOL    HW216140   5.618   5.702   5.310
 5081SOL     OW16141   3.072   4.771   5.535
 5081SOL    HW116142   2.975   4.772   5.560
 5081SOL    HW216143   3.082   4.733   5.443
 5082SOL     OW16144   5.305   6.736   0.338
 5082SOL    HW116145   5.394   6.780   0.349
 5082SOL    HW216146   5.286   6.678   0.417
 5083SOL     OW16147   3.770   0.629   1.392
 5083SOL    HW116148   3.754   0.554   1.456
 5083SOL    HW216149   3.682   0.664   1.359
 5084SOL     OW16150   0.569   4.983   4.156
 5084SOL    HW116151   0.552   4.907   4.218
 5084SOL    HW216152   0.650   4.964   4.101
 5085SOL     OW16153   0.798   3.282   5.623
 5085SOL    HW116154   0.860   3.360   5.631
 5085SOL    HW216155   0.835   3.205   5.676
 5086SOL     OW16156   0.933   4.102   2.515
 5086SOL    HW116157   0.981   4.171   2.568
 5086SOL    HW216158   0.858   4.145   2.464
 5087SOL     OW16159   6.843   5.547   2.280
 5087SOL    HW116160   6.910   5.606   2.326
 5087SOL    HW216161   6.789   5.602   2.216
 5088SOL     OW16162   4.720   6.976   3.667
 5088SOL    HW116163   4.687   0.003   3.588
 5088SOL    HW216164   4.709   0.007   3.749
 5089SOL     OW16165   5.993   4.310   4.319
 5089SOL    HW116166   5.942   4.385   4.361
 5089SOL    HW216167   6.091   4.327   4.328
 5090SOL     OW16168   2.212   1.349   2.635
 5090SOL    HW116169   2.263   1.316   2.715
 5090SOL    HW216170   2.271   1.347   2.555
 5091SOL     OW16171   6.261   0.383   1.175
 5091SOL    HW116172   6.206   0.396   1.258
 5091SOL    HW216173   6.207   0.409   1.095
 5092SOL     OW16174   3.419   2.896   3.729
 5092SOL    HW116175   3.340   2.947   3.764
 5092SOL    HW216176   3.495   2.906   3.792
 5093SOL     OW16177   3.528   1.453   0.728
 5093SOL    HW116178   3.504   1.454   0.631
 5093SOL    HW216179   3.482   1.529   0.774
 5094SOL     OW16180   1.912   5.937   6.479
 5094SOL    HW116181   1.913   5.852   6.533
 5094SOL    HW216182   1.817   5.962   6.459
 5095SOL     OW16183   0.619   2.451   3.284
 5095SOL    HW116184   0.638   2.411   3.194
 5095SOL    HW216185   0.574   2.383   3.342
 5096SOL     OW16186   4.626   4.812   6.225
 5096SOL    HW116187   4.581   4.859   6.301
 5096SOL    HW216188   4.658   4.722   6.256
 5097SOL     OW16189   6.770   6.739   0.280
 5097SOL    HW116190   6.828   6.818   0.300
 5097SOL    HW216191   6.825   6.656   0.278
 5098SOL     OW16192   3.513   1.704   1.393
 5098SOL    HW116193   3.602   1.713   1.349
 5098SOL    HW216194   3.507   1.768   1.470
 5099SOL     OW16195   0.088   6.364   2.048
 5099SOL    HW116196   0.040   6.402   2.127
 5099SOL    HW216197   0.174   6.412   2.035
 5100SOL     OW16198   3.354   5.260   4.438
 5100SOL    HW116199   3.445   5.219   4.434
 5100SOL    HW216200   3.287   5.191   4.464
 5101SOL     OW16201   4.669   0.157   5.572
 5101SOL    HW116202   4.629   0.095   5.640
 5101SOL    HW216203   4.670   0.250   5.609
 5102SOL     OW16204   5.312   6.756   4.279
 5102SOL    HW116205   5.382   6.720   4.217
 5102SOL    HW216206   5.291   6.687   4.348
 5103SOL     OW16207   1.208   1.779   4.300
 5103SOL    HW116208   1.244   1.686   4.303
 5103SOL    HW216209   1.244   1.826   4.219
 5104SOL     OW16210   2.620   6.326   1.743
 5104SOL    HW116211   2.559   6.269   1.687
 5104SOL    HW216212   2.580   6.417   1.754
 5105SOL     OW16213   3.002   2.806   6.738
 5105SOL    HW116214   3.056   2.879   6.696
 5105SOL    HW216215   2.907   2.815   6.710
 5106SOL     OW16216   4.078   1.353   1.125
 5106SOL    HW116217   4.060   1.345   1.223
 5106SOL    HW216218   4.067   1.449   1.097
 5107SOL     OW16219   4.823   2.535   1.421
 5107SOL    HW116220   4.855   2.594   1.495
 5107SOL    HW216221   4.746   2.480   1.453
 5108SOL     OW16222   4.086   3.726   5.145
 5108SOL    HW116223   4.056   3.821   5.145
 5108SOL    HW216224   4.121   3.702   5.054
 5109SOL     OW16225   1.171   2.144   0.381
 5109SOL    HW116226   1.125   2.167   0.467
 5109SOL    HW216227   1.162   2.046   0.363
 5110SOL     OW16228   0.717   0.630   6.367
 5110SOL    HW116229   0.784   0.580   6.312
 5110SOL    HW216230   0.712   0.725   6.335
 5111SOL     OW16231   1.488   6.926   4.157
 5111SOL    HW116232   1.481   7.018   4.196
 5111SOL    HW216233   1.445   6.924   4.067
 5112SOL     OW16234   1.155   0.184   2.624
 5112SOL    HW116235   1.101   0.121   2.568
 5112SOL    HW216236   1.184   0.137   2.708
 5113SOL     OW16237   1.612   5.712   1.510
 5113SOL    HW116238   1.597   5.733   1.414
 5113SOL    HW216239   1.531   5.736   1.564
 5114SOL     OW16240   3.451   6.521   6.891
 5114SOL    HW116241   3.492   6.527   6.800
 5114SOL    HW216242   3.521   6.490   6.956
 5115SOL     OW16243   1.292   4.915   2.728
 5115SOL    HW116244   1.382   4.881   2.700
 5115SOL    HW216245   1.301   4.970   2.811
 5116SOL     OW16246   1.328   6.510   0.940
 5116SOL    HW116247   1.278   6.588   0.976
 5116SOL    HW216248   1.426   6.524   0.956
 5117SOL     OW16249   0.490   3.661   3.764
 5117SOL    HW116250   0.401   3.698   3.736
 5117SOL    HW216251   0.544   3.637   3.683
 5118SOL     OW16252   5.550   0.987   6.934
 5118SOL    HW116253   5.541   1.077   6.892
 5118SOL    HW216254   5.549   0.996   0.009
 5119SOL     OW16255   4.824   1.164   2.270
 5119SOL    HW116256   4.740   1.203   2.308
 5119SOL    HW216257   4.800   1.091   2.206
 5120SOL     OW16258   4.450   6.406   5.114
 5120SOL    HW116259   4.525   6.401   5.047
 5120SOL    HW216260   4.432   6.501   5.137
 5121SOL     OW16261   3.355   3.147   6.512
 5121SOL    HW116262   3.389   3.233   6.551
 5121SOL    HW216263   3.420   3.113   6.444
 5122SOL     OW16264   3.250   6.201   2.911
 5122SOL    HW116265   3.329   6.253   2.877
 5122SOL    HW216266   3.281   6.116   2.953
 5123SOL     OW16267   5.750   2.129   4.599
 5123SOL    HW116268   5.830   2.139   4.658
 5123SOL    HW216269   5.700   2.215   4.596
 5124SOL     OW16270   2.311   6.024   4.246
 5124SOL    HW116271   2.263   6.106   4.278
 5124SOL    HW216272   2.316   6.026   4.146
 5125SOL     OW16273   6.407   2.250   3.214
 5125SOL    HW116274   6.503   2.222   3.221
 5125SOL    HW216275   6.357   2.184   3.159
 5126SOL     OW16276   0.353   5.764   0.194
 5126SOL    HW116277   0.283   5.770   0.265
 5126SOL    HW216278   0.340   5.679   0.142
 5127SOL     OW16279   0.298   4.461   6.921
 5127SOL    HW116280   0.256   4.539   6.874
 5127SOL    HW216281   0.252   4.445   7.008
 5128SOL     OW16282   0.246   6.520   0.566
 5128SOL    HW116283   0.268   6.549   0.659
 5128SOL    HW216284   0.324   6.471   0.527
 5129SOL     OW16285   5.651   6.821   2.939
 5129SOL    HW116286   5.595   6.783   2.866
 5129SOL    HW216287   5.597   6.827   3.023
 5130SOL     OW16288   0.073   5.699   2.862
 5130SOL    HW116289   0.051   5.603   2.875
 5130SOL    HW216290   0.098   5.740   2.950
 5131SOL     OW16291   1.791   3.910   4.477
 5131SOL    HW116292   1.805   4.008   4.463
 5131SOL    HW216293   1.717   3.896   4.543
 5132SOL     OW16294   4.163   2.670   5.920
 5132SOL    HW116295   4.128   2.600   5.858
 5132SOL    HW216296   4.100   2.682   5.997
 5133SOL     OW16297   2.009   4.797   6.978
 5133SOL    HW116298   1.972   4.763   0.040
 5133SOL    HW216299   1.937   4.798   6.909
 5134SOL     OW16300   6.806   2.660   2.128
 5134SOL    HW116301   6.802   2.561   2.119
 5134SOL    HW216302   6.872   2.697   2.063
 5135SOL     OW16303   6.510   2.696   5.248
 5135SOL    HW116304   6.512   2.676   5.150
 5135SOL    HW216305   6.428   2.749   5.269
 5136SOL     OW16306   4.622   0.591   6.302
 5136SOL    HW116307   4.612   0.655   6.226
 5136SOL    HW216308   4.582   0.503   6.276
 5137SOL     OW16309   5.605   3.391   6.637
 5137SOL    HW116310   5.649   3.316   6.588
 5137SOL    HW216311   5.506   3.383   6.627
 5138SOL     OW16312   2.996   2.187   5.823
 5138SOL    HW116313   2.898   2.171   5.833
 5138SOL    HW216314   3.017   2.281   5.851
 5139SOL     OW16315   1.721   6.622   3.213
 5139SOL    HW116316   1.684   6.536   3.248
 5139SOL    HW216317   1.650   6.669   3.160
 5140SOL     OW16318   3.459   1.750   7.012
 5140SOL    HW116319   3.463   1.697   0.073
 5140SOL    HW216320   3.442   1.846   0.010
 5141SOL     OW16321   6.374   4.039   0.895
 5141SOL    HW116322   6.400   4.130   0.864
 5141SOL    HW216323   6.404   3.971   0.829
 5142SOL     OW16324   6.037   1.004   4.101
 5142SOL    HW116325   5.964   1.008   4.033
 5142SOL    HW216326   6.034   1.086   4.158
 5143SOL     OW16327   0.394   4.447   3.686
 5143SOL    HW116328   0.337   4.498   3.622
 5143SOL    HW216329   0.369   4.351   3.685
 5144SOL     OW16330   1.295   4.983   6.263
 5144SOL    HW116331   1.312   4.896   6.216
 5144SOL    HW216332   1.380   5.017   6.303
 5145SOL     OW16333   2.288   4.429   5.760
 5145SOL    HW116334   2.241   4.384   5.683
 5145SOL    HW216335   2.382   4.396   5.765
 5146SOL     OW16336   3.808   4.191   5.534
 5146SOL    HW116337   3.786   4.287   5.516
 5146SOL    HW216338   3.907   4.180   5.539
 5147SOL     OW16339   0.067   4.678   2.567
 5147SOL    HW116340   7.021   4.745   2.591
 5147SOL    HW216341   0.058   4.654   2.470
 5148SOL     OW16342   0.855   6.361   1.379
 5148SOL    HW116343   0.848   6.442   1.437
 5148SOL    HW216344   0.793   6.290   1.414
 5149SOL     OW16345   6.288   6.137   4.305
 5149SOL    HW116346   6.342   6.069   4.255
 5149SOL    HW216347   6.190   6.116   4.296
 5150SOL     OW16348   2.286   5.067   2.660
 5150SOL    HW116349   2.347   4.990   2.676
 5150SOL    HW216350   2.199   5.052   2.708
 5151SOL     OW16351   4.818   1.764   0.311
 5151SOL    HW116352   4.830   1.852   0.358
 5151SOL    HW216353   4.748   1.774   0.240
 5152SOL     OW16354   2.381   4.283   0.105
 5152SOL    HW116355   2.437   4.313   0.029
 5152SOL    HW216356   2.285   4.308   0.089
 5153SOL     OW16357   2.538   0.463   6.640
 5153SOL    HW116358   2.498   0.532   6.701
 5153SOL    HW216359   2.467   0.425   6.581
 5154SOL     OW16360   1.925   2.995   6.668
 5154SOL    HW116361   1.942   3.089   6.638
 5154SOL    HW216362   2.006   2.939   6.651
 5155SOL     OW16363   3.562   0.007   2.694
 5155SOL    HW116364   3.618   6.992   2.621
 5155SOL    HW216365   3.473   6.985   2.696
 5156SOL     OW16366   7.011   3.094   6.016
 5156SOL    HW116367   0.039   3.091   5.932
 5156SOL    HW216368   6.972   3.185   6.029
 5157SOL     OW16369   4.144   2.275   3.730
 5157SOL    HW116370   4.048   2.250   3.715
 5157SOL    HW216371   4.203   2.206   3.688
 5158SOL     OW16372   3.762   1.422   1.297
 5158SOL    HW116373   3.806   1.343   1.340
 5158SOL    HW216374   3.742   1.491   1.366
 5159SOL     OW16375   0.267   3.036   4.084
 5159SOL    HW116376   0.333   3.070   4.017
 5159SOL    HW216377   0.310   2.964   4.140
 5160SOL     OW16378   0.502   4.188   3.370
 5160SOL    HW116379   0.576   4.220   3.429
 5160SOL    HW216380   0.514   4.227   3.278
 5161SOL     OW16381   1.445   3.607   4.469
 5161SOL    HW116382   1.512   3.601   4.544
 5161SOL    HW216383   1.353   3.593   4.506
 5162SOL     OW16384   1.142   4.676   4.197
 5162SOL    HW116385   1.232   4.659   4.156
 5162SOL    HW216386   1.075   4.614   4.156
 5163SOL     OW16387   4.006   5.526   1.027
 5163SOL    HW116388   4.018   5.594   1.099
 5163SOL    HW216389   3.969   5.442   1.066
 5164SOL     OW16390   4.608   2.380   6.504
 5164SOL    HW116391   4.673   2.445   6.465
 5164SOL    HW216392   4.540   2.355   6.436
 5165SOL     OW16393   6.232   4.039   5.519
 5165SOL    HW116394   6.156   4.014   5.460
 5165SOL    HW216395   6.251   4.137   5.509
 5166SOL     OW16396   0.606   5.934   2.231
 5166SOL    HW116397   0.670   5.884   2.289
 5166SOL    HW216398   0.515   5.896   2.240
 5167SOL     OW16399   6.337   6.054   5.391
 5167SOL    HW116400   6.387   6.138   5.411
 5167SOL    HW216401   6.314   6.008   5.477
 5168SOL     OW16402   5.439   3.202   3.488
 5168SOL    HW116403   5.374   3.196   3.564
 5168SOL    HW216404   5.445   3.114   3.441
 5169SOL     OW16405   4.123   1.845   5.045
 5169SOL    HW116406   4.078   1.914   5.102
 5169SOL    HW216407   4.054   1.792   4.996
 5170SOL     OW16408   0.248   3.818   5.507
 5170SOL    HW116409   0.284   3.771   5.588
 5170SOL    HW216410   0.245   3.916   5.524
 5171SOL     OW16411   2.042   5.289   3.962
 5171SOL    HW116412   2.006   5.352   4.030
 5171SOL    HW216413   2.134   5.260   3.988
 5172SOL     OW16414   6.671   2.568   2.394
 5172SOL    HW116415   6.692   2.594   2.300
 5172SOL    HW216416   6.643   2.473   2.398
 5173SOL     OW16417   5.765   4.707   5.972
 5173SOL    HW116418   5.702   4.783   5.956
 5173SOL    HW216419   5.741   4.662   6.059
 5174SOL     OW16420   2.536   5.023   3.948
 5174SOL    HW116421   2.457   4.972   3.915
 5174SOL    HW216422   2.596   5.045   3.872
 5175SOL     OW16423   2.484   4.015   0.053
 5175SOL    HW116424   2.474   3.931   0.106
 5175SOL    HW216425   2.463   4.094   0.111
 5176SOL     OW16426   4.327   3.087   6.787
 5176SOL    HW116427   4.304   3.178   6.821
 5176SOL    HW216428   4.424   3.083   6.764
 5177SOL     OW16429   5.196   0.136   6.387
 5177SOL    HW116430   5.115   0.098   6.431
 5177SOL    HW216431   5.264   0.159   6.458
 5178SOL     OW16432   1.609   2.799   1.299
 5178SOL    HW116433   1.543   2.848   1.242
 5178SOL    HW216434   1.702   2.826   1.274
 5179SOL     OW16435   3.906   5.794   4.764
 5179SOL    HW116436   3.845   5.715   4.748
 5179SOL    HW216437   3.851   5.877   4.768
 5180SOL     OW16438   2.787   2.940   6.644
 5180SOL    HW116439   2.819   2.971   6.554
 5180SOL    HW216440   2.791   3.016   6.709
 5181SOL     OW16441   4.828   1.941   1.859
 5181SOL    HW116442   4.896   1.948   1.932
 5181SOL    HW216443   4.737   1.958   1.897
 5182SOL     OW16444   4.144   4.883   1.411
 5182SOL    HW116445   4.065   4.825   1.429
 5182SOL    HW216446   4.204   4.884   1.491
 5183SOL     OW16447   3.858   0.950   2.703
 5183SOL    HW116448   3.791   0.942   2.629
 5183SOL    HW216449   3.948   0.973   2.664
 5184SOL     OW16450   0.500   2.334   4.005
 5184SOL    HW116451   0.547   2.329   4.094
 5184SOL    HW216452   0.510   2.427   3.968
 5185SOL     OW16453   5.293   0.308   2.418
 5185SOL    HW116454   5.305   0.403   2.446
 5185SOL    HW216455   5.382   0.262   2.419
 5186SOL     OW16456   5.575   3.756   1.078
 5186SOL    HW116457   5.630   3.678   1.110
 5186SOL    HW216458   5.521   3.791   1.155
 5187SOL     OW16459   7.005   0.729   3.825
 5187SOL    HW116460   6.924   0.746   3.769
 5187SOL    HW216461   6.979   0.727   3.921
 5188SOL     OW16462   0.895   5.270   0.484
 5188SOL    HW116463   0.850   5.332   0.548
 5188SOL    HW216464   0.944   5.200   0.535
 5189SOL     OW16465   5.254   4.985   1.189
 5189SOL    HW116466   5.213   5.068   1.152
 5189SOL    HW216467   5.199   4.952   1.266
 5190SOL     OW16468   0.415   2.723   4.198
 5190SOL    HW116469   0.484   2.681   4.257
 5190SOL    HW216470   0.449   2.729   4.105
 5191SOL     OW16471   4.227   0.435   2.086
 5191SOL    HW116472   4.135   0.446   2.051
 5191SOL    HW216473   4.245   0.503   2.158
 5192SOL     OW16474   3.052   5.917   3.177
 5192SOL    HW116475   2.966   5.896   3.223
 5192SOL    HW216476   3.051   5.878   3.085
 5193SOL     OW16477   4.935   5.129   3.838
 5193SOL    HW116478   4.921   5.134   3.740
 5193SOL    HW216479   4.996   5.052   3.859
 5194SOL     OW16480   4.241   0.833   6.817
 5194SOL    HW116481   4.247   0.852   6.915
 5194SOL    HW216482   4.278   0.911   6.765
 5195SOL     OW16483   6.984   5.772   4.055
 5195SOL    HW116484   0.038   5.728   4.097
 5195SOL    HW216485   7.013   5.854   4.006
 5196SOL     OW16486   1.528   3.565   1.147
 5196SOL    HW116487   1.556   3.588   1.240
 5196SOL    HW216488   1.608   3.542   1.092
 5197SOL     OW16489   1.541   5.635   5.027
 5197SOL    HW116490   1.451   5.620   5.067
 5197SOL    HW216491   1.557   5.568   4.955
 5198SOL     OW16492   4.121   6.997   3.844
 5198SOL    HW116493   4.065   6.940   3.904
 5198SOL    HW216494   4.174   6.939   3.783
 5199SOL     OW16495   1.101   6.109   0.362
 5199SOL    HW116496   1.193   6.128   0.395
 5199SOL    HW216497   1.038   6.103   0.440
 5200SOL     OW16498   1.013   1.844   5.123
 5200SOL    HW116499   1.044   1.939   5.120
 5200SOL    HW216500   0.914   1.843   5.137
 5201SOL     OW16501   5.563   6.244   4.357
 5201SOL    HW116502   5.507   6.256   4.275
 5201SOL    HW216503   5.619   6.161   4.346
 5202SOL     OW16504   6.226   3.879   5.953
 5202SOL    HW116505   6.135   3.922   5.950
 5202SOL    HW216506   6.225   3.804   6.018
 5203SOL     OW16507   2.676   0.802   6.840
 5203SOL    HW116508   2.662   0.704   6.856
 5203SOL    HW216509   2.598   0.853   6.878
 5204SOL     OW16510   3.810   6.284   0.369
 5204SOL    HW116511   3.756   6.209   0.331
 5204SOL    HW216512   3.829   6.266   0.466
 5205SOL     OW16513   6.954   5.837   6.996
 5205SOL    HW116514   6.876   5.849   6.934
 5205SOL    HW216515   6.974   5.740   7.007
 5206SOL     OW16516   0.728   4.906   5.981
 5206SOL    HW116517   0.806   4.969   5.984
 5206SOL    HW216518   0.708   4.873   6.073
 5207SOL     OW16519   0.692   0.748   3.383
 5207SOL    HW116520   0.719   0.685   3.455
 5207SOL    HW216521   0.738   0.723   3.298
 5208SOL     OW16522   4.153   2.689   6.866
 5208SOL    HW116523   4.202   2.607   6.835
 5208SOL    HW216524   4.140   2.750   6.789
 5209SOL     OW16525   5.419   1.073   1.546
 5209SOL    HW116526   5.464   0.994   1.587
 5209SOL    HW216527   5.332   1.045   1.506
 5210SOL     OW16528   4.966   3.999   0.740
 5210SOL    HW116529   4.892   3.940   0.709
 5210SOL    HW216530   5.050   3.946   0.750
 5211SOL     OW16531   5.013   1.733   5.085
 5211SOL    HW116532   4.978   1.698   4.998
 5211SOL    HW216533   4.938   1.776   5.136
 5212SOL     OW16534   1.613   2.393   1.251
 5212SOL    HW116535   1.617   2.458   1.326
 5212SOL    HW216536   1.519   2.381   1.221
 5213SOL     OW16537   4.419   3.565   1.033
 5213SOL    HW116538   4.503   3.511   1.024
 5213SOL    HW216539   4.344   3.506   1.062
 5214SOL     OW16540   5.572   2.786   5.761
 5214SOL    HW116541   5.545   2.791   5.664
 5214SOL    HW216542   5.560   2.875   5.804
 5215SOL     OW16543   0.275   4.405   4.543
 5215SOL    HW116544   0.276   4.324   4.602
 5215SOL    HW216545   0.197   4.399   4.480
 5216SOL     OW16546   5.012   5.614   1.064
 5216SOL    HW116547   4.930   5.665   1.038
 5216SOL    HW216548   5.053   5.655   1.145
 5217SOL     OW16549   3.678   5.585   4.773
 5217SOL    HW116550   3.582   5.562   4.758
 5217SOL    HW216551   3.724   5.508   4.817
 5218SOL     OW16552   0.664   1.378   1.375
 5218SOL    HW116553   0.603   1.393   1.297
 5218SOL    HW216554   0.759   1.388   1.345
 5219SOL     OW16555   3.484   1.783   4.240
 5219SOL    HW116556   3.490   1.810   4.336
 5219SOL    HW216557   3.466   1.685   4.234
 5220SOL     OW16558   1.525   4.735   2.432
 5220SOL    HW116559   1.527   4.676   2.514
 5220SOL    HW216560   1.618   4.748   2.399
 5221SOL     OW16561   6.575   0.277   2.572
 5221SOL    HW116562   6.545   0.310   2.483
 5221SOL    HW216563   6.669   0.307   2.588
 5222SOL     OW16564   3.880   6.202   2.142
 5222SOL    HW116565   3.782   6.219   2.145
 5222SOL    HW216566   3.908   6.184   2.048
 5223SOL     OW16567   0.209   2.768   0.177
 5223SOL    HW116568   0.193   2.856   0.222
 5223SOL    HW216569   0.259   2.708   0.240
 5224SOL     OW16570   0.148   2.494   4.024
 5224SOL    HW116571   0.176   2.533   4.112
 5224SOL    HW216572   0.062   2.445   4.036
 5225SOL     OW16573   6.590   0.632   3.413
 5225SOL    HW116574   6.509   0.574   3.420
 5225SOL    HW216575   6.671   0.580   3.440
 5226SOL     OW16576   0.411   6.422   3.912
 5226SOL    HW116577   0.488   6.384   3.962
 5226SOL    HW216578   0.412   6.522   3.920
 5227SOL     OW16579   6.883   4.406   5.889
 5227SOL    HW116580   6.970   4.455   5.885
 5227SOL    HW216581   6.867   4.359   5.802
 5228SOL     OW16582   0.706   2.633   6.961
 5228SOL    HW116583   0.671   2.539   6.959
 5228SOL    HW216584   0.804   2.633   6.946
 5229SOL     OW16585   3.028   6.230   0.222
 5229SOL    HW116586   2.991   6.272   0.305
 5229SOL    HW216587   3.103   6.169   0.245
 5230SOL     OW16588   6.786   5.976   2.546
 5230SOL    HW116589   6.765   6.045   2.615
 5230SOL    HW216590   6.789   5.886   2.588
 5231SOL     OW16591   4.509   2.450   3.242
 5231SOL    HW116592   4.470   2.460   3.334
 5231SOL    HW216593   4.546   2.357   3.232
 5232SOL     OW16594   0.931   3.999   6.089
 5232SOL    HW116595   0.978   3.914   6.112
 5232SOL    HW216596   0.875   3.986   6.008
 5233SOL     OW16597   3.435   0.908   2.315
 5233SOL    HW116598   3.379   0.954   2.383
 5233SOL    HW216599   3.401   0.815   2.301
 5234SOL     OW16600   2.658   2.689   6.668
 5234SOL    HW116601   2.673   2.668   6.571
 5234SOL    HW216602   2.704   2.774   6.691
 5235SOL     OW16603   2.122   2.618   1.316
 5235SOL    HW116604   2.088   2.557   1.245
 5235SOL    HW216605   2.127   2.712   1.280
 5236SOL     OW16606   3.503   5.615   1.976
 5236SOL    HW116607   3.531   5.711   1.987
 5236SOL    HW216608   3.583   5.556   1.985
 5237SOL     OW16609   1.553   1.224   4.656
 5237SOL    HW116610   1.599   1.308   4.683
 5237SOL    HW216611   1.520   1.176   4.738
 5238SOL     OW16612   0.593   6.016   0.767
 5238SOL    HW116613   0.660   6.086   0.742
 5238SOL    HW216614   0.641   5.929   0.785
 5239SOL     OW16615   3.435   3.070   0.225
 5239SOL    HW116616   3.459   3.167   0.221
 5239SOL    HW216617   3.492   3.024   0.293
 5240SOL     OW16618   2.915   2.125   5.021
 5240SOL    HW116619   2.849   2.187   5.062
 5240SOL    HW216620   3.004   2.171   5.015
 5241SOL     OW16621   0.831   5.910   3.654
 5241SOL    HW116622   0.803   6.005   3.669
 5241SOL    HW216623   0.822   5.888   3.557
 5242SOL     OW16624   5.242   7.020   2.091
 5242SOL    HW116625   5.232   0.008   1.992
 5242SOL    HW216626   5.238   0.084   2.137
 5243SOL     OW16627   2.289   6.074   1.399
 5243SOL    HW116628   2.195   6.063   1.365
 5243SOL    HW216629   2.337   5.987   1.393
 5244SOL     OW16630   3.990   3.968   0.013
 5244SOL    HW116631   4.071   4.027   0.018
 5244SOL    HW216632   3.920   4.011   6.980
 5245SOL     OW16633   3.525   4.583   0.466
 5245SOL    HW116634   3.453   4.569   0.534
 5245SOL    HW216635   3.485   4.621   0.383
 5246SOL     OW16636   6.533   2.759   2.137
 5246SOL    HW116637   6.624   2.734   2.102
 5246SOL    HW216638   6.484   2.676   2.164
 5247SOL     OW16639   3.087   0.140   6.382
 5247SOL    HW116640   3.170   0.098   6.420
 5247SOL    HW216641   3.008   0.110   6.435
 5248SOL     OW16642   6.914   2.446   3.207
 5248SOL    HW116643   6.948   2.362   3.166
 5248SOL    HW216644   6.969   2.523   3.177
 5249SOL     OW16645   1.320   5.596   6.539
 5249SOL    HW116646   1.387   5.552   6.598
 5249SOL    HW216647   1.253   5.644   6.595
 5250SOL     OW16648   0.702   5.763   0.808
 5250SOL    HW116649   0.771   5.710   0.759
 5250SOL    HW216650   0.639   5.700   0.854
 5251SOL     OW16651   0.890   3.370   0.766
 5251SOL    HW116652   0.970   3.424   0.793
 5251SOL    HW216653   0.906   3.274   0.789
 5252SOL     OW16654   2.788   6.743   1.297
 5252SOL    HW116655   2.868   6.737   1.237
 5252SOL    HW216656   2.705   6.730   1.243
 5253SOL     OW16657   6.894   3.831   4.449
 5253SOL    HW116658   6.799   3.808   4.471
 5253SOL    HW216659   6.900   3.928   4.427
 5254SOL     OW16660   5.549   0.930   3.714
 5254SOL    HW116661   5.532   0.937   3.616
 5254SOL    HW216662   5.571   0.836   3.738
 5255SOL     OW16663   5.093   2.232   4.909
 5255SOL    HW116664   5.017   2.263   4.851
 5255SOL    HW216665   5.066   2.149   4.957
 5256SOL     OW16666   5.122   2.122   4.068
 5256SOL    HW116667   5.213   2.097   4.101
 5256SOL    HW216668   5.116   2.102   3.970
 5257SOL     OW16669   4.677   6.975   1.582
 5257SOL    HW116670   4.770   7.010   1.582
 5257SOL    HW216671   4.658   6.929   1.496
 5258SOL     OW16672   5.785   2.758   1.926
 5258SOL    HW116673   5.778   2.826   2.000
 5258SOL    HW216674   5.776   2.804   1.838
 5259SOL     OW16675   4.704   5.816   3.103
 5259SOL    HW116676   4.712   5.858   3.013
 5259SOL    HW216677   4.774   5.854   3.164
 5260SOL     OW16678   4.406   4.339   0.767
 5260SOL    HW116679   4.325   4.280   0.777
 5260SOL    HW216680   4.405   4.382   0.677
 5261SOL     OW16681   6.424   3.949   6.310
 5261SOL    HW116682   6.383   4.020   6.366
 5261SOL    HW216683   6.430   3.864   6.363
 5262SOL     OW16684   2.735   1.466   3.459
 5262SOL    HW116685   2.774   1.376   3.477
 5262SOL    HW216686   2.772   1.532   3.524
 5263SOL     OW16687   1.864   1.430   3.424
 5263SOL    HW116688   1.962   1.420   3.441
 5263SOL    HW216689   1.836   1.369   3.350
 5264SOL     OW16690   6.484   2.402   1.869
 5264SOL    HW116691   6.387   2.392   1.845
 5264SOL    HW216692   6.519   2.488   1.832
 5265SOL     OW16693   6.148   3.161   4.306
 5265SOL    HW116694   6.144   3.235   4.373
 5265SOL    HW216695   6.208   3.088   4.340
 5266SOL     OW16696   2.836   5.724   6.533
 5266SOL    HW116697   2.849   5.634   6.575
 5266SOL    HW216698   2.888   5.793   6.584
 5267SOL     OW16699   4.796   2.447   4.539
 5267SOL    HW116700   4.763   2.540   4.550
 5267SOL    HW216701   4.867   2.444   4.468
 5268SOL     OW16702   5.374   0.823   0.490
 5268SOL    HW116703   5.280   0.855   0.500
 5268SOL    HW216704   5.437   0.897   0.517
 5269SOL     OW16705   0.804   6.433   2.368
 5269SOL    HW116706   0.901   6.418   2.385
 5269SOL    HW216707   0.755   6.345   2.370
 5270SOL     OW16708   5.615   1.498   2.067
 5270SOL    HW116709   5.658   1.585   2.042
 5270SOL    HW216710   5.584   1.502   2.162
 5271SOL     OW16711   6.011   4.499   5.038
 5271SOL    HW116712   5.969   4.589   5.040
 5271SOL    HW216713   6.045   4.477   5.130
 5272SOL     OW16714   3.151   6.051   1.447
 5272SOL    HW116715   3.222   6.002   1.397
 5272SOL    HW216716   3.171   6.047   1.545
 5273SOL     OW16717   0.366   3.414   3.492
 5273SOL    HW116718   0.450   3.465   3.472
 5273SOL    HW216719   0.381   3.316   3.473
 5274SOL     OW16720   5.702   0.142   2.663
 5274SOL    HW116721   5.683   0.044   2.656
 5274SOL    HW216722   5.734   0.163   2.755
 5275SOL     OW16723   3.809   1.704   0.248
 5275SOL    HW116724   3.758   1.774   0.299
 5275SOL    HW216725   3.875   1.660   0.309
 5276SOL     OW16726   2.076   0.299   0.876
 5276SOL    HW116727   2.131   0.215   0.868
 5276SOL    HW216728   2.013   0.289   0.953
 5277SOL     OW16729   2.600   1.647   2.673
 5277SOL    HW116730   2.679   1.590   2.651
 5277SOL    HW216731   2.557   1.678   2.588
 5278SOL     OW16732   5.174   5.883   3.828
 5278SOL    HW116733   5.156   5.915   3.921
 5278SOL    HW216734   5.243   5.941   3.786
 5279SOL     OW16735   2.381   5.013   0.431
 5279SOL    HW116736   2.387   5.109   0.405
 5279SOL    HW216737   2.439   4.958   0.370
 5280SOL     OW16738   2.878   6.083   5.499
 5280SOL    HW116739   2.973   6.052   5.499
 5280SOL    HW216740   2.849   6.101   5.405
 5281SOL     OW16741   6.319   2.058   2.012
 5281SOL    HW116742   6.253   2.113   1.960
 5281SOL    HW216743   6.411   2.097   2.001
 5282SOL     OW16744   3.906   1.645   3.287
 5282SOL    HW116745   3.993   1.598   3.302
 5282SOL    HW216746   3.897   1.720   3.352
 5283SOL     OW16747   4.510   6.280   2.052
 5283SOL    HW116748   4.606   6.304   2.037
 5283SOL    HW216749   4.457   6.362   2.072
 5284SOL     OW16750   4.726   4.279   3.272
 5284SOL    HW116751   4.714   4.183   3.247
 5284SOL    HW216752   4.686   4.337   3.200
 5285SOL     OW16753   2.677   4.815   4.457
 5285SOL    HW116754   2.645   4.781   4.546
 5285SOL    HW216755   2.620   4.777   4.385
 5286SOL     OW16756   2.259   4.826   0.966
 5286SOL    HW116757   2.307   4.904   1.005
 5286SOL    HW216758   2.320   4.779   0.902
 5287SOL     OW16759   3.525   0.698   0.175
 5287SOL    HW116760   3.490   0.788   0.149
 5287SOL    HW216761   3.511   0.634   0.099
 5288SOL     OW16762   3.002   0.725   1.431
 5288SOL    HW116763   2.999   0.823   1.414
 5288SOL    HW216764   2.921   0.682   1.392
 5289SOL     OW16765   1.933   4.861   6.448
 5289SOL    HW116766   1.892   4.929   6.386
 5289SOL    HW216767   2.031   4.854   6.429
 5290SOL     OW16768   2.388   5.412   5.842
 5290SOL    HW116769   2.329   5.491   5.858
 5290SOL    HW216770   2.383   5.350   5.920
 5291SOL     OW16771   2.444   5.920   5.438
 5291SOL    HW116772   2.346   5.922   5.417
 5291SOL    HW216773   2.457   5.940   5.535
 5292SOL     OW16774   5.610   2.582   0.190
 5292SOL    HW116775   5.522   2.604   0.149
 5292SOL    HW216776   5.638   2.655   0.251
 5293SOL     OW16777   0.871   1.167   5.047
 5293SOL    HW116778   0.879   1.238   4.978
 5293SOL    HW216779   0.946   1.101   5.036
 5294SOL     OW16780   5.201   3.545   6.212
 5294SOL    HW116781   5.178   3.448   6.208
 5294SOL    HW216782   5.222   3.578   6.120
 5295SOL     OW16783   6.089   1.219   2.693
 5295SOL    HW116784   6.025   1.180   2.627
 5295SOL    HW216785   6.160   1.153   2.715
 5296SOL     OW16786   1.847   5.563   0.210
 5296SOL    HW116787   1.838   5.663   0.206
 5296SOL    HW216788   1.834   5.526   0.118
 5297SOL     OW16789   1.389   2.324   1.579
 5297SOL    HW116790   1.422   2.408   1.623
 5297SOL    HW216791   1.382   2.339   1.480
 5298SOL     OW16792   6.397   5.793   2.511
 5298SOL    HW116793   6.467   5.789   2.440
 5298SOL    HW216794   6.377   5.700   2.543
 5299SOL     OW16795   3.127   1.616   1.082
 5299SOL    HW116796   3.096   1.547   1.148
 5299SOL    HW216797   3.090   1.596   0.992
 5300SOL     OW16798   0.223   5.473   3.039
 5300SOL    HW116799   0.200   5.379   3.016
 5300SOL    HW216800   0.246   5.479   3.136
 5301SOL     OW16801   4.294   1.300   6.877
 5301SOL    HW116802   4.216   1.297   6.939
 5301SOL    HW216803   4.376   1.328   6.927
 5302SOL     OW16804   6.280   4.342   2.599
 5302SOL    HW116805   6.321   4.393   2.675
 5302SOL    HW216806   6.299   4.245   2.610
 5303SOL     OW16807   6.870   6.464   4.165
 5303SOL    HW116808   6.961   6.450   4.125
 5303SOL    HW216809   6.807   6.394   4.129
 5304SOL     OW16810   5.888   1.784   6.235
 5304SOL    HW116811   5.987   1.780   6.247
 5304SOL    HW216812   5.861   1.876   6.209
 5305SOL     OW16813   1.161   0.570   4.233
 5305SOL    HW116814   1.064   0.579   4.211
 5305SOL    HW216815   1.173   0.572   4.332
 5306SOL     OW16816   2.237   6.828   5.392
 5306SOL    HW116817   2.253   6.915   5.345
 5306SOL    HW216818   2.165   6.778   5.345
 5307SOL     OW16819   4.408   5.961   6.423
 5307SOL    HW116820   4.387   6.023   6.498
 5307SOL    HW216821   4.506   5.958   6.407
 5308SOL     OW16822   0.162   1.046   4.034
 5308SOL    HW116823   0.221   0.968   4.013
 5308SOL    HW216824   0.100   1.022   4.109
 5309SOL     OW16825   4.134   3.577   3.002
 5309SOL    HW116826   4.089   3.654   2.956
 5309SOL    HW216827   4.128   3.496   2.944
 5310SOL     OW16828   4.908   2.961   1.518
 5310SOL    HW116829   4.852   3.030   1.563
 5310SOL    HW216830   4.961   3.003   1.444
 5311SOL     OW16831   0.869   5.763   6.855
 5311SOL    HW116832   0.797   5.748   6.787
 5311SOL    HW216833   0.912   5.676   6.878
 5312SOL     OW16834   0.726   4.451   2.107
 5312SOL    HW116835   0.718   4.464   2.206
 5312SOL    HW216836   0.640   4.475   2.063
 5313SOL     OW16837   0.617   5.274   7.012
 5313SOL    HW116838   0.633   5.194   6.954
 5313SOL    HW216839   0.624   5.247   0.084
 5314SOL     OW16840   4.649   5.133   0.275
 5314SOL    HW116841   4.738   5.088   0.266
 5314SOL    HW216842   4.588   5.076   0.330
 5315SOL     OW16843   4.611   4.433   2.222
 5315SOL    HW116844   4.560   4.519   2.218
 5315SOL    HW216845   4.573   4.369   2.156
 5316SOL     OW16846   0.781   4.993   4.970
 5316SOL    HW116847   0.841   5.064   4.932
 5316SOL    HW216848   0.776   5.004   5.069
 5317SOL     OW16849   5.342   1.805   4.182
 5317SOL    HW116850   5.438   1.777   4.173
 5317SOL    HW216851   5.305   1.772   4.269
 5318SOL     OW16852   6.928   2.186   4.367
 5318SOL    HW116853   6.963   2.103   4.408
 5318SOL    HW216854   6.841   2.167   4.321
 5319SOL     OW16855   5.669   6.740   6.381
 5319SOL    HW116856   5.619   6.733   6.295
 5319SOL    HW216857   5.714   6.830   6.387
 5320SOL     OW16858   6.270   4.958   0.059
 5320SOL    HW116859   6.261   4.859   0.051
 5320SOL    HW216860   6.187   4.995   0.101
 5321SOL     OW16861   1.350   5.208   3.454
 5321SOL    HW116862   1.351   5.275   3.528
 5321SOL    HW216863   1.364   5.255   3.366
 5322SOL     OW16864   3.896   6.441   6.615
 5322SOL    HW116865   3.888   6.358   6.559
 5322SOL    HW216866   3.879   6.418   6.711
 5323SOL     OW16867   4.641   2.858   1.256
 5323SOL    HW116868   4.619   2.893   1.347
 5323SOL    HW216869   4.739   2.836   1.251
 5324SOL     OW16870   3.644   2.131   1.689
 5324SOL    HW116871   3.697   2.152   1.607
 5324SOL    HW216872   3.646   2.209   1.751
 5325SOL     OW16873   5.259   0.312   2.772
 5325SOL    HW116874   5.191   0.291   2.702
 5325SOL    HW216875   5.295   0.404   2.757
 5326SOL     OW16876   6.546   5.295   1.910
 5326SOL    HW116877   6.646   5.287   1.905
 5326SOL    HW216878   6.506   5.264   1.824
 5327SOL     OW16879   0.469   6.556   5.172
 5327SOL    HW116880   0.545   6.613   5.140
 5327SOL    HW216881   0.388   6.573   5.116
 5328SOL     OW16882   3.332   2.486   5.551
 5328SOL    HW116883   3.392   2.522   5.623
 5328SOL    HW216884   3.311   2.390   5.570
 5329SOL     OW16885   6.837   4.348   0.836
 5329SOL    HW116886   6.806   4.257   0.862
 5329SOL    HW216887   6.911   4.340   0.769
 5330SOL     OW16888   3.923   3.773   6.877
 5330SOL    HW116889   3.994   3.823   6.927
 5330SOL    HW216890   3.862   3.839   6.832
 5331SOL     OW16891   4.575   2.481   0.616
 5331SOL    HW116892   4.517   2.510   0.539
 5331SOL    HW216893   4.657   2.436   0.581
 5332SOL     OW16894   6.149   4.927   0.360
 5332SOL    HW116895   6.148   4.836   0.319
 5332SOL    HW216896   6.136   4.919   0.459
 5333SOL     OW16897   1.915   0.787   3.652
 5333SOL    HW116898   1.952   0.747   3.568
 5333SOL    HW216899   1.966   0.870   3.674
 5334SOL     OW16900   4.989   4.562   4.245
 5334SOL    HW116901   4.956   4.655   4.262
 5334SOL    HW216902   4.939   4.523   4.168
 5335SOL     OW16903   6.522   4.060   2.472
 5335SOL    HW116904   6.487   4.111   2.551
 5335SOL    HW216905   6.600   4.108   2.434
 5336SOL     OW16906   2.141   1.836   3.858
 5336SOL    HW116907   2.153   1.900   3.782
 5336SOL    HW216908   2.164   1.744   3.828
 5337SOL     OW16909   6.094   4.787   1.334
 5337SOL    HW116910   6.137   4.799   1.423
 5337SOL    HW216911   5.994   4.782   1.345
 5338SOL     OW16912   5.284   2.875   0.228
 5338SOL    HW116913   5.228   2.901   0.149
 5338SOL    HW216914   5.377   2.908   0.215
 5339SOL     OW16915   5.705   1.701   1.911
 5339SOL    HW116916   5.754   1.778   1.950
 5339SOL    HW216917   5.618   1.733   1.872
 5340SOL     OW16918   5.417   3.409   1.860
 5340SOL    HW116919   5.479   3.487   1.855
 5340SOL    HW216920   5.397   3.376   1.767
 5341SOL     OW16921   4.186   4.678   3.842
 5341SOL    HW116922   4.226   4.587   3.850
 5341SOL    HW216923   4.180   4.720   3.932
 5342SOL     OW16924   5.115   6.538   5.618
 5342SOL    HW116925   5.200   6.491   5.643
 5342SOL    HW216926   5.137   6.623   5.571
 5343SOL     OW16927   3.658   3.375   4.671
 5343SOL    HW116928   3.734   3.416   4.620
 5343SOL    HW216929   3.584   3.441   4.681
 5344SOL     OW16930   0.489   1.815   0.186
 5344SOL    HW116931   0.410   1.852   0.235
 5344SOL    HW216932   0.459   1.740   0.127
 5345SOL     OW16933   4.841   1.055   0.093
 5345SOL    HW116934   4.793   1.104   0.167
 5345SOL    HW216935   4.821   1.100   0.006
 5346SOL     OW16936   2.482   5.086   4.237
 5346SOL    HW116937   2.501   5.082   4.139
 5346SOL    HW216938   2.568   5.080   4.288
 5347SOL     OW16939   6.957   2.514   3.501
 5347SOL    HW116940   6.864   2.518   3.535
 5347SOL    HW216941   6.958   2.471   3.411
 5348SOL     OW16942   6.759   1.542   4.849
 5348SOL    HW116943   6.665   1.519   4.873
 5348SOL    HW216944   6.808   1.459   4.822
 5349SOL     OW16945   1.017   2.961   1.855
 5349SOL    HW116946   1.070   3.042   1.831
 5349SOL    HW216947   1.011   2.900   1.776
 5350SOL     OW16948   1.537   0.023   5.673
 5350SOL    HW116949   1.542   0.077   5.589
 5350SOL    HW216950   1.624   0.029   5.722
 5351SOL     OW16951   0.375   5.296   1.844
 5351SOL    HW116952   0.293   5.244   1.818
 5351SOL    HW216953   0.354   5.393   1.845
 5352SOL     OW16954   2.025   4.551   3.061
 5352SOL    HW116955   2.112   4.519   3.023
 5352SOL    HW216956   1.955   4.549   2.989
 5353SOL     OW16957   3.500   5.524   3.821
 5353SOL    HW116958   3.408   5.562   3.825
 5353SOL    HW216959   3.496   5.425   3.840
 5354SOL     OW16960   3.503   4.255   0.333
 5354SOL    HW116961   3.433   4.183   0.338
 5354SOL    HW216962   3.486   4.311   0.252
 5355SOL     OW16963   4.709   5.015   4.925
 5355SOL    HW116964   4.680   4.994   5.019
 5355SOL    HW216965   4.628   5.026   4.867
 5356SOL     OW16966   6.461   3.540   1.914
 5356SOL    HW116967   6.385   3.486   1.950
 5356SOL    HW216968   6.516   3.575   1.989
 5357SOL     OW16969   4.099   4.739   1.798
 5357SOL    HW116970   4.143   4.746   1.888
 5357SOL    HW216971   4.142   4.666   1.746
 5358SOL     OW16972   4.359   1.887   0.072
 5358SOL    HW116973   4.380   1.974   0.028
 5358SOL    HW216974   4.311   1.904   0.158
 5359SOL     OW16975   1.915   2.286   0.410
 5359SOL    HW116976   1.892   2.200   0.456
 5359SOL    HW216977   1.894   2.278   0.313
 5360SOL     OW16978   5.641   5.776   3.607
 5360SOL    HW116979   5.631   5.683   3.574
 5360SOL    HW216980   5.680   5.833   3.535
 5361SOL     OW16981   3.152   6.501   2.931
 5361SOL    HW116982   3.143   6.402   2.941
 5361SOL    HW216983   3.237   6.522   2.882
 5362SOL     OW16984   5.684   6.887   2.632
 5362SOL    HW116985   5.599   6.835   2.645
 5362SOL    HW216986   5.715   6.876   2.537
 5363SOL     OW16987   5.309   6.613   5.000
 5363SOL    HW116988   5.308   6.645   4.906
 5363SOL    HW216989   5.381   6.545   5.012
 5364SOL     OW16990   5.137   0.805   2.308
 5364SOL    HW116991   5.205   0.765   2.247
 5364SOL    HW216992   5.182   0.867   2.373
 5365SOL     OW16993   2.986   3.578   2.970
 5365SOL    HW116994   3.064   3.557   3.029
 5365SOL    HW216995   2.951   3.493   2.930
 5366SOL     OW16996   6.488   0.437   1.762
 5366SOL    HW116997   6.475   0.408   1.857
 5366SOL    HW216998   6.586   0.437   1.741
 5367SOL     OW16999   6.012   0.195   0.810
 5367SOL    HW117000   6.081   0.133   0.847
 5367SOL    HW217001   6.049   0.242   0.729
 5368SOL     OW17002   6.627   5.833   2.346
 5368SOL    HW117003   6.672   5.918   2.374
 5368SOL    HW217004   6.664   5.802   2.259
 5369SOL     OW17005   2.700   5.568   1.600
 5369SOL    HW117006   2.615   5.544   1.554
 5369SOL    HW217007   2.687   5.568   1.699
 5370SOL     OW17008   4.232   3.475   1.827
 5370SOL    HW117009   4.215   3.574   1.828
 5370SOL    HW217010   4.146   3.426   1.816
 5371SOL     OW17011   0.118   5.148   5.250
 5371SOL    HW117012   0.144   5.123   5.343
 5371SOL    HW217013   0.183   5.108   5.185
 5372SOL     OW17014   1.432   0.307   2.679
 5372SOL    HW117015   1.355   0.249   2.653
 5372SOL    HW217016   1.402   0.372   2.749
 5373SOL     OW17017   4.064   6.465   6.332
 5373SOL    HW117018   4.062   6.483   6.430
 5373SOL    HW217019   4.159   6.458   6.301
 5374SOL     OW17020   2.704   4.665   1.018
 5374SOL    HW117021   2.659   4.729   1.080
 5374SOL    HW217022   2.709   4.705   0.926
 5375SOL     OW17023   1.052   6.320   5.454
 5375SOL    HW117024   1.119   6.307   5.527
 5375SOL    HW217025   0.960   6.324   5.494
 5376SOL     OW17026   0.977   2.093   1.928
 5376SOL    HW117027   1.037   2.166   1.962
 5376SOL    HW217028   1.000   2.073   1.833
 5377SOL     OW17029   2.292   1.017   3.079
 5377SOL    HW117030   2.295   0.953   3.156
 5377SOL    HW217031   2.295   1.111   3.114
 5378SOL     OW17032   6.175   0.512   0.905
 5378SOL    HW117033   6.089   0.497   0.857
 5378SOL    HW217034   6.242   0.444   0.876
 5379SOL     OW17035   1.272   2.753   6.072
 5379SOL    HW117036   1.302   2.659   6.085
 5379SOL    HW217037   1.350   2.815   6.087
 5380SOL     OW17038   3.431   6.900   1.374
 5380SOL    HW117039   3.501   6.829   1.384
 5380SOL    HW217040   3.423   6.952   1.459
 5381SOL     OW17041   5.896   6.273   2.311
 5381SOL    HW117042   5.995   6.265   2.297
 5381SOL    HW217043   5.873   6.247   2.404
 5382SOL     OW17044   3.974   2.205   2.621
 5382SOL    HW117045   3.988   2.169   2.529
 5382SOL    HW217046   4.060   2.240   2.657
 5383SOL     OW17047   1.104   2.746   4.900
 5383SOL    HW117048   1.189   2.751   4.847
 5383SOL    HW217049   1.088   2.652   4.929
 5384SOL     OW17050   4.641   5.332   5.313
 5384SOL    HW117051   4.691   5.402   5.263
 5384SOL    HW217052   4.562   5.302   5.259
 5385SOL     OW17053   6.263   2.627   6.115
 5385SOL    HW117054   6.304   2.538   6.137
 5385SOL    HW217055   6.185   2.613   6.053
 5386SOL     OW17056   5.684   2.867   4.205
 5386SOL    HW117057   5.740   2.785   4.214
 5386SOL    HW217058   5.720   2.940   4.264
 5387SOL     OW17059   2.602   0.107   2.839
 5387SOL    HW117060   2.603   0.183   2.774
 5387SOL    HW217061   2.690   0.103   2.887
 5388SOL     OW17062   0.925   6.361   2.840
 5388SOL    HW117063   1.015   6.326   2.815
 5388SOL    HW217064   0.854   6.305   2.797
 5389SOL     OW17065   4.392   2.370   4.179
 5389SOL    HW117066   4.313   2.348   4.235
 5389SOL    HW217067   4.362   2.402   4.089
 5390SOL     OW17068   5.835   3.600   4.262
 5390SOL    HW117069   5.834   3.571   4.358
 5390SOL    HW217070   5.742   3.622   4.233
 5391SOL     OW17071   2.528   2.601   0.336
 5391SOL    HW117072   2.432   2.622   0.316
 5391SOL    HW217073   2.578   2.686   0.350
 5392SOL     OW17074   4.677   2.804   2.881
 5392SOL    HW117075   4.655   2.839   2.972
 5392SOL    HW217076   4.656   2.706   2.877
 5393SOL     OW17077   4.326   6.916   4.958
 5393SOL    HW117078   4.423   6.933   4.975
 5393SOL    HW217079   4.311   6.910   4.859
 5394SOL     OW17080   1.106   6.248   1.417
 5394SOL    HW117081   1.159   6.262   1.333
 5394SOL    HW217082   1.013   6.280   1.403
 5395SOL     OW17083   4.625   1.383   0.881
 5395SOL    HW117084   4.563   1.305   0.876
 5395SOL    HW217085   4.608   1.434   0.966
 5396SOL     OW17086   5.281   5.706   2.519
 5396SOL    HW117087   5.338   5.689   2.438
 5396SOL    HW217088   5.336   5.749   2.590
 5397SOL     OW17089   6.540   1.931   2.548
 5397SOL    HW117090   6.522   1.858   2.613
 5397SOL    HW217091   6.460   1.945   2.490
 5398SOL     OW17092   4.318   2.341   3.916
 5398SOL    HW117093   4.248   2.318   3.849
 5398SOL    HW217094   4.406   2.305   3.886
 5399SOL     OW17095   1.739   6.625   5.550
 5399SOL    HW117096   1.726   6.556   5.621
 5399SOL    HW217097   1.766   6.581   5.465
 5400SOL     OW17098   3.570   3.451   1.181
 5400SOL    HW117099   3.569   3.437   1.082
 5400SOL    HW217100   3.488   3.501   1.208
 5401SOL     OW17101   4.955   4.883   3.650
 5401SOL    HW117102   4.989   4.798   3.610
 5401SOL    HW217103   4.867   4.866   3.694
 5402SOL     OW17104   2.987   6.425   0.973
 5402SOL    HW117105   2.936   6.355   0.923
 5402SOL    HW217106   3.077   6.436   0.932
 5403SOL     OW17107   5.211   2.925   6.630
 5403SOL    HW117108   5.225   3.020   6.606
 5403SOL    HW217109   5.264   2.866   6.569
 5404SOL     OW17110   0.482   0.842   1.028
 5404SOL    HW117111   0.411   0.805   1.089
 5404SOL    HW217112   0.560   0.871   1.083
 5405SOL     OW17113   5.191   5.461   0.065
 5405SOL    HW117114   5.228   5.486   0.155
 5405SOL    HW217115   5.260   5.409   0.014
 5406SOL     OW17116   2.159   0.877   4.577
 5406SOL    HW117117   2.089   0.808   4.596
 5406SOL    HW217118   2.145   0.956   4.635
 5407SOL     OW17119   2.891   0.740   1.081
 5407SOL    HW117120   2.854   0.830   1.105
 5407SOL    HW217121   2.816   0.674   1.075
 5408SOL     OW17122   3.708   2.116   4.614
 5408SOL    HW117123   3.772   2.161   4.676
 5408SOL    HW217124   3.614   2.137   4.643
 5409SOL     OW17125   6.191   2.766   1.619
 5409SOL    HW117126   6.213   2.759   1.521
 5409SOL    HW217127   6.157   2.857   1.639
 5410SOL     OW17128   6.914   3.241   0.982
 5410SOL    HW117129   6.959   3.229   1.071
 5410SOL    HW217130   6.896   3.152   0.941
 5411SOL     OW17131   5.434   4.395   6.759
 5411SOL    HW117132   5.413   4.449   6.840
 5411SOL    HW217133   5.361   4.405   6.692
 5412SOL     OW17134   1.998   1.338   5.979
 5412SOL    HW117135   1.983   1.239   5.976
 5412SOL    HW217136   2.055   1.365   5.901
 5413SOL     OW17137   6.184   6.944   5.491
 5413SOL    HW117138   6.164   0.002   5.543
 5413SOL    HW217139   6.130   6.867   5.526
 5414SOL     OW17140   0.300   4.508   5.558
 5414SOL    HW117141   0.276   4.545   5.648
 5414SOL    HW217142   0.217   4.482   5.510
 5415SOL     OW17143   2.986   5.704   0.447
 5415SOL    HW117144   2.890   5.731   0.447
 5415SOL    HW217145   3.033   5.748   0.371
 5416SOL     OW17146   2.859   5.320   4.867
 5416SOL    HW117147   2.886   5.323   4.963
 5416SOL    HW217148   2.762   5.340   4.858
 5417SOL     OW17149   5.075   6.246   3.847
 5417SOL    HW117150   5.036   6.177   3.910
 5417SOL    HW217151   5.164   6.274   3.881
 5418SOL     OW17152   5.804   4.485   4.412
 5418SOL    HW117153   5.759   4.573   4.395
 5418SOL    HW217154   5.777   4.452   4.503
 5419SOL     OW17155   4.157   6.832   0.356
 5419SOL    HW117156   4.187   6.890   0.431
 5419SOL    HW217157   4.225   6.761   0.340
 5420SOL     OW17158   1.193   1.667   1.689
 5420SOL    HW117159   1.169   1.592   1.750
 5420SOL    HW217160   1.205   1.751   1.742
 5421SOL     OW17161   3.229   5.340   2.386
 5421SOL    HW117162   3.139   5.346   2.343
 5421SOL    HW217163   3.293   5.297   2.323
 5422SOL     OW17164   1.988   5.859   3.899
 5422SOL    HW117165   2.000   5.763   3.872
 5422SOL    HW217166   2.076   5.898   3.924
 5423SOL     OW17167   6.731   5.914   1.846
 5423SOL    HW117168   6.724   6.009   1.879
 5423SOL    HW217169   6.661   5.898   1.777
 5424SOL     OW17170   5.015   4.427   4.999
 5424SOL    HW117171   5.111   4.426   4.970
 5424SOL    HW217172   5.010   4.465   5.091
 5425SOL     OW17173   6.706   3.338   4.825
 5425SOL    HW117174   6.607   3.346   4.819
 5425SOL    HW217175   6.735   3.345   4.920
 5426SOL     OW17176   5.023   5.159   2.142
 5426SOL    HW117177   5.073   5.139   2.226
 5426SOL    HW217178   4.989   5.073   2.102
 5427SOL     OW17179   4.536   2.506   6.716
 5427SOL    HW117180   4.556   2.452   6.634
 5427SOL    HW217181   4.618   2.513   6.772
 5428SOL     OW17182   6.015   5.774   2.790
 5428SOL    HW117183   6.097   5.746   2.840
 5428SOL    HW217184   5.935   5.727   2.828
 5429SOL     OW17185   2.904   0.298   4.184
 5429SOL    HW117186   2.872   0.267   4.273
 5429SOL    HW217187   2.953   0.385   4.195
 5430SOL     OW17188   2.094   3.456   6.023
 5430SOL    HW117189   2.145   3.522   5.968
 5430SOL    HW217190   2.151   3.375   6.039
 5431SOL     OW17191   3.746   5.250   6.295
 5431SOL    HW117192   3.788   5.162   6.317
 5431SOL    HW217193   3.672   5.236   6.229
 5432SOL     OW17194   5.532   5.871   0.939
 5432SOL    HW117195   5.478   5.951   0.913
 5432SOL    HW217196   5.557   5.877   1.036
 5433SOL     OW17197   1.321   0.509   1.141
 5433SOL    HW117198   1.359   0.417   1.143
 5433SOL    HW217199   1.303   0.540   1.234
 5434SOL     OW17200   4.967   1.105   5.015
 5434SOL    HW117201   4.939   1.104   4.919
 5434SOL    HW217202   5.064   1.128   5.021
 5435SOL     OW17203   6.255   3.984   0.378
 5435SOL    HW117204   6.269   4.070   0.426
 5435SOL    HW217205   6.256   3.909   0.444
 5436SOL     OW17206   0.647   5.744   2.654
 5436SOL    HW117207   0.701   5.827   2.642
 5436SOL    HW217208   0.555   5.768   2.687
 5437SOL     OW17209   3.083   5.154   5.919
 5437SOL    HW117210   3.007   5.094   5.896
 5437SOL    HW217211   3.074   5.241   5.870
 5438SOL     OW17212   5.051   4.372   1.874
 5438SOL    HW117213   5.028   4.282   1.836
 5438SOL    HW217214   4.978   4.402   1.935
 5439SOL     OW17215   0.708   4.485   0.276
 5439SOL    HW117216   0.784   4.470   0.339
 5439SOL    HW217217   0.743   4.489   0.182
 5440SOL     OW17218   5.688   6.869   3.335
 5440SOL    HW117219   5.784   6.873   3.309
 5440SOL    HW217220   5.641   6.951   3.301
 5441SOL     OW17221   4.916   3.298   4.072
 5441SOL    HW117222   4.963   3.249   4.145
 5441SOL    HW217223   4.841   3.242   4.037
 5442SOL     OW17224   5.317   0.342   4.064
 5442SOL    HW117225   5.298   0.262   4.007
 5442SOL    HW217226   5.266   0.334   4.150
 5443SOL     OW17227   5.059   6.545   5.099
 5443SOL    HW117228   5.148   6.543   5.052
 5443SOL    HW217229   5.031   6.639   5.115
 5444SOL     OW17230   0.490   1.887   3.995
 5444SOL    HW117231   0.550   1.952   4.041
 5444SOL    HW217232   0.461   1.926   3.907
 5445SOL     OW17233   5.078   5.031   5.188
 5445SOL    HW117234   5.146   4.978   5.137
 5445SOL    HW217235   5.067   4.992   5.280
 5446SOL     OW17236   0.094   4.630   4.774
 5446SOL    HW117237   0.158   4.668   4.708
 5446SOL    HW217238   0.058   4.703   4.832
 5447SOL     OW17239   1.925   1.757   1.426
 5447SOL    HW117240   1.958   1.837   1.376
 5447SOL    HW217241   1.864   1.786   1.500
 5448SOL     OW17242   4.916   6.063   3.976
 5448SOL    HW117243   4.863   6.068   4.061
 5448SOL    HW217244   4.933   5.967   3.953
 5449SOL     OW17245   3.360   1.792   1.855
 5449SOL    HW117246   3.393   1.881   1.887
 5449SOL    HW217247   3.267   1.802   1.819
 5450SOL     OW17248   3.715   6.274   1.799
 5450SOL    HW117249   3.749   6.216   1.725
 5450SOL    HW217250   3.742   6.234   1.887
 5451SOL     OW17251   1.455   7.024   2.793
 5451SOL    HW117252   1.488   0.075   2.849
 5451SOL    HW217253   1.355   7.022   2.794
 5452SOL     OW17254   1.756   4.752   1.232
 5452SOL    HW117255   1.780   4.694   1.153
 5452SOL    HW217256   1.666   4.792   1.217
 5453SOL     OW17257   5.210   4.392   2.535
 5453SOL    HW117258   5.164   4.325   2.593
 5453SOL    HW217259   5.143   4.441   2.480
 5454SOL     OW17260   5.544   5.695   2.728
 5454SOL    HW117261   5.505   5.675   2.818
 5454SOL    HW217262   5.625   5.638   2.713
 5455SOL     OW17263   0.635   1.440   2.759
 5455SOL    HW117264   0.649   1.379   2.681
 5455SOL    HW217265   0.595   1.526   2.728
 5456SOL     OW17266   5.291   0.801   0.017
 5456SOL    HW117267   5.338   0.799   6.954
 5456SOL    HW217268   5.208   0.746   0.012
 5457SOL     OW17269   6.137   2.242   0.037
 5457SOL    HW117270   6.190   2.279   0.114
 5457SOL    HW217271   6.041   2.231   0.064
 5458SOL     OW17272   6.390   4.766   0.709
 5458SOL    HW117273   6.478   4.763   0.662
 5458SOL    HW217274   6.399   4.725   0.800
 5459SOL     OW17275   1.636   4.823   5.805
 5459SOL    HW117276   1.555   4.783   5.849
 5459SOL    HW217277   1.608   4.868   5.720
 5460SOL     OW17278   1.975   1.409   1.153
 5460SOL    HW117279   1.924   1.480   1.106
 5460SOL    HW217280   2.059   1.448   1.191
 5461SOL     OW17281   1.075   1.675   5.453
 5461SOL    HW117282   1.076   1.619   5.536
 5461SOL    HW217283   0.983   1.713   5.441
 5462SOL     OW17284   5.465   6.154   6.776
 5462SOL    HW117285   5.487   6.062   6.743
 5462SOL    HW217286   5.549   6.204   6.793
 5463SOL     OW17287   6.551   2.019   6.332
 5463SOL    HW117288   6.579   2.106   6.291
 5463SOL    HW217289   6.562   1.945   6.264
 5464SOL     OW17290   6.545   5.636   5.597
 5464SOL    HW117291   6.493   5.641   5.512
 5464SOL    HW217292   6.642   5.623   5.575
 5465SOL     OW17293   6.170   6.627   3.090
 5465SOL    HW117294   6.114   6.610   3.171
 5465SOL    HW217295   6.243   6.560   3.085
 5466SOL     OW17296   5.830   2.638   5.476
 5466SOL    HW117297   5.910   2.679   5.519
 5466SOL    HW217298   5.816   2.546   5.513
 5467SOL     OW17299   5.918   3.720   3.836
 5467SOL    HW117300   5.912   3.631   3.881
 5467SOL    HW217301   5.932   3.791   3.905
 5468SOL     OW17302   6.752   2.535   2.909
 5468SOL    HW117303   6.740   2.618   2.964
 5468SOL    HW217304   6.838   2.541   2.859
 5469SOL     OW17305   2.139   0.539   5.992
 5469SOL    HW117306   2.088   0.513   5.910
 5469SOL    HW217307   2.202   0.613   5.969
 5470SOL     OW17308   4.145   5.424   4.083
 5470SOL    HW117309   4.131   5.523   4.079
 5470SOL    HW217310   4.236   5.402   4.048
 5471SOL     OW17311   5.776   0.625   2.797
 5471SOL    HW117312   5.829   0.609   2.714
 5471SOL    HW217313   5.757   0.537   2.841
 5472SOL     OW17314   2.964   2.456   5.822
 5472SOL    HW117315   2.939   2.478   5.728
 5472SOL    HW217316   2.884   2.471   5.881
 5473SOL     OW17317   1.508   4.369   0.529
 5473SOL    HW117318   1.574   4.364   0.604
 5473SOL    HW217319   1.494   4.278   0.490
 5474SOL     OW17320   1.122   5.604   3.262
 5474SOL    HW117321   1.197   5.605   3.196
 5474SOL    HW217322   1.137   5.673   3.333
 5475SOL     OW17323   1.475   1.867   0.784
 5475SOL    HW117324   1.522   1.792   0.737
 5475SOL    HW217325   1.514   1.955   0.755
 5476SOL     OW17326   2.186   4.917   5.127
 5476SOL    HW117327   2.218   4.833   5.170
 5476SOL    HW217328   2.216   4.996   5.181
 5477SOL     OW17329   1.529   4.253   2.663
 5477SOL    HW117330   1.626   4.271   2.648
 5477SOL    HW217331   1.505   4.278   2.756
 5478SOL     OW17332   4.766   5.393   6.289
 5478SOL    HW117333   4.698   5.423   6.223
 5478SOL    HW217334   4.839   5.461   6.297
 5479SOL     OW17335   4.711   1.054   3.967
 5479SOL    HW117336   4.630   0.995   3.970
 5479SOL    HW217337   4.683   1.149   3.979
 5480SOL     OW17338   6.250   4.680   4.963
 5480SOL    HW117339   6.182   4.627   5.014
 5480SOL    HW217340   6.342   4.645   4.983
 5481SOL     OW17341   4.744   0.351   5.216
 5481SOL    HW117342   4.654   0.322   5.184
 5481SOL    HW217343   4.795   0.271   5.249
 5482SOL     OW17344   3.403   3.821   2.219
 5482SOL    HW117345   3.372   3.816   2.124
 5482SOL    HW217346   3.324   3.838   2.278
 5483SOL     OW17347   6.529   2.746   5.539
 5483SOL    HW117348   6.623   2.722   5.516
 5483SOL    HW217349   6.483   2.667   5.579
 5484SOL     OW17350   6.149   6.917   3.410
 5484SOL    HW117351   6.136   6.907   3.509
 5484SOL    HW217352   6.064   6.894   3.363
 5485SOL     OW17353   2.805   0.128   4.395
 5485SOL    HW117354   2.881   0.064   4.388
 5485SOL    HW217355   2.807   0.173   4.484
 5486SOL     OW17356   2.114   0.059   4.143
 5486SOL    HW117357   2.210   0.034   4.131
 5486SOL    HW217358   2.089   0.130   4.077
 5487SOL     OW17359   5.807   3.824   6.694
 5487SOL    HW117360   5.796   3.730   6.664
 5487SOL    HW217361   5.805   3.828   6.794
 5488SOL     OW17362   4.404   1.638   0.243
 5488SOL    HW117363   4.429   1.705   0.173
 5488SOL    HW217364   4.453   1.552   0.226
 5489SOL     OW17365   1.804   3.858   1.735
 5489SOL    HW117366   1.790   3.931   1.802
 5489SOL    HW217367   1.874   3.885   1.670
 5490SOL     OW17368   3.497   6.810   0.242
 5490SOL    HW117369   3.564   6.878   0.213
 5490SOL    HW217370   3.448   6.776   0.162
 5491SOL     OW17371   1.483   4.581   6.726
 5491SOL    HW117372   1.479   4.568   6.627
 5491SOL    HW217373   1.392   4.572   6.765
 5492SOL     OW17374   0.960   1.382   6.327
 5492SOL    HW117375   1.008   1.315   6.384
 5492SOL    HW217376   0.992   1.373   6.233
 5493SOL     OW17377   3.202   3.167   5.271
 5493SOL    HW117378   3.178   3.071   5.262
 5493SOL    HW217379   3.119   3.221   5.283
 5494SOL     OW17380   6.257   2.579   0.159
 5494SOL    HW117381   6.356   2.584   0.176
 5494SOL    HW217382   6.241   2.559   0.062
 5495SOL     OW17383   3.323   2.888   1.523
 5495SOL    HW117384   3.380   2.836   1.585
 5495SOL    HW217385   3.226   2.871   1.544
 5496SOL     OW17386   2.965   6.785   1.988
 5496SOL    HW117387   2.959   6.770   1.890
 5496SOL    HW217388   3.018   6.711   2.030
 5497SOL     OW17389   0.672   1.994   3.340
 5497SOL    HW117390   0.595   2.029   3.393
 5497SOL    HW217391   0.645   1.908   3.296
 5498SOL     OW17392   5.107   0.904   0.490
 5498SOL    HW117393   5.033   0.934   0.550
 5498SOL    HW217394   5.071   0.883   0.399
 5499SOL     OW17395   0.686   1.235   4.096
 5499SOL    HW117396   0.667   1.233   3.997
 5499SOL    HW217397   0.620   1.295   4.141
 5500SOL     OW17398   1.760   6.066   0.195
 5500SOL    HW117399   1.742   6.148   0.250
 5500SOL    HW217400   1.816   6.091   0.116
 5501SOL     OW17401   2.861   0.152   1.152
 5501SOL    HW117402   2.827   0.207   1.228
 5501SOL    HW217403   2.784   0.122   1.096
 5502SOL     OW17404   5.779   4.422   5.933
 5502SOL    HW117405   5.792   4.520   5.944
 5502SOL    HW217406   5.706   4.404   5.867
 5503SOL     OW17407   0.559   4.601   2.669
 5503SOL    HW117408   0.490   4.549   2.619
 5503SOL    HW217409   0.522   4.691   2.693
 5504SOL     OW17410   2.755   1.250   5.543
 5504SOL    HW117411   2.839   1.231   5.592
 5504SOL    HW217412   2.776   1.299   5.458
 5505SOL     OW17413   2.525   5.811   5.055
 5505SOL    HW117414   2.544   5.792   4.959
 5505SOL    HW217415   2.559   5.902   5.079
 5506SOL     OW17416   6.597   0.209   5.820
 5506SOL    HW117417   6.635   0.117   5.832
 5506SOL    HW217418   6.541   0.232   5.899
 5507SOL     OW17419   2.549   6.888   2.635
 5507SOL    HW117420   2.489   6.810   2.653
 5507SOL    HW217421   2.516   6.967   2.686
 5508SOL     OW17422   2.695   1.234   6.938
 5508SOL    HW117423   2.690   1.259   6.842
 5508SOL    HW217424   2.703   1.316   6.994
 5509SOL     OW17425   0.818   6.245   0.176
 5509SOL    HW117426   0.738   6.302   0.156
 5509SOL    HW217427   0.863   6.279   0.259
 5510SOL     OW17428   5.482   6.497   0.540
 5510SOL    HW117429   5.512   6.415   0.588
 5510SOL    HW217430   5.390   6.521   0.568
 5511SOL     OW17431   2.127   0.383   3.711
 5511SOL    HW117432   2.169   0.313   3.653
 5511SOL    HW217433   2.199   0.438   3.754
 5512SOL     OW17434   6.257   1.855   0.724
 5512SOL    HW117435   6.274   1.767   0.769
 5512SOL    HW217436   6.161   1.880   0.735
 5513SOL     OW17437   4.396   4.292   5.685
 5513SOL    HW117438   4.360   4.314   5.775
 5513SOL    HW217439   4.371   4.199   5.660
 5514SOL     OW17440   5.153   5.692   2.825
 5514SOL    HW117441   5.223   5.652   2.883
 5514SOL    HW217442   5.164   5.660   2.731
 5515SOL     OW17443   7.007   3.774   1.009
 5515SOL    HW117444   6.936   3.731   0.953
 5515SOL    HW217445   0.055   3.707   1.028
 5516SOL     OW17446   0.958   2.707   0.754
 5516SOL    HW117447   0.858   2.702   0.755
 5516SOL    HW217448   0.995   2.625   0.711
 5517SOL     OW17449   2.610   2.405   2.357
 5517SOL    HW117450   2.628   2.370   2.265
 5517SOL    HW217451   2.511   2.403   2.374
 5518SOL     OW17452   6.431   6.125   6.327
 5518SOL    HW117453   6.389   6.212   6.303
 5518SOL    HW217454   6.519   6.141   6.372
 5519SOL     OW17455   4.919   3.816   2.965
 5519SOL    HW117456   4.935   3.909   2.931
 5519SOL    HW217457   4.897   3.756   2.888
 5520SOL     OW17458   0.821   4.789   3.255
 5520SOL    HW117459   0.876   4.838   3.323
 5520SOL    HW217460   0.862   4.700   3.237
 5521SOL     OW17461   3.914   5.688   2.870
 5521SOL    HW117462   3.980   5.747   2.825
 5521SOL    HW217463   3.827   5.737   2.882
 5522SOL     OW17464   1.413   4.187   1.044
 5522SOL    HW117465   1.341   4.213   0.979
 5522SOL    HW217466   1.372   4.136   1.119
 5523SOL     OW17467   3.076   6.919   2.893
 5523SOL    HW117468   3.135   6.982   2.945
 5523SOL    HW217469   3.008   6.972   2.843
 5524SOL     OW17470   6.653   5.268   4.804
 5524SOL    HW117471   6.704   5.346   4.840
 5524SOL    HW217472   6.573   5.251   4.862
 5525SOL     OW17473   6.426   4.301   0.822
 5525SOL    HW117474   6.405   4.238   0.747
 5525SOL    HW217475   6.341   4.341   0.856
 5526SOL     OW17476   6.166   3.816   4.965
 5526SOL    HW117477   6.114   3.824   4.880
 5526SOL    HW217478   6.159   3.901   5.017
 5527SOL     OW17479   0.865   3.710   3.367
 5527SOL    HW117480   0.853   3.637   3.299
 5527SOL    HW217481   0.807   3.787   3.343
 5528SOL     OW17482   0.923   2.223   6.410
 5528SOL    HW117483   0.868   2.244   6.491
 5528SOL    HW217484   1.016   2.257   6.423
 5529SOL     OW17485   2.480   0.176   4.510
 5529SOL    HW117486   2.566   0.157   4.462
 5529SOL    HW217487   2.456   0.096   4.565
 5530SOL     OW17488   0.309   2.431   1.892
 5530SOL    HW117489   0.218   2.438   1.932
 5530SOL    HW217490   0.372   2.492   1.940
 5531SOL     OW17491   3.586   3.789   3.178
 5531SOL    HW117492   3.617   3.758   3.088
 5531SOL    HW217493   3.644   3.749   3.249
 5532SOL     OW17494   1.246   1.279   1.121
 5532SOL    HW117495   1.344   1.269   1.140
 5532SOL    HW217496   1.219   1.374   1.135
 5533SOL     OW17497   2.884   1.173   2.201
 5533SOL    HW117498   2.892   1.141   2.296
 5533SOL    HW217499   2.791   1.207   2.186
 5534SOL     OW17500   1.205   3.258   6.311
 5534SOL    HW117501   1.173   3.304   6.394
 5534SOL    HW217502   1.243   3.326   6.248
 5535SOL     OW17503   0.588   2.684   3.529
 5535SOL    HW117504   0.546   2.747   3.595
 5535SOL    HW217505   0.654   2.626   3.577
 5536SOL     OW17506   3.548   1.317   3.935
 5536SOL    HW117507   3.600   1.331   4.020
 5536SOL    HW217508   3.451   1.308   3.956
 5537SOL     OW17509   3.420   0.446   4.051
 5537SOL    HW117510   3.323   0.472   4.047
 5537SOL    HW217511   3.474   0.525   4.081
 5538SOL     OW17512   3.414   0.117   5.065
 5538SOL    HW117513   3.366   0.087   4.983
 5538SOL    HW217514   3.383   0.063   5.143
 5539SOL     OW17515   1.057   2.441   1.425
 5539SOL    HW117516   1.057   2.397   1.515
 5539SOL    HW217517   0.983   2.403   1.370
 5540SOL     OW17518   5.217   3.836   2.261
 5540SOL    HW117519   5.183   3.893   2.336
 5540SOL    HW217520   5.145   3.773   2.232
 5541SOL     OW17521   5.199   2.383   6.192
 5541SOL    HW117522   5.236   2.314   6.130
 5541SOL    HW217523   5.103   2.362   6.212
 5542SOL     OW17524   6.001   6.214   5.440
 5542SOL    HW117525   5.903   6.198   5.449
 5542SOL    HW217526   6.018   6.293   5.381
 5543SOL     OW17527   2.076   5.185   6.326
 5543SOL    HW117528   2.105   5.206   6.419
 5543SOL    HW217529   2.157   5.170   6.268
 5544SOL     OW17530   5.256   5.575   6.144
 5544SOL    HW117531   5.298   5.576   6.053
 5544SOL    HW217532   5.157   5.587   6.135
 5545SOL     OW17533   5.081   1.458   3.006
 5545SOL    HW117534   5.030   1.508   2.935
 5545SOL    HW217535   5.031   1.465   3.093
 5546SOL     OW17536   0.975   6.684   4.477
 5546SOL    HW117537   0.961   6.667   4.574
 5546SOL    HW217538   0.888   6.672   4.428
 5547SOL     OW17539   3.965   0.812   4.975
 5547SOL    HW117540   4.061   0.819   5.002
 5547SOL    HW217541   3.959   0.798   4.877
 5548SOL     OW17542   6.544   3.208   5.648
 5548SOL    HW117543   6.638   3.195   5.615
 5548SOL    HW217544   6.514   3.125   5.694
 5549SOL     OW17545   4.430   4.738   0.735
 5549SOL    HW117546   4.440   4.733   0.636
 5549SOL    HW217547   4.516   4.771   0.776
 5550SOL     OW17548   2.254   4.560   2.335
 5550SOL    HW117549   2.243   4.653   2.370
 5550SOL    HW217550   2.335   4.556   2.277
 5551SOL     OW17551   1.366   6.364   3.146
 5551SOL    HW117552   1.320   6.434   3.201
 5551SOL    HW217553   1.413   6.300   3.206
 5552SOL     OW17554   6.494   0.671   6.534
 5552SOL    HW117555   6.540   0.664   6.623
 5552SOL    HW217556   6.395   0.665   6.548
 5553SOL     OW17557   4.587   6.268   6.597
 5553SOL    HW117558   4.568   6.179   6.639
 5553SOL    HW217559   4.501   6.314   6.577
 5554SOL     OW17560   4.463   2.120   6.793
 5554SOL    HW117561   4.378   2.077   6.764
 5554SOL    HW217562   4.532   2.110   6.721
 5555SOL     OW17563   0.858   3.729   2.629
 5555SOL    HW117564   0.860   3.795   2.555
 5555SOL    HW217565   0.780   3.667   2.616
 5556SOL     OW17566   6.052   1.608   3.129
 5556SOL    HW117567   6.122   1.549   3.171
 5556SOL    HW217568   6.078   1.629   3.035
 5557SOL     OW17569   3.899   6.715   2.585
 5557SOL    HW117570   3.978   6.674   2.631
 5557SOL    HW217571   3.816   6.687   2.632
 5558SOL     OW17572   2.892   3.661   6.332
 5558SOL    HW117573   2.826   3.718   6.284
 5558SOL    HW217574   2.943   3.606   6.266
 5559SOL     OW17575   2.215   6.899   1.121
 5559SOL    HW117576   2.258   6.811   1.104
 5559SOL    HW217577   2.230   6.927   1.216
 5560SOL     OW17578   0.350   5.614   1.751
 5560SOL    HW117579   0.261   5.591   1.712
 5560SOL    HW217580   0.417   5.623   1.677
 5561SOL     OW17581   1.582   1.090   4.283
 5561SOL    HW117582   1.621   1.163   4.340
 5561SOL    HW217583   1.514   1.040   4.336
 5562SOL     OW17584   4.156   2.474   6.265
 5562SOL    HW117585   4.126   2.459   6.359
 5562SOL    HW217586   4.083   2.518   6.212
 5563SOL     OW17587   3.494   4.904   2.618
 5563SOL    HW117588   3.558   4.874   2.546
 5563SOL    HW217589   3.539   4.971   2.676
 5564SOL     OW17590   4.651   0.140   1.009
 5564SOL    HW117591   4.594   0.213   1.044
 5564SOL    HW217592   4.625   0.119   0.914
 5565SOL     OW17593   4.546   2.279   5.983
 5565SOL    HW117594   4.581   2.208   6.045
 5565SOL    HW217595   4.537   2.365   6.032
 5566SOL     OW17596   1.045   3.946   6.909
 5566SOL    HW117597   0.959   3.988   6.936
 5566SOL    HW217598   1.041   3.848   6.924
 5567SOL     OW17599   6.984   3.205   1.230
 5567SOL    HW117600   7.024   3.152   1.305
 5567SOL    HW217601   7.005   3.302   1.243
 5568SOL     OW17602   5.118   1.182   3.734
 5568SOL    HW117603   5.107   1.227   3.645
 5568SOL    HW217604   5.037   1.125   3.752
 5569SOL     OW17605   1.821   1.673   2.659
 5569SOL    HW117606   1.802   1.678   2.757
 5569SOL    HW217607   1.820   1.765   2.620
 5570SOL     OW17608   6.665   3.991   4.715
 5570SOL    HW117609   6.743   3.930   4.718
 5570SOL    HW217610   6.610   3.979   4.798
 5571SOL     OW17611   6.239   6.371   0.690
 5571SOL    HW117612   6.158   6.333   0.643
 5571SOL    HW217613   6.209   6.429   0.766
 5572SOL     OW17614   1.226   3.106   4.718
 5572SOL    HW117615   1.295   3.172   4.748
 5572SOL    HW217616   1.249   3.016   4.755
 5573SOL     OW17617   1.840   5.217   5.065
 5573SOL    HW117618   1.909   5.241   5.134
 5573SOL    HW217619   1.873   5.139   5.012
 5574SOL     OW17620   6.994   1.822   2.646
 5574SOL    HW117621   6.970   1.875   2.727
 5574SOL    HW217622   0.024   1.742   2.673
 5575SOL     OW17623   0.147   1.073   1.280
 5575SOL    HW117624   0.135   0.980   1.314
 5575SOL    HW217625   0.095   1.137   1.338
 5576SOL     OW17626   1.034   4.926   1.416
 5576SOL    HW117627   0.965   4.905   1.347
 5576SOL    HW217628   1.038   4.851   1.483
 5577SOL     OW17629   3.080   3.162   5.903
 5577SOL    HW117630   3.119   3.070   5.909
 5577SOL    HW217631   2.981   3.156   5.889
 5578SOL     OW17632   3.513   3.790   1.422
 5578SOL    HW117633   3.477   3.789   1.328
 5578SOL    HW217634   3.539   3.697   1.449
 5579SOL     OW17635   0.609   3.419   0.782
 5579SOL    HW117636   0.703   3.400   0.810
 5579SOL    HW217637   0.577   3.502   0.828
 5580SOL     OW17638   5.264   2.294   5.500
 5580SOL    HW117639   5.204   2.371   5.479
 5580SOL    HW217640   5.247   2.219   5.436
 5581SOL     OW17641   1.296   6.812   1.741
 5581SOL    HW117642   1.256   6.888   1.689
 5581SOL    HW217643   1.260   6.814   1.835
 5582SOL     OW17644   3.050   3.640   5.585
 5582SOL    HW117645   2.999   3.556   5.605
 5582SOL    HW217646   3.126   3.649   5.649
 5583SOL     OW17647   5.267   0.820   3.112
 5583SOL    HW117648   5.193   0.887   3.126
 5583SOL    HW217649   5.229   0.736   3.075
 5584SOL     OW17650   6.313   5.524   3.713
 5584SOL    HW117651   6.369   5.452   3.755
 5584SOL    HW217652   6.266   5.576   3.784
 5585SOL     OW17653   5.165   5.211   3.363
 5585SOL    HW117654   5.101   5.147   3.321
 5585SOL    HW217655   5.153   5.209   3.463
 5586SOL     OW17656   0.694   2.739   5.948
 5586SOL    HW117657   0.711   2.726   6.045
 5586SOL    HW217658   0.766   2.694   5.895
 5587SOL     OW17659   4.319   6.721   1.154
 5587SOL    HW117660   4.227   6.682   1.149
 5587SOL    HW217661   4.374   6.684   1.079
 5588SOL     OW17662   2.507   5.248   2.854
 5588SOL    HW117663   2.483   5.324   2.792
 5588SOL    HW217664   2.439   5.243   2.927
 5589SOL     OW17665   6.883   3.404   5.838
 5589SOL    HW117666   6.913   3.352   5.758
 5589SOL    HW217667   6.878   3.501   5.813
 5590SOL     OW17668   0.101   6.481   3.546
 5590SOL    HW117669   0.104   6.383   3.531
 5590SOL    HW217670   0.076   6.528   3.461
 5591SOL     OW17671   5.202   1.507   0.864
 5591SOL    HW117672   5.295   1.505   0.830
 5591SOL    HW217673   5.139   1.528   0.789
 5592SOL     OW17674   0.384   5.490   2.449
 5592SOL    HW117675   0.479   5.468   2.471
 5592SOL    HW217676   0.325   5.466   2.526
 5593SOL     OW17677   0.821   3.088   0.425
 5593SOL    HW117678   0.898   3.137   0.466
 5593SOL    HW217679   0.848   3.054   0.335
 5594SOL     OW17680   4.597   1.010   6.276
 5594SOL    HW117681   4.559   0.930   6.322
 5594SOL    HW217682   4.546   1.092   6.304
 5595SOL     OW17683   6.892   0.748   4.542
 5595SOL    HW117684   6.986   0.713   4.533
 5595SOL    HW217685   6.835   0.710   4.469
 5596SOL     OW17686   4.844   0.526   3.085
 5596SOL    HW117687   4.911   0.546   3.157
 5596SOL    HW217688   4.764   0.585   3.098
 5597SOL     OW17689   4.927   2.695   5.241
 5597SOL    HW117690   5.011   2.682   5.294
 5597SOL    HW217691   4.848   2.669   5.296
 5598SOL     OW17692   5.601   4.223   3.566
 5598SOL    HW117693   5.607   4.297   3.499
 5598SOL    HW217694   5.527   4.242   3.631
 5599SOL     OW17695   0.737   2.265   1.752
 5599SOL    HW117696   0.796   2.300   1.824
 5599SOL    HW217697   0.710   2.340   1.692
 5600SOL     OW17698   1.553   1.375   1.426
 5600SOL    HW117699   1.529   1.282   1.451
 5600SOL    HW217700   1.642   1.398   1.465
 5601SOL     OW17701   2.141   1.077   6.712
 5601SOL    HW117702   2.103   1.004   6.655
 5601SOL    HW217703   2.167   1.040   6.801
 5602SOL     OW17704   0.190   1.855   1.505
 5602SOL    HW117705   0.257   1.822   1.571
 5602SOL    HW217706   0.109   1.890   1.553
 5603SOL     OW17707   6.128   2.638   0.417
 5603SOL    HW117708   6.189   2.624   0.339
 5603SOL    HW217709   6.072   2.556   0.432
 5604SOL     OW17710   6.175   2.293   4.367
 5604SOL    HW117711   6.181   2.358   4.291
 5604SOL    HW217712   6.091   2.239   4.358
 5605SOL     OW17713   6.983   0.855   4.971
 5605SOL    HW117714   6.999   0.837   5.068
 5605SOL    HW217715   6.957   0.951   4.959
 5606SOL     OW17716   5.329   6.467   0.227
 5606SOL    HW117717   5.410   6.432   0.274
 5606SOL    HW217718   5.317   6.564   0.249
 5607SOL     OW17719   5.879   1.281   2.864
 5607SOL    HW117720   5.888   1.273   2.963
 5607SOL    HW217721   5.969   1.282   2.822
 5608SOL     OW17722   5.514   0.369   3.847
 5608SOL    HW117723   5.511   0.355   3.946
 5608SOL    HW217724   5.598   0.416   3.822
 5609SOL     OW17725   3.344   5.949   1.284
 5609SOL    HW117726   3.399   5.966   1.365
 5609SOL    HW217727   3.396   5.972   1.202
 5610SOL     OW17728   4.816   5.708   0.661
 5610SOL    HW117729   4.794   5.610   0.662
 5610SOL    HW217730   4.783   5.749   0.576
 5611SOL     OW17731   0.825   6.087   2.788
 5611SOL    HW117732   0.835   6.017   2.859
 5611SOL    HW217733   0.915   6.114   2.755
 5612SOL     OW17734   3.758   2.091   6.118
 5612SOL    HW117735   3.853   2.118   6.135
 5612SOL    HW217736   3.755   2.001   6.075
 5613SOL     OW17737   6.633   4.859   3.457
 5613SOL    HW117738   6.698   4.883   3.529
 5613SOL    HW217739   6.638   4.928   3.384
 5614SOL     OW17740   4.490   2.077   4.293
 5614SOL    HW117741   4.430   2.110   4.220
 5614SOL    HW217742   4.454   1.993   4.331
 5615SOL     OW17743   6.794   1.415   3.463
 5615SOL    HW117744   6.818   1.493   3.520
 5615SOL    HW217745   6.808   1.330   3.514
 5616SOL     OW17746   2.713   2.339   4.222
 5616SOL    HW117747   2.758   2.336   4.311
 5616SOL    HW217748   2.737   2.256   4.170
 5617SOL     OW17749   2.995   6.375   5.713
 5617SOL    HW117750   3.004   6.298   5.649
 5617SOL    HW217751   2.956   6.342   5.799
 5618SOL     OW17752   0.559   4.123   3.734
 5618SOL    HW117753   0.469   4.151   3.768
 5618SOL    HW217754   0.548   4.043   3.675
 5619SOL     OW17755   3.578   3.782   4.844
 5619SOL    HW117756   3.670   3.756   4.874
 5619SOL    HW217757   3.536   3.706   4.795
 5620SOL     OW17758   4.402   3.557   0.398
 5620SOL    HW117759   4.332   3.522   0.460
 5620SOL    HW217760   4.489   3.512   0.416
 5621SOL     OW17761   2.341   2.811   0.147
 5621SOL    HW117762   2.291   2.738   0.194
 5621SOL    HW217763   2.348   2.890   0.208
 5622SOL     OW17764   4.624   0.538   5.894
 5622SOL    HW117765   4.676   0.624   5.892
 5622SOL    HW217766   4.673   0.468   5.843
 5623SOL     OW17767   4.006   5.530   5.451
 5623SOL    HW117768   4.028   5.433   5.444
 5623SOL    HW217769   3.984   5.567   5.361
 5624SOL     OW17770   1.056   4.799   3.569
 5624SOL    HW117771   1.090   4.724   3.512
 5624SOL    HW217772   1.027   4.762   3.658
 5625SOL     OW17773   5.442   0.561   5.150
 5625SOL    HW117774   5.368   0.609   5.102
 5625SOL    HW217775   5.410   0.536   5.242
 5626SOL     OW17776   2.363   6.040   4.774
 5626SOL    HW117777   2.281   5.999   4.734
 5626SOL    HW217778   2.345   6.064   4.870
 5627SOL     OW17779   0.401   5.793   6.205
 5627SOL    HW117780   0.425   5.830   6.115
 5627SOL    HW217781   0.333   5.720   6.194
 5628SOL     OW17782   1.292   1.920   2.210
 5628SOL    HW117783   1.355   1.977   2.263
 5628SOL    HW217784   1.204   1.916   2.256
 5629SOL     OW17785   3.680   3.708   2.145
 5629SOL    HW117786   3.589   3.723   2.183
 5629SOL    HW217787   3.721   3.796   2.120
 5630SOL     OW17788   1.686   3.588   6.861
 5630SOL    HW117789   1.616   3.565   6.794
 5630SOL    HW217790   1.693   3.687   6.870
 5631SOL     OW17791   4.624   2.291   1.133
 5631SOL    HW117792   4.588   2.262   1.221
 5631SOL    HW217793   4.548   2.315   1.072
 5632SOL     OW17794   3.034   2.290   6.161
 5632SOL    HW117795   3.108   2.226   6.138
 5632SOL    HW217796   3.073   2.369   6.208
 5633SOL     OW17797   6.207   3.827   4.618
 5633SOL    HW117798   6.192   3.766   4.540
 5633SOL    HW217799   6.211   3.922   4.586
 5634SOL     OW17800   2.209   5.103   4.099
 5634SOL    HW117801   2.283   5.098   4.166
 5634SOL    HW217802   2.149   5.025   4.109
 5635SOL     OW17803   1.676   4.816   5.454
 5635SOL    HW117804   1.665   4.795   5.357
 5635SOL    HW217805   1.770   4.801   5.481
 5636SOL     OW17806   4.791   6.994   4.410
 5636SOL    HW117807   4.842   0.038   4.359
 5636SOL    HW217808   4.762   6.921   4.348
 5637SOL     OW17809   5.193   0.601   2.937
 5637SOL    HW117810   5.244   0.636   2.859
 5637SOL    HW217811   5.110   0.554   2.906
 5638SOL     OW17812   6.050   4.031   0.691
 5638SOL    HW117813   6.110   3.969   0.641
 5638SOL    HW217814   6.058   4.013   0.789
 5639SOL     OW17815   1.094   0.597   2.551
 5639SOL    HW117816   1.166   0.667   2.551
 5639SOL    HW217817   1.012   0.634   2.508
 5640SOL     OW17818   3.730   0.186   3.594
 5640SOL    HW117819   3.666   0.262   3.595
 5640SOL    HW217820   3.815   0.215   3.551
 5641SOL     OW17821   1.099   4.804   5.036
 5641SOL    HW117822   1.060   4.867   5.104
 5641SOL    HW217823   1.198   4.801   5.046
 5642SOL     OW17824   1.505   6.546   5.363
 5642SOL    HW117825   1.531   6.638   5.394
 5642SOL    HW217826   1.406   6.543   5.350
 5643SOL     OW17827   4.024   1.029   5.386
 5643SOL    HW117828   4.123   1.017   5.377
 5643SOL    HW217829   4.005   1.090   5.463
 5644SOL     OW17830   3.229   0.379   5.018
 5644SOL    HW117831   3.308   0.344   5.068
 5644SOL    HW217832   3.187   0.454   5.070
 5645SOL     OW17833   6.070   5.006   3.738
 5645SOL    HW117834   6.073   5.053   3.650
 5645SOL    HW217835   6.146   4.941   3.744
 5646SOL     OW17836   1.496   4.923   3.375
 5646SOL    HW117837   1.403   4.956   3.388
 5646SOL    HW217838   1.515   4.850   3.440
 5647SOL     OW17839   4.907   5.573   1.464
 5647SOL    HW117840   4.954   5.513   1.530
 5647SOL    HW217841   4.841   5.630   1.513
 5648SOL     OW17842   1.928   6.578   2.726
 5648SOL    HW117843   1.882   6.489   2.720
 5648SOL    HW217844   1.926   6.610   2.820
 5649SOL     OW17845   0.713   0.061   3.745
 5649SOL    HW117846   0.758   0.023   3.826
 5649SOL    HW217847   0.776   0.056   3.667
 5650SOL     OW17848   0.391   5.695   1.035
 5650SOL    HW117849   0.292   5.706   1.031
 5650SOL    HW217850   0.435   5.784   1.036
 5651SOL     OW17851   1.533   0.529   1.541
 5651SOL    HW117852   1.503   0.538   1.636
 5651SOL    HW217853   1.453   0.510   1.483
 5652SOL     OW17854   6.268   0.189   1.478
 5652SOL    HW117855   6.275   0.260   1.408
 5652SOL    HW217856   6.256   0.100   1.434
 5653SOL     OW17857   6.023   6.353   6.257
 5653SOL    HW117858   5.990   6.320   6.346
 5653SOL    HW217859   5.997   6.449   6.245
 5654SOL     OW17860   0.485   6.179   5.364
 5654SOL    HW117861   0.518   6.258   5.311
 5654SOL    HW217862   0.557   6.149   5.427
 5655SOL     OW17863   1.358   3.562   3.948
 5655SOL    HW117864   1.363   3.623   4.027
 5655SOL    HW217865   1.395   3.472   3.973
 5656SOL     OW17866   6.830   4.136   6.439
 5656SOL    HW117867   6.780   4.088   6.367
 5656SOL    HW217868   6.795   4.107   6.528
 5657SOL     OW17869   6.062   2.787   6.868
 5657SOL    HW117870   6.046   2.735   6.784
 5657SOL    HW217871   6.080   2.883   6.845
 5658SOL     OW17872   3.114   3.025   6.585
 5658SOL    HW117873   3.031   3.076   6.564
 5658SOL    HW217874   3.194   3.079   6.558
 5659SOL     OW17875   2.994   3.325   5.341
 5659SOL    HW117876   2.979   3.308   5.438
 5659SOL    HW217877   2.977   3.422   5.321
 5660SOL     OW17878   4.444   6.760   6.312
 5660SOL    HW117879   4.390   6.788   6.392
 5660SOL    HW217880   4.514   6.695   6.340
 5661SOL     OW17881   1.634   5.873   5.067
 5661SOL    HW117882   1.600   5.779   5.058
 5661SOL    HW217883   1.646   5.894   5.164
 5662SOL     OW17884   2.819   6.661   4.066
 5662SOL    HW117885   2.826   6.595   3.991
 5662SOL    HW217886   2.742   6.723   4.050
 5663SOL     OW17887   2.243   2.363   0.460
 5663SOL    HW117888   2.166   2.363   0.396
 5663SOL    HW217889   2.282   2.271   0.466
 5664SOL     OW17890   0.233   3.521   4.096
 5664SOL    HW117891   0.309   3.561   4.044
 5664SOL    HW217892   0.258   3.429   4.125
 5665SOL     OW17893   2.285   0.759   0.319
 5665SOL    HW117894   2.317   0.795   0.406
 5665SOL    HW217895   2.310   0.822   0.246
 5666SOL     OW17896   6.599   6.737   3.288
 5666SOL    HW117897   6.552   6.757   3.202
 5666SOL    HW217898   6.531   6.728   3.361
 5667SOL     OW17899   1.769   4.901   4.727
 5667SOL    HW117900   1.858   4.894   4.681
 5667SOL    HW217901   1.752   4.996   4.751
 5668SOL     OW17902   5.699   3.125   3.274
 5668SOL    HW117903   5.613   3.084   3.303
 5668SOL    HW217904   5.687   3.223   3.259
 5669SOL     OW17905   6.561   3.815   0.983
 5669SOL    HW117906   6.494   3.831   1.055
 5669SOL    HW217907   6.632   3.753   1.016
 5670SOL     OW17908   1.159   4.015   4.004
 5670SOL    HW117909   1.145   4.055   4.094
 5670SOL    HW217910   1.219   4.073   3.949
 5671SOL     OW17911   5.859   5.949   5.277
 5671SOL    HW117912   5.825   5.863   5.315
 5671SOL    HW217913   5.959   5.947   5.275
 5672SOL     OW17914   4.726   3.686   6.645
 5672SOL    HW117915   4.686   3.718   6.731
 5672SOL    HW217916   4.655   3.647   6.587
 5673SOL     OW17917   1.926   6.834   1.097
 5673SOL    HW117918   1.864   6.904   1.063
 5673SOL    HW217919   2.015   6.875   1.117
 5674SOL     OW17920   0.721   4.178   5.138
 5674SOL    HW117921   0.752   4.258   5.087
 5674SOL    HW217922   0.621   4.181   5.146
 5675SOL     OW17923   4.415   3.126   6.034
 5675SOL    HW117924   4.510   3.123   6.004
 5675SOL    HW217925   4.399   3.054   6.102
 5676SOL     OW17926   2.633   1.929   2.776
 5676SOL    HW117927   2.577   1.847   2.761
 5676SOL    HW217928   2.728   1.908   2.752
 5677SOL     OW17929   0.559   1.204   0.866
 5677SOL    HW117930   0.625   1.254   0.811
 5677SOL    HW217931   0.514   1.134   0.809
 5678SOL     OW17932   4.020   6.992   2.773
 5678SOL    HW117933   3.943   0.029   2.756
 5678SOL    HW217934   3.989   6.915   2.830
 5679SOL     OW17935   6.371   1.584   3.762
 5679SOL    HW117936   6.286   1.545   3.796
 5679SOL    HW217937   6.398   1.661   3.821
 5680SOL     OW17938   1.450   5.578   6.266
 5680SOL    HW117939   1.416   5.504   6.207
 5680SOL    HW217940   1.404   5.573   6.355
 5681SOL     OW17941   0.661   3.568   2.232
 5681SOL    HW117942   0.598   3.540   2.304
 5681SOL    HW217943   0.609   3.600   2.153
 5682SOL     OW17944   1.862   5.434   4.658
 5682SOL    HW117945   1.856   5.382   4.743
 5682SOL    HW217946   1.785   5.497   4.652
 5683SOL     OW17947   3.907   1.392   5.695
 5683SOL    HW117948   3.947   1.376   5.785
 5683SOL    HW217949   3.966   1.454   5.643
 5684SOL     OW17950   2.148   3.969   6.341
 5684SOL    HW117951   2.241   3.990   6.373
 5684SOL    HW217952   2.118   3.882   6.381
 5685SOL     OW17953   2.480   1.531   3.524
 5685SOL    HW117954   2.491   1.626   3.554
 5685SOL    HW217955   2.569   1.493   3.500
 5686SOL     OW17956   3.080   1.695   6.149
 5686SOL    HW117957   3.040   1.691   6.058
 5686SOL    HW217958   3.178   1.715   6.142
 5687SOL     OW17959   0.388   5.487   6.477
 5687SOL    HW117960   0.427   5.437   6.554
 5687SOL    HW217961   0.317   5.549   6.510
 5688SOL     OW17962   1.490   2.469   2.322
 5688SOL    HW117963   1.472   2.394   2.386
 5688SOL    HW217964   1.533   2.544   2.371
 5689SOL     OW17965   3.044   1.680   1.522
 5689SOL    HW117966   3.026   1.749   1.452
 5689SOL    HW217967   3.139   1.649   1.514
 5690SOL     OW17968   1.433   6.119   0.369
 5690SOL    HW117969   1.466   6.028   0.392
 5690SOL    HW217970   1.467   6.185   0.436
 5691SOL     OW17971   3.976   0.536   2.048
 5691SOL    HW117972   3.894   0.546   2.103
 5691SOL    HW217973   4.005   0.626   2.013
 5692SOL     OW17974   5.474   3.918   0.487
 5692SOL    HW117975   5.554   3.887   0.538
 5692SOL    HW217976   5.414   3.970   0.548
 5693SOL     OW17977   4.324   1.273   2.552
 5693SOL    HW117978   4.383   1.241   2.478
 5693SOL    HW217979   4.358   1.238   2.639
 5694SOL     OW17980   1.420   1.014   2.712
 5694SOL    HW117981   1.512   1.037   2.742
 5694SOL    HW217982   1.354   1.073   2.759
 5695SOL     OW17983   1.631   2.083   4.039
 5695SOL    HW117984   1.636   2.181   4.018
 5695SOL    HW217985   1.654   2.031   3.957
 5696SOL     OW17986   0.927   0.677   4.013
 5696SOL    HW117987   0.849   0.620   3.985
 5696SOL    HW217988   0.945   0.745   3.942
 5697SOL     OW17989   5.674   2.022   1.843
 5697SOL    HW117990   5.583   2.006   1.803
 5697SOL    HW217991   5.669   2.096   1.910
 5698SOL     OW17992   0.634   4.535   3.715
 5698SOL    HW117993   0.656   4.608   3.779
 5698SOL    HW217994   0.537   4.511   3.724
 5699SOL     OW17995   1.081   2.566   2.737
 5699SOL    HW117996   1.009   2.555   2.806
 5699SOL    HW217997   1.137   2.646   2.759
 5700SOL     OW17998   6.510   6.926   3.594
 5700SOL    HW117999   6.453   6.850   3.561
 5700SOL    HW218000   6.548   6.976   3.516
 5701SOL     OW18001   0.707   0.434   1.131
 5701SOL    HW118002   0.649   0.395   1.202
 5701SOL    HW218003   0.657   0.504   1.081
 5702SOL     OW18004   2.655   5.510   4.663
 5702SOL    HW118005   2.691   5.600   4.689
 5702SOL    HW218006   2.612   5.467   4.742
 5703SOL     OW18007   6.289   4.504   0.551
 5703SOL    HW118008   6.346   4.556   0.614
 5703SOL    HW218009   6.222   4.566   0.509
 5704SOL     OW18010   4.591   4.436   3.102
 5704SOL    HW118011   4.628   4.371   3.035
 5704SOL    HW218012   4.524   4.495   3.057
 5705SOL     OW18013   5.132   6.482   0.044
 5705SOL    HW118014   5.209   6.504   0.105
 5705SOL    HW218015   5.095   6.392   0.068
 5706SOL     OW18016   6.417   2.958   1.975
 5706SOL    HW118017   6.464   3.044   1.996
 5706SOL    HW218018   6.458   2.884   2.028
 5707SOL     OW18019   6.674   6.942   0.948
 5707SOL    HW118020   6.593   6.910   0.898
 5707SOL    HW218021   6.736   6.988   0.885
 5708SOL     OW18022   4.922   5.560   2.470
 5708SOL    HW118023   4.945   5.650   2.508
 5708SOL    HW218024   4.948   5.489   2.536
 5709SOL     OW18025   1.065   1.283   2.121
 5709SOL    HW118026   0.965   1.285   2.133
 5709SOL    HW218027   1.088   1.211   2.055
 5710SOL     OW18028   3.141   2.890   0.602
 5710SOL    HW118029   3.084   2.864   0.525
 5710SOL    HW218030   3.226   2.932   0.569
 5711SOL     OW18031   5.255   1.215   2.683
 5711SOL    HW118032   5.242   1.311   2.660
 5711SOL    HW218033   5.195   1.190   2.759
 5712SOL     OW18034   6.156   0.115   0.176
 5712SOL    HW118035   6.231   0.099   0.240
 5712SOL    HW218036   6.076   0.063   0.204
 5713SOL     OW18037   2.761   3.917   1.579
 5713SOL    HW118038   2.682   3.977   1.584
 5713SOL    HW218039   2.734   3.823   1.603
 5714SOL     OW18040   6.891   5.767   0.964
 5714SOL    HW118041   6.791   5.763   0.966
 5714SOL    HW218042   6.921   5.862   0.973
 5715SOL     OW18043   0.520   0.734   2.532
 5715SOL    HW118044   0.541   0.640   2.505
 5715SOL    HW218045   0.523   0.793   2.452
 5716SOL     OW18046   1.218   4.997   5.945
 5716SOL    HW118047   1.259   5.014   6.034
 5716SOL    HW218048   1.254   4.912   5.907
 5717SOL     OW18049   1.942   4.788   0.520
 5717SOL    HW118050   1.870   4.719   0.513
 5717SOL    HW218051   1.961   4.806   0.617
 5718SOL     OW18052   0.514   3.443   0.217
 5718SOL    HW118053   0.454   3.481   0.287
 5718SOL    HW218054   0.609   3.461   0.241
 5719SOL     OW18055   1.868   2.869   0.081
 5719SOL    HW118056   1.896   2.784   0.036
 5719SOL    HW218057   1.819   2.927   0.015
 5720SOL     OW18058   2.227   6.498   4.941
 5720SOL    HW118059   2.197   6.492   5.036
 5720SOL    HW218060   2.323   6.526   4.937
 5721SOL     OW18061   5.974   3.966   0.946
 5721SOL    HW118062   6.039   3.944   1.019
 5721SOL    HW218063   5.946   3.882   0.899
 5722SOL     OW18064   6.831   2.088   5.080
 5722SOL    HW118065   6.738   2.113   5.055
 5722SOL    HW218066   6.857   2.003   5.034
 5723SOL     OW18067   3.921   3.250   0.052
 5723SOL    HW118068   3.961   3.340   0.072
 5723SOL    HW218069   3.992   3.180   0.061
 5724SOL     OW18070   5.651   2.718   4.486
 5724SOL    HW118071   5.578   2.725   4.418
 5724SOL    HW218072   5.737   2.696   4.440
 5725SOL     OW18073   6.051   5.133   3.485
 5725SOL    HW118074   6.076   5.215   3.535
 5725SOL    HW218075   6.126   5.106   3.425
 5726SOL     OW18076   6.796   5.369   4.209
 5726SOL    HW118077   6.797   5.439   4.138
 5726SOL    HW218078   6.882   5.372   4.260
 5727SOL     OW18079   5.919   2.194   4.307
 5727SOL    HW118080   5.846   2.260   4.294
 5727SOL    HW218081   5.889   2.121   4.368
 5728SOL     OW18082   4.740   6.080   5.765
 5728SOL    HW118083   4.716   5.988   5.735
 5728SOL    HW218084   4.658   6.127   5.798
 5729SOL     OW18085   2.500   0.560   0.120
 5729SOL    HW118086   2.412   0.595   0.154
 5729SOL    HW218087   2.534   0.490   0.182
 5730SOL     OW18088   5.050   4.983   6.123
 5730SOL    HW118089   5.117   5.006   6.193
 5730SOL    HW218090   4.997   5.064   6.100
 5731SOL     OW18091   0.382   6.977   2.796
 5731SOL    HW118092   0.293   6.968   2.753
 5731SOL    HW218093   0.373   6.972   2.896
 5732SOL     OW18094   0.675   5.564   3.944
 5732SOL    HW118095   0.739   5.543   3.870
 5732SOL    HW218096   0.584   5.580   3.906
 5733SOL     OW18097   3.021   6.593   5.314
 5733SOL    HW118098   2.923   6.601   5.296
 5733SOL    HW218099   3.071   6.601   5.228
 5734SOL     OW18100   1.087   0.381   5.497
 5734SOL    HW118101   1.056   0.291   5.527
 5734SOL    HW218102   1.162   0.413   5.555
 5735SOL     OW18103   3.992   1.599   1.016
 5735SOL    HW118104   4.006   1.566   0.923
 5735SOL    HW218105   3.921   1.670   1.016
 5736SOL     OW18106   5.939   4.293   0.234
 5736SOL    HW118107   5.890   4.353   0.172
 5736SOL    HW218108   5.951   4.203   0.192
 5737SOL     OW18109   5.907   6.283   7.018
 5737SOL    HW118110   5.934   6.372   0.030
 5737SOL    HW218111   5.964   6.261   6.938
 5738SOL     OW18112   2.128   2.802   6.230
 5738SOL    HW118113   2.095   2.882   6.180
 5738SOL    HW218114   2.086   2.719   6.191
 5739SOL     OW18115   1.783   0.705   6.047
 5739SOL    HW118116   1.795   0.606   6.034
 5739SOL    HW218117   1.804   0.752   5.961
 5740SOL     OW18118   4.603   4.957   0.801
 5740SOL    HW118119   4.567   4.979   0.710
 5740SOL    HW218120   4.580   5.031   0.864
 5741SOL     OW18121   0.880   5.395   4.621
 5741SOL    HW118122   0.899   5.341   4.539
 5741SOL    HW218123   0.869   5.491   4.596
 5742SOL     OW18124   5.417   6.257   2.757
 5742SOL    HW118125   5.430   6.317   2.678
 5742SOL    HW218126   5.379   6.310   2.833
 5743SOL     OW18127   2.196   6.842   4.932
 5743SOL    HW118128   2.109   6.792   4.933
 5743SOL    HW218129   2.264   6.789   4.881
 5744SOL     OW18130   4.533   0.032   2.084
 5744SOL    HW118131   4.562   6.982   2.144
 5744SOL    HW218132   4.542   0.003   1.989
 5745SOL     OW18133   3.801   0.628   4.003
 5745SOL    HW118134   3.852   0.713   3.991
 5745SOL    HW218135   3.836   0.559   3.938
 5746SOL     OW18136   5.110   0.528   1.219
 5746SOL    HW118137   5.147   0.620   1.206
 5746SOL    HW218138   5.180   0.461   1.196
 5747SOL     OW18139   0.501   5.095   2.217
 5747SOL    HW118140   0.489   4.997   2.230
 5747SOL    HW218141   0.446   5.144   2.285
 5748SOL     OW18142   1.503   4.980   0.566
 5748SOL    HW118143   1.437   4.977   0.641
 5748SOL    HW218144   1.497   4.895   0.514
 5749SOL     OW18145   2.638   0.835   4.364
 5749SOL    HW118146   2.642   0.783   4.450
 5749SOL    HW218147   2.552   0.886   4.360
 5750SOL     OW18148   6.203   5.206   4.578
 5750SOL    HW118149   6.227   5.131   4.516
 5750SOL    HW218150   6.198   5.171   4.672
 5751SOL     OW18151   2.362   2.748   4.512
 5751SOL    HW118152   2.423   2.669   4.503
 5751SOL    HW218153   2.378   2.794   4.599
 5752SOL     OW18154   6.547   0.390   6.463
 5752SOL    HW118155   6.458   0.350   6.485
 5752SOL    HW218156   6.538   0.490   6.460
 5753SOL     OW18157   2.801   3.556   5.840
 5753SOL    HW118158   2.897   3.567   5.868
 5753SOL    HW218159   2.796   3.501   5.757
 5754SOL     OW18160   6.017   5.301   0.837
 5754SOL    HW118161   5.927   5.340   0.823
 5754SOL    HW218162   6.008   5.205   0.863
 5755SOL     OW18163   2.612   3.243   5.749
 5755SOL    HW118164   2.626   3.323   5.691
 5755SOL    HW218165   2.530   3.194   5.719
 5756SOL     OW18166   6.541   5.476   3.238
 5756SOL    HW118167   6.540   5.568   3.201
 5756SOL    HW218168   6.467   5.466   3.305
 5757SOL     OW18169   6.596   6.459   2.497
 5757SOL    HW118170   6.660   6.503   2.435
 5757SOL    HW218171   6.605   6.498   2.588
 5758SOL     OW18172   3.161   1.621   4.095
 5758SOL    HW118173   3.184   1.715   4.068
 5758SOL    HW218174   3.223   1.557   4.049
 5759SOL     OW18175   4.700   1.601   6.262
 5759SOL    HW118176   4.611   1.647   6.265
 5759SOL    HW218177   4.689   1.509   6.223
 5760SOL     OW18178   1.648   5.199   1.980
 5760SOL    HW118179   1.609   5.216   1.890
 5760SOL    HW218180   1.747   5.217   1.978
 5761SOL     OW18181   5.277   0.435   6.001
 5761SOL    HW118182   5.242   0.375   6.073
 5761SOL    HW218183   5.268   0.389   5.913
 5762SOL     OW18184   4.697   6.988   6.985
 5762SOL    HW118185   4.779   0.016   6.963
 5762SOL    HW218186   4.710   6.940   0.048
 5763SOL     OW18187   0.283   0.339   0.334
 5763SOL    HW118188   0.378   0.310   0.336
 5763SOL    HW218189   0.239   0.317   0.421
 5764SOL     OW18190   5.416   4.649   6.550
 5764SOL    HW118191   5.495   4.590   6.564
 5764SOL    HW218192   5.364   4.618   6.471
 5765SOL     OW18193   6.554   4.081   6.560
 5765SOL    HW118194   6.626   4.012   6.570
 5765SOL    HW218195   6.537   4.097   6.463
 5766SOL     OW18196   2.762   1.723   1.069
 5766SOL    HW118197   2.684   1.783   1.050
 5766SOL    HW218198   2.847   1.768   1.040
 5767SOL     OW18199   2.692   6.927   0.442
 5767SOL    HW118200   2.749   6.923   0.360
 5767SOL    HW218201   2.607   6.877   0.426
 5768SOL     OW18202   0.094   6.929   3.060
 5768SOL    HW118203   0.126   6.954   3.152
 5768SOL    HW218204   0.140   6.846   3.030
 5769SOL     OW18205   2.495   0.049   3.515
 5769SOL    HW118206   2.462   0.024   3.605
 5769SOL    HW218207   2.514   0.147   3.512
 5770SOL     OW18208   0.208   6.664   0.928
 5770SOL    HW118209   0.272   6.710   0.866
 5770SOL    HW218210   0.253   6.586   0.971
 5771SOL     OW18211   1.379   5.873   1.920
 5771SOL    HW118212   1.307   5.873   1.851
 5771SOL    HW218213   1.351   5.816   1.997
 5772SOL     OW18214   5.918   2.833   0.472
 5772SOL    HW118215   5.977   2.755   0.450
 5772SOL    HW218216   5.975   2.914   0.489
 5773SOL     OW18217   5.700   0.719   3.980
 5773SOL    HW118218   5.716   0.634   3.929
 5773SOL    HW218219   5.602   0.736   3.987
 5774SOL     OW18220   2.520   5.431   4.150
 5774SOL    HW118221   2.557   5.479   4.229
 5774SOL    HW218222   2.582   5.357   4.123
 5775SOL     OW18223   1.593   6.946   1.280
 5775SOL    HW118224   1.604   6.895   1.195
 5775SOL    HW218225   1.519   6.904   1.334
 5776SOL     OW18226   7.012   1.038   6.159
 5776SOL    HW118227   6.966   0.965   6.209
 5776SOL    HW218228   6.963   1.056   6.074
 5777SOL     OW18229   6.183   0.719   4.483
 5777SOL    HW118230   6.257   0.778   4.515
 5777SOL    HW218231   6.210   0.676   4.396
 5778SOL     OW18232   2.042   0.189   1.676
 5778SOL    HW118233   2.077   0.113   1.730
 5778SOL    HW218234   1.972   0.156   1.612
 5779SOL     OW18235   4.453   0.624   1.436
 5779SOL    HW118236   4.380   0.689   1.458
 5779SOL    HW218237   4.414   0.534   1.416
 5780SOL     OW18238   6.354   5.141   2.098
 5780SOL    HW118239   6.338   5.052   2.057
 5780SOL    HW218240   6.397   5.202   2.032
 5781SOL     OW18241   1.585   4.283   4.930
 5781SOL    HW118242   1.493   4.262   4.896
 5781SOL    HW218243   1.623   4.360   4.878
 5782SOL     OW18244   1.561   1.097   1.520
 5782SOL    HW118245   1.512   1.066   1.439
 5782SOL    HW218246   1.659   1.085   1.507
 5783SOL     OW18247   1.700   1.149   0.890
 5783SOL    HW118248   1.645   1.095   0.953
 5783SOL    HW218249   1.796   1.147   0.919
 5784SOL     OW18250   0.587   6.485   0.447
 5784SOL    HW118251   0.603   6.464   0.350
 5784SOL    HW218252   0.656   6.438   0.502
 5785SOL     OW18253   1.623   1.668   1.171
 5785SOL    HW118254   1.609   1.626   1.261
 5785SOL    HW218255   1.536   1.701   1.136
 5786SOL     OW18256   1.133   3.892   0.983
 5786SOL    HW118257   1.097   3.969   0.930
 5786SOL    HW218258   1.232   3.899   0.991
 5787SOL     OW18259   4.983   2.438   4.345
 5787SOL    HW118260   4.933   2.363   4.300
 5787SOL    HW218261   4.973   2.521   4.291
 5788SOL     OW18262   3.123   0.231   1.306
 5788SOL    HW118263   3.194   0.188   1.362
 5788SOL    HW218264   3.072   0.161   1.257
 5789SOL     OW18265   3.776   2.337   6.375
 5789SOL    HW118266   3.707   2.276   6.413
 5789SOL    HW218267   3.732   2.421   6.343
 5790SOL     OW18268   6.715   5.704   5.374
 5790SOL    HW118269   6.783   5.691   5.302
 5790SOL    HW218270   6.673   5.795   5.364
 5791SOL     OW18271   3.387   1.545   2.488
 5791SOL    HW118272   3.398   1.467   2.425
 5791SOL    HW218273   3.474   1.561   2.536
 5792SOL     OW18274   5.009   3.718   3.206
 5792SOL    HW118275   5.108   3.711   3.215
 5792SOL    HW218276   4.987   3.757   3.116
 5793SOL     OW18277   6.308   1.825   5.709
 5793SOL    HW118278   6.222   1.790   5.673
 5793SOL    HW218279   6.322   1.789   5.801
 5794SOL     OW18280   3.257   6.874   6.556
 5794SOL    HW118281   3.283   6.970   6.562
 5794SOL    HW218282   3.194   6.852   6.630
 5795SOL     OW18283   0.969   6.314   1.735
 5795SOL    HW118284   1.060   6.280   1.714
 5795SOL    HW218285   0.939   6.378   1.664
 5796SOL     OW18286   4.580   1.006   6.897
 5796SOL    HW118287   4.656   1.046   6.846
 5796SOL    HW218288   4.500   1.066   6.890
 5797SOL     OW18289   5.586   1.390   0.298
 5797SOL    HW118290   5.651   1.405   0.372
 5797SOL    HW218291   5.495   1.370   0.336
 5798SOL     OW18292   1.082   4.070   4.523
 5798SOL    HW118293   1.127   4.153   4.556
 5798SOL    HW218294   1.083   4.001   4.595
 5799SOL     OW18295   0.800   6.730   2.718
 5799SOL    HW118296   0.716   6.700   2.764
 5799SOL    HW218297   0.783   6.737   2.620
 5800SOL     OW18298   0.891   0.045   0.895
 5800SOL    HW118299   0.840   7.016   0.963
 5800SOL    HW218300   0.838   0.047   0.810
 5801SOL     OW18301   2.477   2.614   3.414
 5801SOL    HW118302   2.520   2.614   3.323
 5801SOL    HW218303   2.411   2.688   3.419
 5802SOL     OW18304   5.910   3.492   2.698
 5802SOL    HW118305   6.008   3.511   2.701
 5802SOL    HW218306   5.863   3.550   2.764
 5803SOL     OW18307   0.640   4.748   3.898
 5803SOL    HW118308   0.541   4.765   3.906
 5803SOL    HW218309   0.682   4.752   3.988
 5804SOL     OW18310   6.801   6.512   3.576
 5804SOL    HW118311   6.885   6.498   3.627
 5804SOL    HW218312   6.815   6.484   3.481
 5805SOL     OW18313   1.176   3.089   1.007
 5805SOL    HW118314   1.137   3.036   1.083
 5805SOL    HW218315   1.190   3.184   1.036
 5806SOL     OW18316   6.962   4.069   4.419
 5806SOL    HW118317   6.888   4.135   4.435
 5806SOL    HW218318   0.026   4.113   4.439
 5807SOL     OW18319   1.353   6.062   1.330
 5807SOL    HW118320   1.307   6.143   1.293
 5807SOL    HW218321   1.437   6.090   1.376
 5808SOL     OW18322   6.673   6.987   4.543
 5808SOL    HW118323   6.657   6.896   4.506
 5808SOL    HW218324   6.631   0.031   4.483
 5809SOL     OW18325   0.416   2.310   5.768
 5809SOL    HW118326   0.474   2.240   5.809
 5809SOL    HW218327   0.413   2.390   5.828
 5810SOL     OW18328   4.171   0.088   4.613
 5810SOL    HW118329   4.146   0.079   4.517
 5810SOL    HW218330   4.259   0.134   4.621
 5811SOL     OW18331   2.569   2.343   5.538
 5811SOL    HW118332   2.530   2.352   5.630
 5811SOL    HW218333   2.495   2.341   5.471
 5812SOL     OW18334   6.001   3.494   6.926
 5812SOL    HW118335   5.912   3.490   6.882
 5812SOL    HW218336   6.007   3.577   6.981
 5813SOL     OW18337   3.027   6.153   1.131
 5813SOL    HW118338   3.059   6.244   1.103
 5813SOL    HW218339   2.989   6.159   1.223
 5814SOL     OW18340   6.890   2.056   1.953
 5814SOL    HW118341   6.910   2.115   2.031
 5814SOL    HW218342   6.917   1.962   1.975
 5815SOL     OW18343   5.750   1.971   4.116
 5815SOL    HW118344   5.749   1.985   4.017
 5815SOL    HW218345   5.683   2.031   4.159
 5816SOL     OW18346   0.112   5.201   1.888
 5816SOL    HW118347   0.101   5.277   1.952
 5816SOL    HW218348   0.086   5.116   1.933
 5817SOL     OW18349   5.828   4.384   5.280
 5817SOL    HW118350   5.904   4.430   5.327
 5817SOL    HW218351   5.751   4.376   5.343
 5818SOL     OW18352   1.024   5.587   5.313
 5818SOL    HW118353   1.020   5.504   5.258
 5818SOL    HW218354   1.017   5.667   5.253
 5819SOL     OW18355   2.859   5.044   6.964
 5819SOL    HW118356   2.846   4.974   6.894
 5819SOL    HW218357   2.864   5.134   6.921
 5820SOL     OW18358   4.687   4.860   2.228
 5820SOL    HW118359   4.625   4.918   2.281
 5820SOL    HW218360   4.634   4.808   2.161
 5821SOL     OW18361   6.545   0.895   1.581
 5821SOL    HW118362   6.625   0.907   1.640
 5821SOL    HW218363   6.560   0.817   1.519
 5822SOL     OW18364   1.272   2.346   2.756
 5822SOL    HW118365   1.299   2.287   2.832
 5822SOL    HW218366   1.213   2.419   2.790
 5823SOL     OW18367   2.128   6.466   4.324
 5823SOL    HW118368   2.207   6.497   4.271
 5823SOL    HW218369   2.136   6.368   4.342
 5824SOL     OW18370   1.043   0.019   2.385
 5824SOL    HW118371   0.972   0.040   2.452
 5824SOL    HW218372   1.005   0.027   2.293
 5825SOL     OW18373   0.158   6.197   4.724
 5825SOL    HW118374   0.195   6.222   4.814
 5825SOL    HW218375   0.115   6.107   4.730
 5826SOL     OW18376   6.971   0.185   5.475
 5826SOL    HW118377   6.961   0.262   5.412
 5826SOL    HW218378   6.883   0.141   5.488
 5827SOL     OW18379   1.052   3.730   5.225
 5827SOL    HW118380   0.985   3.657   5.214
 5827SOL    HW218381   1.005   3.818   5.232
 5828SOL     OW18382   5.245   0.591   3.988
 5828SOL    HW118383   5.274   0.499   4.014
 5828SOL    HW218384   5.237   0.596   3.889
 5829SOL     OW18385   1.329   0.575   5.087
 5829SOL    HW118386   1.260   0.558   5.157
 5829SOL    HW218387   1.380   0.658   5.111
 5830SOL     OW18388   4.341   5.405   5.639
 5830SOL    HW118389   4.409   5.405   5.712
 5830SOL    HW218390   4.270   5.337   5.660
 5831SOL     OW18391   0.817   1.773   5.455
 5831SOL    HW118392   0.727   1.742   5.422
 5831SOL    HW218393   0.806   1.857   5.507
 5832SOL     OW18394   3.578   4.397   1.445
 5832SOL    HW118395   3.566   4.495   1.430
 5832SOL    HW218396   3.553   4.347   1.362
 5833SOL     OW18397   4.293   3.633   5.344
 5833SOL    HW118398   4.298   3.616   5.245
 5833SOL    HW218399   4.197   3.642   5.371
 5834SOL     OW18400   6.764   3.653   6.583
 5834SOL    HW118401   6.666   3.634   6.580
 5834SOL    HW218402   6.811   3.594   6.517
 5835SOL     OW18403   6.009   1.545   2.623
 5835SOL    HW118404   5.960   1.587   2.547
 5835SOL    HW218405   6.086   1.490   2.588
 5836SOL     OW18406   3.248   6.622   2.250
 5836SOL    HW118407   3.187   6.678   2.306
 5836SOL    HW218408   3.320   6.680   2.211
 5837SOL     OW18409   3.705   4.110   0.106
 5837SOL    HW118410   3.754   4.022   0.113
 5837SOL    HW218411   3.723   4.165   0.188
 5838SOL     OW18412   2.567   1.868   1.309
 5838SOL    HW118413   2.648   1.854   1.366
 5838SOL    HW218414   2.488   1.823   1.351
 5839SOL     OW18415   0.437   2.798   1.389
 5839SOL    HW118416   0.503   2.869   1.412
 5839SOL    HW218417   0.464   2.754   1.304
 5840SOL     OW18418   0.182   3.983   1.730
 5840SOL    HW118419   0.118   4.058   1.710
 5840SOL    HW218420   0.235   4.007   1.811
 5841SOL     OW18421   4.895   0.920   1.830
 5841SOL    HW118422   4.940   0.861   1.763
 5841SOL    HW218423   4.860   0.864   1.905
 5842SOL     OW18424   3.807   2.162   0.356
 5842SOL    HW118425   3.811   2.158   0.456
 5842SOL    HW218426   3.713   2.181   0.327
 5843SOL     OW18427   2.259   3.824   1.327
 5843SOL    HW118428   2.301   3.739   1.356
 5843SOL    HW218429   2.203   3.808   1.246
 5844SOL     OW18430   0.565   6.254   4.899
 5844SOL    HW118431   0.518   6.209   4.975
 5844SOL    HW218432   0.661   6.269   4.922
 5845SOL     OW18433   0.361   0.159   1.727
 5845SOL    HW118434   0.337   0.071   1.768
 5845SOL    HW218435   0.279   0.199   1.685
 5846SOL     OW18436   6.502   3.976   5.549
 5846SOL    HW118437   6.403   3.992   5.545
 5846SOL    HW218438   6.529   3.913   5.476
 5847SOL     OW18439   2.792   2.751   1.613
 5847SOL    HW118440   2.849   2.669   1.616
 5847SOL    HW218441   2.712   2.738   1.672
 5848SOL     OW18442   2.147   6.279   4.055
 5848SOL    HW118443   2.123   6.375   4.071
 5848SOL    HW218444   2.091   6.221   4.114
 5849SOL     OW18445   2.040   6.503   5.547
 5849SOL    HW118446   2.027   6.583   5.605
 5849SOL    HW218447   1.981   6.510   5.467
 5850SOL     OW18448   1.214   3.122   1.688
 5850SOL    HW118449   1.256   3.184   1.754
 5850SOL    HW218450   1.182   3.175   1.609
 5851SOL     OW18451   5.396   3.700   3.782
 5851SOL    HW118452   5.461   3.645   3.730
 5851SOL    HW218453   5.446   3.762   3.842
 5852SOL     OW18454   4.352   5.958   3.021
 5852SOL    HW118455   4.369   5.893   3.095
 5852SOL    HW218456   4.434   5.967   2.965
 5853SOL     OW18457   4.250   4.846   5.064
 5853SOL    HW118458   4.312   4.809   4.994
 5853SOL    HW218459   4.302   4.904   5.126
 5854SOL     OW18460   3.966   4.394   5.351
 5854SOL    HW118461   3.898   4.455   5.390
 5854SOL    HW218462   4.058   4.431   5.369
 5855SOL     OW18463   2.264   2.897   3.972
 5855SOL    HW118464   2.209   2.960   4.027
 5855SOL    HW218465   2.304   2.827   4.031
 5856SOL     OW18466   1.303   6.804   2.606
 5856SOL    HW118467   1.382   6.752   2.574
 5856SOL    HW218468   1.274   6.868   2.535
 5857SOL     OW18469   0.119   3.151   5.755
 5857SOL    HW118470   0.068   3.227   5.716
 5857SOL    HW218471   0.210   3.181   5.782
 5858SOL     OW18472   2.540   2.159   2.661
 5858SOL    HW118473   2.588   2.092   2.717
 5858SOL    HW218474   2.592   2.244   2.656
 5859SOL     OW18475   5.629   6.424   1.813
 5859SOL    HW118476   5.692   6.499   1.792
 5859SOL    HW218477   5.566   6.453   1.885
 5860SOL     OW18478   0.805   4.525   3.152
 5860SOL    HW118479   0.766   4.560   3.067
 5860SOL    HW218480   0.778   4.430   3.165
 5861SOL     OW18481   5.539   0.612   4.890
 5861SOL    HW118482   5.627   0.658   4.875
 5861SOL    HW218483   5.521   0.606   4.988
 5862SOL     OW18484   6.183   5.938   2.400
 5862SOL    HW118485   6.106   5.887   2.361
 5862SOL    HW218486   6.255   5.875   2.428
 5863SOL     OW18487   3.257   1.127   4.141
 5863SOL    HW118488   3.322   1.136   4.217
 5863SOL    HW218489   3.163   1.131   4.176
 5864SOL     OW18490   3.379   3.608   2.905
 5864SOL    HW118491   3.403   3.704   2.914
 5864SOL    HW218492   3.459   3.556   2.876
 5865SOL     OW18493   5.638   0.762   5.401
 5865SOL    HW118494   5.625   0.801   5.493
 5865SOL    HW218495   5.664   0.666   5.409
 5866SOL     OW18496   3.066   3.112   0.754
 5866SOL    HW118497   3.019   3.075   0.833
 5866SOL    HW218498   3.113   3.039   0.705
 5867SOL     OW18499   2.063   1.947   1.622
 5867SOL    HW118500   2.034   2.020   1.560
 5867SOL    HW218501   2.153   1.913   1.594
 5868SOL     OW18502   1.010   2.162   5.814
 5868SOL    HW118503   1.031   2.071   5.779
 5868SOL    HW218504   0.920   2.163   5.857
 5869SOL     OW18505   1.428   4.458   3.845
 5869SOL    HW118506   1.523   4.470   3.875
 5869SOL    HW218507   1.380   4.399   3.910
 5870SOL     OW18508   4.110   5.140   5.527
 5870SOL    HW118509   4.124   5.156   5.430
 5870SOL    HW218510   4.077   5.047   5.542
 5871SOL     OW18511   3.941   3.986   2.680
 5871SOL    HW118512   3.934   4.033   2.591
 5871SOL    HW218513   3.849   3.968   2.715
 5872SOL     OW18514   4.024   6.179   1.536
 5872SOL    HW118515   4.064   6.088   1.529
 5872SOL    HW218516   4.059   6.237   1.461
 5873SOL     OW18517   2.903   5.653   2.155
 5873SOL    HW118518   2.921   5.601   2.072
 5873SOL    HW218519   2.975   5.722   2.167
 5874SOL     OW18520   2.336   4.187   5.335
 5874SOL    HW118521   2.383   4.112   5.288
 5874SOL    HW218522   2.268   4.150   5.398
 5875SOL     OW18523   3.405   2.125   0.233
 5875SOL    HW118524   3.481   2.190   0.229
 5875SOL    HW218525   3.319   2.175   0.224
 5876SOL     OW18526   3.851   3.402   2.292
 5876SOL    HW118527   3.793   3.355   2.224
 5876SOL    HW218528   3.917   3.337   2.329
 5877SOL     OW18529   6.026   6.309   0.511
 5877SOL    HW118530   5.974   6.265   0.439
 5877SOL    HW218531   6.013   6.408   0.507
 5878SOL     OW18532   1.446   6.140   4.019
 5878SOL    HW118533   1.529   6.195   4.033
 5878SOL    HW218534   1.368   6.201   4.003
 5879SOL     OW18535   0.237   3.686   0.658
 5879SOL    HW118536   0.188   3.761   0.614
 5879SOL    HW218537   0.336   3.703   0.652
 5880SOL     OW18538   2.780   5.148   0.769
 5880SOL    HW118539   2.729   5.153   0.684
 5880SOL    HW218540   2.878   5.156   0.751
 5881SOL     OW18541   0.527   4.740   3.187
 5881SOL    HW118542   0.615   4.774   3.220
 5881SOL    HW218543   0.454   4.770   3.248
 5882SOL     OW18544   6.313   6.319   1.438
 5882SOL    HW118545   6.219   6.288   1.430
 5882SOL    HW218546   6.362   6.301   1.353
 5883SOL     OW18547   0.876   2.223   6.691
 5883SOL    HW118548   0.887   2.140   6.746
 5883SOL    HW218549   0.965   2.264   6.675
 5884SOL     OW18550   2.337   1.325   3.627
 5884SOL    HW118551   2.354   1.296   3.721
 5884SOL    HW218552   2.396   1.403   3.605
 5885SOL     OW18553   6.638   6.783   1.973
 5885SOL    HW118554   6.646   6.686   1.995
 5885SOL    HW218555   6.547   6.803   1.938
 5886SOL     OW18556   0.504   1.881   5.067
 5886SOL    HW118557   0.498   1.950   4.995
 5886SOL    HW218558   0.419   1.879   5.119
 5887SOL     OW18559   3.673   0.665   3.321
 5887SOL    HW118560   3.772   0.673   3.320
 5887SOL    HW218561   3.646   0.575   3.287
 5888SOL     OW18562   2.480   0.643   2.712
 5888SOL    HW118563   2.445   0.690   2.793
 5888SOL    HW218564   2.434   0.554   2.703
 5889SOL     OW18565   1.700   6.636   1.055
 5889SOL    HW118566   1.671   6.558   0.999
 5889SOL    HW218567   1.770   6.606   1.120
 5890SOL     OW18568   1.027   6.916   5.936
 5890SOL    HW118569   1.049   6.880   6.026
 5890SOL    HW218570   1.023   6.841   5.870
 5891SOL     OW18571   3.411   3.173   5.803
 5891SOL    HW118572   3.360   3.095   5.766
 5891SOL    HW218573   3.504   3.174   5.766
 5892SOL     OW18574   0.821   5.919   1.286
 5892SOL    HW118575   0.833   5.926   1.187
 5892SOL    HW218576   0.907   5.942   1.332
 5893SOL     OW18577   1.413   4.200   3.688
 5893SOL    HW118578   1.489   4.227   3.628
 5893SOL    HW218579   1.405   4.266   3.763
 5894SOL     OW18580   0.820   5.567   3.213
 5894SOL    HW118581   0.794   5.548   3.307
 5894SOL    HW218582   0.895   5.634   3.212
 5895SOL     OW18583   5.238   3.160   3.895
 5895SOL    HW118584   5.287   3.172   3.981
 5895SOL    HW218585   5.253   3.067   3.861
 5896SOL     OW18586   3.892   1.441   0.286
 5896SOL    HW118587   3.812   1.380   0.292
 5896SOL    HW218588   3.867   1.523   0.234
 5897SOL     OW18589   3.717   0.371   1.573
 5897SOL    HW118590   3.802   0.318   1.576
 5897SOL    HW218591   3.670   0.364   1.661
 5898SOL     OW18592   1.950   6.772   3.302
 5898SOL    HW118593   1.909   6.835   3.368
 5898SOL    HW218594   1.885   6.699   3.281
 5899SOL     OW18595   4.839   6.489   5.672
 5899SOL    HW118596   4.933   6.520   5.655
 5899SOL    HW218597   4.834   6.390   5.661
 5900SOL     OW18598   4.507   5.433   3.699
 5900SOL    HW118599   4.594   5.449   3.745
 5900SOL    HW218600   4.524   5.394   3.608
 5901SOL     OW18601   3.082   0.239   6.965
 5901SOL    HW118602   3.117   0.331   6.949
 5901SOL    HW218603   3.001   0.224   6.908
 5902SOL     OW18604   0.076   2.522   6.946
 5902SOL    HW118605   0.045   2.456   6.878
 5902SOL    HW218606   0.085   2.475   0.010
 5903SOL     OW18607   4.468   3.858   0.744
 5903SOL    HW118608   4.517   3.944   0.751
 5903SOL    HW218609   4.407   3.847   0.822
 5904SOL     OW18610   1.089   3.708   2.011
 5904SOL    HW118611   1.067   3.695   1.914
 5904SOL    HW218612   1.021   3.662   2.068
 5905SOL     OW18613   6.883   6.034   3.114
 5905SOL    HW118614   6.845   5.986   3.035
 5905SOL    HW218615   6.828   6.015   3.195
 5906SOL     OW18616   4.744   1.217   4.540
 5906SOL    HW118617   4.780   1.139   4.489
 5906SOL    HW218618   4.668   1.188   4.598
 5907SOL     OW18619   1.842   6.022   2.645
 5907SOL    HW118620   1.823   5.933   2.686
 5907SOL    HW218621   1.907   6.011   2.569
 5908SOL     OW18622   1.015   2.321   5.592
 5908SOL    HW118623   0.920   2.333   5.561
 5908SOL    HW218624   1.017   2.259   5.670
 5909SOL     OW18625   6.787   5.325   1.028
 5909SOL    HW118626   6.807   5.391   0.955
 5909SOL    HW218627   6.770   5.235   0.987
 5910SOL     OW18628   0.908   2.869   3.566
 5910SOL    HW118629   0.996   2.864   3.520
 5910SOL    HW218630   0.884   2.964   3.583
 5911SOL     OW18631   6.530   5.699   6.695
 5911SOL    HW118632   6.475   5.779   6.718
 5911SOL    HW218633   6.492   5.656   6.613
 5912SOL     OW18634   6.434   1.130   5.172
 5912SOL    HW118635   6.394   1.174   5.252
 5912SOL    HW218636   6.364   1.075   5.125
 5913SOL     OW18637   4.360   2.646   6.561
 5913SOL    HW118638   4.436   2.618   6.621
 5913SOL    HW218639   4.397   2.675   6.473
 5914SOL     OW18640   0.686   6.427   6.871
 5914SOL    HW118641   0.768   6.483   6.861
 5914SOL    HW218642   0.712   6.334   6.898
 5915SOL     OW18643   4.222   5.953   0.754
 5915SOL    HW118644   4.184   5.862   0.768
 5915SOL    HW218645   4.313   5.944   0.713
 5916SOL     OW18646   6.948   6.399   2.557
 5916SOL    HW118647   7.006   6.474   2.526
 5916SOL    HW218648   6.995   6.312   2.543
 5917SOL     OW18649   3.366   3.873   5.082
 5917SOL    HW118650   3.336   3.914   5.168
 5917SOL    HW218651   3.315   3.913   5.006
 5918SOL     OW18652   1.886   4.938   5.876
 5918SOL    HW118653   1.961   4.883   5.914
 5918SOL    HW218654   1.805   4.880   5.865
 5919SOL     OW18655   2.864   3.402   2.606
 5919SOL    HW118656   2.771   3.420   2.572
 5919SOL    HW218657   2.912   3.342   2.542
 5920SOL     OW18658   5.230   0.525   6.254
 5920SOL    HW118659   5.261   0.492   6.165
 5920SOL    HW218660   5.153   0.587   6.242
 5921SOL     OW18661   4.195   5.282   6.335
 5921SOL    HW118662   4.176   5.184   6.335
 5921SOL    HW218663   4.109   5.333   6.336
 5922SOL     OW18664   6.146   3.971   4.345
 5922SOL    HW118665   6.188   3.904   4.284
 5922SOL    HW218666   6.055   3.941   4.372
 5923SOL     OW18667   6.751   1.003   2.208
 5923SOL    HW118668   6.762   1.015   2.110
 5923SOL    HW218669   6.760   0.906   2.232
 5924SOL     OW18670   5.820   6.891   2.385
 5924SOL    HW118671   5.840   6.812   2.328
 5924SOL    HW218672   5.893   6.904   2.452
 5925SOL     OW18673   3.621   6.293   2.068
 5925SOL    HW118674   3.597   6.352   1.991
 5925SOL    HW218675   3.550   6.299   2.138
 5926SOL     OW18676   4.649   4.545   2.554
 5926SOL    HW118677   4.665   4.535   2.456
 5926SOL    HW218678   4.731   4.518   2.604
 5927SOL     OW18679   1.123   4.280   1.842
 5927SOL    HW118680   1.168   4.191   1.838
 5927SOL    HW218681   1.157   4.332   1.920
 5928SOL     OW18682   3.568   6.697   1.605
 5928SOL    HW118683   3.482   6.708   1.656
 5928SOL    HW218684   3.548   6.665   1.513
 5929SOL     OW18685   5.557   0.531   5.629
 5929SOL    HW118686   5.514   0.442   5.644
 5929SOL    HW218687   5.500   0.603   5.669
 5930SOL     OW18688   0.996   2.839   2.925
 5930SOL    HW118689   1.072   2.871   2.868
 5930SOL    HW218690   0.920   2.812   2.865
 5931SOL     OW18691   6.282   6.022   2.684
 5931SOL    HW118692   6.198   6.059   2.646
 5931SOL    HW218693   6.322   5.957   2.620
 5932SOL     OW18694   3.393   0.129   0.097
 5932SOL    HW118695   3.450   0.058   0.138
 5932SOL    HW218696   3.324   0.158   0.164
 5933SOL     OW18697   6.869   4.910   4.338
 5933SOL    HW118698   6.893   4.949   4.249
 5933SOL    HW218699   6.775   4.936   4.362
 5934SOL     OW18700   3.692   2.701   5.346
 5934SOL    HW118701   3.691   2.756   5.429
 5934SOL    HW218702   3.787   2.677   5.323
 5935SOL     OW18703   0.105   5.389   5.943
 5935SOL    HW118704   0.182   5.335   5.977
 5935SOL    HW218705   0.125   5.487   5.954
 5936SOL     OW18706   2.979   3.613   1.978
 5936SOL    HW118707   3.056   3.558   2.010
 5936SOL    HW218708   2.901   3.553   1.960
 5937SOL     OW18709   6.034   3.233   2.062
 5937SOL    HW118710   6.064   3.142   2.035
 5937SOL    HW218711   5.949   3.256   2.014
 5938SOL     OW18712   6.485   6.343   4.607
 5938SOL    HW118713   6.493   6.322   4.704
 5938SOL    HW218714   6.498   6.441   4.594
 5939SOL     OW18715   2.994   6.314   4.324
 5939SOL    HW118716   3.018   6.238   4.264
 5939SOL    HW218717   2.899   6.339   4.309
 5940SOL     OW18718   4.155   5.246   3.753
 5940SOL    HW118719   4.206   5.294   3.824
 5940SOL    HW218720   4.128   5.156   3.786
 5941SOL     OW18721   5.477   2.872   2.901
 5941SOL    HW118722   5.422   2.894   2.820
 5941SOL    HW218723   5.532   2.952   2.925
 5942SOL     OW18724   5.419   3.699   6.753
 5942SOL    HW118725   5.411   3.600   6.767
 5942SOL    HW218726   5.338   3.733   6.706
 5943SOL     OW18727   3.211   3.275   6.270
 5943SOL    HW118728   3.279   3.307   6.204
 5943SOL    HW218729   3.257   3.222   6.341
 5944SOL     OW18730   0.991   2.484   0.568
 5944SOL    HW118731   1.051   2.481   0.489
 5944SOL    HW218732   0.895   2.490   0.538
 5945SOL     OW18733   0.253   5.441   5.194
 5945SOL    HW118734   0.217   5.389   5.272
 5945SOL    HW218735   0.345   5.473   5.215
 5946SOL     OW18736   3.430   4.448   0.144
 5946SOL    HW118737   3.363   4.380   0.117
 5946SOL    HW218738   3.387   4.513   0.208
 5947SOL     OW18739   3.269   3.541   3.134
 5947SOL    HW118740   3.268   3.622   3.192
 5947SOL    HW218741   3.319   3.561   3.050
 5948SOL     OW18742   4.157   4.714   2.491
 5948SOL    HW118743   4.137   4.618   2.513
 5948SOL    HW218744   4.123   4.735   2.399
 5949SOL     OW18745   5.468   5.127   1.111
 5949SOL    HW118746   5.393   5.069   1.142
 5949SOL    HW218747   5.452   5.221   1.143
 5950SOL     OW18748   5.542   2.131   5.021
 5950SOL    HW118749   5.492   2.139   4.935
 5950SOL    HW218750   5.641   2.130   5.002
 5951SOL     OW18751   0.788   5.321   5.370
 5951SOL    HW118752   0.714   5.389   5.371
 5951SOL    HW218753   0.851   5.340   5.445
 5952SOL     OW18754   4.861   5.650   3.409
 5952SOL    HW118755   4.796   5.719   3.441
 5952SOL    HW218756   4.953   5.688   3.412
 5953SOL     OW18757   6.794   4.422   5.144
 5953SOL    HW118758   6.709   4.371   5.140
 5953SOL    HW218759   6.798   4.486   5.067
 5954SOL     OW18760   0.040   5.400   4.982
 5954SOL    HW118761   7.011   5.317   4.995
 5954SOL    HW218762   0.105   5.411   5.058
 5955SOL     OW18763   4.333   4.894   2.226
 5955SOL    HW118764   4.249   4.947   2.234
 5955SOL    HW218765   4.386   4.902   2.311
 5956SOL     OW18766   5.816   2.086   3.865
 5956SOL    HW118767   5.855   2.059   3.778
 5956SOL    HW218768   5.738   2.147   3.849
 5957SOL     OW18769   2.881   1.752   4.088
 5957SOL    HW118770   2.894   1.825   4.155
 5957SOL    HW218771   2.881   1.664   4.135
 5958SOL     OW18772   4.065   0.440   2.394
 5958SOL    HW118773   4.025   0.353   2.364
 5958SOL    HW218774   4.149   0.422   2.444
 5959SOL     OW18775   4.837   2.476   5.486
 5959SOL    HW118776   4.831   2.573   5.510
 5959SOL    HW218777   4.808   2.420   5.564
 5960SOL     OW18778   3.525   6.007   4.589
 5960SOL    HW118779   3.524   5.952   4.505
 5960SOL    HW218780   3.445   6.067   4.590
 5961SOL     OW18781   4.441   1.700   2.684
 5961SOL    HW118782   4.427   1.677   2.780
 5961SOL    HW218783   4.531   1.741   2.672
 5962SOL     OW18784   5.557   5.779   5.722
 5962SOL    HW118785   5.600   5.720   5.654
 5962SOL    HW218786   5.590   5.873   5.710
 5963SOL     OW18787   3.165   3.748   6.318
 5963SOL    HW118788   3.234   3.687   6.279
 5963SOL    HW218789   3.101   3.695   6.373
 5964SOL     OW18790   1.904   6.725   4.754
 5964SOL    HW118791   1.978   6.686   4.699
 5964SOL    HW218792   1.843   6.777   4.694
 5965SOL     OW18793   2.401   0.979   0.202
 5965SOL    HW118794   2.362   0.975   0.110
 5965SOL    HW218795   2.499   0.959   0.198
 5966SOL     OW18796   1.134   6.546   6.530
 5966SOL    HW118797   1.150   6.593   6.617
 5966SOL    HW218798   1.097   6.455   6.547
 5967SOL     OW18799   2.301   0.310   6.077
 5967SOL    HW118800   2.267   0.216   6.070
 5967SOL    HW218801   2.223   0.373   6.081
 5968SOL     OW18802   5.644   2.027   6.904
 5968SOL    HW118803   5.619   2.123   6.905
 5968SOL    HW218804   5.574   1.974   6.856
 5969SOL     OW18805   5.562   1.118   0.156
 5969SOL    HW118806   5.594   1.095   0.248
 5969SOL    HW218807   5.554   1.217   0.147
 5970SOL     OW18808   0.652   4.813   0.909
 5970SOL    HW118809   0.586   4.813   0.834
 5970SOL    HW218810   0.640   4.730   0.964
 5971SOL     OW18811   0.059   0.526   0.921
 5971SOL    HW118812   0.129   0.472   0.969
 5971SOL    HW218813   0.075   0.520   0.823
 5972SOL     OW18814   4.877   6.037   6.606
 5972SOL    HW118815   4.871   6.079   6.515
 5972SOL    HW218816   4.836   6.098   6.674
 5973SOL     OW18817   1.878   2.830   2.819
 5973SOL    HW118818   1.901   2.897   2.890
 5973SOL    HW218819   1.922   2.743   2.840
 5974SOL     OW18820   5.109   0.065   0.080
 5974SOL    HW118821   5.113   7.022   0.155
 5974SOL    HW218822   5.062   0.147   0.112
 5975SOL     OW18823   4.032   6.427   1.105
 5975SOL    HW118824   4.040   6.488   1.026
 5975SOL    HW218825   3.993   6.479   1.182
 5976SOL     OW18826   3.701   2.903   5.511
 5976SOL    HW118827   3.691   2.987   5.457
 5976SOL    HW218828   3.623   2.893   5.573
 5977SOL     OW18829   1.038   5.863   0.207
 5977SOL    HW118830   0.949   5.832   0.175
 5977SOL    HW218831   1.026   5.938   0.272
 5978SOL     OW18832   3.201   5.739   1.659
 5978SOL    HW118833   3.205   5.707   1.753
 5978SOL    HW218834   3.293   5.747   1.621
 5979SOL     OW18835   6.756   0.577   2.020
 5979SOL    HW118836   6.799   0.587   2.110
 5979SOL    HW218837   6.746   0.480   1.998
 5980SOL     OW18838   4.098   3.701   1.296
 5980SOL    HW118839   4.191   3.684   1.329
 5980SOL    HW218840   4.096   3.786   1.243
 5981SOL     OW18841   5.146   1.643   6.939
 5981SOL    HW118842   5.118   1.626   0.009
 5981SOL    HW218843   5.245   1.646   6.933
 5982SOL     OW18844   5.998   1.968   2.523
 5982SOL    HW118845   5.908   1.964   2.566
 5982SOL    HW218846   6.015   1.885   2.471
 5983SOL     OW18847   1.213   1.215   4.258
 5983SOL    HW118848   1.114   1.208   4.260
 5983SOL    HW218849   1.252   1.123   4.250
 5984SOL     OW18850   4.936   6.801   3.294
 5984SOL    HW118851   4.926   6.778   3.197
 5984SOL    HW218852   4.943   6.717   3.348
 5985SOL     OW18853   6.676   3.045   3.638
 5985SOL    HW118854   6.661   3.143   3.652
 5985SOL    HW218855   6.705   3.003   3.724
 5986SOL     OW18856   3.611   3.855   5.197
 5986SOL    HW118857   3.663   3.940   5.194
 5986SOL    HW218858   3.529   3.863   5.140
 5987SOL     OW18859   5.692   0.331   4.700
 5987SOL    HW118860   5.610   0.308   4.647
 5987SOL    HW218861   5.677   0.415   4.750
 5988SOL     OW18862   4.104   0.423   6.763
 5988SOL    HW118863   4.161   0.458   6.688
 5988SOL    HW218864   4.034   0.491   6.786
 5989SOL     OW18865   1.788   5.430   6.033
 5989SOL    HW118866   1.806   5.427   6.131
 5989SOL    HW218867   1.695   5.462   6.017
 5990SOL     OW18868   3.644   3.667   6.913
 5990SOL    HW118869   3.738   3.702   6.916
 5990SOL    HW218870   3.580   3.744   6.920
 5991SOL     OW18871   4.546   5.980   6.758
 5991SOL    HW118872   4.492   5.966   6.841
 5991SOL    HW218873   4.547   5.896   6.703
 5992SOL     OW18874   3.448   0.064   2.087
 5992SOL    HW118875   3.515   0.056   2.160
 5992SOL    HW218876   3.419   0.160   2.078
 5993SOL     OW18877   4.588   3.774   6.030
 5993SOL    HW118878   4.533   3.782   6.113
 5993SOL    HW218879   4.561   3.692   5.980
 5994SOL     OW18880   6.485   2.166   0.205
 5994SOL    HW118881   6.568   2.177   0.259
 5994SOL    HW218882   6.407   2.202   0.257
 5995SOL     OW18883   5.194   3.470   2.255
 5995SOL    HW118884   5.105   3.514   2.265
 5995SOL    HW218885   5.229   3.486   2.163
 5996SOL     OW18886   0.830   5.591   1.238
 5996SOL    HW118887   0.768   5.555   1.168
 5996SOL    HW218888   0.810   5.688   1.254
 5997SOL     OW18889   1.109   6.158   3.120
 5997SOL    HW118890   1.183   6.150   3.053
 5997SOL    HW218891   1.120   6.242   3.172
 5998SOL     OW18892   6.342   1.667   2.374
 5998SOL    HW118893   6.370   1.700   2.284
 5998SOL    HW218894   6.323   1.569   2.370
 5999SOL     OW18895   3.045   2.899   1.555
 5999SOL    HW118896   2.971   2.893   1.622
 5999SOL    HW218897   3.013   2.864   1.467
 6000SOL     OW18898   1.186   6.339   0.774
 6000SOL    HW118899   1.130   6.394   0.711
 6000SOL    HW218900   1.235   6.399   0.836
 6001SOL     OW18901   6.732   4.840   0.062
 6001SOL    HW118902   6.676   4.903   0.115
 6001SOL    HW218903   6.679   4.758   0.040
 6002SOL     OW18904   6.516   6.928   6.114
 6002SOL    HW118905   6.463   7.002   6.156
 6002SOL    HW218906   6.460   6.845   6.112
 6003SOL     OW18907   6.187   2.313   5.039
 6003SOL    HW118908   6.142   2.379   4.979
 6003SOL    HW218909   6.123   2.239   5.060
 6004SOL     OW18910   6.124   2.619   3.733
 6004SOL    HW118911   6.087   2.539   3.782
 6004SOL    HW218912   6.222   2.605   3.717
 6005SOL     OW18913   6.230   4.810   4.621
 6005SOL    HW118914   6.200   4.721   4.655
 6005SOL    HW218915   6.216   4.880   4.691
 6006SOL     OW18916   2.824   0.917   4.825
 6006SOL    HW118917   2.920   0.932   4.847
 6006SOL    HW218918   2.815   0.837   4.766
 6007SOL     OW18919   0.004   3.354   6.120
 6007SOL    HW118920   6.988   3.445   6.112
 6007SOL    HW218921   7.024   3.323   6.215
 6008SOL     OW18922   2.800   4.767   5.545
 6008SOL    HW118923   2.784   4.722   5.457
 6008SOL    HW218924   2.728   4.834   5.562
 6009SOL     OW18925   3.777   6.993   3.349
 6009SOL    HW118926   3.696   6.996   3.408
 6009SOL    HW218927   3.859   6.993   3.406
 6010SOL     OW18928   0.737   4.304   3.651
 6010SOL    HW118929   0.704   4.392   3.686
 6010SOL    HW218930   0.672   4.232   3.676
 6011SOL     OW18931   4.968   3.181   3.127
 6011SOL    HW118932   5.060   3.143   3.122
 6011SOL    HW218933   4.972   3.271   3.170
 6012SOL     OW18934   6.142   0.325   0.604
 6012SOL    HW118935   6.230   0.298   0.641
 6012SOL    HW218936   6.155   0.401   0.540
 6013SOL     OW18937   5.027   0.987   3.104
 6013SOL    HW118938   4.979   0.975   3.017
 6013SOL    HW218939   4.966   0.965   3.180
 6014SOL     OW18940   3.154   4.045   3.358
 6014SOL    HW118941   3.131   4.137   3.391
 6014SOL    HW218942   3.251   4.041   3.336
 6015SOL     OW18943   5.997   3.819   4.769
 6015SOL    HW118944   6.048   3.846   4.688
 6015SOL    HW218945   5.902   3.846   4.760
 6016SOL     OW18946   6.028   1.538   5.805
 6016SOL    HW118947   6.085   1.458   5.785
 6016SOL    HW218948   6.046   1.610   5.737
 6017SOL     OW18949   6.522   4.955   4.165
 6017SOL    HW118950   6.558   4.924   4.253
 6017SOL    HW218951   6.558   5.046   4.145
 6018SOL     OW18952   3.367   1.386   5.372
 6018SOL    HW118953   3.338   1.351   5.283
 6018SOL    HW218954   3.456   1.348   5.396
 6019SOL     OW18955   0.651   3.354   5.380
 6019SOL    HW118956   0.677   3.321   5.471
 6019SOL    HW218957   0.595   3.286   5.334
 6020SOL     OW18958   1.476   5.652   0.224
 6020SOL    HW118959   1.379   5.639   0.244
 6020SOL    HW218960   1.526   5.567   0.239
 6021SOL     OW18961   4.456   0.384   2.911
 6021SOL    HW118962   4.434   0.337   2.826
 6021SOL    HW218963   4.374   0.429   2.946
 6022SOL     OW18964   0.119   1.741   3.452
 6022SOL    HW118965   0.074   1.667   3.401
 6022SOL    HW218966   0.092   1.829   3.413
 6023SOL     OW18967   4.913   0.521   1.917
 6023SOL    HW118968   4.953   0.467   1.991
 6023SOL    HW218969   4.858   0.595   1.956
 6024SOL     OW18970   1.319   4.519   1.021
 6024SOL    HW118971   1.360   4.494   1.109
 6024SOL    HW218972   1.300   4.617   1.020
 6025SOL     OW18973   3.243   2.112   2.933
 6025SOL    HW118974   3.257   2.072   3.024
 6025SOL    HW218975   3.331   2.134   2.892
 6026SOL     OW18976   0.222   5.773   4.631
 6026SOL    HW118977   0.234   5.709   4.555
 6026SOL    HW218978   0.195   5.722   4.713
 6027SOL     OW18979   0.119   3.524   6.431
 6027SOL    HW118980   0.155   3.549   6.341
 6027SOL    HW218981   0.019   3.522   6.428
 6028SOL     OW18982   5.591   4.428   1.217
 6028SOL    HW118983   5.550   4.362   1.154
 6028SOL    HW218984   5.686   4.403   1.235
 6029SOL     OW18985   2.840   6.830   3.613
 6029SOL    HW118986   2.931   6.830   3.572
 6029SOL    HW218987   2.845   6.865   3.707
 6030SOL     OW18988   5.226   4.222   4.466
 6030SOL    HW118989   5.256   4.184   4.553
 6030SOL    HW218990   5.300   4.212   4.398
 6031SOL     OW18991   2.667   5.716   4.367
 6031SOL    HW118992   2.723   5.721   4.450
 6031SOL    HW218993   2.606   5.795   4.363
 6032SOL     OW18994   2.605   5.007   2.779
 6032SOL    HW118995   2.593   5.106   2.794
 6032SOL    HW218996   2.566   4.957   2.855
 6033SOL     OW18997   2.172   3.035   2.661
 6033SOL    HW118998   2.091   2.981   2.687
 6033SOL    HW218999   2.254   2.993   2.700
 6034SOL     OW19000   1.152   0.988   5.971
 6034SOL    HW119001   1.152   1.078   5.927
 6034SOL    HW219002   1.088   0.989   6.048
 6035SOL     OW19003   1.560   0.852   2.025
 6035SOL    HW119004   1.519   0.941   2.041
 6035SOL    HW219005   1.617   0.855   1.942
 6036SOL     OW19006   5.643   4.752   1.939
 6036SOL    HW119007   5.563   4.725   1.886
 6036SOL    HW219008   5.629   4.844   1.976
 6037SOL     OW19009   3.808   7.002   0.639
 6037SOL    HW119010   3.839   6.921   0.589
 6037SOL    HW219011   3.729   0.017   0.592
 6038SOL     OW19012   1.447   2.509   6.532
 6038SOL    HW119013   1.412   2.583   6.589
 6038SOL    HW219014   1.527   2.468   6.577
 6039SOL     OW19015   3.527   3.121   3.392
 6039SOL    HW119016   3.446   3.179   3.394
 6039SOL    HW219017   3.501   3.028   3.368
 6040SOL     OW19018   1.699   1.470   0.591
 6040SOL    HW119019   1.743   1.514   0.669
 6040SOL    HW219020   1.754   1.391   0.563
 6041SOL     OW19021   2.985   2.240   4.697
 6041SOL    HW119022   2.899   2.211   4.741
 6041SOL    HW219023   3.042   2.288   4.763
 6042SOL     OW19024   3.716   6.685   2.988
 6042SOL    HW119025   3.686   6.618   2.921
 6042SOL    HW219026   3.687   6.657   3.079
 6043SOL     OW19027   0.596   0.122   4.781
 6043SOL    HW119028   0.584   0.147   4.877
 6043SOL    HW219029   0.689   0.087   4.767
 6044SOL     OW19030   2.684   2.367   1.774
 6044SOL    HW119031   2.770   2.399   1.815
 6044SOL    HW219032   2.674   2.406   1.683
 6045SOL     OW19033   5.798   3.426   3.665
 6045SOL    HW119034   5.705   3.410   3.700
 6045SOL    HW219035   5.850   3.341   3.669
 6046SOL     OW19036   3.568   2.622   0.785
 6046SOL    HW119037   3.645   2.670   0.742
 6046SOL    HW219038   3.514   2.575   0.715
 6047SOL     OW19039   5.201   2.627   1.614
 6047SOL    HW119040   5.191   2.646   1.517
 6047SOL    HW219041   5.255   2.700   1.657
 6048SOL     OW19042   4.947   5.125   4.964
 6048SOL    HW119043   4.991   5.075   5.039
 6048SOL    HW219044   4.869   5.072   4.930
 6049SOL     OW19045   4.815   4.373   6.438
 6049SOL    HW119046   4.841   4.277   6.427
 6049SOL    HW219047   4.793   4.412   6.349
 6050SOL     OW19048   1.755   5.254   0.067
 6050SOL    HW119049   1.842   5.305   0.069
 6050SOL    HW219050   1.728   5.230   0.160
 6051SOL     OW19051   1.891   6.605   3.001
 6051SOL    HW119052   1.977   6.562   3.029
 6051SOL    HW219053   1.821   6.587   3.070
 6052SOL     OW19054   5.017   1.761   1.733
 6052SOL    HW119055   5.067   1.795   1.653
 6052SOL    HW219056   4.948   1.828   1.760
 6053SOL     OW19057   3.991   0.884   5.842
 6053SOL    HW119058   4.034   0.902   5.930
 6053SOL    HW219059   3.998   0.786   5.822
 6054SOL     OW19060   2.795   3.875   0.481
 6054SOL    HW119061   2.711   3.843   0.437
 6054SOL    HW219062   2.861   3.903   0.411
 6055SOL     OW19063   4.471   5.608   5.317
 6055SOL    HW119064   4.429   5.518   5.325
 6055SOL    HW219065   4.538   5.621   5.389
 6056SOL     OW19066   4.834   3.304   5.197
 6056SOL    HW119067   4.818   3.394   5.156
 6056SOL    HW219068   4.907   3.311   5.264
 6057SOL     OW19069   6.131   0.643   2.054
 6057SOL    HW119070   6.219   0.596   2.064
 6057SOL    HW219071   6.079   0.601   1.980
 6058SOL     OW19072   5.219   4.016   0.353
 6058SOL    HW119073   5.158   3.937   0.361
 6058SOL    HW219074   5.228   4.060   0.442
 6059SOL     OW19075   4.629   4.350   6.044
 6059SOL    HW119076   4.690   4.409   6.097
 6059SOL    HW219077   4.547   4.401   6.019
 6060SOL     OW19078   2.289   3.570   6.604
 6060SOL    HW119079   2.246   3.499   6.660
 6060SOL    HW219080   2.231   3.651   6.601
 6061SOL     OW19081   4.879   3.956   0.045
 6061SOL    HW119082   4.843   3.951   6.976
 6061SOL    HW219083   4.888   4.052   0.072
 6062SOL     OW19084   2.390   1.676   6.565
 6062SOL    HW119085   2.342   1.644   6.482
 6062SOL    HW219086   2.468   1.733   6.539
 6063SOL     OW19087   4.051   2.628   5.587
 6063SOL    HW119088   3.986   2.662   5.655
 6063SOL    HW219089   4.005   2.562   5.528
 6064SOL     OW19090   1.429   1.088   0.811
 6064SOL    HW119091   1.488   1.160   0.774
 6064SOL    HW219092   1.483   1.029   0.871
 6065SOL     OW19093   0.849   6.207   1.988
 6065SOL    HW119094   0.827   6.117   1.950
 6065SOL    HW219095   0.907   6.258   1.924
 6066SOL     OW19096   5.280   1.134   5.788
 6066SOL    HW119097   5.273   1.158   5.885
 6066SOL    HW219098   5.300   1.216   5.735
 6067SOL     OW19099   4.735   0.533   5.431
 6067SOL    HW119100   4.640   0.553   5.452
 6067SOL    HW219101   4.742   0.496   5.338
 6068SOL     OW19102   5.095   2.657   4.517
 6068SOL    HW119103   5.056   2.573   4.479
 6068SOL    HW219104   5.100   2.650   4.616
 6069SOL     OW19105   6.358   3.416   5.115
 6069SOL    HW119106   6.293   3.350   5.151
 6069SOL    HW219107   6.402   3.464   5.191
 6070SOL     OW19108   2.743   2.513   1.189
 6070SOL    HW119109   2.670   2.566   1.148
 6070SOL    HW219110   2.778   2.561   1.270
 6071SOL     OW19111   0.769   5.912   4.877
 6071SOL    HW119112   0.729   5.862   4.953
 6071SOL    HW219113   0.698   5.938   4.812
 6072SOL     OW19114   0.489   0.610   1.371
 6072SOL    HW119115   0.472   0.514   1.348
 6072SOL    HW219116   0.530   0.616   1.462
 6073SOL     OW19117   4.978   3.353   0.697
 6073SOL    HW119118   5.051   3.321   0.758
 6073SOL    HW219119   4.953   3.279   0.635
 6074SOL     OW19120   1.805   5.980   2.157
 6074SOL    HW119121   1.708   5.957   2.150
 6074SOL    HW219122   1.836   6.020   2.071
 6075SOL     OW19123   4.637   6.819   5.331
 6075SOL    HW119124   4.639   6.755   5.408
 6075SOL    HW219125   4.674   6.907   5.360
 6076SOL     OW19126   2.978   5.065   3.263
 6076SOL    HW119127   2.888   5.107   3.250
 6076SOL    HW219128   3.045   5.109   3.204
 6077SOL     OW19129   6.260   5.283   1.019
 6077SOL    HW119130   6.187   5.289   0.951
 6077SOL    HW219131   6.347   5.262   0.974
 6078SOL     OW19132   4.915   5.036   0.204
 6078SOL    HW119133   4.861   4.976   0.145
 6078SOL    HW219134   4.983   5.084   0.148
 6079SOL     OW19135   4.850   3.768   6.440
 6079SOL    HW119136   4.834   3.704   6.365
 6079SOL    HW219137   4.808   3.733   6.523
 6080SOL     OW19138   0.232   5.567   0.697
 6080SOL    HW119139   0.274   5.646   0.653
 6080SOL    HW219140   0.166   5.524   0.635
 6081SOL     OW19141   0.107   2.286   5.622
 6081SOL    HW119142   0.033   2.306   5.685
 6081SOL    HW219143   0.077   2.219   5.554
 6082SOL     OW19144   2.833   0.186   2.570
 6082SOL    HW119145   2.800   0.264   2.623
 6082SOL    HW219146   2.875   0.219   2.485
 6083SOL     OW19147   5.959   6.030   0.617
 6083SOL    HW119148   5.955   6.130   0.619
 6083SOL    HW219149   5.866   5.993   0.620
 6084SOL     OW19150   0.616   6.927   2.081
 6084SOL    HW119151   0.704   6.880   2.075
 6084SOL    HW219152   0.592   6.941   2.177
 6085SOL     OW19153   0.206   6.345   6.771
 6085SOL    HW119154   0.243   6.364   6.679
 6085SOL    HW219155   0.181   6.248   6.776
 6086SOL     OW19156   2.472   2.351   5.790
 6086SOL    HW119157   2.417   2.268   5.778
 6086SOL    HW219158   2.423   2.415   5.848
 6087SOL     OW19159   3.547   6.142   1.459
 6087SOL    HW119160   3.512   6.226   1.502
 6087SOL    HW219161   3.610   6.167   1.385
 6088SOL     OW19162   5.923   0.292   4.580
 6088SOL    HW119163   5.834   0.308   4.624
 6088SOL    HW219164   5.931   0.350   4.500
 6089SOL     OW19165   5.941   2.651   2.858
 6089SOL    HW119166   5.989   2.633   2.772
 6089SOL    HW219167   5.968   2.741   2.893
 6090SOL     OW19168   2.373   5.066   4.494
 6090SOL    HW119169   2.423   5.103   4.415
 6090SOL    HW219170   2.430   4.997   4.539
 6091SOL     OW19171   2.292   1.861   6.878
 6091SOL    HW119172   2.276   1.764   6.860
 6091SOL    HW219173   2.245   1.887   6.963
 6092SOL     OW19174   4.589   1.085   2.610
 6092SOL    HW119175   4.571   1.129   2.522
 6092SOL    HW219176   4.572   0.987   2.603
 6093SOL     OW19177   2.426   2.487   1.829
 6093SOL    HW119178   2.379   2.407   1.867
 6093SOL    HW219179   2.500   2.457   1.770
 6094SOL     OW19180   1.471   5.730   3.285
 6094SOL    HW119181   1.488   5.827   3.296
 6094SOL    HW219182   1.528   5.678   3.348
 6095SOL     OW19183   4.508   4.968   6.719
 6095SOL    HW119184   4.440   5.031   6.756
 6095SOL    HW219185   4.595   4.982   6.767
 6096SOL     OW19186   6.661   0.057   2.350
 6096SOL    HW119187   6.630   0.105   2.433
 6096SOL    HW219188   6.626   0.105   2.269
 6097SOL     OW19189   2.140   5.604   2.544
 6097SOL    HW119190   2.062   5.579   2.486
 6097SOL    HW219191   2.190   5.680   2.501
 6098SOL     OW19192   7.024   1.781   5.817
 6098SOL    HW119193   0.058   1.857   5.846
 6098SOL    HW219194   0.020   1.758   5.721
 6099SOL     OW19195   4.934   6.051   5.352
 6099SOL    HW119196   4.876   6.124   5.387
 6099SOL    HW219197   5.025   6.087   5.331
 6100SOL     OW19198   5.647   6.257   1.568
 6100SOL    HW119199   5.583   6.181   1.558
 6100SOL    HW219200   5.619   6.315   1.645
 6101SOL     OW19201   0.128   2.930   3.065
 6101SOL    HW119202   0.171   3.018   3.044
 6101SOL    HW219203   0.033   2.931   3.033
 6102SOL     OW19204   4.110   6.054   2.982
 6102SOL    HW119205   4.188   5.993   2.991
 6102SOL    HW219206   4.043   6.034   3.053
 6103SOL     OW19207   5.960   1.265   1.508
 6103SOL    HW119208   5.891   1.250   1.578
 6103SOL    HW219209   5.994   1.359   1.514
 6104SOL     OW19210   6.059   0.009   5.086
 6104SOL    HW119211   6.132   6.981   5.129
 6104SOL    HW219212   6.068   0.004   4.987
 6105SOL     OW19213   2.016   5.701   6.318
 6105SOL    HW119214   1.937   5.761   6.331
 6105SOL    HW219215   1.990   5.607   6.343
 6106SOL     OW19216   1.565   4.855   6.077
 6106SOL    HW119217   1.541   4.843   6.174
 6106SOL    HW219218   1.629   4.931   6.067
 6107SOL     OW19219   4.799   5.499   5.172
 6107SOL    HW119220   4.754   5.588   5.173
 6107SOL    HW219221   4.811   5.469   5.078
 6108SOL     OW19222   2.298   2.825   3.424
 6108SOL    HW119223   2.306   2.898   3.492
 6108SOL    HW219224   2.235   2.755   3.457
 6109SOL     OW19225   5.813   1.345   5.500
 6109SOL    HW119226   5.763   1.401   5.566
 6109SOL    HW219227   5.879   1.402   5.451
 6110SOL     OW19228   2.322   3.344   1.056
 6110SOL    HW119229   2.342   3.258   1.009
 6110SOL    HW219230   2.405   3.399   1.061
 6111SOL     OW19231   1.595   3.155   2.361
 6111SOL    HW119232   1.688   3.123   2.378
 6111SOL    HW219233   1.586   3.249   2.394
 6112SOL     OW19234   3.634   0.611   2.569
 6112SOL    HW119235   3.623   0.661   2.655
 6112SOL    HW219236   3.669   0.673   2.499
 6113SOL     OW19237   2.503   2.097   6.054
 6113SOL    HW119238   2.522   2.167   6.122
 6113SOL    HW219239   2.415   2.115   6.011
 6114SOL     OW19240   4.738   4.188   2.685
 6114SOL    HW119241   4.767   4.092   2.687
 6114SOL    HW219242   4.688   4.206   2.601
 6115SOL     OW19243   6.300   0.482   4.308
 6115SOL    HW119244   6.386   0.475   4.359
 6115SOL    HW219245   6.319   0.505   4.213
 6116SOL     OW19246   3.611   1.338   6.054
 6116SOL    HW119247   3.540   1.339   6.125
 6116SOL    HW219248   3.689   1.284   6.085
 6117SOL     OW19249   2.050   1.696   3.545
 6117SOL    HW119250   2.015   1.781   3.507
 6117SOL    HW219251   2.138   1.674   3.504
 6118SOL     OW19252   5.634   1.424   1.352
 6118SOL    HW119253   5.674   1.483   1.282
 6118SOL    HW219254   5.561   1.369   1.310
 6119SOL     OW19255   0.757   3.592   0.306
 6119SOL    HW119256   0.726   3.589   0.401
 6119SOL    HW219257   0.752   3.686   0.273
 6120SOL     OW19258   2.274   6.721   5.666
 6120SOL    HW119259   2.301   6.651   5.600
 6120SOL    HW219260   2.175   6.729   5.667
 6121SOL     OW19261   1.211   3.249   5.334
 6121SOL    HW119262   1.112   3.252   5.318
 6121SOL    HW219263   1.229   3.269   5.430
 6122SOL     OW19264   3.846   5.470   6.779
 6122SOL    HW119265   3.907   5.503   6.707
 6122SOL    HW219266   3.840   5.538   6.852
 6123SOL     OW19267   5.216   6.800   6.233
 6123SOL    HW119268   5.291   6.775   6.295
 6123SOL    HW219269   5.144   6.846   6.285
 6124SOL     OW19270   1.299   0.063   6.195
 6124SOL    HW119271   1.246   7.006   6.218
 6124SOL    HW219272   1.373   0.039   6.132
 6125SOL     OW19273   2.193   4.015   0.221
 6125SOL    HW119274   2.160   4.106   0.247
 6125SOL    HW219275   2.150   3.987   0.135
 6126SOL     OW19276   0.144   0.712   4.506
 6126SOL    HW119277   0.151   0.615   4.531
 6126SOL    HW219278   0.235   0.754   4.507
 6127SOL     OW19279   3.699   6.937   1.233
 6127SOL    HW119280   3.734   0.004   1.215
 6127SOL    HW219281   3.635   6.911   1.161
 6128SOL     OW19282   5.850   5.687   0.672
 6128SOL    HW119283   5.902   5.738   0.603
 6128SOL    HW219284   5.880   5.714   0.763
 6129SOL     OW19285   0.627   3.109   2.757
 6129SOL    HW119286   0.596   3.017   2.735
 6129SOL    HW219287   0.648   3.158   2.672
 6130SOL     OW19288   5.092   2.610   2.516
 6130SOL    HW119289   5.055   2.593   2.425
 6130SOL    HW219290   5.075   2.706   2.542
 6131SOL     OW19291   0.858   1.486   3.439
 6131SOL    HW119292   0.845   1.387   3.443
 6131SOL    HW219293   0.809   1.529   3.515
 6132SOL     OW19294   3.726   1.793   6.860
 6132SOL    HW119295   3.678   1.739   6.929
 6132SOL    HW219296   3.663   1.858   6.818
 6133SOL     OW19297   2.082   3.586   3.210
 6133SOL    HW119298   2.132   3.546   3.134
 6133SOL    HW219299   2.016   3.653   3.175
 6134SOL     OW19300   4.355   6.036   6.931
 6134SOL    HW119301   4.273   6.035   6.988
 6134SOL    HW219302   4.344   6.103   6.858
 6135SOL     OW19303   0.518   5.923   1.072
 6135SOL    HW119304   0.549   5.970   0.989
 6135SOL    HW219305   0.554   5.970   1.153
 6136SOL     OW19306   1.111   2.477   1.706
 6136SOL    HW119307   1.210   2.491   1.704
 6136SOL    HW219308   1.085   2.435   1.793
 6137SOL     OW19309   6.721   4.125   2.070
 6137SOL    HW119310   6.627   4.092   2.066
 6137SOL    HW219311   6.743   4.173   1.985
 6138SOL     OW19312   3.416   6.989   3.197
 6138SOL    HW119313   3.410   6.890   3.179
 6138SOL    HW219314   3.508   7.012   3.227
 6139SOL     OW19315   0.847   0.096   5.906
 6139SOL    HW119316   0.916   0.023   5.901
 6139SOL    HW219317   0.888   0.183   5.878
 6140SOL     OW19318   0.857   0.546   2.170
 6140SOL    HW119319   0.783   0.556   2.104
 6140SOL    HW219320   0.938   0.595   2.137
 6141SOL     OW19321   0.637   6.891   6.301
 6141SOL    HW119322   0.652   6.921   6.395
 6141SOL    HW219323   0.633   6.970   6.240
 6142SOL     OW19324   0.188   5.697   6.593
 6142SOL    HW119325   0.147   5.771   6.647
 6142SOL    HW219326   0.142   5.691   6.504
 6143SOL     OW19327   6.726   4.049   0.963
 6143SOL    HW119328   6.763   4.069   1.054
 6143SOL    HW219329   6.648   3.987   0.972
 6144SOL     OW19330   5.449   4.939   4.024
 6144SOL    HW119331   5.406   4.887   4.098
 6144SOL    HW219332   5.543   4.961   4.051
 6145SOL     OW19333   5.380   5.133   4.333
 6145SOL    HW119334   5.465   5.162   4.289
 6145SOL    HW219335   5.401   5.063   4.402
 6146SOL     OW19336   3.112   5.821   3.881
 6146SOL    HW119337   3.122   5.817   3.980
 6146SOL    HW219338   3.015   5.827   3.857
 6147SOL     OW19339   2.447   2.690   5.073
 6147SOL    HW119340   2.468   2.785   5.095
 6147SOL    HW219341   2.460   2.675   4.975
 6148SOL     OW19342   4.516   6.394   4.835
 6148SOL    HW119343   4.600   6.390   4.890
 6148SOL    HW219344   4.501   6.487   4.803
 6149SOL     OW19345   2.921   0.314   1.462
 6149SOL    HW119346   2.994   0.261   1.419
 6149SOL    HW219347   2.930   0.410   1.436
 6150SOL     OW19348   5.802   4.394   0.023
 6150SOL    HW119349   5.742   4.471   0.005
 6150SOL    HW219350   5.846   4.364   6.963
 6151SOL     OW19351   6.329   4.969   5.719
 6151SOL    HW119352   6.370   5.033   5.653
 6151SOL    HW219353   6.391   4.892   5.733
 6152SOL     OW19354   0.694   6.298   4.604
 6152SOL    HW119355   0.594   6.297   4.608
 6152SOL    HW219356   0.731   6.272   4.694
 6153SOL     OW19357   5.821   4.730   1.066
 6153SOL    HW119358   5.847   4.710   1.160
 6153SOL    HW219359   5.728   4.767   1.064
 6154SOL     OW19360   6.039   2.820   2.122
 6154SOL    HW119361   6.082   2.881   2.055
 6154SOL    HW219362   6.105   2.797   2.193
 6155SOL     OW19363   2.532   1.478   3.253
 6155SOL    HW119364   2.597   1.488   3.328
 6155SOL    HW219365   2.439   1.481   3.289
 6156SOL     OW19366   4.831   4.526   2.066
 6156SOL    HW119367   4.773   4.606   2.082
 6156SOL    HW219368   4.783   4.443   2.094
 6157SOL     OW19369   0.131   2.227   3.366
 6157SOL    HW119370   0.135   2.300   3.298
 6157SOL    HW219371   0.108   2.266   3.456
 6158SOL     OW19372   3.626   2.143   6.514
 6158SOL    HW119373   3.713   2.100   6.492
 6158SOL    HW219374   3.583   2.096   6.591
 6159SOL     OW19375   3.971   1.938   0.257
 6159SOL    HW119376   3.902   2.008   0.277
 6159SOL    HW219377   3.941   1.884   0.179
 6160SOL     OW19378   5.589   0.284   6.517
 6160SOL    HW119379   5.681   0.262   6.549
 6160SOL    HW219380   5.594   0.341   6.435
 6161SOL     OW19381   5.881   1.467   6.861
 6161SOL    HW119382   5.801   1.468   6.921
 6161SOL    HW219383   5.933   1.552   6.873
 6162SOL     OW19384   6.141   6.873   4.171
 6162SOL    HW119385   6.116   6.848   4.077
 6162SOL    HW219386   6.141   6.791   4.228
 6163SOL     OW19387   5.083   5.714   1.317
 6163SOL    HW119388   5.013   5.649   1.345
 6163SOL    HW219389   5.098   5.781   1.390
 6164SOL     OW19390   3.348   3.998   4.553
 6164SOL    HW119391   3.353   4.071   4.622
 6164SOL    HW219392   3.258   4.000   4.510
 6165SOL     OW19393   4.595   1.277   6.164
 6165SOL    HW119394   4.614   1.298   6.260
 6165SOL    HW219395   4.502   1.243   6.156
 6166SOL     OW19396   5.375   1.831   0.227
 6166SOL    HW119397   5.373   1.743   0.275
 6166SOL    HW219398   5.430   1.896   0.279
 6167SOL     OW19399   1.008   4.794   2.963
 6167SOL    HW119400   1.061   4.803   3.047
 6167SOL    HW219401   0.911   4.785   2.985
 6168SOL     OW19402   1.133   3.596   3.383
 6168SOL    HW119403   1.174   3.533   3.317
 6168SOL    HW219404   1.047   3.632   3.346
 6169SOL     OW19405   1.239   1.850   0.536
 6169SOL    HW119406   1.259   1.867   0.632
 6169SOL    HW219407   1.144   1.876   0.517
 6170SOL     OW19408   2.954   4.126   5.690
 6170SOL    HW119409   2.968   4.069   5.609
 6170SOL    HW219410   3.017   4.099   5.762
 6171SOL     OW19411   1.830   3.656   1.332
 6171SOL    HW119412   1.895   3.602   1.385
 6171SOL    HW219413   1.789   3.726   1.391
 6172SOL     OW19414   1.223   0.869   3.868
 6172SOL    HW119415   1.322   0.852   3.863
 6172SOL    HW219416   1.203   0.925   3.948
 6173SOL     OW19417   6.690   5.136   2.494
 6173SOL    HW119418   6.778   5.096   2.470
 6173SOL    HW219419   6.683   5.146   2.593
 6174SOL     OW19420   6.536   5.274   3.023
 6174SOL    HW119421   6.537   5.328   3.107
 6174SOL    HW219422   6.453   5.294   2.971
 6175SOL     OW19423   5.217   0.920   3.768
 6175SOL    HW119424   5.313   0.911   3.794
 6175SOL    HW219425   5.201   1.012   3.732
 6176SOL     OW19426   6.202   2.970   0.103
 6176SOL    HW119427   6.291   2.937   0.071
 6176SOL    HW219428   6.211   3.005   0.196
 6177SOL     OW19429   5.469   1.739   1.777
 6177SOL    HW119430   5.424   1.827   1.763
 6177SOL    HW219431   5.421   1.687   1.847
 6178SOL     OW19432   4.786   5.089   2.965
 6178SOL    HW119433   4.836   5.153   3.024
 6178SOL    HW219434   4.742   5.139   2.890
 6179SOL     OW19435   6.501   4.620   4.272
 6179SOL    HW119436   6.548   4.607   4.359
 6179SOL    HW219437   6.438   4.697   4.279
 6180SOL     OW19438   3.466   5.937   6.805
 6180SOL    HW119439   3.410   5.949   6.723
 6180SOL    HW219440   3.468   6.022   6.858
 6181SOL     OW19441   3.944   6.872   1.048
 6181SOL    HW119442   3.940   6.797   1.114
 6181SOL    HW219443   3.895   6.951   1.084
 6182SOL     OW19444   5.840   3.217   6.184
 6182SOL    HW119445   5.825   3.316   6.181
 6182SOL    HW219446   5.927   3.195   6.139
 6183SOL     OW19447   1.954   0.286   2.870
 6183SOL    HW119448   2.017   0.218   2.833
 6183SOL    HW219449   1.862   0.270   2.832
 6184SOL     OW19450   1.223   0.082   6.754
 6184SOL    HW119451   1.284   0.069   6.832
 6184SOL    HW219452   1.272   0.062   6.669
 6185SOL     OW19453   0.536   4.458   6.557
 6185SOL    HW119454   0.579   4.427   6.472
 6185SOL    HW219455   0.490   4.382   6.602
 6186SOL     OW19456   6.187   6.592   5.511
 6186SOL    HW119457   6.094   6.622   5.535
 6186SOL    HW219458   6.202   6.500   5.546
 6187SOL     OW19459   4.156   4.823   4.090
 6187SOL    HW119460   4.243   4.873   4.095
 6187SOL    HW219461   4.103   4.841   4.173
 6188SOL     OW19462   2.548   0.199   0.678
 6188SOL    HW119463   2.473   0.266   0.671
 6188SOL    HW219464   2.598   0.196   0.592
 6189SOL     OW19465   4.970   4.169   4.303
 6189SOL    HW119466   5.028   4.106   4.355
 6189SOL    HW219467   5.026   4.243   4.265
 6190SOL     OW19468   6.546   3.831   6.089
 6190SOL    HW119469   6.645   3.842   6.087
 6190SOL    HW219470   6.508   3.882   6.166
 6191SOL     OW19471   3.885   2.721   6.428
 6191SOL    HW119472   3.950   2.649   6.454
 6191SOL    HW219473   3.857   2.772   6.509
 6192SOL     OW19474   2.922   3.206   6.464
 6192SOL    HW119475   2.932   3.219   6.366
 6192SOL    HW219476   2.876   3.285   6.504
 6193SOL     OW19477   5.200   0.820   2.713
 6193SOL    HW119478   5.254   0.879   2.773
 6193SOL    HW219479   5.247   0.810   2.625
 6194SOL     OW19480   1.216   0.345   0.655
 6194SOL    HW119481   1.227   0.417   0.724
 6194SOL    HW219482   1.176   0.383   0.573
 6195SOL     OW19483   3.913   6.291   5.006
 6195SOL    HW119484   3.984   6.221   5.006
 6195SOL    HW219485   3.955   6.381   4.992
 6196SOL     OW19486   6.031   1.931   1.233
 6196SOL    HW119487   6.062   1.873   1.309
 6196SOL    HW219488   5.932   1.932   1.231
 6197SOL     OW19489   4.182   4.874   0.410
 6197SOL    HW119490   4.124   4.842   0.485
 6197SOL    HW219491   4.274   4.835   0.420
 6198SOL     OW19492   3.047   5.895   2.229
 6198SOL    HW119493   3.111   5.858   2.297
 6198SOL    HW219494   3.018   5.987   2.257
 6199SOL     OW19495   1.193   0.553   0.856
 6199SOL    HW119496   1.172   0.649   0.842
 6199SOL    HW219497   1.235   0.540   0.946
 6200SOL     OW19498   2.147   1.282   5.059
 6200SOL    HW119499   2.244   1.303   5.070
 6200SOL    HW219500   2.118   1.222   5.134
 6201SOL     OW19501   1.417   3.816   4.970
 6201SOL    HW119502   1.331   3.865   4.986
 6201SOL    HW219503   1.492   3.882   4.962
 6202SOL     OW19504   4.110   1.532   1.965
 6202SOL    HW119505   4.108   1.626   1.932
 6202SOL    HW219506   4.059   1.473   1.902
 6203SOL     OW19507   5.966   6.604   2.916
 6203SOL    HW119508   6.038   6.597   2.985
 6203SOL    HW219509   5.951   6.700   2.893
 6204SOL     OW19510   1.429   5.290   4.585
 6204SOL    HW119511   1.431   5.218   4.654
 6204SOL    HW219512   1.334   5.313   4.564
 6205SOL     OW19513   6.294   6.338   0.241
 6205SOL    HW119514   6.312   6.376   0.331
 6205SOL    HW219515   6.225   6.266   0.248
 6206SOL     OW19516   0.238   0.547   2.763
 6206SOL    HW119517   0.217   0.470   2.823
 6206SOL    HW219518   0.155   0.578   2.718
 6207SOL     OW19519   1.463   5.212   4.068
 6207SOL    HW119520   1.559   5.206   4.096
 6207SOL    HW219521   1.404   5.209   4.149
 6208SOL     OW19522   5.933   1.469   6.274
 6208SOL    HW119523   5.933   1.569   6.274
 6208SOL    HW219524   5.989   1.435   6.199
 6209SOL     OW19525   4.588   5.640   6.915
 6209SOL    HW119526   4.552   5.709   6.979
 6209SOL    HW219527   4.520   5.624   6.843
 6210SOL     OW19528   5.665   4.100   3.906
 6210SOL    HW119529   5.659   4.005   3.875
 6210SOL    HW219530   5.733   4.149   3.851
 6211SOL     OW19531   2.659   6.022   5.661
 6211SOL    HW119532   2.721   5.997   5.587
 6211SOL    HW219533   2.708   6.021   5.748
 6212SOL     OW19534   2.227   4.771   2.698
 6212SOL    HW119535   2.138   4.805   2.729
 6212SOL    HW219536   2.219   4.738   2.604
 6213SOL     OW19537   5.534   0.381   6.939
 6213SOL    HW119538   5.527   0.406   6.842
 6213SOL    HW219539   5.447   0.345   6.971
 6214SOL     OW19540   4.699   4.770   4.066
 6214SOL    HW119541   4.761   4.789   4.142
 6214SOL    HW219542   4.742   4.797   3.980
 6215SOL     OW19543   4.291   1.729   0.729
 6215SOL    HW119544   4.267   1.651   0.786
 6215SOL    HW219545   4.325   1.697   0.640
 6216SOL     OW19546   5.896   1.883   1.978
 6216SOL    HW119547   5.988   1.859   1.947
 6216SOL    HW219548   5.860   1.958   1.922
 6217SOL     OW19549   0.713   2.645   2.422
 6217SOL    HW119550   0.672   2.621   2.510
 6217SOL    HW219551   0.801   2.690   2.437
 6218SOL     OW19552   3.812   5.301   5.593
 6218SOL    HW119553   3.874   5.230   5.626
 6218SOL    HW219554   3.803   5.372   5.663
 6219SOL     OW19555   0.978   2.228   4.447
 6219SOL    HW119556   0.936   2.160   4.507
 6219SOL    HW219557   0.985   2.315   4.495
 6220SOL     OW19558   1.702   2.648   5.188
 6220SOL    HW119559   1.781   2.679   5.135
 6220SOL    HW219560   1.619   2.689   5.151
 6221SOL     OW19561   6.203   5.877   6.951
 6221SOL    HW119562   6.252   5.883   0.013
 6221SOL    HW219563   6.117   5.928   6.957
 6222SOL     OW19564   0.662   6.278   1.143
 6222SOL    HW119565   0.740   6.251   1.086
 6222SOL    HW219566   0.641   6.204   1.208
 6223SOL     OW19567   0.571   4.757   4.309
 6223SOL    HW119568   0.624   4.691   4.362
 6223SOL    HW219569   0.484   4.715   4.281
 6224SOL     OW19570   2.306   1.779   6.010
 6224SOL    HW119571   2.389   1.777   6.067
 6224SOL    HW219572   2.227   1.799   6.068
 6225SOL     OW19573   3.200   3.684   0.811
 6225SOL    HW119574   3.202   3.778   0.778
 6225SOL    HW219575   3.105   3.651   0.810
 6226SOL     OW19576   6.013   1.683   5.068
 6226SOL    HW119577   5.926   1.732   5.071
 6226SOL    HW219578   6.024   1.640   4.979
 6227SOL     OW19579   4.067   5.540   5.875
 6227SOL    HW119580   4.134   5.545   5.801
 6227SOL    HW219581   3.975   5.539   5.836
 6228SOL     OW19582   1.462   2.425   3.187
 6228SOL    HW119583   1.383   2.430   3.250
 6228SOL    HW219584   1.508   2.514   3.185
 6229SOL     OW19585   0.300   2.242   2.945
 6229SOL    HW119586   0.391   2.277   2.967
 6229SOL    HW219587   0.289   2.241   2.846
 6230SOL     OW19588   1.342   1.478   3.641
 6230SOL    HW119589   1.399   1.559   3.654
 6230SOL    HW219590   1.372   1.406   3.703
 6231SOL     OW19591   6.019   5.031   0.869
 6231SOL    HW119592   5.921   5.019   0.859
 6231SOL    HW219593   6.044   5.024   0.966
 6232SOL     OW19594   6.838   1.173   0.762
 6232SOL    HW119595   6.809   1.269   0.769
 6232SOL    HW219596   6.911   1.166   0.694
 6233SOL     OW19597   6.191   0.696   0.604
 6233SOL    HW119598   6.103   0.726   0.642
 6233SOL    HW219599   6.177   0.664   0.510
 6234SOL     OW19600   6.372   1.774   5.391
 6234SOL    HW119601   6.350   1.799   5.486
 6234SOL    HW219602   6.472   1.771   5.381
 6235SOL     OW19603   1.092   0.437   1.669
 6235SOL    HW119604   1.140   0.517   1.704
 6235SOL    HW219605   1.117   0.357   1.724
 6236SOL     OW19606   0.508   3.682   0.647
 6236SOL    HW119607   0.534   3.775   0.674
 6236SOL    HW219608   0.590   3.625   0.645
 6237SOL     OW19609   3.478   6.204   6.925
 6237SOL    HW119610   3.562   6.252   6.954
 6237SOL    HW219611   3.434   6.256   6.851
 6238SOL     OW19612   4.065   4.923   2.854
 6238SOL    HW119613   4.134   4.862   2.894
 6238SOL    HW219614   4.104   5.014   2.843
 6239SOL     OW19615   3.014   6.499   1.892
 6239SOL    HW119616   3.055   6.524   1.805
 6239SOL    HW219617   3.086   6.479   1.959
 6240SOL     OW19618   2.814   2.736   6.263
 6240SOL    HW119619   2.722   2.771   6.280
 6240SOL    HW219620   2.880   2.811   6.274
 6241SOL     OW19621   3.700   0.191   1.880
 6241SOL    HW119622   3.653   0.117   1.930
 6241SOL    HW219623   3.785   0.214   1.926
 6242SOL     OW19624   5.951   1.597   3.434
 6242SOL    HW119625   5.960   1.608   3.335
 6242SOL    HW219626   5.855   1.589   3.459
 6243SOL     OW19627   6.361   0.000   3.799
 6243SOL    HW119628   6.431   7.005   3.730
 6243SOL    HW219629   6.403   0.040   3.880
 6244SOL     OW19630   0.739   2.403   2.796
 6244SOL    HW119631   0.767   2.363   2.709
 6244SOL    HW219632   0.819   2.415   2.855
 6245SOL     OW19633   1.584   3.879   0.248
 6245SOL    HW119634   1.525   3.799   0.264
 6245SOL    HW219635   1.651   3.857   0.177
 6246SOL     OW19636   1.797   2.316   5.695
 6246SOL    HW119637   1.743   2.240   5.661
 6246SOL    HW219638   1.769   2.400   5.649
 6247SOL     OW19639   1.342   6.116   4.717
 6247SOL    HW119640   1.336   6.028   4.669
 6247SOL    HW219641   1.415   6.113   4.785
 6248SOL     OW19642   3.349   3.569   0.282
 6248SOL    HW119643   3.394   3.579   0.371
 6248SOL    HW219644   3.398   3.624   0.215
 6249SOL     OW19645   0.486   3.981   0.777
 6249SOL    HW119646   0.416   4.039   0.734
 6249SOL    HW219647   0.442   3.901   0.816
 6250SOL     OW19648   6.911   5.777   0.249
 6250SOL    HW119649   6.913   5.827   0.163
 6250SOL    HW219650   6.886   5.682   0.232
 6251SOL     OW19651   3.582   5.463   6.748
 6251SOL    HW119652   3.540   5.375   6.769
 6251SOL    HW219653   3.680   5.457   6.762
 6252SOL     OW19654   1.121   6.656   5.830
 6252SOL    HW119655   1.050   6.591   5.802
 6252SOL    HW219656   1.209   6.608   5.834
 6253SOL     OW19657   2.197   4.045   3.086
 6253SOL    HW119658   2.212   3.950   3.056
 6253SOL    HW219659   2.227   4.107   3.014
 6254SOL     OW19660   4.781   1.498   0.370
 6254SOL    HW119661   4.748   1.503   0.464
 6254SOL    HW219662   4.795   1.591   0.335
 6255SOL     OW19663   2.764   0.412   0.915
 6255SOL    HW119664   2.788   0.315   0.903
 6255SOL    HW219665   2.794   0.464   0.835
 6256SOL     OW19666   3.252   5.307   2.652
 6256SOL    HW119667   3.247   5.335   2.556
 6256SOL    HW219668   3.161   5.312   2.693
 6257SOL     OW19669   4.800   2.327   0.164
 6257SOL    HW119670   4.741   2.291   0.235
 6257SOL    HW219671   4.885   2.274   0.161
 6258SOL     OW19672   3.792   6.947   3.697
 6258SOL    HW119673   3.875   6.980   3.653
 6258SOL    HW219674   3.723   7.019   3.696
 6259SOL     OW19675   2.341   2.542   0.708
 6259SOL    HW119676   2.322   2.474   0.637
 6259SOL    HW219677   2.417   2.601   0.678
 6260SOL     OW19678   3.461   5.830   0.586
 6260SOL    HW119679   3.443   5.752   0.646
 6260SOL    HW219680   3.387   5.897   0.596
 6261SOL     OW19681   3.794   0.513   6.072
 6261SOL    HW119682   3.847   0.474   5.998
 6261SOL    HW219683   3.775   0.442   6.140
 6262SOL     OW19684   1.881   5.521   0.656
 6262SOL    HW119685   1.815   5.595   0.667
 6262SOL    HW219686   1.942   5.518   0.735
 6263SOL     OW19687   6.641   0.464   5.356
 6263SOL    HW119688   6.577   0.534   5.390
 6263SOL    HW219689   6.613   0.375   5.390
 6264SOL     OW19690   1.302   6.494   2.331
 6264SOL    HW119691   1.390   6.534   2.356
 6264SOL    HW219692   1.239   6.502   2.409
 6265SOL     OW19693   3.235   3.937   0.688
 6265SOL    HW119694   3.178   3.905   0.612
 6265SOL    HW219695   3.204   4.028   0.715
 6266SOL     OW19696   4.098   0.651   4.440
 6266SOL    HW119697   4.191   0.676   4.466
 6266SOL    HW219698   4.101   0.595   4.357
 6267SOL     OW19699   2.471   0.764   6.546
 6267SOL    HW119700   2.553   0.799   6.592
 6267SOL    HW219701   2.491   0.674   6.507
 6268SOL     OW19702   3.526   7.007   3.483
 6268SOL    HW119703   3.530   0.082   3.474
 6268SOL    HW219704   3.433   6.979   3.504
 6269SOL     OW19705   6.694   6.105   1.543
 6269SOL    HW119706   6.725   6.122   1.449
 6269SOL    HW219707   6.695   6.190   1.594
 6270SOL     OW19708   1.708   0.390   4.794
 6270SOL    HW119709   1.627   0.371   4.850
 6270SOL    HW219710   1.790   0.379   4.850
 6271SOL     OW19711   6.070   2.121   6.414
 6271SOL    HW119712   6.099   2.098   6.507
 6271SOL    HW219713   6.134   2.079   6.348
 6272SOL     OW19714   0.365   2.177   6.991
 6272SOL    HW119715   0.402   2.090   6.960
 6272SOL    HW219716   0.359   2.240   6.913
 6273SOL     OW19717   1.457   6.105   2.983
 6273SOL    HW119718   1.454   6.203   2.963
 6273SOL    HW219719   1.547   6.082   3.021
 6274SOL     OW19720   2.598   5.763   5.884
 6274SOL    HW119721   2.583   5.673   5.926
 6274SOL    HW219722   2.688   5.798   5.913
 6275SOL     OW19723   1.960   6.232   5.577
 6275SOL    HW119724   1.987   6.328   5.574
 6275SOL    HW219725   1.893   6.214   5.505
 6276SOL     OW19726   2.176   4.748   3.212
 6276SOL    HW119727   2.117   4.688   3.158
 6276SOL    HW219728   2.194   4.832   3.161
 6277SOL     OW19729   5.557   2.993   1.822
 6277SOL    HW119730   5.599   2.940   1.749
 6277SOL    HW219731   5.462   2.965   1.834
 6278SOL     OW19732   5.205   6.552   4.432
 6278SOL    HW119733   5.120   6.541   4.482
 6278SOL    HW219734   5.221   6.473   4.373
 6279SOL     OW19735   3.976   0.047   6.517
 6279SOL    HW119736   3.979   0.118   6.587
 6279SOL    HW219737   4.051   0.062   6.452
 6280SOL     OW19738   1.074   2.249   5.197
 6280SOL    HW119739   1.110   2.184   5.264
 6280SOL    HW219740   1.020   2.200   5.129
 6281SOL     OW19741   1.223   4.970   3.388
 6281SOL    HW119742   1.260   5.054   3.427
 6281SOL    HW219743   1.167   4.923   3.456
 6282SOL     OW19744   1.270   6.619   4.634
 6282SOL    HW119745   1.332   6.698   4.627
 6282SOL    HW219746   1.178   6.651   4.656
 6283SOL     OW19747   0.159   2.875   5.622
 6283SOL    HW119748   0.159   2.968   5.659
 6283SOL    HW219749   0.209   2.874   5.535
 6284SOL     OW19750   1.849   5.951   4.894
 6284SOL    HW119751   1.777   5.965   4.962
 6284SOL    HW219752   1.902   5.870   4.918
 6285SOL     OW19753   0.367   3.470   4.562
 6285SOL    HW119754   0.458   3.513   4.560
 6285SOL    HW219755   0.329   3.470   4.469
 6286SOL     OW19756   6.206   2.063   3.094
 6286SOL    HW119757   6.251   1.974   3.099
 6286SOL    HW219758   6.151   2.068   3.010
 6287SOL     OW19759   3.543   5.324   4.057
 6287SOL    HW119760   3.449   5.334   4.024
 6287SOL    HW219761   3.590   5.256   4.000
 6288SOL     OW19762   5.022   4.914   2.556
 6288SOL    HW119763   4.947   4.848   2.546
 6288SOL    HW219764   5.046   4.950   2.466
 6289SOL     OW19765   1.731   4.720   2.046
 6289SOL    HW119766   1.762   4.755   1.958
 6289SOL    HW219767   1.691   4.794   2.100
 6290SOL     OW19768   6.750   4.270   4.443
 6290SOL    HW119769   6.717   4.342   4.382
 6290SOL    HW219770   6.673   4.213   4.472
 6291SOL     OW19771   3.614   2.851   5.143
 6291SOL    HW119772   3.652   2.796   5.217
 6291SOL    HW219773   3.571   2.792   5.075
 6292SOL     OW19774   1.748   2.502   4.162
 6292SOL    HW119775   1.712   2.427   4.217
 6292SOL    HW219776   1.705   2.503   4.072
 6293SOL     OW19777   3.913   0.547   6.909
 6293SOL    HW119778   3.841   0.533   6.841
 6293SOL    HW219779   3.872   0.568   6.998
 6294SOL     OW19780   4.112   4.954   4.800
 6294SOL    HW119781   4.141   4.864   4.835
 6294SOL    HW219782   4.189   4.997   4.753
 6295SOL     OW19783   5.714   4.889   5.764
 6295SOL    HW119784   5.795   4.850   5.806
 6295SOL    HW219785   5.670   4.952   5.828
 6296SOL     OW19786   0.469   6.775   6.101
 6296SOL    HW119787   0.378   6.771   6.142
 6296SOL    HW219788   0.518   6.854   6.137
 6297SOL     OW19789   4.921   6.567   4.519
 6297SOL    HW119790   4.866   6.534   4.442
 6297SOL    HW219791   4.923   6.667   4.518
 6298SOL     OW19792   1.434   2.792   6.668
 6298SOL    HW119793   1.497   2.868   6.685
 6298SOL    HW219794   1.402   2.796   6.573
 6299SOL     OW19795   5.377   1.335   6.977
 6299SOL    HW119796   5.326   1.250   6.967
 6299SOL    HW219797   5.380   1.362   0.049
 6300SOL     OW19798   5.753   0.209   0.324
 6300SOL    HW119799   5.790   0.234   0.414
 6300SOL    HW219800   5.657   0.237   0.318
 6301SOL     OW19801   4.071   0.710   0.215
 6301SOL    HW119802   3.990   0.685   0.162
 6301SOL    HW219803   4.042   0.753   0.301
 6302SOL     OW19804   1.961   0.169   3.448
 6302SOL    HW119805   1.932   0.262   3.470
 6302SOL    HW219806   1.983   0.164   3.350
 6303SOL     OW19807   1.701   1.638   4.141
 6303SOL    HW119808   1.733   1.605   4.230
 6303SOL    HW219809   1.602   1.625   4.133
 6304SOL     OW19810   2.378   1.689   1.099
 6304SOL    HW119811   2.424   1.762   1.050
 6304SOL    HW219812   2.376   1.607   1.043
 6305SOL     OW19813   5.530   6.908   1.501
 6305SOL    HW119814   5.514   6.813   1.530
 6305SOL    HW219815   5.442   6.954   1.487
 6306SOL     OW19816   0.709   3.911   4.339
 6306SOL    HW119817   0.752   3.979   4.279
 6306SOL    HW219818   0.652   3.850   4.284
 6307SOL     OW19819   4.082   4.476   5.719
 6307SOL    HW119820   4.066   4.539   5.795
 6307SOL    HW219821   3.995   4.447   5.680
 6308SOL     OW19822   2.138   2.383   4.587
 6308SOL    HW119823   2.082   2.461   4.612
 6308SOL    HW219824   2.145   2.378   4.487
 6309SOL     OW19825   5.402   4.657   5.191
 6309SOL    HW119826   5.445   4.571   5.219
 6309SOL    HW219827   5.440   4.686   5.103
 6310SOL     OW19828   1.962   5.719   3.190
 6310SOL    HW119829   2.020   5.673   3.257
 6310SOL    HW219830   2.019   5.768   3.125
 6311SOL     OW19831   5.022   0.685   6.161
 6311SOL    HW119832   4.952   0.630   6.117
 6311SOL    HW219833   4.981   0.766   6.202
 6312SOL     OW19834   5.848   5.295   5.216
 6312SOL    HW119835   5.885   5.288   5.309
 6312SOL    HW219836   5.757   5.335   5.219
 6313SOL     OW19837   1.423   6.715   4.329
 6313SOL    HW119838   1.434   6.776   4.251
 6313SOL    HW219839   1.387   6.627   4.298
 6314SOL     OW19840   3.979   6.527   1.837
 6314SOL    HW119841   4.032   6.603   1.799
 6314SOL    HW219842   3.888   6.526   1.796
 6315SOL     OW19843   1.919   2.809   5.828
 6315SOL    HW119844   1.902   2.828   5.924
 6315SOL    HW219845   1.849   2.855   5.772
 6316SOL     OW19846   4.855   1.467   6.579
 6316SOL    HW119847   4.805   1.520   6.647
 6316SOL    HW219848   4.952   1.467   6.602
 6317SOL     OW19849   4.591   5.998   2.888
 6317SOL    HW119850   4.598   6.097   2.878
 6317SOL    HW219851   4.631   5.954   2.807
 6318SOL     OW19852   3.774   1.687   4.524
 6318SOL    HW119853   3.714   1.688   4.604
 6318SOL    HW219854   3.790   1.781   4.493
 6319SOL     OW19855   6.878   1.657   4.010
 6319SOL    HW119856   6.915   1.645   3.918
 6319SOL    HW219857   6.891   1.753   4.038
 6320SOL     OW19858   6.267   5.800   5.005
 6320SOL    HW119859   6.359   5.783   5.041
 6320SOL    HW219860   6.274   5.856   4.922
 6321SOL     OW19861   3.307   3.437   0.876
 6321SOL    HW119862   3.263   3.412   0.962
 6321SOL    HW219863   3.287   3.533   0.855
 6322SOL     OW19864   1.584   2.184   0.354
 6322SOL    HW119865   1.608   2.089   0.369
 6322SOL    HW219866   1.537   2.193   0.266
 6323SOL     OW19867   3.384   2.332   1.289
 6323SOL    HW119868   3.379   2.245   1.241
 6323SOL    HW219869   3.461   2.385   1.254
 6324SOL     OW19870   5.024   0.158   6.656
 6324SOL    HW119871   4.997   0.251   6.681
 6324SOL    HW219872   5.124   0.154   6.647
 6325SOL     OW19873   2.340   1.955   2.664
 6325SOL    HW119874   2.399   2.035   2.668
 6325SOL    HW219875   2.369   1.896   2.588
 6326SOL     OW19876   4.531   4.853   1.747
 6326SOL    HW119877   4.516   4.760   1.716
 6326SOL    HW219878   4.628   4.869   1.763
 6327SOL     OW19879   6.918   0.098   4.911
 6327SOL    HW119880   6.902   0.027   4.842
 6327SOL    HW219881   7.016   0.118   4.917
 6328SOL     OW19882   2.980   3.337   0.887
 6328SOL    HW119883   2.974   3.413   0.822
 6328SOL    HW219884   2.993   3.251   0.837
 6329SOL     OW19885   2.589   2.206   3.493
 6329SOL    HW119886   2.650   2.261   3.549
 6329SOL    HW219887   2.497   2.209   3.532
 6330SOL     OW19888   4.413   1.194   1.148
 6330SOL    HW119889   4.389   1.126   1.217
 6330SOL    HW219890   4.329   1.230   1.107
 6331SOL     OW19891   6.722   2.069   6.573
 6331SOL    HW119892   6.756   1.976   6.589
 6331SOL    HW219893   6.647   2.066   6.507
 6332SOL     OW19894   5.601   3.591   1.793
 6332SOL    HW119895   5.671   3.531   1.753
 6332SOL    HW219896   5.628   3.614   1.887
 6333SOL     OW19897   4.661   5.733   5.140
 6333SOL    HW119898   4.585   5.714   5.201
 6333SOL    HW219899   4.687   5.829   5.149
 6334SOL     OW19900   3.288   0.668   1.434
 6334SOL    HW119901   3.201   0.702   1.397
 6334SOL    HW219902   3.359   0.675   1.364
 6335SOL     OW19903   4.522   1.088   0.153
 6335SOL    HW119904   4.497   1.018   0.220
 6335SOL    HW219905   4.535   1.046   0.063
 6336SOL     OW19906   1.027   1.698   5.766
 6336SOL    HW119907   0.980   1.678   5.851
 6336SOL    HW219908   1.014   1.623   5.702
 6337SOL     OW19909   4.481   4.052   6.468
 6337SOL    HW119910   4.557   4.062   6.532
 6337SOL    HW219911   4.403   4.011   6.515
 6338SOL     OW19912   3.597   1.722   3.987
 6338SOL    HW119913   3.691   1.692   3.972
 6338SOL    HW219914   3.555   1.666   4.059
 6339SOL     OW19915   1.432   3.711   2.635
 6339SOL    HW119916   1.336   3.725   2.612
 6339SOL    HW219917   1.446   3.723   2.733
 6340SOL     OW19918   1.872   4.923   2.645
 6340SOL    HW119919   1.854   4.903   2.548
 6340SOL    HW219920   1.890   5.020   2.656
 6341SOL     OW19921   0.872   4.249   4.441
 6341SOL    HW119922   0.877   4.149   4.430
 6341SOL    HW219923   0.958   4.282   4.480
 6342SOL     OW19924   2.348   1.360   2.388
 6342SOL    HW119925   2.436   1.395   2.418
 6342SOL    HW219926   2.347   1.351   2.288
 6343SOL     OW19927   4.589   2.039   6.175
 6343SOL    HW119928   4.526   1.964   6.160
 6343SOL    HW219929   4.660   2.011   6.240
 6344SOL     OW19930   6.042   3.250   5.579
 6344SOL    HW119931   6.036   3.207   5.489
 6344SOL    HW219932   6.123   3.308   5.583
 6345SOL     OW19933   5.240   2.546   2.232
 6345SOL    HW119934   5.285   2.516   2.315
 6345SOL    HW219935   5.145   2.515   2.232
 6346SOL     OW19936   6.554   4.618   3.656
 6346SOL    HW119937   6.616   4.693   3.680
 6346SOL    HW219938   6.522   4.631   3.562
 6347SOL     OW19939   2.454   0.256   0.938
 6347SOL    HW119940   2.379   0.190   0.946
 6347SOL    HW219941   2.496   0.248   0.848
 6348SOL     OW19942   1.198   4.107   5.256
 6348SOL    HW119943   1.192   4.101   5.156
 6348SOL    HW219944   1.114   4.070   5.296
 6349SOL     OW19945   3.059   0.432   1.129
 6349SOL    HW119946   2.998   0.395   1.059
 6349SOL    HW219947   3.101   0.356   1.179
 6350SOL     OW19948   2.289   4.818   4.212
 6350SOL    HW119949   2.268   4.834   4.308
 6350SOL    HW219950   2.217   4.857   4.155
 6351SOL     OW19951   6.591   3.472   3.488
 6351SOL    HW119952   6.650   3.431   3.557
 6351SOL    HW219953   6.635   3.554   3.451
 6352SOL     OW19954   3.623   5.295   4.858
 6352SOL    HW119955   3.542   5.235   4.856
 6352SOL    HW219956   3.663   5.294   4.949
 6353SOL     OW19957   0.181   0.498   5.805
 6353SOL    HW119958   0.146   0.406   5.791
 6353SOL    HW219959   0.121   0.547   5.869
 6354SOL     OW19960   1.593   5.569   3.461
 6354SOL    HW119961   1.625   5.631   3.532
 6354SOL    HW219962   1.571   5.480   3.501
 6355SOL     OW19963   0.901   5.497   6.548
 6355SOL    HW119964   0.856   5.453   6.625
 6355SOL    HW219965   0.904   5.596   6.563
 6356SOL     OW19966   3.968   5.166   2.611
 6356SOL    HW119967   3.984   5.069   2.591
 6356SOL    HW219968   4.017   5.223   2.544
 6357SOL     OW19969   4.902   3.429   2.265
 6357SOL    HW119970   4.862   3.362   2.203
 6357SOL    HW219971   4.873   3.409   2.359
 6358SOL     OW19972   0.776   1.980   6.344
 6358SOL    HW119973   0.858   1.923   6.344
 6358SOL    HW219974   0.802   2.077   6.344
 6359SOL     OW19975   6.455   6.603   6.289
 6359SOL    HW119976   6.513   6.566   6.216
 6359SOL    HW219977   6.503   6.676   6.337
 6360SOL     OW19978   1.380   4.220   3.998
 6360SOL    HW119979   1.368   4.253   4.092
 6360SOL    HW219980   1.446   4.144   3.998
 6361SOL     OW19981   6.161   6.859   0.767
 6361SOL    HW119982   6.238   6.914   0.800
 6361SOL    HW219983   6.110   6.912   0.699
 6362SOL     OW19984   0.898   6.178   0.976
 6362SOL    HW119985   0.921   6.267   1.014
 6362SOL    HW219986   0.971   6.148   0.914
 6363SOL     OW19987   2.289   4.498   3.732
 6363SOL    HW119988   2.252   4.505   3.639
 6363SOL    HW219989   2.387   4.515   3.730
 6364SOL     OW19990   3.051   1.178   5.598
 6364SOL    HW119991   3.089   1.263   5.634
 6364SOL    HW219992   3.073   1.102   5.660
 6365SOL     OW19993   5.582   0.373   4.117
 6365SOL    HW119994   5.482   0.371   4.113
 6365SOL    HW219995   5.611   0.440   4.185
 6366SOL     OW19996   1.103   6.126   6.245
 6366SOL    HW119997   1.092   6.043   6.191
 6366SOL    HW219998   1.030   6.132   6.314
 6367SOL     OW19999   4.032   0.299   4.781
 6367SOL    HW120000   4.060   0.216   4.733
 6367SOL    HW220001   4.107   0.365   4.780
 6368SOL     OW20002   3.409   4.947   3.786
 6368SOL    HW120003   3.332   4.974   3.845
 6368SOL    HW220004   3.483   4.911   3.842
 6369SOL     OW20005   1.706   4.752   3.777
 6369SOL    HW120006   1.687   4.811   3.855
 6369SOL    HW220007   1.737   4.663   3.810
 6370SOL     OW20008   0.252   3.158   2.908
 6370SOL    HW120009   0.343   3.140   2.947
 6370SOL    HW220010   0.252   3.131   2.812
 6371SOL     OW20011   5.166   3.817   4.047
 6371SOL    HW120012   5.113   3.751   3.994
 6371SOL    HW220013   5.135   3.910   4.025
 6372SOL     OW20014   2.769   0.552   1.832
 6372SOL    HW120015   2.767   0.464   1.784
 6372SOL    HW220016   2.834   0.613   1.787
 6373SOL     OW20017   5.238   4.416   3.198
 6373SOL    HW120018   5.170   4.405   3.126
 6373SOL    HW220019   5.277   4.328   3.222
 6374SOL     OW20020   3.078   4.053   4.540
 6374SOL    HW120021   3.061   4.132   4.600
 6374SOL    HW220022   3.065   3.969   4.592
 6375SOL     OW20023   6.554   1.859   3.847
 6375SOL    HW120024   6.621   1.933   3.851
 6375SOL    HW220025   6.494   1.872   3.768
 6376SOL     OW20026   6.056   2.586   5.299
 6376SOL    HW120027   5.967   2.621   5.330
 6376SOL    HW220028   6.080   2.631   5.213
 6377SOL     OW20029   6.252   1.842   5.131
 6377SOL    HW120030   6.286   1.806   5.218
 6377SOL    HW220031   6.183   1.780   5.093
 6378SOL     OW20032   4.741   5.505   3.821
 6378SOL    HW120033   4.801   5.518   3.742
 6378SOL    HW220034   4.793   5.523   3.905
 6379SOL     OW20035   1.892   4.146   4.400
 6379SOL    HW120036   1.872   4.158   4.303
 6379SOL    HW220037   1.964   4.210   4.427
 6380SOL     OW20038   0.555   1.897   6.235
 6380SOL    HW120039   0.634   1.935   6.284
 6380SOL    HW220040   0.482   1.964   6.234
 6381SOL     OW20041   3.920   3.070   2.011
 6381SOL    HW120042   3.863   3.038   1.934
 6381SOL    HW220043   4.014   3.082   1.980
 6382SOL     OW20044   1.205   1.837   0.823
 6382SOL    HW120045   1.291   1.874   0.857
 6382SOL    HW220046   1.212   1.737   0.818
 6383SOL     OW20047   1.451   1.759   3.152
 6383SOL    HW120048   1.367   1.704   3.156
 6383SOL    HW220049   1.530   1.698   3.143
 6384SOL     OW20050   5.560   3.928   1.291
 6384SOL    HW120051   5.621   3.903   1.366
 6384SOL    HW220052   5.596   4.009   1.244
 6385SOL     OW20053   6.817   4.898   3.640
 6385SOL    HW120054   6.890   4.931   3.580
 6385SOL    HW220055   6.852   4.888   3.733
 6386SOL     OW20056   2.592   4.200   6.490
 6386SOL    HW120057   2.526   4.139   6.533
 6386SOL    HW220058   2.559   4.294   6.495
 6387SOL     OW20059   0.654   1.926   6.576
 6387SOL    HW120060   0.729   1.947   6.513
 6387SOL    HW220061   0.567   1.936   6.529
 6388SOL     OW20062   4.452   4.860   1.135
 6388SOL    HW120063   4.363   4.890   1.169
 6388SOL    HW220064   4.451   4.762   1.121
 6389SOL     OW20065   0.841   5.907   2.489
 6389SOL    HW120066   0.923   5.856   2.512
 6389SOL    HW220067   0.786   5.855   2.424
 6390SOL     OW20068   0.664   2.048   5.254
 6390SOL    HW120069   0.614   1.987   5.192
 6390SOL    HW220070   0.759   2.018   5.261
 6391SOL     OW20071   2.509   6.898   5.711
 6391SOL    HW120072   2.551   6.985   5.741
 6391SOL    HW220073   2.410   6.906   5.715
 6392SOL     OW20074   2.087   6.925   3.133
 6392SOL    HW120075   2.037   6.852   3.180
 6392SOL    HW220076   2.145   6.973   3.198
 6393SOL     OW20077   6.619   6.817   1.638
 6393SOL    HW120078   6.684   6.749   1.671
 6393SOL    HW220079   6.625   6.899   1.695
 6394SOL     OW20080   2.424   4.655   0.794
 6394SOL    HW120081   2.466   4.574   0.752
 6394SOL    HW220082   2.367   4.701   0.726
 6395SOL     OW20083   6.420   2.615   1.685
 6395SOL    HW120084   6.505   2.666   1.675
 6395SOL    HW220085   6.343   2.678   1.676
 6396SOL     OW20086   5.457   3.165   6.341
 6396SOL    HW120087   5.458   3.162   6.441
 6396SOL    HW220088   5.537   3.116   6.305
 6397SOL     OW20089   5.269   2.376   6.666
 6397SOL    HW120090   5.321   2.355   6.749
 6397SOL    HW220091   5.172   2.356   6.683
 6398SOL     OW20092   3.154   0.678   0.452
 6398SOL    HW120093   3.148   0.611   0.526
 6398SOL    HW220094   3.095   0.756   0.474
 6399SOL     OW20095   1.551   5.908   0.067
 6399SOL    HW120096   1.632   5.961   0.091
 6399SOL    HW220097   1.529   5.845   0.141
 6400SOL     OW20098   2.199   6.537   2.344
 6400SOL    HW120099   2.141   6.609   2.381
 6400SOL    HW220100   2.204   6.547   2.244
 6401SOL     OW20101   0.316   4.602   3.467
 6401SOL    HW120102   0.258   4.536   3.418
 6401SOL    HW220103   0.412   4.584   3.445
 6402SOL     OW20104   4.097   1.430   2.523
 6402SOL    HW120105   4.167   1.360   2.509
 6402SOL    HW220106   4.139   1.521   2.519
 6403SOL     OW20107   7.005   6.289   6.275
 6403SOL    HW120108   0.013   6.287   6.181
 6403SOL    HW220109   0.057   6.270   6.337
 6404SOL     OW20110   4.200   1.338   2.244
 6404SOL    HW120111   4.104   1.343   2.215
 6404SOL    HW220112   4.205   1.293   2.333
 6405SOL     OW20113   2.711   0.199   3.707
 6405SOL    HW120114   2.674   0.289   3.684
 6405SOL    HW220115   2.714   0.142   3.625
 6406SOL     OW20116   1.034   2.570   3.404
 6406SOL    HW120117   1.010   2.597   3.311
 6406SOL    HW220118   0.951   2.563   3.459
 6407SOL     OW20119   2.728   6.265   4.351
 6407SOL    HW120120   2.655   6.279   4.285
 6407SOL    HW220121   2.747   6.168   4.362
 6408SOL     OW20122   5.705   1.814   0.299
 6408SOL    HW120123   5.649   1.863   0.366
 6408SOL    HW220124   5.774   1.760   0.346
 6409SOL     OW20125   7.015   4.079   3.075
 6409SOL    HW120126   7.006   4.125   3.163
 6409SOL    HW220127   7.002   3.980   3.088
 6410SOL     OW20128   1.814   1.587   0.196
 6410SOL    HW120129   1.766   1.666   0.158
 6410SOL    HW220130   1.776   1.503   0.157
 6411SOL     OW20131   0.675   2.806   3.281
 6411SOL    HW120132   0.668   2.757   3.368
 6411SOL    HW220133   0.591   2.857   3.265
 6412SOL     OW20134   0.262   2.053   5.219
 6412SOL    HW120135   0.324   2.048   5.298
 6412SOL    HW220136   0.235   2.148   5.204
 6413SOL     OW20137   4.195   4.814   3.610
 6413SOL    HW120138   4.198   4.747   3.684
 6413SOL    HW220139   4.207   4.767   3.522
 6414SOL     OW20140   5.934   0.967   0.930
 6414SOL    HW120141   5.854   1.021   0.955
 6414SOL    HW220142   5.995   0.958   1.009
 6415SOL     OW20143   1.846   2.547   3.374
 6415SOL    HW120144   1.797   2.626   3.336
 6415SOL    HW220145   1.809   2.524   3.464
 6416SOL     OW20146   1.070   1.320   6.776
 6416SOL    HW120147   1.013   1.248   6.737
 6416SOL    HW220148   1.163   1.311   6.741
 6417SOL     OW20149   6.950   4.946   2.219
 6417SOL    HW120150   6.907   4.863   2.182
 6417SOL    HW220151   6.933   5.022   2.157
 6418SOL     OW20152   5.077   4.671   2.022
 6418SOL    HW120153   5.010   4.601   2.047
 6418SOL    HW220154   5.170   4.634   2.033
 6419SOL     OW20155   2.455   4.657   2.828
 6419SOL    HW120156   2.531   4.657   2.763
 6419SOL    HW220157   2.375   4.699   2.785
 6420SOL     OW20158   3.196   3.881   5.370
 6420SOL    HW120159   3.106   3.882   5.327
 6420SOL    HW220160   3.209   3.795   5.420
 6421SOL     OW20161   5.711   1.003   2.609
 6421SOL    HW120162   5.797   1.033   2.568
 6421SOL    HW220163   5.654   1.083   2.629
 6422SOL     OW20164   0.458   0.401   3.511
 6422SOL    HW120165   0.535   0.347   3.479
 6422SOL    HW220166   0.373   0.348   3.499
 6423SOL     OW20167   4.997   5.371   2.668
 6423SOL    HW120168   5.094   5.365   2.645
 6423SOL    HW220169   4.951   5.287   2.640
 6424SOL     OW20170   6.974   5.913   5.981
 6424SOL    HW120171   7.000   5.896   6.076
 6424SOL    HW220172   6.913   5.841   5.949
 6425SOL     OW20173   6.295   5.566   3.023
 6425SOL    HW120174   6.280   5.639   2.957
 6425SOL    HW220175   6.393   5.543   3.024
 6426SOL     OW20176   0.752   4.622   2.903
 6426SOL    HW120177   0.668   4.612   2.850
 6426SOL    HW220178   0.823   4.564   2.864
 6427SOL     OW20179   2.996   2.773   6.010
 6427SOL    HW120180   2.939   2.767   5.928
 6427SOL    HW220181   2.938   2.784   6.091
 6428SOL     OW20182   6.193   3.037   6.695
 6428SOL    HW120183   6.142   3.076   6.772
 6428SOL    HW220184   6.274   2.990   6.729
 6429SOL     OW20185   1.694   1.708   5.626
 6429SOL    HW120186   1.684   1.713   5.527
 6429SOL    HW220187   1.604   1.713   5.669
 6430SOL     OW20188   5.823   0.898   1.971
 6430SOL    HW120189   5.728   0.926   1.986
 6430SOL    HW220190   5.836   0.874   1.874
 6431SOL     OW20191   5.147   6.465   3.588
 6431SOL    HW120192   5.210   6.425   3.656
 6431SOL    HW220193   5.139   6.563   3.605
 6432SOL     OW20194   3.792   3.779   6.397
 6432SOL    HW120195   3.751   3.854   6.448
 6432SOL    HW220196   3.891   3.778   6.411
 6433SOL     OW20197   3.149   4.643   0.822
 6433SOL    HW120198   3.142   4.580   0.899
 6433SOL    HW220199   3.065   4.639   0.768
 6434SOL     OW20200   1.336   3.769   0.127
 6434SOL    HW120201   1.330   3.680   0.171
 6434SOL    HW220202   1.302   3.763   0.034
 6435SOL     OW20203   4.615   6.385   7.022
 6435SOL    HW120204   4.605   6.367   0.096
 6435SOL    HW220205   4.536   6.347   6.973
 6436SOL     OW20206   2.058   3.666   3.480
 6436SOL    HW120207   2.094   3.673   3.387
 6436SOL    HW220208   2.017   3.575   3.494
 6437SOL     OW20209   2.329   1.147   0.750
 6437SOL    HW120210   2.390   1.124   0.826
 6437SOL    HW220211   2.379   1.202   0.683
 6438SOL     OW20212   0.385   4.178   6.605
 6438SOL    HW120213   0.305   4.185   6.664
 6438SOL    HW220214   0.362   4.208   6.513
 6439SOL     OW20215   5.572   1.127   1.306
 6439SOL    HW120216   5.550   1.104   1.401
 6439SOL    HW220217   5.507   1.195   1.273
 6440SOL     OW20218   2.319   1.779   0.384
 6440SOL    HW120219   2.317   1.680   0.397
 6440SOL    HW220220   2.411   1.807   0.358
 6441SOL     OW20221   1.027   6.058   2.312
 6441SOL    HW120222   0.962   6.019   2.379
 6441SOL    HW220223   1.009   6.017   2.222
 6442SOL     OW20224   2.806   0.862   4.157
 6442SOL    HW120225   2.763   0.837   4.244
 6442SOL    HW220226   2.836   0.958   4.162
 6443SOL     OW20227   4.012   2.455   5.845
 6443SOL    HW120228   3.959   2.401   5.779
 6443SOL    HW220229   3.962   2.539   5.866
 6444SOL     OW20230   6.641   2.553   3.976
 6444SOL    HW120231   6.705   2.550   4.052
 6444SOL    HW220232   6.557   2.505   4.001
 6445SOL     OW20233   4.843   3.052   5.545
 6445SOL    HW120234   4.841   3.143   5.589
 6445SOL    HW220235   4.804   3.059   5.453
 6446SOL     OW20236   1.414   0.982   6.032
 6446SOL    HW120237   1.457   1.049   5.971
 6446SOL    HW220238   1.318   0.972   6.006
 6447SOL     OW20239   0.396   5.136   2.619
 6447SOL    HW120240   0.478   5.166   2.667
 6447SOL    HW220241   0.324   5.116   2.685
 6448SOL     OW20242   4.851   5.634   2.754
 6448SOL    HW120243   4.951   5.626   2.749
 6448SOL    HW220244   4.811   5.542   2.749
 6449SOL     OW20245   3.260   4.899   0.783
 6449SOL    HW120246   3.218   4.960   0.850
 6449SOL    HW220247   3.218   4.809   0.789
 6450SOL     OW20248   0.403   3.684   1.283
 6450SOL    HW120249   0.474   3.711   1.218
 6450SOL    HW220250   0.432   3.603   1.333
 6451SOL     OW20251   2.321   6.970   5.163
 6451SOL    HW120252   2.409   6.998   5.125
 6451SOL    HW220253   2.274   6.912   5.097
 6452SOL     OW20254   3.503   6.955   4.717
 6452SOL    HW120255   3.453   6.882   4.670
 6452SOL    HW220256   3.439   0.003   4.742
 6453SOL     OW20257   2.069   6.610   1.044
 6453SOL    HW120258   2.142   6.631   0.980
 6453SOL    HW220259   2.003   6.686   1.046
 6454SOL     OW20260   2.468   1.885   3.305
 6454SOL    HW120261   2.515   1.863   3.391
 6454SOL    HW220262   2.536   1.900   3.233
 6455SOL     OW20263   0.316   2.127   3.968
 6455SOL    HW120264   0.389   2.194   3.983
 6455SOL    HW220265   0.291   2.085   4.056
 6456SOL     OW20266   1.766   0.437   3.250
 6456SOL    HW120267   1.807   0.472   3.335
 6456SOL    HW220268   1.805   0.348   3.227
 6457SOL     OW20269   4.531   2.157   0.476
 6457SOL    HW120270   4.611   2.108   0.440
 6457SOL    HW220271   4.505   2.118   0.565
 6458SOL     OW20272   0.870   0.037   3.531
 6458SOL    HW120273   0.965   0.047   3.503
 6458SOL    HW220274   0.837   6.970   3.506
 6459SOL     OW20275   5.559   5.027   0.416
 6459SOL    HW120276   5.466   5.034   0.453
 6459SOL    HW220277   5.617   4.979   0.481
 6460SOL     OW20278   4.998   5.565   6.014
 6460SOL    HW120279   5.002   5.636   5.943
 6460SOL    HW220280   4.966   5.480   5.974
 6461SOL     OW20281   2.692   4.737   5.303
 6461SOL    HW120282   2.653   4.817   5.257
 6461SOL    HW220283   2.745   4.684   5.237
 6462SOL     OW20284   2.331   2.865   4.794
 6462SOL    HW120285   2.340   2.921   4.877
 6462SOL    HW220286   2.406   2.799   4.790
 6463SOL     OW20287   6.775   3.925   6.651
 6463SOL    HW120288   6.869   3.946   6.675
 6463SOL    HW220289   6.762   3.826   6.650
 6464SOL     OW20290   1.558   4.866   4.576
 6464SOL    HW120291   1.641   4.865   4.631
 6464SOL    HW220292   1.517   4.957   4.578
 6465SOL     OW20293   6.716   2.722   3.418
 6465SOL    HW120294   6.722   2.683   3.510
 6465SOL    HW220295   6.765   2.809   3.415
 6466SOL     OW20296   0.954   1.683   6.551
 6466SOL    HW120297   1.024   1.628   6.506
 6466SOL    HW220298   0.940   1.651   6.645
 6467SOL     OW20299   3.333   0.521   6.541
 6467SOL    HW120300   3.355   0.602   6.596
 6467SOL    HW220301   3.255   0.474   6.582
 6468SOL     OW20302   4.049   6.900   1.429
 6468SOL    HW120303   3.961   6.937   1.459
 6468SOL    HW220304   4.114   6.975   1.416
 6469SOL     OW20305   4.455   0.418   4.989
 6469SOL    HW120306   4.543   0.429   4.943
 6469SOL    HW220307   4.426   0.322   4.982
 6470SOL     OW20308   6.364   4.681   6.688
 6470SOL    HW120309   6.390   4.770   6.723
 6470SOL    HW220310   6.390   4.674   6.591
 6471SOL     OW20311   6.550   5.912   5.301
 6471SOL    HW120312   6.474   5.968   5.334
 6471SOL    HW220313   6.529   5.879   5.209
 6472SOL     OW20314   0.650   4.643   1.166
 6472SOL    HW120315   0.576   4.576   1.158
 6472SOL    HW220316   0.722   4.607   1.225
 6473SOL     OW20317   2.742   1.495   4.145
 6473SOL    HW120318   2.785   1.425   4.087
 6473SOL    HW220319   2.778   1.489   4.238
 6474SOL     OW20320   2.048   4.078   6.086
 6474SOL    HW120321   2.035   4.177   6.079
 6474SOL    HW220322   2.115   4.059   6.158
 6475SOL     OW20323   6.662   5.183   4.083
 6475SOL    HW120324   6.695   5.256   4.142
 6475SOL    HW220325   6.659   5.215   3.988
 6476SOL     OW20326   4.686   3.005   0.840
 6476SOL    HW120327   4.678   3.072   0.915
 6476SOL    HW220328   4.700   2.914   0.879
 6477SOL     OW20329   6.383   4.664   0.961
 6477SOL    HW120330   6.316   4.602   0.919
 6477SOL    HW220331   6.426   4.618   1.039
 6478SOL     OW20332   3.709   6.541   1.808
 6478SOL    HW120333   3.632   6.578   1.757
 6478SOL    HW220334   3.710   6.441   1.800
 6479SOL     OW20335   3.982   6.203   3.965
 6479SOL    HW120336   3.971   6.253   3.879
 6479SOL    HW220337   4.079   6.204   3.991
 6480SOL     OW20338   3.325   2.202   5.527
 6480SOL    HW120339   3.338   2.162   5.618
 6480SOL    HW220340   3.228   2.198   5.503
 6481SOL     OW20341   3.825   1.977   1.910
 6481SOL    HW120342   3.801   1.956   2.005
 6481SOL    HW220343   3.776   2.059   1.880
 6482SOL     OW20344   0.225   0.346   6.147
 6482SOL    HW120345   0.237   0.361   6.246
 6482SOL    HW220346   0.289   0.276   6.116
 6483SOL     OW20347   1.269   5.790   1.254
 6483SOL    HW120348   1.312   5.879   1.269
 6483SOL    HW220349   1.215   5.793   1.170
 6484SOL     OW20350   3.583   0.404   1.829
 6484SOL    HW120351   3.487   0.416   1.854
 6484SOL    HW220352   3.612   0.311   1.852
 6485SOL     OW20353   1.949   4.395   3.292
 6485SOL    HW120354   1.866   4.439   3.327
 6485SOL    HW220355   1.982   4.445   3.212
 6486SOL     OW20356   1.974   4.433   4.621
 6486SOL    HW120357   2.020   4.345   4.635
 6486SOL    HW220358   1.992   4.492   4.699
 6487SOL     OW20359   6.893   6.100   5.230
 6487SOL    HW120360   6.855   6.064   5.145
 6487SOL    HW220361   6.883   6.032   5.303
 6488SOL     OW20362   3.354   5.965   5.504
 6488SOL    HW120363   3.279   5.928   5.558
 6488SOL    HW220364   3.367   6.062   5.526
 6489SOL     OW20365   2.366   2.924   6.605
 6489SOL    HW120366   2.275   2.905   6.567
 6489SOL    HW220367   2.407   2.839   6.637
 6490SOL     OW20368   4.117   1.821   5.912
 6490SOL    HW120369   4.154   1.729   5.929
 6490SOL    HW220370   4.193   1.885   5.903
 6491SOL     OW20371   3.933   1.231   6.569
 6491SOL    HW120372   3.863   1.203   6.635
 6491SOL    HW220373   3.890   1.276   6.491
 6492SOL     OW20374   5.539   5.642   0.024
 6492SOL    HW120375   5.457   5.584   0.033
 6492SOL    HW220376   5.575   5.634   6.956
 6493SOL     OW20377   1.056   5.462   4.817
 6493SOL    HW120378   1.044   5.558   4.840
 6493SOL    HW220379   0.994   5.438   4.742
 6494SOL     OW20380   0.522   0.922   3.225
 6494SOL    HW120381   0.427   0.890   3.216
 6494SOL    HW220382   0.573   0.857   3.281
 6495SOL     OW20383   4.943   5.973   4.386
 6495SOL    HW120384   4.868   5.932   4.438
 6495SOL    HW220385   5.006   5.902   4.356
 6496SOL     OW20386   0.046   0.010   2.296
 6496SOL    HW120387   0.125   0.043   2.244
 6496SOL    HW220388   7.021   0.087   2.335
 6497SOL     OW20389   2.242   2.851   0.588
 6497SOL    HW120390   2.225   2.763   0.631
 6497SOL    HW220391   2.219   2.846   0.491
 6498SOL     OW20392   2.163   3.961   4.199
 6498SOL    HW120393   2.203   4.049   4.228
 6498SOL    HW220394   2.189   3.942   4.105
 6499SOL     OW20395   5.353   2.180   4.810
 6499SOL    HW120396   5.267   2.205   4.854
 6499SOL    HW220397   5.378   2.250   4.743
 6500SOL     OW20398   0.191   4.377   3.313
 6500SOL    HW120399   0.230   4.287   3.330
 6500SOL    HW220400   0.098   4.380   3.350
 6501SOL     OW20401   6.487   2.618   6.742
 6501SOL    HW120402   6.571   2.671   6.753
 6501SOL    HW220403   6.509   2.529   6.702
 6502SOL     OW20404   6.179   3.478   1.655
 6502SOL    HW120405   6.133   3.543   1.715
 6502SOL    HW220406   6.254   3.523   1.607
 6503SOL     OW20407   4.811   1.397   3.500
 6503SOL    HW120408   4.786   1.303   3.523
 6503SOL    HW220409   4.738   1.459   3.527
 6504SOL     OW20410   5.017   6.230   6.059
 6504SOL    HW120411   4.921   6.248   6.078
 6504SOL    HW220412   5.067   6.221   6.145
 6505SOL     OW20413   5.407   5.276   1.760
 6505SOL    HW120414   5.381   5.341   1.831
 6505SOL    HW220415   5.339   5.203   1.756
 6506SOL     OW20416   6.221   3.412   1.962
 6506SOL    HW120417   6.169   3.340   2.007
 6506SOL    HW220418   6.216   3.402   1.863
 6507SOL     OW20419   2.062   5.137   5.932
 6507SOL    HW120420   2.111   5.122   5.846
 6507SOL    HW220421   2.015   5.053   5.959
 6508SOL     OW20422   2.209   0.324   3.087
 6508SOL    HW120423   2.179   0.256   3.020
 6508SOL    HW220424   2.247   0.403   3.039
 6509SOL     OW20425   3.173   1.869   4.412
 6509SOL    HW120426   3.104   1.931   4.450
 6509SOL    HW220427   3.128   1.786   4.380
 6510SOL     OW20428   6.524   4.271   6.881
 6510SOL    HW120429   6.576   4.284   6.965
 6510SOL    HW220430   6.498   4.360   6.843
 6511SOL     OW20431   4.748   0.946   4.681
 6511SOL    HW120432   4.779   0.857   4.647
 6511SOL    HW220433   4.684   0.931   4.758
 6512SOL     OW20434   5.015   6.881   2.171
 6512SOL    HW120435   5.106   6.917   2.151
 6512SOL    HW220436   5.002   6.876   2.270
 6513SOL     OW20437   3.244   4.905   3.008
 6513SOL    HW120438   3.260   4.814   3.046
 6513SOL    HW220439   3.240   4.899   2.908
 6514SOL     OW20440   5.598   1.145   3.874
 6514SOL    HW120441   5.554   1.150   3.963
 6514SOL    HW220442   5.564   1.065   3.824
 6515SOL     OW20443   0.803   4.865   4.104
 6515SOL    HW120444   0.891   4.899   4.072
 6515SOL    HW220445   0.801   4.868   4.204
 6516SOL     OW20446   0.337   3.255   1.863
 6516SOL    HW120447   0.410   3.187   1.862
 6516SOL    HW220448   0.253   3.214   1.896
 6517SOL     OW20449   6.739   0.977   0.329
 6517SOL    HW120450   6.812   0.929   0.378
 6517SOL    HW220451   6.726   1.067   0.369
 6518SOL     OW20452   6.917   0.425   0.084
 6518SOL    HW120453   6.990   0.491   0.064
 6518SOL    HW220454   6.842   0.471   0.130
 6519SOL     OW20455   2.842   2.014   3.620
 6519SOL    HW120456   2.830   2.021   3.521
 6519SOL    HW220457   2.754   1.991   3.662
 6520SOL     OW20458   5.784   5.316   2.257
 6520SOL    HW120459   5.820   5.240   2.203
 6520SOL    HW220460   5.686   5.325   2.240
 6521SOL     OW20461   1.898   2.550   4.441
 6521SOL    HW120462   1.968   2.612   4.406
 6521SOL    HW220463   1.882   2.477   4.374
 6522SOL     OW20464   3.699   4.488   0.083
 6522SOL    HW120465   3.600   4.491   0.101
 6522SOL    HW220466   3.744   4.564   0.131
 6523SOL     OW20467   3.575   0.394   6.548
 6523SOL    HW120468   3.594   0.313   6.491
 6523SOL    HW220469   3.483   0.426   6.529
 6524SOL     OW20470   2.789   3.417   1.958
 6524SOL    HW120471   2.734   3.404   2.040
 6524SOL    HW220472   2.731   3.409   1.877
 6525SOL     OW20473   1.338   3.921   3.638
 6525SOL    HW120474   1.374   4.011   3.660
 6525SOL    HW220475   1.386   3.852   3.692
 6526SOL     OW20476   2.158   0.369   6.524
 6526SOL    HW120477   2.060   0.348   6.533
 6526SOL    HW220478   2.169   0.454   6.472
 6527SOL     OW20479   1.214   2.309   4.683
 6527SOL    HW120480   1.230   2.296   4.781
 6527SOL    HW220481   1.148   2.383   4.670
 6528SOL     OW20482   0.194   1.295   3.832
 6528SOL    HW120483   0.269   1.312   3.895
 6528SOL    HW220484   0.160   1.202   3.845
 6529SOL     OW20485   0.276   1.693   2.949
 6529SOL    HW120486   0.283   1.759   3.023
 6529SOL    HW220487   0.282   1.600   2.986
 6530SOL     OW20488   6.554   3.772   1.789
 6530SOL    HW120489   6.482   3.733   1.847
 6530SOL    HW220490   6.632   3.710   1.787
 6531SOL     OW20491   5.448   3.698   4.784
 6531SOL    HW120492   5.525   3.672   4.841
 6531SOL    HW220493   5.369   3.640   4.804
 6532SOL     OW20494   6.170   0.095   6.713
 6532SOL    HW120495   6.119   0.171   6.753
 6532SOL    HW220496   6.108   0.036   6.661
 6533SOL     OW20497   4.832   5.875   0.884
 6533SOL    HW120498   4.814   5.790   0.834
 6533SOL    HW220499   4.805   5.864   0.980
 6534SOL     OW20500   3.567   4.335   1.144
 6534SOL    HW120501   3.538   4.249   1.188
 6534SOL    HW220502   3.660   4.324   1.108
 6535SOL     OW20503   6.367   3.277   4.123
 6535SOL    HW120504   6.369   3.242   4.030
 6535SOL    HW220505   6.334   3.206   4.185
 6536SOL     OW20506   0.753   2.319   5.807
 6536SOL    HW120507   0.673   2.265   5.835
 6536SOL    HW220508   0.818   2.324   5.882
 6537SOL     OW20509   6.062   5.625   0.105
 6537SOL    HW120510   6.081   5.647   0.201
 6537SOL    HW220511   5.976   5.575   0.099
 6538SOL     OW20512   3.154   4.276   6.999
 6538SOL    HW120513   3.176   4.194   6.946
 6538SOL    HW220514   3.158   4.356   6.939
 6539SOL     OW20515   3.334   0.325   6.076
 6539SOL    HW120516   3.369   0.366   5.991
 6539SOL    HW220517   3.398   0.255   6.108
 6540SOL     OW20518   5.447   1.318   5.173
 6540SOL    HW120519   5.522   1.264   5.211
 6540SOL    HW220520   5.405   1.373   5.245
 6541SOL     OW20521   3.663   1.739   4.770
 6541SOL    HW120522   3.728   1.811   4.792
 6541SOL    HW220523   3.696   1.652   4.807
 6542SOL     OW20524   6.923   4.522   3.996
 6542SOL    HW120525   6.868   4.516   4.079
 6542SOL    HW220526   6.915   4.613   3.957
 6543SOL     OW20527   6.415   3.768   6.524
 6543SOL    HW120528   6.389   3.783   6.620
 6543SOL    HW220529   6.410   3.670   6.503
 6544SOL     OW20530   0.309   6.576   2.699
 6544SOL    HW120531   0.397   6.547   2.661
 6544SOL    HW220532   0.306   6.552   2.796
 6545SOL     OW20533   5.766   2.168   6.654
 6545SOL    HW120534   5.781   2.144   6.558
 6545SOL    HW220535   5.833   2.121   6.711
 6546SOL     OW20536   3.819   4.138   6.891
 6546SOL    HW120537   3.761   4.157   6.971
 6546SOL    HW220538   3.815   4.215   6.828
 6547SOL     OW20539   4.618   1.205   5.762
 6547SOL    HW120540   4.603   1.110   5.790
 6547SOL    HW220541   4.716   1.222   5.756
 6548SOL     OW20542   1.004   3.250   0.513
 6548SOL    HW120543   1.016   3.322   0.444
 6548SOL    HW220544   0.998   3.292   0.604
 6549SOL     OW20545   4.116   1.491   0.800
 6549SOL    HW120546   4.075   1.505   0.710
 6549SOL    HW220547   4.167   1.406   0.801
 6550SOL     OW20548   0.680   6.654   3.916
 6550SOL    HW120549   0.685   6.575   3.976
 6550SOL    HW220550   0.585   6.673   3.894
 6551SOL     OW20551   1.783   4.482   2.198
 6551SOL    HW120552   1.778   4.569   2.147
 6551SOL    HW220553   1.865   4.483   2.256
 6552SOL     OW20554   2.321   0.218   5.271
 6552SOL    HW120555   2.316   0.128   5.227
 6552SOL    HW220556   2.416   0.236   5.300
 6553SOL     OW20557   0.756   1.534   2.983
 6553SOL    HW120558   0.832   1.470   2.998
 6553SOL    HW220559   0.706   1.507   2.901
 6554SOL     OW20560   5.977   1.132   5.364
 6554SOL    HW120561   5.970   1.054   5.427
 6554SOL    HW220562   5.947   1.215   5.411
 6555SOL     OW20563   0.204   2.167   1.721
 6555SOL    HW120564   0.177   2.181   1.816
 6555SOL    HW220565   0.125   2.139   1.667
 6556SOL     OW20566   4.702   4.587   5.168
 6556SOL    HW120567   4.723   4.574   5.071
 6556SOL    HW220568   4.733   4.677   5.197
 6557SOL     OW20569   3.485   5.782   1.564
 6557SOL    HW120570   3.554   5.829   1.619
 6557SOL    HW220571   3.530   5.721   1.499
 6558SOL     OW20572   6.619   5.071   0.204
 6558SOL    HW120573   6.561   5.009   0.257
 6558SOL    HW220574   6.563   5.140   0.160
 6559SOL     OW20575   6.185   4.263   6.687
 6559SOL    HW120576   6.148   4.188   6.742
 6559SOL    HW220577   6.204   4.231   6.594
 6560SOL     OW20578   4.209   4.060   1.401
 6560SOL    HW120579   4.251   4.151   1.405
 6560SOL    HW220580   4.229   4.018   1.313
 6561SOL     OW20581   3.849   3.933   2.130
 6561SOL    HW120582   3.866   3.993   2.052
 6561SOL    HW220583   3.851   3.986   2.215
 6562SOL     OW20584   5.620   4.595   6.999
 6562SOL    HW120585   5.635   4.616   0.072
 6562SOL    HW220586   5.526   4.564   6.986
 6563SOL     OW20587   0.041   6.086   0.452
 6563SOL    HW120588   0.101   6.154   0.493
 6563SOL    HW220589   6.981   6.130   0.422
 6564SOL     OW20590   0.108   4.271   2.456
 6564SOL    HW120591   0.070   4.193   2.506
 6564SOL    HW220592   0.169   4.323   2.517
 6565SOL     OW20593   6.577   2.336   4.184
 6565SOL    HW120594   6.591   2.258   4.124
 6565SOL    HW220595   6.522   2.308   4.263
 6566SOL     OW20596   2.559   6.254   2.356
 6566SOL    HW120597   2.606   6.230   2.271
 6566SOL    HW220598   2.476   6.199   2.365
 6567SOL     OW20599   3.889   2.649   1.040
 6567SOL    HW120600   3.882   2.744   1.011
 6567SOL    HW220601   3.863   2.589   0.964
 6568SOL     OW20602   4.665   6.736   3.272
 6568SOL    HW120603   4.755   6.775   3.293
 6568SOL    HW220604   4.658   6.721   3.173
 6569SOL     OW20605   3.040   4.050   0.242
 6569SOL    HW120606   2.989   4.122   0.289
 6569SOL    HW220607   3.023   4.057   0.143
 6570SOL     OW20608   3.998   6.606   2.098
 6570SOL    HW120609   4.045   6.693   2.080
 6570SOL    HW220610   3.963   6.569   2.012
 6571SOL     OW20611   2.724   5.431   2.233
 6571SOL    HW120612   2.674   5.398   2.153
 6571SOL    HW220613   2.786   5.505   2.206
 6572SOL     OW20614   0.177   5.838   5.653
 6572SOL    HW120615   0.143   5.874   5.566
 6572SOL    HW220616   0.154   5.901   5.726
 6573SOL     OW20617   2.149   1.551   1.793
 6573SOL    HW120618   2.133   1.562   1.695
 6573SOL    HW220619   2.210   1.623   1.825
 6574SOL     OW20620   2.985   6.412   2.443
 6574SOL    HW120621   2.936   6.493   2.412
 6574SOL    HW220622   2.929   6.361   2.508
 6575SOL     OW20623   0.899   1.148   2.470
 6575SOL    HW120624   0.903   1.245   2.495
 6575SOL    HW220625   0.991   1.112   2.459
 6576SOL     OW20626   1.710   6.451   6.673
 6576SOL    HW120627   1.750   6.366   6.638
 6576SOL    HW220628   1.611   6.440   6.681
 6577SOL     OW20629   1.090   2.599   3.692
 6577SOL    HW120630   1.079   2.610   3.593
 6577SOL    HW220631   1.038   2.519   3.723
 6578SOL     OW20632   0.964   4.440   2.878
 6578SOL    HW120633   1.044   4.387   2.848
 6578SOL    HW220634   0.983   4.479   2.968
 6579SOL     OW20635   0.007   3.662   4.832
 6579SOL    HW120636   0.025   3.601   4.755
 6579SOL    HW220637   6.942   3.640   4.871
 6580SOL     OW20638   6.858   1.562   1.126
 6580SOL    HW120639   6.780   1.531   1.072
 6580SOL    HW220640   6.935   1.499   1.113
 6581SOL     OW20641   2.738   1.328   6.684
 6581SOL    HW120642   2.657   1.340   6.626
 6581SOL    HW220643   2.768   1.417   6.719
 6582SOL     OW20644   1.482   1.272   1.743
 6582SOL    HW120645   1.557   1.338   1.753
 6582SOL    HW220646   1.508   1.202   1.676
 6583SOL     OW20647   4.445   0.155   5.043
 6583SOL    HW120648   4.373   0.196   5.100
 6583SOL    HW220649   4.509   0.106   5.102
 6584SOL     OW20650   5.140   1.845   6.673
 6584SOL    HW120651   5.140   1.745   6.672
 6584SOL    HW220652   5.199   1.878   6.599
 6585SOL     OW20653   6.631   0.637   6.773
 6585SOL    HW120654   6.703   0.581   6.814
 6585SOL    HW220655   6.593   0.699   6.842
 6586SOL     OW20656   6.445   2.161   6.040
 6586SOL    HW120657   6.542   2.184   6.033
 6586SOL    HW220658   6.409   2.140   5.949
 6587SOL     OW20659   2.596   6.229   4.972
 6587SOL    HW120660   2.640   6.140   4.960
 6587SOL    HW220661   2.498   6.215   4.990
 6588SOL     OW20662   1.651   3.825   1.486
 6588SOL    HW120663   1.680   3.880   1.565
 6588SOL    HW220664   1.551   3.822   1.483
 6589SOL     OW20665   4.720   0.507   0.247
 6589SOL    HW120666   4.649   0.577   0.251
 6589SOL    HW220667   4.688   0.424   0.290
 6590SOL     OW20668   1.234   1.262   5.875
 6590SOL    HW120669   1.186   1.309   5.949
 6590SOL    HW220670   1.169   1.241   5.801
 6591SOL     OW20671   4.863   6.274   2.568
 6591SOL    HW120672   4.939   6.209   2.562
 6591SOL    HW220673   4.849   6.318   2.480
 6592SOL     OW20674   5.701   6.469   4.166
 6592SOL    HW120675   5.797   6.473   4.192
 6592SOL    HW220676   5.678   6.377   4.135
 6593SOL     OW20677   2.631   1.733   3.965
 6593SOL    HW120678   2.725   1.717   3.995
 6593SOL    HW220679   2.575   1.655   3.991
 6594SOL     OW20680   3.664   1.273   0.069
 6594SOL    HW120681   3.744   1.249   0.014
 6594SOL    HW220682   3.692   1.285   0.164
 6595SOL     OW20683   0.778   2.988   1.021
 6595SOL    HW120684   0.685   2.951   1.025
 6595SOL    HW220685   0.787   3.062   1.087
 6596SOL     OW20686   3.043   0.075   4.693
 6596SOL    HW120687   2.966   0.136   4.710
 6596SOL    HW220688   3.044   0.049   4.596
 6597SOL     OW20689   2.011   6.120   3.253
 6597SOL    HW120690   1.995   6.213   3.220
 6597SOL    HW220691   2.057   6.067   3.181
 6598SOL     OW20692   0.704   6.963   4.475
 6598SOL    HW120693   0.754   6.978   4.561
 6598SOL    HW220694   0.765   6.920   4.409
 6599SOL     OW20695   3.822   6.175   5.348
 6599SOL    HW120696   3.735   6.161   5.301
 6599SOL    HW220697   3.841   6.273   5.356
 6600SOL     OW20698   4.752   5.018   6.087
 6600SOL    HW120699   4.713   4.937   6.131
 6600SOL    HW220700   4.725   5.020   5.991
 6601SOL     OW20701   0.830   1.521   5.919
 6601SOL    HW120702   0.787   1.609   5.938
 6601SOL    HW220703   0.760   1.453   5.897
 6602SOL     OW20704   0.374   1.563   1.912
 6602SOL    HW120705   0.341   1.540   2.004
 6602SOL    HW220706   0.474   1.561   1.912
 6603SOL     OW20707   0.628   2.575   4.332
 6603SOL    HW120708   0.708   2.627   4.303
 6603SOL    HW220709   0.635   2.481   4.298
 6604SOL     OW20710   2.717   6.526   0.762
 6604SOL    HW120711   2.780   6.450   0.779
 6604SOL    HW220712   2.658   6.539   0.841
 6605SOL     OW20713   5.699   4.621   1.596
 6605SOL    HW120714   5.615   4.608   1.649
 6605SOL    HW220715   5.737   4.532   1.571
 6606SOL     OW20716   6.045   6.942   2.514
 6606SOL    HW120717   6.062   0.004   2.466
 6606SOL    HW220718   6.099   6.869   2.471
 6607SOL     OW20719   1.942   2.204   2.026
 6607SOL    HW120720   2.010   2.141   1.988
 6607SOL    HW220721   1.925   2.277   1.960
 6608SOL     OW20722   5.184   5.789   2.218
 6608SOL    HW120723   5.233   5.856   2.274
 6608SOL    HW220724   5.086   5.794   2.239
 6609SOL     OW20725   4.894   0.917   6.229
 6609SOL    HW120726   4.915   1.000   6.280
 6609SOL    HW220727   4.835   0.939   6.151
 6610SOL     OW20728   2.492   1.362   6.460
 6610SOL    HW120729   2.449   1.452   6.449
 6610SOL    HW220730   2.576   1.358   6.406
 6611SOL     OW20731   6.078   2.961   4.091
 6611SOL    HW120732   6.110   3.029   4.156
 6611SOL    HW220733   6.100   2.990   3.998
 6612SOL     OW20734   6.827   2.061   0.077
 6612SOL    HW120735   6.821   1.963   0.056
 6612SOL    HW220736   6.922   2.092   0.066
 6613SOL     OW20737   6.180   6.033   4.837
 6613SOL    HW120738   6.215   6.119   4.801
 6613SOL    HW220739   6.184   5.963   4.766
 6614SOL     OW20740   5.604   6.350   7.008
 6614SOL    HW120741   5.553   6.418   6.956
 6614SOL    HW220742   5.702   6.363   6.993
 6615SOL     OW20743   0.596   4.546   3.423
 6615SOL    HW120744   0.616   4.569   3.518
 6615SOL    HW220745   0.681   4.544   3.370
 6616SOL     OW20746   4.325   1.251   5.771
 6616SOL    HW120747   4.412   1.288   5.740
 6616SOL    HW220748   4.261   1.247   5.694
 6617SOL     OW20749   3.457   5.371   3.487
 6617SOL    HW120750   3.498   5.418   3.409
 6617SOL    HW220751   3.523   5.310   3.528
 6618SOL     OW20752   1.399   3.668   2.925
 6618SOL    HW120753   1.310   3.654   2.880
 6618SOL    HW220754   1.407   3.763   2.954
 6619SOL     OW20755   6.486   0.248   4.959
 6619SOL    HW120756   6.566   0.255   4.898
 6619SOL    HW220757   6.518   0.229   5.052
 6620SOL     OW20758   2.116   2.568   5.747
 6620SOL    HW120759   2.093   2.525   5.660
 6620SOL    HW220760   2.044   2.632   5.774
 6621SOL     OW20761   1.852   3.275   6.621
 6621SOL    HW120762   1.840   3.301   6.717
 6621SOL    HW220763   1.842   3.356   6.563
 6622SOL     OW20764   5.329   6.380   1.938
 6622SOL    HW120765   5.286   6.327   1.864
 6622SOL    HW220766   5.345   6.321   2.017
 6623SOL     OW20767   2.605   3.750   0.320
 6623SOL    HW120768   2.510   3.753   0.289
 6623SOL    HW220769   2.665   3.741   0.241
 6624SOL     OW20770   1.873   0.438   4.540
 6624SOL    HW120771   1.791   0.416   4.594
 6624SOL    HW220772   1.953   0.397   4.585
 6625SOL     OW20773   5.561   1.747   5.973
 6625SOL    HW120774   5.489   1.679   5.956
 6625SOL    HW220775   5.614   1.720   6.053
 6626SOL     OW20776   4.012   4.815   5.245
 6626SOL    HW120777   4.085   4.857   5.191
 6626SOL    HW220778   4.048   4.734   5.292
 6627SOL     OW20779   2.336   1.060   5.928
 6627SOL    HW120780   2.347   1.145   5.876
 6627SOL    HW220781   2.426   1.028   5.958
 6628SOL     OW20782   4.645   4.369   4.551
 6628SOL    HW120783   4.672   4.279   4.517
 6628SOL    HW220784   4.723   4.431   4.548
 6629SOL     OW20785   3.212   5.692   6.754
 6629SOL    HW120786   3.202   5.628   6.678
 6629SOL    HW220787   3.135   5.756   6.754
 6630SOL     OW20788   3.460   1.450   1.234
 6630SOL    HW120789   3.524   1.381   1.265
 6630SOL    HW220790   3.483   1.539   1.274
 6631SOL     OW20791   3.387   0.401   2.477
 6631SOL    HW120792   3.397   0.303   2.460
 6631SOL    HW220793   3.433   0.452   2.404
 6632SOL     OW20794   0.548   5.951   1.664
 6632SOL    HW120795   0.557   5.992   1.755
 6632SOL    HW220796   0.494   6.011   1.605
 6633SOL     OW20797   0.864   3.837   5.821
 6633SOL    HW120798   0.924   3.791   5.757
 6633SOL    HW220799   0.798   3.772   5.858
 6634SOL     OW20800   6.368   2.679   4.589
 6634SOL    HW120801   6.285   2.625   4.574
 6634SOL    HW220802   6.346   2.760   4.643
 6635SOL     OW20803   3.930   4.892   3.243
 6635SOL    HW120804   4.029   4.887   3.257
 6635SOL    HW220805   3.883   4.851   3.322
 6636SOL     OW20806   3.733   1.428   5.480
 6636SOL    HW120807   3.804   1.413   5.548
 6636SOL    HW220808   3.660   1.360   5.493
 6637SOL     OW20809   1.681   0.399   6.124
 6637SOL    HW120810   1.718   0.312   6.157
 6637SOL    HW220811   1.610   0.381   6.056
 6638SOL     OW20812   3.353   4.165   4.782
 6638SOL    HW120813   3.433   4.125   4.828
 6638SOL    HW220814   3.333   4.254   4.822
 6639SOL     OW20815   5.507   5.218   6.119
 6639SOL    HW120816   5.544   5.275   6.192
 6639SOL    HW220817   5.408   5.231   6.113
 6640SOL     OW20818   0.670   1.452   5.135
 6640SOL    HW120819   0.624   1.370   5.100
 6640SOL    HW220820   0.761   1.460   5.093
 6641SOL     OW20821   2.121   2.378   0.174
 6641SOL    HW120822   2.151   2.313   0.104
 6641SOL    HW220823   2.030   2.413   0.150
 6642SOL     OW20824   2.860   5.312   6.847
 6642SOL    HW120825   2.904   5.357   6.924
 6642SOL    HW220826   2.853   5.377   6.770
 6643SOL     OW20827   6.852   5.173   6.777
 6643SOL    HW120828   6.932   5.199   6.724
 6643SOL    HW220829   6.834   5.075   6.765
 6644SOL     OW20830   3.089   4.932   2.052
 6644SOL    HW120831   3.030   4.851   2.041
 6644SOL    HW220832   3.063   5.002   1.986
 6645SOL     OW20833   6.931   5.156   0.540
 6645SOL    HW120834   6.934   5.060   0.514
 6645SOL    HW220835   6.873   5.206   0.476
 6646SOL     OW20836   3.847   7.010   4.359
 6646SOL    HW120837   3.943   0.012   4.364
 6646SOL    HW220838   3.822   6.958   4.441
 6647SOL     OW20839   4.355   0.540   2.368
 6647SOL    HW120840   4.392   0.605   2.301
 6647SOL    HW220841   4.426   0.474   2.392
 6648SOL     OW20842   3.290   5.939   2.672
 6648SOL    HW120843   3.190   5.932   2.683
 6648SOL    HW220844   3.326   5.850   2.645
 6649SOL     OW20845   5.220   1.088   0.015
 6649SOL    HW120846   5.290   1.018   0.005
 6649SOL    HW220847   5.185   1.089   0.108
 6650SOL     OW20848   3.085   1.568   4.635
 6650SOL    HW120849   3.040   1.609   4.556
 6650SOL    HW220850   3.075   1.629   4.714
 6651SOL     OW20851   1.814   1.908   6.453
 6651SOL    HW120852   1.817   1.916   6.353
 6651SOL    HW220853   1.897   1.864   6.486
 6652SOL     OW20854   6.500   4.736   0.298
 6652SOL    HW120855   6.528   4.696   0.211
 6652SOL    HW220856   6.403   4.717   0.313
 6653SOL     OW20857   3.473   2.836   2.235
 6653SOL    HW120858   3.486   2.840   2.136
 6653SOL    HW220859   3.508   2.749   2.270
 6654SOL     OW20860   1.859   2.918   1.412
 6654SOL    HW120861   1.906   2.999   1.376
 6654SOL    HW220862   1.922   2.867   1.471
 6655SOL     OW20863   2.520   6.978   1.826
 6655SOL    HW120864   2.506   0.024   1.757
 6655SOL    HW220865   2.455   6.992   1.902
 6656SOL     OW20866   6.115   1.748   1.882
 6656SOL    HW120867   6.185   1.796   1.830
 6656SOL    HW220868   6.106   1.655   1.848
 6657SOL     OW20869   5.912   5.948   6.125
 6657SOL    HW120870   5.832   5.888   6.134
 6657SOL    HW220871   5.994   5.891   6.113
 6658SOL     OW20872   6.255   1.370   4.699
 6658SOL    HW120873   6.232   1.425   4.619
 6658SOL    HW220874   6.173   1.353   4.753
 6659SOL     OW20875   2.090   2.207   0.641
 6659SOL    HW120876   2.132   2.284   0.592
 6659SOL    HW220877   2.109   2.215   0.738
 6660SOL     OW20878   0.670   5.983   0.422
 6660SOL    HW120879   0.707   5.985   0.329
 6660SOL    HW220880   0.573   6.009   0.419
 6661SOL     OW20881   1.056   6.113   4.014
 6661SOL    HW120882   1.111   6.192   4.040
 6661SOL    HW220883   1.087   6.078   3.926
 6662SOL     OW20884   0.991   1.296   0.004
 6662SOL    HW120885   0.937   1.213   0.020
 6662SOL    HW220886   1.000   1.311   6.930
 6663SOL     OW20887   7.000   5.006   3.462
 6663SOL    HW120888   0.004   5.094   3.424
 6663SOL    HW220889   0.054   4.944   3.468
 6664SOL     OW20890   2.032   6.891   0.523
 6664SOL    HW120891   2.002   6.850   0.436
 6664SOL    HW220892   2.131   6.901   0.522
 6665SOL     OW20893   1.244   0.271   3.091
 6665SOL    HW120894   1.155   0.310   3.114
 6665SOL    HW220895   1.302   0.341   3.049
 6666SOL     OW20896   5.393   7.017   5.951
 6666SOL    HW120897   5.424   0.084   5.924
 6666SOL    HW220898   5.471   6.957   5.965
 6667SOL     OW20899   6.947   5.151   6.247
 6667SOL    HW120900   6.869   5.088   6.255
 6667SOL    HW220901   6.935   5.207   6.165
 6668SOL     OW20902   6.187   5.938   2.077
 6668SOL    HW120903   6.090   5.953   2.059
 6668SOL    HW220904   6.225   6.016   2.127
 6669SOL     OW20905   2.095   3.023   3.569
 6669SOL    HW120906   2.034   2.970   3.628
 6669SOL    HW220907   2.128   3.103   3.618
 6670SOL     OW20908   3.562   1.963   5.300
 6670SOL    HW120909   3.521   1.953   5.391
 6670SOL    HW220910   3.550   2.057   5.268
 6671SOL     OW20911   5.410   5.379   1.236
 6671SOL    HW120912   5.506   5.378   1.264
 6671SOL    HW220913   5.395   5.455   1.172
 6672SOL     OW20914   0.566   2.238   5.532
 6672SOL    HW120915   0.529   2.261   5.622
 6672SOL    HW220916   0.520   2.293   5.462
 6673SOL     OW20917   5.064   6.311   3.371
 6673SOL    HW120918   5.109   6.373   3.436
 6673SOL    HW220919   5.029   6.363   3.293
 6674SOL     OW20920   0.799   4.791   5.720
 6674SOL    HW120921   0.861   4.712   5.718
 6674SOL    HW220922   0.773   4.809   5.815
 6675SOL     OW20923   4.379   4.035   1.641
 6675SOL    HW120924   4.292   4.037   1.592
 6675SOL    HW220925   4.377   4.104   1.714
 6676SOL     OW20926   0.255   4.200   5.876
 6676SOL    HW120927   0.199   4.216   5.795
 6676SOL    HW220928   0.212   4.243   5.955
 6677SOL     OW20929   0.347   1.903   6.773
 6677SOL    HW120930   0.411   1.918   6.849
 6677SOL    HW220931   0.295   1.987   6.756
 6678SOL     OW20932   2.587   2.755   0.017
 6678SOL    HW120933   2.549   2.693   6.972
 6678SOL    HW220934   2.513   2.796   0.069
 6679SOL     OW20935   2.962   1.809   3.824
 6679SOL    HW120936   2.922   1.885   3.773
 6679SOL    HW220937   2.921   1.805   3.915
 6680SOL     OW20938   4.981   6.616   6.283
 6680SOL    HW120939   5.076   6.612   6.253
 6680SOL    HW220940   4.933   6.688   6.233
 6681SOL     OW20941   4.592   5.397   0.351
 6681SOL    HW120942   4.587   5.303   0.320
 6681SOL    HW220943   4.659   5.405   0.425
 6682SOL     OW20944   1.246   4.482   2.781
 6682SOL    HW120945   1.285   4.523   2.863
 6682SOL    HW220946   1.191   4.550   2.733
 6683SOL     OW20947   5.349   3.099   5.605
 6683SOL    HW120948   5.411   3.124   5.530
 6683SOL    HW220949   5.402   3.063   5.681
 6684SOL     OW20950   2.946   6.639   0.630
 6684SOL    HW120951   2.860   6.591   0.644
 6684SOL    HW220952   2.972   6.687   0.714
 6685SOL     OW20953   5.841   2.392   6.314
 6685SOL    HW120954   5.921   2.341   6.281
 6685SOL    HW220955   5.777   2.406   6.238
 6686SOL     OW20956   5.015   6.234   4.353
 6686SOL    HW120957   4.962   6.295   4.412
 6686SOL    HW220958   4.980   6.141   4.362
 6687SOL     OW20959   6.900   2.545   1.219
 6687SOL    HW120960   6.951   2.531   1.305
 6687SOL    HW220961   6.932   2.628   1.174
 6688SOL     OW20962   6.792   4.440   2.282
 6688SOL    HW120963   6.704   4.453   2.329
 6688SOL    HW220964   6.816   4.343   2.283
 6689SOL     OW20965   4.094   3.716   0.249
 6689SOL    HW120966   4.159   3.791   0.237
 6689SOL    HW220967   4.094   3.687   0.345
 6690SOL     OW20968   2.743   1.604   0.822
 6690SOL    HW120969   2.678   1.667   0.781
 6690SOL    HW220970   2.781   1.645   0.906
 6691SOL     OW20971   2.777   6.385   1.490
 6691SOL    HW120972   2.814   6.474   1.462
 6691SOL    HW220973   2.722   6.396   1.573
 6692SOL     OW20974   3.546   4.137   5.528
 6692SOL    HW120975   3.645   4.134   5.515
 6692SOL    HW220976   3.501   4.138   5.438
 6693SOL     OW20977   3.982   3.362   5.933
 6693SOL    HW120978   4.013   3.445   5.980
 6693SOL    HW220979   4.060   3.302   5.918
 6694SOL     OW20980   5.170   5.994   0.511
 6694SOL    HW120981   5.138   5.902   0.532
 6694SOL    HW220982   5.109   6.061   0.554
 6695SOL     OW20983   2.817   2.093   6.119
 6695SOL    HW120984   2.777   2.111   6.029
 6695SOL    HW220985   2.895   2.154   6.134
 6696SOL     OW20986   1.234   2.795   0.389
 6696SOL    HW120987   1.332   2.774   0.386
 6696SOL    HW220988   1.213   2.846   0.472
 6697SOL     OW20989   4.956   2.746   2.980
 6697SOL    HW120990   4.944   2.841   2.949
 6697SOL    HW220991   4.904   2.685   2.920
 6698SOL     OW20992   2.758   2.585   0.553
 6698SOL    HW120993   2.791   2.616   0.643
 6698SOL    HW220994   2.755   2.662   0.490
 6699SOL     OW20995   3.135   5.020   6.511
 6699SOL    HW120996   3.101   4.972   6.431
 6699SOL    HW220997   3.060   5.066   6.558
 6700SOL     OW20998   6.604   6.184   1.200
 6700SOL    HW120999   6.678   6.227   1.251
 6700SOL    HW221000   6.640   6.145   1.115
 6701SOL     OW21001   6.068   3.068   0.680
 6701SOL    HW121002   6.107   2.988   0.724
 6701SOL    HW221003   6.135   3.109   0.619
 6702SOL     OW21004   2.688   2.441   0.937
 6702SOL    HW121005   2.690   2.356   0.883
 6702SOL    HW221006   2.706   2.419   1.033
 6703SOL     OW21007   6.374   1.371   0.122
 6703SOL    HW121008   6.456   1.337   0.077
 6703SOL    HW221009   6.308   1.402   0.053
 6704SOL     OW21010   4.374   2.290   2.476
 6704SOL    HW121011   4.357   2.328   2.385
 6704SOL    HW221012   4.471   2.270   2.486
 6705SOL     OW21013   6.972   2.816   1.958
 6705SOL    HW121014   0.009   2.831   1.881
 6705SOL    HW221015   6.926   2.901   1.981
 6706SOL     OW21016   0.970   4.017   0.709
 6706SOL    HW121017   0.979   4.081   0.785
 6706SOL    HW221018   1.053   4.019   0.654
 6707SOL     OW21019   0.062   6.041   4.051
 6707SOL    HW121020   0.142   5.995   4.091
 6707SOL    HW221021   0.014   6.093   4.122
 6708SOL     OW21022   1.256   5.481   2.753
 6708SOL    HW121023   1.157   5.485   2.738
 6708SOL    HW221024   1.298   5.568   2.725
 6709SOL     OW21025   3.265   6.327   1.760
 6709SOL    HW121026   3.240   6.231   1.749
 6709SOL    HW221027   3.243   6.358   1.852
 6710SOL     OW21028   2.837   1.539   5.716
 6710SOL    HW121029   2.885   1.621   5.745
 6710SOL    HW221030   2.883   1.499   5.636
 6711SOL     OW21031   5.465   4.932   6.616
 6711SOL    HW121032   5.446   4.961   6.522
 6711SOL    HW221033   5.456   4.833   6.623
 6712SOL     OW21034   4.849   5.820   0.163
 6712SOL    HW121035   4.815   5.849   0.074
 6712SOL    HW221036   4.838   5.721   0.172
 6713SOL     OW21037   2.116   2.046   1.927
 6713SOL    HW121038   2.156   1.957   1.946
 6713SOL    HW221039   2.070   2.044   1.838
 6714SOL     OW21040   5.567   0.338   6.219
 6714SOL    HW121041   5.658   0.313   6.186
 6714SOL    HW221042   5.508   0.257   6.220
 6715SOL     OW21043   0.317   0.587   6.775
 6715SOL    HW121044   0.404   0.539   6.774
 6715SOL    HW221045   0.242   0.521   6.776
 6716SOL     OW21046   0.363   5.899   2.507
 6716SOL    HW121047   0.286   5.853   2.551
 6716SOL    HW221048   0.361   5.880   2.408
 6717SOL     OW21049   4.566   3.222   0.359
 6717SOL    HW121050   4.617   3.297   0.402
 6717SOL    HW221051   4.560   3.238   0.261
 6718SOL     OW21052   4.332   6.695   6.072
 6718SOL    HW121053   4.379   6.728   6.154
 6718SOL    HW221054   4.377   6.612   6.039
 6719SOL     OW21055   0.797   6.747   5.857
 6719SOL    HW121056   0.705   6.717   5.835
 6719SOL    HW221057   0.803   6.847   5.847
 6720SOL     OW21058   1.007   5.714   2.571
 6720SOL    HW121059   0.980   5.621   2.595
 6720SOL    HW221060   1.036   5.763   2.654
 6721SOL     OW21061   6.500   6.806   5.014
 6721SOL    HW121062   6.423   6.742   5.014
 6721SOL    HW221063   6.481   6.882   4.952
 6722SOL     OW21064   5.754   3.342   1.685
 6722SOL    HW121065   5.794   3.265   1.736
 6722SOL    HW221066   5.818   3.373   1.615
 6723SOL     OW21067   2.374   6.704   2.975
 6723SOL    HW121068   2.379   6.691   2.876
 6723SOL    HW221069   2.461   6.676   3.017
 6724SOL     OW21070   1.247   3.156   6.004
 6724SOL    HW121071   1.257   3.082   6.070
 6724SOL    HW221072   1.154   3.194   6.010
 6725SOL     OW21073   0.891   3.942   1.721
 6725SOL    HW121074   0.883   4.038   1.749
 6725SOL    HW221075   0.913   3.886   1.801
 6726SOL     OW21076   0.744   2.399   4.750
 6726SOL    HW121077   0.702   2.479   4.707
 6726SOL    HW221078   0.816   2.428   4.813
 6727SOL     OW21079   6.424   3.349   5.849
 6727SOL    HW121080   6.375   3.434   5.831
 6727SOL    HW221081   6.477   3.323   5.768
 6728SOL     OW21082   5.104   1.488   4.357
 6728SOL    HW121083   5.113   1.449   4.265
 6728SOL    HW221084   5.020   1.453   4.399
 6729SOL     OW21085   6.949   1.094   2.426
 6729SOL    HW121086   6.878   1.078   2.358
 6729SOL    HW221087   6.944   1.189   2.458
 6730SOL     OW21088   1.803   6.700   6.320
 6730SOL    HW121089   1.844   6.662   6.403
 6730SOL    HW221090   1.735   6.637   6.284
 6731SOL     OW21091   1.584   4.676   0.817
 6731SOL    HW121092   1.655   4.668   0.887
 6731SOL    HW221093   1.549   4.769   0.816
 6732SOL     OW21094   4.005   5.537   6.579
 6732SOL    HW121095   4.093   5.585   6.571
 6732SOL    HW221096   3.996   5.471   6.505
 6733SOL     OW21097   3.903   5.134   0.165
 6733SOL    HW121098   3.902   5.176   0.256
 6733SOL    HW221099   3.817   5.152   0.119
 6734SOL     OW21100   7.008   3.344   5.595
 6734SOL    HW121101   0.074   3.387   5.592
 6734SOL    HW221102   6.981   3.316   5.503
 6735SOL     OW21103   0.544   5.558   5.202
 6735SOL    HW121104   0.618   5.611   5.160
 6735SOL    HW221105   0.527   5.592   5.294
 6736SOL     OW21106   2.016   3.177   0.374
 6736SOL    HW121107   2.083   3.237   0.418
 6736SOL    HW221108   2.019   3.192   0.275
 6737SOL     OW21109   1.853   2.653   0.889
 6737SOL    HW121110   1.900   2.694   0.967
 6737SOL    HW221111   1.917   2.636   0.815
 6738SOL     OW21112   2.147   3.263   2.240
 6738SOL    HW121113   2.093   3.340   2.272
 6738SOL    HW221114   2.206   3.292   2.166
 6739SOL     OW21115   3.422   5.084   6.234
 6739SOL    HW121116   3.430   5.158   6.301
 6739SOL    HW221117   3.394   5.122   6.146
 6740SOL     OW21118   1.727   1.601   4.412
 6740SOL    HW121119   1.826   1.608   4.419
 6740SOL    HW221120   1.685   1.684   4.449
 6741SOL     OW21121   4.583   1.402   5.933
 6741SOL    HW121122   4.584   1.331   5.863
 6741SOL    HW221123   4.583   1.360   6.024
 6742SOL     OW21124   0.210   5.459   2.652
 6742SOL    HW121125   0.211   5.488   2.748
 6742SOL    HW221126   0.134   5.503   2.605
 6743SOL     OW21127   4.006   4.123   0.293
 6743SOL    HW121128   4.008   4.188   0.218
 6743SOL    HW221129   3.918   4.127   0.339
 6744SOL     OW21130   5.056   5.516   5.565
 6744SOL    HW121131   5.058   5.606   5.521
 6744SOL    HW221132   4.962   5.483   5.569
 6745SOL     OW21133   1.192   6.273   2.167
 6745SOL    HW121134   1.110   6.245   2.218
 6745SOL    HW221135   1.247   6.335   2.223
 6746SOL     OW21136   1.040   1.091   2.944
 6746SOL    HW121137   1.019   1.038   3.026
 6746SOL    HW221138   0.964   1.083   2.879
 6747SOL     OW21139   5.313   0.002   4.585
 6747SOL    HW121140   5.325   0.022   4.682
 6747SOL    HW221141   5.382   6.960   4.556
 6748SOL     OW21142   1.424   0.759   3.047
 6748SOL    HW121143   1.332   0.736   3.077
 6748SOL    HW221144   1.429   0.752   2.947
 6749SOL     OW21145   2.971   6.093   0.649
 6749SOL    HW121146   2.937   6.092   0.555
 6749SOL    HW221147   3.043   6.162   0.659
 6750SOL     OW21148   3.877   1.137   4.352
 6750SOL    HW121149   3.871   1.102   4.446
 6750SOL    HW221150   3.973   1.141   4.325
 6751SOL     OW21151   3.848   1.632   3.958
 6751SOL    HW121152   3.852   1.551   4.016
 6751SOL    HW221153   3.914   1.700   3.991
 6752SOL     OW21154   6.233   3.001   2.496
 6752SOL    HW121155   6.314   2.962   2.452
 6752SOL    HW221156   6.226   3.098   2.473
 6753SOL     OW21157   4.734   1.030   6.582
 6753SOL    HW121158   4.653   0.977   6.555
 6753SOL    HW221159   4.800   1.029   6.507
 6754SOL     OW21160   6.431   1.718   6.210
 6754SOL    HW121161   6.529   1.738   6.204
 6754SOL    HW221162   6.415   1.648   6.280
 6755SOL     OW21163   4.386   1.925   3.441
 6755SOL    HW121164   4.469   1.980   3.452
 6755SOL    HW221165   4.358   1.927   3.345
 6756SOL     OW21166   4.737   4.148   4.812
 6756SOL    HW121167   4.740   4.141   4.712
 6756SOL    HW221168   4.656   4.202   4.838
 6757SOL     OW21169   4.977   6.460   0.654
 6757SOL    HW121170   4.957   6.430   0.747
 6757SOL    HW221171   4.892   6.472   0.603
 6758SOL     OW21172   5.480   3.814   1.728
 6758SOL    HW121173   5.517   3.890   1.783
 6758SOL    HW221174   5.529   3.730   1.751
 6759SOL     OW21175   0.586   3.564   4.448
 6759SOL    HW121176   0.563   3.623   4.370
 6759SOL    HW221177   0.676   3.590   4.483
 6760SOL     OW21178   6.564   5.244   4.558
 6760SOL    HW121179   6.602   5.245   4.650
 6760SOL    HW221180   6.495   5.171   4.551
 6761SOL     OW21181   5.482   2.256   6.198
 6761SOL    HW121182   5.426   2.296   6.271
 6761SOL    HW221183   5.441   2.171   6.167
 6762SOL     OW21184   6.919   5.735   3.324
 6762SOL    HW121185   7.005   5.780   3.301
 6762SOL    HW221186   6.856   5.801   3.365
 6763SOL     OW21187   6.762   6.099   3.889
 6763SOL    HW121188   6.700   6.177   3.884
 6763SOL    HW221189   6.856   6.132   3.899
 6764SOL     OW21190   2.861   4.657   6.465
 6764SOL    HW121191   2.941   4.596   6.465
 6764SOL    HW221192   2.876   4.730   6.398
 6765SOL     OW21193   5.552   5.570   3.451
 6765SOL    HW121194   5.473   5.630   3.439
 6765SOL    HW221195   5.531   5.501   3.520
 6766SOL     OW21196   3.147   6.483   6.649
 6766SOL    HW121197   3.048   6.481   6.663
 6766SOL    HW221198   3.168   6.526   6.561
 6767SOL     OW21199   0.313   2.434   0.922
 6767SOL    HW121200   0.248   2.400   0.855
 6767SOL    HW221201   0.284   2.406   1.014
 6768SOL     OW21202   1.131   0.389   3.631
 6768SOL    HW121203   1.189   0.463   3.598
 6768SOL    HW221204   1.161   0.303   3.591
 6769SOL     OW21205   2.987   1.097   5.065
 6769SOL    HW121206   3.059   1.129   5.004
 6769SOL    HW221207   3.019   1.018   5.116
 6770SOL     OW21208   6.934   2.233   3.700
 6770SOL    HW121209   6.964   2.141   3.678
 6770SOL    HW221210   7.013   2.287   3.731
 6771SOL     OW21211   3.895   2.133   3.670
 6771SOL    HW121212   3.894   2.036   3.692
 6771SOL    HW221213   3.814   2.157   3.616
 6772SOL     OW21214   5.542   1.855   2.394
 6772SOL    HW121215   5.528   1.756   2.385
 6772SOL    HW221216   5.468   1.895   2.448
 6773SOL     OW21217   0.005   6.622   1.235
 6773SOL    HW121218   7.024   6.713   1.193
 6773SOL    HW221219   6.979   6.621   1.321
 6774SOL     OW21220   1.672   2.385   5.185
 6774SOL    HW121221   1.594   2.386   5.249
 6774SOL    HW221222   1.719   2.473   5.190
 6775SOL     OW21223   0.871   1.883   3.697
 6775SOL    HW121224   0.842   1.978   3.707
 6775SOL    HW221225   0.962   1.872   3.738
 6776SOL     OW21226   3.882   3.529   1.987
 6776SOL    HW121227   3.892   3.568   1.895
 6776SOL    HW221228   3.887   3.429   1.981
 6777SOL     OW21229   4.459   5.131   0.939
 6777SOL    HW121230   4.487   5.179   1.022
 6777SOL    HW221231   4.421   5.041   0.963
 6778SOL     OW21232   5.734   3.367   2.528
 6778SOL    HW121233   5.796   3.428   2.576
 6778SOL    HW221234   5.639   3.394   2.546
 6779SOL     OW21235   5.420   4.258   6.017
 6779SOL    HW121236   5.454   4.226   5.929
 6779SOL    HW221237   5.497   4.271   6.080
 6780SOL     OW21238   2.138   3.499   2.929
 6780SOL    HW121239   2.196   3.447   2.865
 6780SOL    HW221240   2.043   3.493   2.900
 6781SOL     OW21241   6.681   1.209   3.618
 6781SOL    HW121242   6.620   1.288   3.623
 6781SOL    HW221243   6.675   1.157   3.703
 6782SOL     OW21244   0.887   1.209   3.474
 6782SOL    HW121245   0.974   1.194   3.521
 6782SOL    HW221246   0.825   1.132   3.491
 6783SOL     OW21247   0.739   3.970   4.855
 6783SOL    HW121248   0.681   3.945   4.933
 6783SOL    HW221249   0.688   3.956   4.770
 6784SOL     OW21250   2.666   3.681   1.624
 6784SOL    HW121251   2.572   3.707   1.644
 6784SOL    HW221252   2.686   3.593   1.666
 6785SOL     OW21253   5.662   4.880   5.435
 6785SOL    HW121254   5.670   4.863   5.533
 6785SOL    HW221255   5.645   4.977   5.420
 6786SOL     OW21256   6.526   2.528   0.449
 6786SOL    HW121257   6.517   2.612   0.503
 6786SOL    HW221258   6.519   2.550   0.352
 6787SOL     OW21259   3.586   2.237   0.924
 6787SOL    HW121260   3.570   2.211   0.829
 6787SOL    HW221261   3.633   2.161   0.971
 6788SOL     OW21262   0.652   3.554   2.593
 6788SOL    HW121263   0.558   3.544   2.562
 6788SOL    HW221264   0.666   3.500   2.676
 6789SOL     OW21265   6.623   4.580   4.522
 6789SOL    HW121266   6.677   4.519   4.580
 6789SOL    HW221267   6.581   4.652   4.578
 6790SOL     OW21268   0.413   4.847   5.891
 6790SOL    HW121269   0.510   4.874   5.897
 6790SOL    HW221270   0.377   4.834   5.983
 6791SOL     OW21271   4.817   1.901   3.210
 6791SOL    HW121272   4.772   1.836   3.149
 6791SOL    HW221273   4.914   1.910   3.184
 6792SOL     OW21274   4.008   6.645   5.299
 6792SOL    HW121275   4.084   6.581   5.303
 6792SOL    HW221276   3.986   6.664   5.203
 6793SOL     OW21277   3.174   2.233   6.924
 6793SOL    HW121278   3.080   2.252   6.955
 6793SOL    HW221279   3.188   2.135   6.921
 6794SOL     OW21280   4.883   0.937   5.616
 6794SOL    HW121281   4.914   0.844   5.598
 6794SOL    HW221282   4.897   0.958   5.713
 6795SOL     OW21283   1.527   0.675   1.107
 6795SOL    HW121284   1.602   0.620   1.069
 6795SOL    HW221285   1.446   0.617   1.116
 6796SOL     OW21286   5.742   1.174   1.670
 6796SOL    HW121287   5.728   1.200   1.766
 6796SOL    HW221288   5.661   1.200   1.617
 6797SOL     OW21289   6.365   2.989   1.447
 6797SOL    HW121290   6.360   3.063   1.514
 6797SOL    HW221291   6.461   2.974   1.421
 6798SOL     OW21292   5.342   0.158   1.699
 6798SOL    HW121293   5.294   0.181   1.614
 6798SOL    HW221294   5.297   0.080   1.743
 6799SOL     OW21295   5.646   0.620   3.067
 6799SOL    HW121296   5.560   0.572   3.052
 6799SOL    HW221297   5.695   0.628   2.980
 6800SOL     OW21298   1.401   1.786   1.062
 6800SOL    HW121299   1.343   1.715   1.021
 6800SOL    HW221300   1.445   1.839   0.990
 6801SOL     OW21301   1.430   6.409   4.688
 6801SOL    HW121302   1.364   6.481   4.669
 6801SOL    HW221303   1.382   6.325   4.712
 6802SOL     OW21304   3.536   5.874   0.954
 6802SOL    HW121305   3.507   5.962   0.992
 6802SOL    HW221306   3.539   5.881   0.854
 6803SOL     OW21307   4.733   4.587   6.587
 6803SOL    HW121308   4.783   4.519   6.534
 6803SOL    HW221309   4.790   4.668   6.601
 6804SOL     OW21310   2.886   5.273   3.035
 6804SOL    HW121311   2.855   5.282   3.129
 6804SOL    HW221312   2.833   5.202   2.988
 6805SOL     OW21313   0.315   4.597   5.852
 6805SOL    HW121314   0.349   4.689   5.866
 6805SOL    HW221315   0.381   4.531   5.887
 6806SOL     OW21316   6.817   1.223   4.008
 6806SOL    HW121317   6.912   1.206   3.982
 6806SOL    HW221318   6.811   1.309   4.059
 6807SOL     OW21319   3.607   2.932   3.927
 6807SOL    HW121320   3.629   2.914   4.023
 6807SOL    HW221321   3.686   2.913   3.870
 6808SOL     OW21322   5.265   1.184   5.017
 6808SOL    HW121323   5.245   1.267   5.069
 6808SOL    HW221324   5.357   1.190   4.978
 6809SOL     OW21325   6.174   4.311   1.517
 6809SOL    HW121326   6.162   4.279   1.423
 6809SOL    HW221327   6.129   4.399   1.529
 6810SOL     OW21328   3.201   1.049   3.292
 6810SOL    HW121329   3.104   1.051   3.267
 6810SOL    HW221330   3.211   1.012   3.384
 6811SOL     OW21331   6.462   2.398   2.317
 6811SOL    HW121332   6.404   2.382   2.397
 6811SOL    HW221333   6.411   2.449   2.248
 6812SOL     OW21334   3.477   3.572   4.699
 6812SOL    HW121335   3.408   3.535   4.761
 6812SOL    HW221336   3.432   3.606   4.616
 6813SOL     OW21337   4.945   3.621   1.896
 6813SOL    HW121338   4.893   3.537   1.886
 6813SOL    HW221339   5.029   3.602   1.947
 6814SOL     OW21340   4.220   1.551   5.935
 6814SOL    HW121341   4.179   1.518   6.020
 6814SOL    HW221342   4.295   1.490   5.908
 6815SOL     OW21343   1.564   5.219   6.837
 6815SOL    HW121344   1.630   5.206   6.764
 6815SOL    HW221345   1.612   5.227   6.925
 6816SOL     OW21346   6.547   1.459   4.351
 6816SOL    HW121347   6.528   1.392   4.423
 6816SOL    HW221348   6.646   1.474   4.346
 6817SOL     OW21349   3.019   1.940   3.341
 6817SOL    HW121350   2.923   1.953   3.316
 6817SOL    HW221351   3.041   1.999   3.420
 6818SOL     OW21352   2.357   6.587   6.110
 6818SOL    HW121353   2.326   6.526   6.038
 6818SOL    HW221354   2.284   6.599   6.178
 6819SOL     OW21355   4.920   5.972   2.955
 6819SOL    HW121356   4.867   5.949   2.873
 6819SOL    HW221357   5.000   6.027   2.929
 6820SOL     OW21358   1.592   6.189   1.410
 6820SOL    HW121359   1.675   6.172   1.463
 6820SOL    HW221360   1.571   6.287   1.412
 6821SOL     OW21361   4.428   2.291   5.527
 6821SOL    HW121362   4.393   2.384   5.531
 6821SOL    HW221363   4.499   2.279   5.597
 6822SOL     OW21364   6.942   2.364   6.774
 6822SOL    HW121365   6.876   2.315   6.832
 6822SOL    HW221366   6.893   2.428   6.716
 6823SOL     OW21367   5.341   3.372   6.791
 6823SOL    HW121368   5.255   3.388   6.840
 6823SOL    HW221369   5.391   3.297   6.834
 6824SOL     OW21370   1.362   1.615   6.915
 6824SOL    HW121371   1.394   1.523   6.894
 6824SOL    HW221372   1.437   1.680   6.908
 6825SOL     OW21373   6.588   6.203   0.667
 6825SOL    HW121374   6.592   6.299   0.641
 6825SOL    HW221375   6.545   6.195   0.757
 6826SOL     OW21376   0.546   3.140   3.015
 6826SOL    HW121377   0.592   3.135   2.927
 6826SOL    HW221378   0.548   3.051   3.060
 6827SOL     OW21379   5.256   5.234   5.726
 6827SOL    HW121380   5.236   5.205   5.632
 6827SOL    HW221381   5.250   5.334   5.732
 6828SOL     OW21382   3.210   1.591   2.735
 6828SOL    HW121383   3.228   1.564   2.640
 6828SOL    HW221384   3.112   1.583   2.754
 6829SOL     OW21385   5.026   6.844   5.163
 6829SOL    HW121386   5.087   6.853   5.084
 6829SOL    HW221387   5.064   6.896   5.240
 6830SOL     OW21388   5.963   1.234   3.135
 6830SOL    HW121389   5.997   1.182   3.057
 6830SOL    HW221390   6.033   1.300   3.163
 6831SOL     OW21391   1.026   1.199   5.714
 6831SOL    HW121392   1.085   1.177   5.636
 6831SOL    HW221393   0.930   1.186   5.687
 6832SOL     OW21394   2.852   2.560   0.143
 6832SOL    HW121395   2.756   2.584   0.133
 6832SOL    HW221396   2.909   2.621   0.088
 6833SOL     OW21397   3.731   5.595   6.025
 6833SOL    HW121398   3.823   5.590   6.065
 6833SOL    HW221399   3.697   5.689   6.032
 6834SOL     OW21400   4.708   6.953   0.469
 6834SOL    HW121401   4.775   6.879   0.476
 6834SOL    HW221402   4.629   6.933   0.525
 6835SOL     OW21403   3.645   1.308   4.194
 6835SOL    HW121404   3.739   1.340   4.191
 6835SOL    HW221405   3.619   1.288   4.288
 6836SOL     OW21406   1.664   4.310   6.669
 6836SOL    HW121407   1.661   4.324   6.570
 6836SOL    HW221408   1.724   4.378   6.711
 6837SOL     OW21409   1.248   1.302   2.677
 6837SOL    HW121410   1.149   1.300   2.661
 6837SOL    HW221411   1.265   1.313   2.775
 6838SOL     OW21412   2.991   4.236   5.220
 6838SOL    HW121413   2.920   4.204   5.282
 6838SOL    HW221414   2.973   4.331   5.195
 6839SOL     OW21415   5.128   2.058   3.777
 6839SOL    HW121416   5.187   1.977   3.768
 6839SOL    HW221417   5.093   2.085   3.688
 6840SOL     OW21418   2.658   6.956   4.785
 6840SOL    HW121419   2.740   6.899   4.795
 6840SOL    HW221420   2.605   6.924   4.706
 6841SOL     OW21421   3.920   4.931   1.953
 6841SOL    HW121422   3.839   4.989   1.959
 6841SOL    HW221423   3.912   4.872   1.872
 6842SOL     OW21424   1.006   3.070   6.780
 6842SOL    HW121425   1.013   3.058   6.879
 6842SOL    HW221426   0.911   3.087   6.754
 6843SOL     OW21427   4.883   1.538   1.820
 6843SOL    HW121428   4.874   1.540   1.920
 6843SOL    HW221429   4.946   1.611   1.791
 6844SOL     OW21430   4.961   5.414   4.534
 6844SOL    HW121431   4.930   5.402   4.440
 6844SOL    HW221432   4.957   5.511   4.559
 6845SOL     OW21433   4.856   4.063   2.244
 6845SOL    HW121434   4.866   3.986   2.181
 6845SOL    HW221435   4.946   4.098   2.270
 6846SOL     OW21436   3.829   3.371   1.228
 6846SOL    HW121437   3.842   3.299   1.159
 6846SOL    HW221438   3.741   3.415   1.214
 6847SOL     OW21439   5.129   3.897   1.977
 6847SOL    HW121440   5.174   3.956   2.044
 6847SOL    HW221441   5.173   3.909   1.888
 6848SOL     OW21442   1.080   4.927   4.361
 6848SOL    HW121443   1.125   4.854   4.310
 6848SOL    HW221444   1.139   5.007   4.364
 6849SOL     OW21445   3.506   5.753   4.359
 6849SOL    HW121446   3.465   5.726   4.272
 6849SOL    HW221447   3.451   5.717   4.435
 6850SOL     OW21448   5.695   2.535   3.010
 6850SOL    HW121449   5.760   2.582   2.951
 6850SOL    HW221450   5.730   2.535   3.104
 6851SOL     OW21451   1.226   4.735   5.386
 6851SOL    HW121452   1.265   4.804   5.447
 6851SOL    HW221453   1.260   4.749   5.293
 6852SOL     OW21454   1.079   4.145   1.358
 6852SOL    HW121455   1.085   4.242   1.383
 6852SOL    HW221456   1.164   4.116   1.313
 6853SOL     OW21457   6.924   4.877   6.727
 6853SOL    HW121458   6.837   4.829   6.714
 6853SOL    HW221459   6.971   4.884   6.639
 6854SOL     OW21460   6.103   1.256   5.766
 6854SOL    HW121461   6.150   1.188   5.822
 6854SOL    HW221462   6.005   1.253   5.785
 6855SOL     OW21463   3.327   6.907   2.680
 6855SOL    HW121464   3.250   6.947   2.630
 6855SOL    HW221465   3.292   6.851   2.756
 6856SOL     OW21466   5.424   4.368   5.342
 6856SOL    HW121467   5.360   4.291   5.344
 6856SOL    HW221468   5.393   4.437   5.408
 6857SOL     OW21469   3.290   1.134   6.575
 6857SOL    HW121470   3.215   1.198   6.594
 6857SOL    HW221471   3.315   1.140   6.479
 6858SOL     OW21472   3.728   2.869   4.660
 6858SOL    HW121473   3.718   2.775   4.694
 6858SOL    HW221474   3.806   2.912   4.705
 6859SOL     OW21475   1.644   6.885   0.989
 6859SOL    HW121476   1.548   6.897   0.963
 6859SOL    HW221477   1.666   6.788   0.990
 6860SOL     OW21478   6.114   5.116   1.462
 6860SOL    HW121479   6.104   5.053   1.540
 6860SOL    HW221480   6.203   5.100   1.419
 6861SOL     OW21481   5.476   4.301   1.001
 6861SOL    HW121482   5.432   4.348   0.924
 6861SOL    HW221483   5.472   4.202   0.987
 6862SOL     OW21484   2.660   5.029   4.952
 6862SOL    HW121485   2.753   5.015   4.986
 6862SOL    HW221486   2.656   5.113   4.899
 6863SOL     OW21487   5.962   1.321   5.103
 6863SOL    HW121488   5.886   1.257   5.095
 6863SOL    HW221489   5.941   1.388   5.175
 6864SOL     OW21490   3.687   5.926   4.227
 6864SOL    HW121491   3.636   5.852   4.272
 6864SOL    HW221492   3.784   5.901   4.224
 6865SOL     OW21493   6.341   4.860   3.552
 6865SOL    HW121494   6.330   4.835   3.649
 6865SOL    HW221495   6.431   4.902   3.539
 6866SOL     OW21496   6.764   4.408   1.863
 6866SOL    HW121497   6.762   4.420   1.763
 6866SOL    HW221498   6.853   4.438   1.898
 6867SOL     OW21499   1.231   4.314   0.853
 6867SOL    HW121500   1.274   4.373   0.922
 6867SOL    HW221501   1.208   4.368   0.772
 6868SOL     OW21502   1.701   5.935   5.327
 6868SOL    HW121503   1.779   5.879   5.353
 6868SOL    HW221504   1.641   5.946   5.406
 6869SOL     OW21505   5.490   2.780   5.498
 6869SOL    HW121506   5.522   2.687   5.480
 6869SOL    HW221507   5.500   2.835   5.415
 6870SOL     OW21508   6.259   3.701   2.972
 6870SOL    HW121509   6.255   3.637   3.048
 6870SOL    HW221510   6.201   3.667   2.897
 6871SOL     OW21511   6.301   4.902   1.989
 6871SOL    HW121512   6.344   4.823   2.033
 6871SOL    HW221513   6.336   4.911   1.896
 6872SOL     OW21514   2.127   4.224   1.161
 6872SOL    HW121515   2.040   4.199   1.203
 6872SOL    HW221516   2.197   4.236   1.232
 6873SOL     OW21517   6.481   2.932   5.729
 6873SOL    HW121518   6.523   2.864   5.668
 6873SOL    HW221519   6.384   2.941   5.707
 6874SOL     OW21520   0.622   3.596   3.530
 6874SOL    HW121521   0.680   3.677   3.516
 6874SOL    HW221522   0.622   3.540   3.447
 6875SOL     OW21523   1.617   2.320   3.938
 6875SOL    HW121524   1.689   2.292   3.874
 6875SOL    HW221525   1.566   2.397   3.898
 6876SOL     OW21526   3.417   5.621   6.893
 6876SOL    HW121527   3.485   5.569   6.841
 6876SOL    HW221528   3.342   5.648   6.833
 6877SOL     OW21529   2.824   4.378   0.076
 6877SOL    HW121530   2.855   4.292   0.036
 6877SOL    HW221531   2.725   4.387   0.063
 6878SOL     OW21532   2.228   1.512   5.507
 6878SOL    HW121533   2.262   1.603   5.529
 6878SOL    HW221534   2.195   1.509   5.413
 6879SOL     OW21535   0.741   2.340   0.200
 6879SOL    HW121536   0.760   2.262   0.141
 6879SOL    HW221537   0.807   2.413   0.181
 6880SOL     OW21538   2.173   3.395   5.326
 6880SOL    HW121539   2.177   3.305   5.281
 6880SOL    HW221540   2.101   3.450   5.283
 6881SOL     OW21541   6.840   4.701   2.165
 6881SOL    HW121542   6.775   4.707   2.090
 6881SOL    HW221543   6.795   4.665   2.247
 6882SOL     OW21544   1.871   0.446   5.893
 6882SOL    HW121545   1.955   0.451   5.838
 6882SOL    HW221546   1.794   0.477   5.838
 6883SOL     OW21547   3.587   0.689   0.698
 6883SOL    HW121548   3.519   0.752   0.734
 6883SOL    HW221549   3.569   0.672   0.601
 6884SOL     OW21550   2.158   3.940   3.925
 6884SOL    HW121551   2.196   4.032   3.914
 6884SOL    HW221552   2.147   3.897   3.835
 6885SOL     OW21553   2.727   5.258   4.114
 6885SOL    HW121554   2.727   5.161   4.135
 6885SOL    HW221555   2.805   5.302   4.159
 6886SOL     OW21556   6.539   0.807   2.052
 6886SOL    HW121557   6.605   0.882   2.053
 6886SOL    HW221558   6.589   0.720   2.047
 6887SOL     OW21559   5.173   7.014   5.324
 6887SOL    HW121560   5.263   6.972   5.313
 6887SOL    HW221561   5.182   0.075   5.377
 6888SOL     OW21562   5.997   6.538   6.051
 6888SOL    HW121563   6.039   6.463   5.998
 6888SOL    HW221564   6.039   6.625   6.025
 6889SOL     OW21565   1.295   2.554   5.284
 6889SOL    HW121566   1.271   2.613   5.361
 6889SOL    HW221567   1.215   2.503   5.254
 6890SOL     OW21568   2.348   6.427   0.618
 6890SOL    HW121569   2.360   6.328   0.621
 6890SOL    HW221570   2.437   6.472   0.626
 6891SOL     OW21571   1.861   3.877   4.909
 6891SOL    HW121572   1.919   3.873   4.990
 6891SOL    HW221573   1.917   3.867   4.827
 6892SOL     OW21574   4.464   0.544   4.732
 6892SOL    HW121575   4.548   0.515   4.777
 6892SOL    HW221576   4.406   0.464   4.714
 6893SOL     OW21577   5.573   6.743   1.816
 6893SOL    HW121578   5.523   6.810   1.870
 6893SOL    HW221579   5.671   6.759   1.825
 6894SOL     OW21580   6.005   5.804   0.926
 6894SOL    HW121581   6.064   5.881   0.901
 6894SOL    HW221582   5.946   5.831   1.002
 6895SOL     OW21583   3.118   5.112   0.163
 6895SOL    HW121584   3.170   5.036   0.124
 6895SOL    HW221585   3.170   5.197   0.151
 6896SOL     OW21586   3.672   6.734   3.781
 6896SOL    HW121587   3.606   6.763   3.850
 6896SOL    HW221588   3.720   6.814   3.746
 6897SOL     OW21589   2.850   3.403   6.990
 6897SOL    HW121590   2.790   3.390   0.044
 6897SOL    HW221591   2.939   3.436   7.022
 6898SOL     OW21592   4.169   1.648   2.195
 6898SOL    HW121593   4.170   1.600   2.283
 6898SOL    HW221594   4.182   1.581   2.121
 6899SOL     OW21595   4.917   0.114   6.904
 6899SOL    HW121596   4.998   0.136   6.959
 6899SOL    HW221597   4.945   0.067   6.821
 6900SOL     OW21598   6.393   0.257   6.046
 6900SOL    HW121599   6.468   0.283   6.108
 6900SOL    HW221600   6.352   0.172   6.077
 6901SOL     OW21601   0.142   0.357   6.778
 6901SOL    HW121602   0.106   0.286   6.838
 6901SOL    HW221603   0.130   0.331   6.682
 6902SOL     OW21604   6.949   6.447   0.845
 6902SOL    HW121605   6.974   6.350   0.844
 6902SOL    HW221606   7.008   6.496   0.909
 6903SOL     OW21607   3.403   3.742   6.527
 6903SOL    HW121608   3.482   3.683   6.515
 6903SOL    HW221609   3.344   3.736   6.446
 6904SOL     OW21610   0.044   0.953   3.316
 6904SOL    HW121611   0.085   1.042   3.298
 6904SOL    HW221612   6.992   0.963   3.380
 6905SOL     OW21613   6.320   6.197   6.944
 6905SOL    HW121614   6.230   6.180   6.905
 6905SOL    HW221615   6.315   6.275   7.006
 6906SOL     OW21616   4.049   1.254   4.058
 6906SOL    HW121617   4.082   1.182   4.120
 6906SOL    HW221618   4.115   1.329   4.057
 6907SOL     OW21619   4.260   2.223   0.544
 6907SOL    HW121620   4.348   2.231   0.498
 6907SOL    HW221621   4.196   2.290   0.507
 6908SOL     OW21622   0.887   6.932   5.417
 6908SOL    HW121623   0.904   7.023   5.380
 6908SOL    HW221624   0.966   6.902   5.470
 6909SOL     OW21625   4.726   4.883   1.133
 6909SOL    HW121626   4.749   4.869   1.037
 6909SOL    HW221627   4.626   4.885   1.143
 6910SOL     OW21628   6.648   2.270   2.945
 6910SOL    HW121629   6.690   2.361   2.948
 6910SOL    HW221630   6.649   2.236   2.851
 6911SOL     OW21631   3.831   0.685   2.995
 6911SOL    HW121632   3.886   0.659   3.074
 6911SOL    HW221633   3.799   0.779   3.007
 6912SOL     OW21634   5.165   4.752   1.632
 6912SOL    HW121635   5.240   4.736   1.568
 6912SOL    HW221636   5.126   4.664   1.660
 6913SOL     OW21637   4.740   4.173   5.573
 6913SOL    HW121638   4.640   4.165   5.572
 6913SOL    HW221639   4.777   4.133   5.489
 6914SOL     OW21640   5.809   5.525   0.060
 6914SOL    HW121641   5.827   5.451   7.020
 6914SOL    HW221642   5.714   5.555   0.050
 6915SOL     OW21643   0.367   4.854   1.879
 6915SOL    HW121644   0.432   4.919   1.839
 6915SOL    HW221645   0.293   4.903   1.924
 6916SOL     OW21646   6.240   3.812   6.765
 6916SOL    HW121647   6.305   3.825   6.840
 6916SOL    HW221648   6.159   3.869   6.780
 6917SOL     OW21649   4.018   5.213   6.817
 6917SOL    HW121650   3.966   5.289   6.777
 6917SOL    HW221651   3.983   5.193   6.908
 6918SOL     OW21652   0.384   4.189   4.685
 6918SOL    HW121653   0.465   4.154   4.638
 6918SOL    HW221654   0.413   4.251   4.758
 6919SOL     OW21655   1.440   5.611   2.463
 6919SOL    HW121656   1.395   5.525   2.438
 6919SOL    HW221657   1.512   5.631   2.396
 6920SOL     OW21658   5.059   4.995   5.786
 6920SOL    HW121659   5.156   4.985   5.765
 6920SOL    HW221660   5.037   4.945   5.870
 6921SOL     OW21661   5.090   5.766   3.347
 6921SOL    HW121662   5.092   5.720   3.258
 6921SOL    HW221663   5.087   5.865   3.334
 6922SOL     OW21664   1.960   5.799   6.957
 6922SOL    HW121665   1.907   5.857   6.895
 6922SOL    HW221666   2.009   5.857   7.023
 6923SOL     OW21667   5.586   6.704   3.791
 6923SOL    HW121668   5.654   6.667   3.854
 6923SOL    HW221669   5.631   6.762   3.723
 6924SOL     OW21670   1.134   3.845   6.227
 6924SOL    HW121671   1.170   3.782   6.296
 6924SOL    HW221672   1.167   3.938   6.246
 6925SOL     OW21673   4.103   6.093   4.295
 6925SOL    HW121674   4.170   6.130   4.230
 6925SOL    HW221675   4.016   6.142   4.284
 6926SOL     OW21676   3.411   3.143   2.765
 6926SOL    HW121677   3.478   3.178   2.700
 6926SOL    HW221678   3.371   3.219   2.816
 6927SOL     OW21679   6.004   2.651   6.626
 6927SOL    HW121680   5.905   2.645   6.640
 6927SOL    HW221681   6.023   2.657   6.528
 6928SOL     OW21682   5.916   7.013   0.318
 6928SOL    HW121683   5.854   6.937   0.299
 6928SOL    HW221684   5.866   0.075   0.313
 6929SOL     OW21685   4.731   5.802   0.418
 6929SOL    HW121686   4.632   5.799   0.410
 6929SOL    HW221687   4.770   5.839   0.334
 6930SOL     OW21688   0.138   6.950   1.508
 6930SOL    HW121689   0.122   6.988   1.417
 6930SOL    HW221690   0.052   6.914   1.545
 6931SOL     OW21691   0.913   0.799   1.957
 6931SOL    HW121692   0.923   0.872   1.890
 6931SOL    HW221693   0.825   0.808   2.003
 6932SOL     OW21694   3.660   0.990   0.169
 6932SOL    HW121695   3.715   0.995   0.252
 6932SOL    HW221696   3.685   1.064   0.107
 6933SOL     OW21697   3.388   6.165   4.842
 6933SOL    HW121698   3.471   6.185   4.894
 6933SOL    HW221699   3.398   6.199   4.749
 6934SOL     OW21700   5.021   3.809   5.934
 6934SOL    HW121701   5.115   3.837   5.952
 6934SOL    HW221702   4.987   3.857   5.853
 6935SOL     OW21703   3.946   6.764   2.898
 6935SOL    HW121704   4.012   6.690   2.913
 6935SOL    HW221705   3.857   6.737   2.935
 6936SOL     OW21706   6.479   2.376   2.577
 6936SOL    HW121707   6.520   2.459   2.614
 6936SOL    HW221708   6.384   2.370   2.607
 6937SOL     OW21709   6.048   6.726   0.318
 6937SOL    HW121710   6.033   6.762   0.226
 6937SOL    HW221711   6.138   6.754   0.351
 6938SOL     OW21712   5.082   3.620   5.452
 6938SOL    HW121713   5.161   3.619   5.391
 6938SOL    HW221714   5.021   3.695   5.426
 6939SOL     OW21715   0.391   4.694   2.969
 6939SOL    HW121716   0.377   4.595   2.974
 6939SOL    HW221717   0.425   4.727   3.057
 6940SOL     OW21718   4.463   1.277   0.557
 6940SOL    HW121719   4.499   1.360   0.600
 6940SOL    HW221720   4.536   1.210   0.547
 6941SOL     OW21721   3.941   3.049   3.048
 6941SOL    HW121722   3.991   3.062   3.134
 6941SOL    HW221723   3.879   2.972   3.057
 6942SOL     OW21724   6.818   2.936   1.147
 6942SOL    HW121725   6.856   2.867   1.086
 6942SOL    HW221726   6.873   3.020   1.141
 6943SOL     OW21727   5.189   6.506   6.808
 6943SOL    HW121728   5.172   6.498   6.906
 6943SOL    HW221729   5.102   6.513   6.759
 6944SOL     OW21730   1.216   4.358   5.372
 6944SOL    HW121731   1.210   4.264   5.340
 6944SOL    HW221732   1.312   4.381   5.392
 6945SOL     OW21733   5.684   2.826   6.797
 6945SOL    HW121734   5.676   2.782   6.707
 6945SOL    HW221735   5.738   2.768   6.857
 6946SOL     OW21736   6.146   5.492   2.283
 6946SOL    HW121737   6.180   5.399   2.292
 6946SOL    HW221738   6.080   5.511   2.356
 6947SOL     OW21739   3.988   6.856   4.760
 6947SOL    HW121740   3.955   6.945   4.729
 6947SOL    HW221741   4.085   6.847   4.740
 6948SOL     OW21742   5.667   0.559   0.350
 6948SOL    HW121743   5.746   0.610   0.386
 6948SOL    HW221744   5.669   0.563   0.250
 6949SOL     OW21745   5.299   6.765   3.833
 6949SOL    HW121746   5.249   6.748   3.917
 6949SOL    HW221747   5.397   6.757   3.851
 6950SOL     OW21748   2.266   6.987   3.338
 6950SOL    HW121749   2.320   7.011   3.419
 6950SOL    HW221750   2.305   6.906   3.295
 6951SOL     OW21751   6.178   6.228   6.057
 6951SOL    HW121752   6.101   6.271   6.104
 6951SOL    HW221753   6.264   6.267   6.091
 6952SOL     OW21754   0.054   5.246   3.392
 6952SOL    HW121755   0.092   5.267   3.482
 6952SOL    HW221756   0.065   5.324   3.331
 6953SOL     OW21757   4.847   0.426   6.153
 6953SOL    HW121758   4.935   0.378   6.155
 6953SOL    HW221759   4.820   0.450   6.246
 6954SOL     OW21760   1.135   4.135   4.264
 6954SOL    HW121761   1.219   4.189   4.258
 6954SOL    HW221762   1.124   4.101   4.357
 6955SOL     OW21763   6.720   0.287   1.988
 6955SOL    HW121764   6.806   0.277   2.039
 6955SOL    HW221765   6.643   0.261   2.047
 6956SOL     OW21766   4.045   6.497   2.664
 6956SOL    HW121767   4.095   6.439   2.599
 6956SOL    HW221768   4.082   6.483   2.756
 6957SOL     OW21769   6.987   4.791   1.514
 6957SOL    HW121770   6.913   4.724   1.519
 6957SOL    HW221771   0.016   4.789   1.598
 6958SOL     OW21772   2.857   3.609   5.386
 6958SOL    HW121773   2.921   3.633   5.459
 6958SOL    HW221774   2.882   3.656   5.302
 6959SOL     OW21775   1.932   1.276   4.911
 6959SOL    HW121776   1.916   1.372   4.885
 6959SOL    HW221777   2.016   1.270   4.964
 6960SOL     OW21778   0.513   5.172   0.354
 6960SOL    HW121779   0.607   5.176   0.388
 6960SOL    HW221780   0.499   5.245   0.287
 6961SOL     OW21781   0.150   2.627   4.262
 6961SOL    HW121782   0.164   2.570   4.343
 6961SOL    HW221783   0.228   2.688   4.251
 6962SOL     OW21784   5.298   5.290   2.704
 6962SOL    HW121785   5.288   5.193   2.685
 6962SOL    HW221786   5.395   5.314   2.705
 6963SOL     OW21787   0.381   5.560   0.422
 6963SOL    HW121788   0.414   5.475   0.462
 6963SOL    HW221789   0.419   5.638   0.471
 6964SOL     OW21790   5.117   4.740   4.511
 6964SOL    HW121791   5.129   4.735   4.610
 6964SOL    HW221792   5.074   4.656   4.478
 6965SOL     OW21793   0.527   3.673   6.192
 6965SOL    HW121794   0.488   3.668   6.100
 6965SOL    HW221795   0.489   3.600   6.249
 6966SOL     OW21796   5.874   2.897   3.019
 6966SOL    HW121797   5.914   2.882   3.109
 6966SOL    HW221798   5.776   2.916   3.028
 6967SOL     OW21799   1.440   1.585   5.403
 6967SOL    HW121800   1.407   1.596   5.496
 6967SOL    HW221801   1.505   1.510   5.399
 6968SOL     OW21802   3.368   6.402   2.697
 6968SOL    HW121803   3.431   6.475   2.724
 6968SOL    HW221804   3.319   6.429   2.614
 6969SOL     OW21805   3.792   1.888   1.490
 6969SOL    HW121806   3.762   1.864   1.398
 6969SOL    HW221807   3.715   1.883   1.554
 6970SOL     OW21808   4.701   4.064   0.345
 6970SOL    HW121809   4.789   4.017   0.355
 6970SOL    HW221810   4.628   4.005   0.381
 6971SOL     OW21811   6.397   3.917   2.257
 6971SOL    HW121812   6.446   3.986   2.309
 6971SOL    HW221813   6.342   3.861   2.320
 6972SOL     OW21814   5.888   5.288   4.049
 6972SOL    HW121815   5.979   5.302   4.011
 6972SOL    HW221816   5.895   5.267   4.146
 6973SOL     OW21817   1.065   3.860   4.690
 6973SOL    HW121818   1.095   3.778   4.642
 6973SOL    HW221819   1.037   3.837   4.783
 6974SOL     OW21820   3.397   2.873   3.452
 6974SOL    HW121821   3.415   2.782   3.490
 6974SOL    HW221822   3.387   2.939   3.526
 6975SOL     OW21823   3.062   6.653   5.836
 6975SOL    HW121824   3.109   6.568   5.859
 6975SOL    HW221825   3.097   6.688   5.749
 6976SOL     OW21826   3.985   4.331   6.009
 6976SOL    HW121827   3.900   4.306   5.963
 6976SOL    HW221828   3.971   4.331   6.108
 6977SOL     OW21829   5.290   2.336   1.640
 6977SOL    HW121830   5.314   2.316   1.735
 6977SOL    HW221831   5.232   2.418   1.636
 6978SOL     OW21832   6.409   1.886   1.095
 6978SOL    HW121833   6.328   1.939   1.069
 6978SOL    HW221834   6.417   1.884   1.195
 6979SOL     OW21835   1.288   4.947   1.235
 6979SOL    HW121836   1.358   5.016   1.252
 6979SOL    HW221837   1.206   4.970   1.288
 6980SOL     OW21838   1.666   0.291   4.035
 6980SOL    HW121839   1.746   0.334   3.995
 6980SOL    HW221840   1.664   0.309   4.134
 6981SOL     OW21841   2.302   3.114   6.773
 6981SOL    HW121842   2.348   3.078   6.692
 6981SOL    HW221843   2.258   3.039   6.822
 6982SOL     OW21844   1.467   1.656   3.862
 6982SOL    HW121845   1.447   1.663   3.960
 6982SOL    HW221846   1.528   1.578   3.846
 6983SOL     OW21847   5.967   2.217   3.476
 6983SOL    HW121848   5.964   2.316   3.460
 6983SOL    HW221849   5.962   2.168   3.389
 6984SOL     OW21850   2.384   1.802   4.754
 6984SOL    HW121851   2.386   1.900   4.773
 6984SOL    HW221852   2.427   1.752   4.830
 6985SOL     OW21853   3.522   5.309   2.661
 6985SOL    HW121854   3.574   5.381   2.615
 6985SOL    HW221855   3.428   5.309   2.627
 6986SOL     OW21856   1.541   6.346   6.344
 6986SOL    HW121857   1.498   6.392   6.421
 6986SOL    HW221858   1.593   6.412   6.289
 6987SOL     OW21859   1.034   1.910   6.443
 6987SOL    HW121860   0.986   1.831   6.482
 6987SOL    HW221861   1.129   1.909   6.475
 6988SOL     OW21862   6.154   0.767   4.754
 6988SOL    HW121863   6.242   0.792   4.793
 6988SOL    HW221864   6.162   0.761   4.655
 6989SOL     OW21865   0.753   3.064   3.811
 6989SOL    HW121866   0.784   3.154   3.842
 6989SOL    HW221867   0.717   3.071   3.718
 6990SOL     OW21868   5.122   1.885   0.136
 6990SOL    HW121869   5.089   1.791   0.144
 6990SOL    HW221870   5.211   1.893   0.181
 6991SOL     OW21871   2.462   4.601   4.442
 6991SOL    HW121872   2.476   4.614   4.344
 6991SOL    HW221873   2.380   4.651   4.471
 6992SOL     OW21874   6.434   6.099   4.990
 6992SOL    HW121875   6.453   6.184   4.941
 6992SOL    HW221876   6.348   6.060   4.956
 6993SOL     OW21877   6.431   6.897   2.528
 6993SOL    HW121878   6.400   6.974   2.583
 6993SOL    HW221879   6.416   6.917   2.431
 6994SOL     OW21880   0.706   3.221   4.926
 6994SOL    HW121881   0.720   3.172   4.840
 6994SOL    HW221882   0.784   3.204   4.987
 6995SOL     OW21883   6.051   5.569   4.937
 6995SOL    HW121884   6.102   5.596   4.855
 6995SOL    HW221885   5.953   5.589   4.923
 6996SOL     OW21886   1.782   1.063   4.990
 6996SOL    HW121887   1.826   0.976   5.014
 6996SOL    HW221888   1.852   1.126   4.955
 6997SOL     OW21889   5.198   6.035   5.270
 6997SOL    HW121890   5.228   6.118   5.222
 6997SOL    HW221891   5.244   5.956   5.231
 6998SOL     OW21892   1.854   2.319   1.713
 6998SOL    HW121893   1.822   2.392   1.773
 6998SOL    HW221894   1.882   2.357   1.625
 6999SOL     OW21895   2.263   2.103   6.746
 6999SOL    HW121896   2.332   2.116   6.674
 6999SOL    HW221897   2.264   2.007   6.776
 7000SOL     OW21898   6.991   6.027   2.769
 7000SOL    HW121899   0.018   6.071   2.843
 7000SOL    HW221900   6.898   6.063   2.768
 7001SOL     OW21901   2.337   2.908   5.809
 7001SOL    HW121902   2.305   2.934   5.900
 7001SOL    HW221903   2.395   2.980   5.773
 7002SOL     OW21904   2.496   4.845   3.014
 7002SOL    HW121905   2.474   4.759   2.968
 7002SOL    HW221906   2.415   4.880   3.060
 7003SOL     OW21907   3.864   6.335   6.871
 7003SOL    HW121908   3.950   6.306   6.912
 7003SOL    HW221909   3.809   6.255   6.847
 7004SOL     OW21910   2.039   5.006   1.732
 7004SOL    HW121911   2.048   5.100   1.699
 7004SOL    HW221912   2.115   4.951   1.696
 7005SOL     OW21913   0.522   6.168   5.801
 7005SOL    HW121914   0.543   6.093   5.739
 7005SOL    HW221915   0.450   6.225   5.761
 7006SOL     OW21916   5.924   5.208   4.317
 7006SOL    HW121917   6.004   5.237   4.369
 7006SOL    HW221918   5.842   5.219   4.372
 7007SOL     OW21919   5.055   6.798   2.998
 7007SOL    HW121920   5.076   6.896   2.989
 7007SOL    HW221921   5.000   6.769   2.920
 7008SOL     OW21922   2.101   5.919   4.642
 7008SOL    HW121923   2.106   5.904   4.543
 7008SOL    HW221924   2.090   5.832   4.688
 7009SOL     OW21925   5.887   5.306   2.497
 7009SOL    HW121926   5.872   5.216   2.538
 7009SOL    HW221927   5.823   5.319   2.421
 7010SOL     OW21928   4.056   3.641   6.066
 7010SOL    HW121929   3.997   3.713   6.103
 7010SOL    HW221930   4.151   3.664   6.084
 7011SOL     OW21931   1.726   0.776   6.306
 7011SOL    HW121932   1.795   0.829   6.355
 7011SOL    HW221933   1.760   0.752   6.215
 7012SOL     OW21934   2.441   1.236   2.141
 7012SOL    HW121935   2.468   1.141   2.156
 7012SOL    HW221936   2.521   1.289   2.112
 7013SOL     OW21937   6.985   6.373   1.157
 7013SOL    HW121938   6.991   6.470   1.177
 7013SOL    HW221939   0.052   6.332   1.158
 7014SOL     OW21940   4.680   3.121   1.082
 7014SOL    HW121941   4.583   3.104   1.100
 7014SOL    HW221942   4.730   3.129   1.168
 7015SOL     OW21943   5.671   4.518   2.125
 7015SOL    HW121944   5.586   4.469   2.106
 7015SOL    HW221945   5.694   4.578   2.048
 7016SOL     OW21946   3.777   4.898   2.234
 7016SOL    HW121947   3.719   4.869   2.157
 7016SOL    HW221948   3.740   4.982   2.273
 7017SOL     OW21949   2.329   0.298   1.834
 7017SOL    HW121950   2.235   0.269   1.819
 7017SOL    HW221951   2.345   0.310   1.932
 7018SOL     OW21952   6.366   4.273   4.832
 7018SOL    HW121953   6.385   4.312   4.742
 7018SOL    HW221954   6.270   4.287   4.855
 7019SOL     OW21955   3.062   4.503   6.560
 7019SOL    HW121956   3.088   4.510   6.656
 7019SOL    HW221957   3.012   4.417   6.545
 7020SOL     OW21958   6.435   6.487   6.542
 7020SOL    HW121959   6.459   6.567   6.486
 7020SOL    HW221960   6.468   6.501   6.635
 7021SOL     OW21961   2.173   1.252   5.542
 7021SOL    HW121962   2.271   1.233   5.548
 7021SOL    HW221963   2.160   1.350   5.526
 7022SOL     OW21964   4.592   4.507   0.898
 7022SOL    HW121965   4.510   4.512   0.842
 7022SOL    HW221966   4.582   4.434   0.965
 7023SOL     OW21967   0.480   2.299   3.505
 7023SOL    HW121968   0.404   2.359   3.529
 7023SOL    HW221969   0.445   2.207   3.486
 7024SOL     OW21970   1.119   5.439   5.851
 7024SOL    HW121971   1.194   5.496   5.820
 7024SOL    HW221972   1.148   5.343   5.852
 7025SOL     OW21973   3.082   1.304   0.093
 7025SOL    HW121974   3.100   1.207   0.110
 7025SOL    HW221975   3.135   1.334   0.014
 7026SOL     OW21976   2.847   1.565   1.963
 7026SOL    HW121977   2.917   1.626   2.000
 7026SOL    HW221978   2.762   1.615   1.952
 7027SOL     OW21979   3.079   5.460   2.950
 7027SOL    HW121980   3.055   5.504   2.864
 7027SOL    HW221981   3.009   5.391   2.972
 7028SOL     OW21982   6.194   6.646   4.329
 7028SOL    HW121983   6.244   6.560   4.320
 7028SOL    HW221984   6.229   6.698   4.407
 7029SOL     OW21985   4.029   6.798   6.870
 7029SOL    HW121986   4.122   6.812   6.835
 7029SOL    HW221987   3.965   6.796   6.794
 7030SOL     OW21988   6.428   2.407   5.902
 7030SOL    HW121989   6.406   2.351   5.982
 7030SOL    HW221990   6.484   2.485   5.931
 7031SOL     OW21991   1.994   5.602   3.755
 7031SOL    HW121992   2.009   5.634   3.661
 7031SOL    HW221993   2.067   5.537   3.779
 7032SOL     OW21994   3.463   6.828   3.976
 7032SOL    HW121995   3.364   6.829   3.960
 7032SOL    HW221996   3.493   6.918   4.004
 7033SOL     OW21997   6.706   1.666   3.160
 7033SOL    HW121998   6.647   1.615   3.224
 7033SOL    HW221999   6.693   1.764   3.174
 7034SOL     OW22000   6.164   0.364   2.607
 7034SOL    HW122001   6.251   0.315   2.617
 7034SOL    HW222002   6.118   0.369   2.696
 7035SOL     OW22003   1.478   6.789   2.167
 7035SOL    HW122004   1.510   6.775   2.261
 7035SOL    HW222005   1.382   6.763   2.160
 7036SOL     OW22006   0.082   0.584   1.647
 7036SOL    HW122007   0.049   0.532   1.569
 7036SOL    HW222008   0.005   0.608   1.707
 7037SOL     OW22009   0.942   0.509   6.200
 7037SOL    HW122010   1.002   0.431   6.217
 7037SOL    HW222011   0.966   0.551   6.112
 7038SOL     OW22012   1.619   3.720   4.289
 7038SOL    HW122013   1.548   3.697   4.355
 7038SOL    HW222014   1.707   3.684   4.320
 7039SOL     OW22015   2.928   5.884   0.799
 7039SOL    HW122016   2.996   5.814   0.823
 7039SOL    HW222017   2.973   5.959   0.750
 7040SOL     OW22018   5.085   2.361   5.169
 7040SOL    HW122019   4.985   2.357   5.180
 7040SOL    HW222020   5.109   2.339   5.074
 7041SOL     OW22021   0.847   1.664   3.223
 7041SOL    HW122022   0.820   1.579   3.268
 7041SOL    HW222023   0.769   1.699   3.170
 7042SOL     OW22024   5.606   5.517   6.801
 7042SOL    HW122025   5.563   5.569   6.727
 7042SOL    HW222026   5.670   5.450   6.762
 7043SOL     OW22027   2.272   2.620   3.126
 7043SOL    HW122028   2.232   2.550   3.185
 7043SOL    HW222029   2.372   2.615   3.132
 7044SOL     OW22030   5.147   4.759   3.399
 7044SOL    HW122031   5.126   4.663   3.419
 7044SOL    HW222032   5.239   4.781   3.433
 7045SOL     OW22033   4.894   5.705   2.247
 7045SOL    HW122034   4.897   5.624   2.306
 7045SOL    HW222035   4.895   5.787   2.304
 7046SOL     OW22036   3.647   2.090   3.540
 7046SOL    HW122037   3.616   2.026   3.610
 7046SOL    HW222038   3.586   2.085   3.461
 7047SOL     OW22039   1.062   2.252   3.070
 7047SOL    HW122040   1.032   2.157   3.058
 7047SOL    HW222041   1.055   2.277   3.167
 7048SOL     OW22042   6.878   5.599   1.594
 7048SOL    HW122043   6.829   5.523   1.551
 7048SOL    HW222044   6.821   5.640   1.665
 7049SOL     OW22045   2.434   1.300   0.542
 7049SOL    HW122046   2.367   1.257   0.482
 7049SOL    HW222047   2.520   1.250   0.536
 7050SOL     OW22048   3.534   4.117   3.440
 7050SOL    HW122049   3.478   4.114   3.523
 7050SOL    HW222050   3.589   4.201   3.440
 7051SOL     OW22051   0.322   1.040   0.914
 7051SOL    HW122052   0.348   1.096   0.993
 7051SOL    HW222053   0.374   0.954   0.915
 7052SOL     OW22054   6.111   2.458   4.159
 7052SOL    HW122055   6.122   2.556   4.179
 7052SOL    HW222056   6.049   2.447   4.081
 7053SOL     OW22057   0.935   3.157   5.075
 7053SOL    HW122058   0.932   3.164   5.175
 7053SOL    HW222059   0.986   3.075   5.049
 7054SOL     OW22060   1.069   5.975   1.436
 7054SOL    HW122061   1.129   5.948   1.511
 7054SOL    HW222062   1.081   6.073   1.417
 7055SOL     OW22063   3.909   6.428   5.414
 7055SOL    HW122064   3.916   6.521   5.377
 7055SOL    HW222065   3.998   6.383   5.408
 7056SOL     OW22066   5.398   5.960   3.334
 7056SOL    HW122067   5.490   5.937   3.305
 7056SOL    HW222068   5.383   5.927   3.427
 7057SOL     OW22069   1.370   4.981   3.755
 7057SOL    HW122070   1.354   4.949   3.849
 7057SOL    HW222071   1.376   4.902   3.694
 7058SOL     OW22072   6.138   5.433   6.463
 7058SOL    HW122073   6.060   5.409   6.521
 7058SOL    HW222074   6.115   5.513   6.407
 7059SOL     OW22075   0.311   0.739   3.162
 7059SOL    HW122076   0.318   0.647   3.123
 7059SOL    HW222077   0.298   0.732   3.261
 7060SOL     OW22078   3.414   7.012   1.647
 7060SOL    HW122079   3.366   6.984   1.730
 7060SOL    HW222080   3.506   6.973   1.646
 7061SOL     OW22081   0.540   2.572   3.861
 7061SOL    HW122082   0.586   2.654   3.897
 7061SOL    HW222083   0.442   2.590   3.852
 7062SOL     OW22084   5.291   1.160   6.064
 7062SOL    HW122085   5.294   1.069   6.106
 7062SOL    HW222086   5.376   1.208   6.085
 7063SOL     OW22087   0.243   0.435   1.084
 7063SOL    HW122088   0.305   0.398   1.014
 7063SOL    HW222089   0.217   0.362   1.147
 7064SOL     OW22090   4.190   2.287   1.955
 7064SOL    HW122091   4.169   2.379   1.922
 7064SOL    HW222092   4.110   2.249   2.002
 7065SOL     OW22093   4.301   3.957   0.215
 7065SOL    HW122094   4.395   3.978   0.188
 7065SOL    HW222095   4.290   3.971   0.313
 7066SOL     OW22096   4.393   0.890   0.701
 7066SOL    HW122097   4.314   0.898   0.640
 7066SOL    HW222098   4.405   0.976   0.752
 7067SOL     OW22099   1.478   1.974   5.394
 7067SOL    HW122100   1.503   1.994   5.299
 7067SOL    HW222101   1.387   1.931   5.396
 7068SOL     OW22102   0.773   4.005   3.851
 7068SOL    HW122103   0.690   4.052   3.820
 7068SOL    HW222104   0.842   4.007   3.779
 7069SOL     OW22105   5.824   2.636   4.279
 7069SOL    HW122106   5.898   2.644   4.212
 7069SOL    HW222107   5.776   2.549   4.266
 7070SOL     OW22108   6.892   6.387   5.144
 7070SOL    HW122109   6.883   6.395   5.044
 7070SOL    HW222110   6.893   6.290   5.170
 7071SOL     OW22111   1.161   6.356   6.119
 7071SOL    HW122112   1.247   6.347   6.069
 7071SOL    HW222113   1.143   6.273   6.171
 7072SOL     OW22114   0.335   6.135   6.122
 7072SOL    HW122115   0.343   6.234   6.129
 7072SOL    HW222116   0.267   6.102   6.188
 7073SOL     OW22117   5.979   0.142   4.800
 7073SOL    HW122118   5.945   0.210   4.734
 7073SOL    HW222119   6.075   0.160   4.821
 7074SOL     OW22120   4.120   2.730   1.608
 7074SOL    HW122121   4.113   2.646   1.662
 7074SOL    HW222122   4.135   2.706   1.512
 7075SOL     OW22123   1.186   5.774   5.939
 7075SOL    HW122124   1.140   5.706   5.996
 7075SOL    HW222125   1.220   5.730   5.856
 7076SOL     OW22126   3.948   2.460   6.751
 7076SOL    HW122127   3.952   2.463   6.851
 7076SOL    HW222128   3.868   2.512   6.720
 7077SOL     OW22129   2.219   4.582   5.419
 7077SOL    HW122130   2.208   4.634   5.335
 7077SOL    HW222131   2.133   4.584   5.471
 7078SOL     OW22132   6.293   0.637   1.714
 7078SOL    HW122133   6.359   0.562   1.711
 7078SOL    HW222134   6.324   0.707   1.778
 7079SOL     OW22135   6.748   6.579   5.301
 7079SOL    HW122136   6.791   6.510   5.242
 7079SOL    HW222137   6.791   6.668   5.285
 7080SOL     OW22138   3.491   2.107   4.212
 7080SOL    HW122139   3.421   2.106   4.283
 7080SOL    HW222140   3.575   2.065   4.247
 7081SOL     OW22141   2.987   0.601   6.301
 7081SOL    HW122142   3.086   0.600   6.309
 7081SOL    HW222143   2.960   0.649   6.217
 7082SOL     OW22144   6.119   5.001   6.752
 7082SOL    HW122145   6.118   4.926   6.685
 7082SOL    HW222146   6.170   5.078   6.714
 7083SOL     OW22147   3.355   0.705   6.733
 7083SOL    HW122148   3.265   0.694   6.691
 7083SOL    HW222149   3.377   0.802   6.741
 7084SOL     OW22150   0.520   6.722   5.835
 7084SOL    HW122151   0.472   6.785   5.773
 7084SOL    HW222152   0.499   6.745   5.929
 7085SOL     OW22153   1.932   1.403   2.633
 7085SOL    HW122154   2.032   1.400   2.625
 7085SOL    HW222155   1.900   1.497   2.623
 7086SOL     OW22156   4.954   0.665   5.558
 7086SOL    HW122157   5.041   0.615   5.558
 7086SOL    HW222158   4.886   0.613   5.507
 7087SOL     OW22159   6.056   4.202   3.860
 7087SOL    HW122160   6.103   4.290   3.858
 7087SOL    HW222161   5.981   4.202   3.795
 7088SOL     OW22162   5.083   2.565   3.351
 7088SOL    HW122163   5.052   2.489   3.294
 7088SOL    HW222164   5.105   2.644   3.293
 7089SOL     OW22165   3.498   1.940   5.559
 7089SOL    HW122166   3.452   1.969   5.643
 7089SOL    HW222167   3.543   1.852   5.574
 7090SOL     OW22168   2.145   1.329   6.228
 7090SOL    HW122169   2.114   1.366   6.140
 7090SOL    HW222170   2.070   1.280   6.272
 7091SOL     OW22171   0.067   2.128   0.014
 7091SOL    HW122172   0.144   2.180   7.002
 7091SOL    HW222173   0.097   2.071   0.090
 7092SOL     OW22174   4.502   2.703   6.195
 7092SOL    HW122175   4.598   2.727   6.206
 7092SOL    HW222176   4.492   2.604   6.207
 7093SOL     OW22177   3.225   3.742   3.311
 7093SOL    HW122178   3.141   3.695   3.337
 7093SOL    HW222179   3.207   3.841   3.303
 7094SOL     OW22180   0.637   5.622   6.248
 7094SOL    HW122181   0.704   5.659   6.311
 7094SOL    HW222182   0.563   5.689   6.235
 7095SOL     OW22183   3.551   2.787   6.423
 7095SOL    HW122184   3.524   2.867   6.370
 7095SOL    HW222185   3.618   2.814   6.493
 7096SOL     OW22186   6.643   0.328   4.207
 7096SOL    HW122187   6.564   0.374   4.166
 7096SOL    HW222188   6.727   0.371   4.172
 7097SOL     OW22189   6.199   1.062   1.462
 7097SOL    HW122190   6.142   1.139   1.492
 7097SOL    HW222191   6.288   1.096   1.431
 7098SOL     OW22192   0.747   0.483   3.915
 7098SOL    HW122193   0.733   0.418   3.839
 7098SOL    HW222194   0.766   0.433   3.999
 7099SOL     OW22195   2.804   0.556   4.969
 7099SOL    HW122196   2.739   0.515   5.033
 7099SOL    HW222197   2.878   0.491   4.951
 7100SOL     OW22198   5.694   3.334   1.356
 7100SOL    HW122199   5.619   3.272   1.331
 7100SOL    HW222200   5.780   3.282   1.360
 7101SOL     OW22201   1.972   0.588   4.884
 7101SOL    HW122202   1.944   0.654   4.814
 7101SOL    HW222203   2.066   0.558   4.866
 7102SOL     OW22204   4.734   0.942   0.893
 7102SOL    HW122205   4.697   0.888   0.817
 7102SOL    HW222206   4.755   0.882   0.970
 7103SOL     OW22207   4.167   5.152   0.931
 7103SOL    HW122208   4.146   5.055   0.922
 7103SOL    HW222209   4.260   5.163   0.966
 7104SOL     OW22210   1.221   3.525   5.105
 7104SOL    HW122211   1.164   3.606   5.114
 7104SOL    HW222212   1.251   3.495   5.195
 7105SOL     OW22213   2.658   2.539   5.387
 7105SOL    HW122214   2.631   2.480   5.463
 7105SOL    HW222215   2.726   2.492   5.331
 7106SOL     OW22216   3.051   3.020   2.879
 7106SOL    HW122217   3.061   3.045   2.783
 7106SOL    HW222218   2.965   3.056   2.915
 7107SOL     OW22219   3.469   0.669   0.453
 7107SOL    HW122220   3.506   0.644   0.364
 7107SOL    HW222221   3.369   0.670   0.448
 7108SOL     OW22222   4.199   6.366   2.483
 7108SOL    HW122223   4.255   6.285   2.501
 7108SOL    HW222224   4.145   6.352   2.400
 7109SOL     OW22225   4.039   6.803   6.097
 7109SOL    HW122226   4.025   6.804   6.196
 7109SOL    HW222227   4.135   6.786   6.077
 7110SOL     OW22228   4.456   6.147   3.681
 7110SOL    HW122229   4.418   6.204   3.608
 7110SOL    HW222230   4.385   6.085   3.716
 7111SOL     OW22231   2.146   1.868   4.591
 7111SOL    HW122232   2.235   1.846   4.631
 7111SOL    HW222233   2.120   1.961   4.617
 7112SOL     OW22234   2.662   5.991   4.088
 7112SOL    HW122235   2.662   6.083   4.048
 7112SOL    HW222236   2.595   5.935   4.039
 7113SOL     OW22237   2.952   3.877   4.729
 7113SOL    HW122238   2.931   3.931   4.810
 7113SOL    HW222239   2.955   3.780   4.752
 7114SOL     OW22240   3.972   6.683   1.234
 7114SOL    HW122241   4.008   6.733   1.312
 7114SOL    HW222242   3.877   6.659   1.250
 7115SOL     OW22243   5.345   3.058   2.448
 7115SOL    HW122244   5.268   3.096   2.397
 7115SOL    HW222245   5.405   3.006   2.386
 7116SOL     OW22246   5.495   3.441   3.417
 7116SOL    HW122247   5.534   3.488   3.497
 7116SOL    HW222248   5.477   3.346   3.440
 7117SOL     OW22249   0.405   6.880   4.450
 7117SOL    HW122250   0.469   6.824   4.398
 7117SOL    HW222251   0.316   6.883   4.403
 7118SOL     OW22252   3.127   4.163   0.792
 7118SOL    HW122253   3.043   4.205   0.758
 7118SOL    HW222254   3.186   4.234   0.830
 7119SOL     OW22255   5.464   1.721   3.409
 7119SOL    HW122256   5.479   1.710   3.311
 7119SOL    HW222257   5.391   1.787   3.424
 7120SOL     OW22258   4.257   1.676   2.485
 7120SOL    HW122259   4.312   1.636   2.558
 7120SOL    HW222260   4.261   1.775   2.491
 7121SOL     OW22261   2.699   0.117   2.220
 7121SOL    HW122262   2.718   0.052   2.295
 7121SOL    HW222263   2.653   0.198   2.257
 7122SOL     OW22264   0.013   1.024   5.642
 7122SOL    HW122265   6.982   0.963   5.697
 7122SOL    HW222266   6.977   1.076   5.580
 7123SOL     OW22267   2.584   4.938   1.982
 7123SOL    HW122268   2.651   4.990   2.035
 7123SOL    HW222269   2.505   4.995   1.961
 7124SOL     OW22270   0.230   2.786   0.678
 7124SOL    HW122271   0.300   2.839   0.629
 7124SOL    HW222272   0.234   2.808   0.775
 7125SOL     OW22273   6.389   6.573   1.009
 7125SOL    HW122274   6.439   6.608   1.088
 7125SOL    HW222275   6.440   6.497   0.968
 7126SOL     OW22276   3.501   4.892   0.167
 7126SOL    HW122277   3.435   4.827   0.204
 7126SOL    HW222278   3.484   4.983   0.204
 7127SOL     OW22279   2.366   6.215   4.533
 7127SOL    HW122280   2.451   6.268   4.538
 7127SOL    HW222281   2.346   6.177   4.623
 7128SOL     OW22282   2.292   5.738   0.182
 7128SOL    HW122283   2.212   5.752   0.241
 7128SOL    HW222284   2.262   5.720   0.088
 7129SOL     OW22285   2.992   0.325   0.566
 7129SOL    HW122286   2.951   0.405   0.612
 7129SOL    HW222287   3.006   0.346   0.470
 7130SOL     OW22288   3.375   4.641   5.382
 7130SOL    HW122289   3.411   4.554   5.416
 7130SOL    HW222290   3.363   4.704   5.459
 7131SOL     OW22291   2.634   1.566   0.397
 7131SOL    HW122292   2.629   1.657   0.357
 7131SOL    HW222293   2.542   1.526   0.399
 7132SOL     OW22294   3.534   3.901   0.417
 7132SOL    HW122295   3.535   3.836   0.341
 7132SOL    HW222296   3.457   3.964   0.405
 7133SOL     OW22297   4.860   5.769   3.947
 7133SOL    HW122298   4.829   5.710   3.872
 7133SOL    HW222299   4.886   5.713   4.025
 7134SOL     OW22300   5.921   6.022   2.042
 7134SOL    HW122301   5.956   6.108   2.005
 7134SOL    HW222302   5.879   6.039   2.132
 7135SOL     OW22303   2.294   2.426   3.333
 7135SOL    HW122304   2.351   2.496   3.376
 7135SOL    HW222305   2.347   2.377   3.264
 7136SOL     OW22306   1.632   2.414   0.761
 7136SOL    HW122307   1.701   2.437   0.691
 7136SOL    HW222308   1.675   2.360   0.833
 7137SOL     OW22309   4.786   0.704   6.685
 7137SOL    HW122310   4.752   0.796   6.664
 7137SOL    HW222311   4.886   0.705   6.687
 7138SOL     OW22312   1.639   2.963   0.407
 7138SOL    HW122313   1.603   2.932   0.495
 7138SOL    HW222314   1.737   2.944   0.402
 7139SOL     OW22315   5.013   4.119   2.903
 7139SOL    HW122316   5.065   4.197   2.866
 7139SOL    HW222317   5.047   4.098   2.995
 7140SOL     OW22318   5.608   3.367   4.900
 7140SOL    HW122319   5.673   3.440   4.879
 7140SOL    HW222320   5.538   3.364   4.829
 7141SOL     OW22321   2.924   5.872   1.509
 7141SOL    HW122322   2.987   5.815   1.561
 7141SOL    HW222323   2.975   5.920   1.437
 7142SOL     OW22324   4.423   0.188   3.378
 7142SOL    HW122325   4.435   0.123   3.303
 7142SOL    HW222326   4.455   0.278   3.349
 7143SOL     OW22327   1.732   2.733   6.279
 7143SOL    HW122328   1.766   2.755   6.187
 7143SOL    HW222329   1.652   2.674   6.272
 7144SOL     OW22330   1.713   1.542   3.634
 7144SOL    HW122331   1.668   1.482   3.699
 7144SOL    HW222332   1.773   1.488   3.575
 7145SOL     OW22333   4.611   6.556   6.390
 7145SOL    HW122334   4.533   6.493   6.383
 7145SOL    HW222335   4.696   6.504   6.397
 7146SOL     OW22336   2.450   0.591   6.879
 7146SOL    HW122337   2.473   0.583   6.976
 7146SOL    HW222338   2.353   0.573   6.866
 7147SOL     OW22339   6.365   6.456   3.117
 7147SOL    HW122340   6.377   6.449   3.216
 7147SOL    HW222341   6.425   6.391   3.072
 7148SOL     OW22342   0.012   6.831   1.042
 7148SOL    HW122343   0.099   6.783   1.031
 7148SOL    HW222344   7.008   6.868   0.953
 7149SOL     OW22345   6.263   6.812   2.912
 7149SOL    HW122346   6.222   6.754   2.982
 7149SOL    HW222347   6.276   6.759   2.828
 7150SOL     OW22348   4.341   1.912   2.021
 7150SOL    HW122349   4.310   1.961   2.103
 7150SOL    HW222350   4.262   1.897   1.961
 7151SOL     OW22351   1.858   6.421   0.737
 7151SOL    HW122352   1.883   6.515   0.717
 7151SOL    HW222353   1.937   6.362   0.722
 7152SOL     OW22354   0.589   1.705   4.835
 7152SOL    HW122355   0.587   1.605   4.846
 7152SOL    HW222356   0.611   1.748   4.922
 7153SOL     OW22357   3.298   6.084   3.309
 7153SOL    HW122358   3.215   6.057   3.260
 7153SOL    HW222359   3.285   6.072   3.407
 7154SOL     OW22360   4.150   0.092   4.337
 7154SOL    HW122361   4.137   0.155   4.260
 7154SOL    HW222362   4.241   0.049   4.330
 7155SOL     OW22363   2.417   5.070   1.620
 7155SOL    HW122364   2.377   5.053   1.530
 7155SOL    HW222365   2.516   5.084   1.611
 7156SOL     OW22366   0.324   3.924   4.743
 7156SOL    HW122367   0.247   3.904   4.682
 7156SOL    HW222368   0.318   4.019   4.774
 7157SOL     OW22369   6.189   4.521   0.855
 7157SOL    HW122370   6.137   4.450   0.902
 7157SOL    HW222371   6.155   4.531   0.762
 7158SOL     OW22372   1.170   0.002   2.837
 7158SOL    HW122373   1.115   0.026   2.917
 7158SOL    HW222374   1.206   6.934   2.849
 7159SOL     OW22375   0.384   4.064   2.804
 7159SOL    HW122376   0.423   4.081   2.895
 7159SOL    HW222377   0.458   4.051   2.738
 7160SOL     OW22378   5.945   0.353   3.318
 7160SOL    HW122379   5.941   0.412   3.399
 7160SOL    HW222380   5.966   0.259   3.346
 7161SOL     OW22381   3.220   3.924   4.857
 7161SOL    HW122382   3.217   3.832   4.819
 7161SOL    HW222383   3.260   3.986   4.790
 7162SOL     OW22384   2.213   5.625   5.878
 7162SOL    HW122385   2.211   5.693   5.951
 7162SOL    HW222386   2.131   5.567   5.884
 7163SOL     OW22387   2.834   6.464   3.052
 7163SOL    HW122388   2.881   6.551   3.037
 7163SOL    HW222389   2.895   6.400   3.097
 7164SOL     OW22390   1.794   0.922   4.141
 7164SOL    HW122391   1.879   0.963   4.106
 7164SOL    HW222392   1.740   0.993   4.187
 7165SOL     OW22393   6.992   1.626   1.374
 7165SOL    HW122394   0.068   1.635   1.371
 7165SOL    HW222395   6.959   1.596   1.285
 7166SOL     OW22396   5.694   3.001   0.010
 7166SOL    HW122397   5.777   3.009   0.065
 7166SOL    HW222398   5.711   2.937   6.959
 7167SOL     OW22399   5.190   3.609   4.848
 7167SOL    HW122400   5.149   3.574   4.764
 7167SOL    HW222401   5.161   3.554   4.926
 7168SOL     OW22402   1.596   2.669   4.323
 7168SOL    HW122403   1.588   2.769   4.323
 7168SOL    HW222404   1.684   2.643   4.284
 7169SOL     OW22405   0.196   3.749   5.029
 7169SOL    HW122406   0.111   3.734   4.979
 7169SOL    HW222407   0.262   3.677   5.005
 7170SOL     OW22408   4.511   6.557   3.673
 7170SOL    HW122409   4.517   6.457   3.672
 7170SOL    HW222410   4.603   6.595   3.687
 7171SOL     OW22411   5.750   4.610   6.258
 7171SOL    HW122412   5.704   4.574   6.339
 7171SOL    HW222413   5.839   4.649   6.285
 7172SOL     OW22414   1.266   0.563   5.656
 7172SOL    HW122415   1.274   0.500   5.732
 7172SOL    HW222416   1.218   0.646   5.686
 7173SOL     OW22417   0.342   4.989   5.381
 7173SOL    HW122418   0.408   5.045   5.331
 7173SOL    HW222419   0.388   4.907   5.415
 7174SOL     OW22420   1.190   4.977   6.699
 7174SOL    HW122421   1.201   4.880   6.717
 7174SOL    HW222422   1.166   5.025   6.784
 7175SOL     OW22423   5.640   4.001   0.053
 7175SOL    HW122424   5.651   4.011   0.152
 7175SOL    HW222425   5.585   4.077   0.017
 7176SOL     OW22426   1.171   5.848   3.403
 7176SOL    HW122427   1.205   5.820   3.493
 7176SOL    HW222428   1.238   5.908   3.360
 7177SOL     OW22429   2.453   6.698   4.299
 7177SOL    HW122430   2.464   6.633   4.374
 7177SOL    HW222431   2.537   6.700   4.245
 7178SOL     OW22432   2.311   3.353   5.796
 7178SOL    HW122433   2.370   3.422   5.838
 7178SOL    HW222434   2.244   3.399   5.737
 7179SOL     OW22435   1.865   3.490   4.839
 7179SOL    HW122436   1.949   3.544   4.848
 7179SOL    HW222437   1.803   3.512   4.914
 7180SOL     OW22438   1.579   4.786   6.351
 7180SOL    HW122439   1.625   4.720   6.292
 7180SOL    HW222440   1.511   4.739   6.408
 7181SOL     OW22441   2.343   5.703   0.658
 7181SOL    HW122442   2.380   5.621   0.614
 7181SOL    HW222443   2.269   5.740   0.601
 7182SOL     OW22444   1.807   3.220   5.677
 7182SOL    HW122445   1.902   3.204   5.704
 7182SOL    HW222446   1.790   3.178   5.588
 7183SOL     OW22447   1.652   5.670   0.727
 7183SOL    HW122448   1.612   5.757   0.701
 7183SOL    HW222449   1.671   5.670   0.825
 7184SOL     OW22450   0.819   0.249   2.887
 7184SOL    HW122451   0.870   0.163   2.888
 7184SOL    HW222452   0.864   0.313   2.824
 7185SOL     OW22453   5.407   1.146   5.469
 7185SOL    HW122454   5.334   1.087   5.433
 7185SOL    HW222455   5.476   1.160   5.398
 7186SOL     OW22456   6.943   6.821   6.677
 7186SOL    HW122457   6.922   6.871   6.593
 7186SOL    HW222458   0.015   6.795   6.677
 7187SOL     OW22459   3.297   4.541   0.600
 7187SOL    HW122460   3.274   4.444   0.590
 7187SOL    HW222461   3.253   4.578   0.682
 7188SOL     OW22462   6.015   6.988   0.595
 7188SOL    HW122463   5.944   0.025   0.630
 7188SOL    HW222464   6.022   6.999   0.496
 7189SOL     OW22465   6.259   0.884   6.364
 7189SOL    HW122466   6.208   0.967   6.388
 7189SOL    HW222467   6.357   0.903   6.368
 7190SOL     OW22468   6.691   3.915   2.705
 7190SOL    HW122469   6.619   3.851   2.731
 7190SOL    HW222470   6.670   4.006   2.743
 7191SOL     OW22471   0.777   4.166   2.863
 7191SOL    HW122472   0.837   4.086   2.870
 7191SOL    HW222473   0.831   4.250   2.871
 7192SOL     OW22474   3.512   4.987   5.417
 7192SOL    HW122475   3.611   4.976   5.429
 7192SOL    HW222476   3.464   4.944   5.493
 7193SOL     OW22477   2.410   1.724   3.024
 7193SOL    HW122478   2.350   1.793   3.064
 7193SOL    HW222479   2.505   1.745   3.047
 7194SOL     OW22480   3.031   2.301   0.771
 7194SOL    HW122481   3.087   2.225   0.735
 7194SOL    HW222482   3.091   2.376   0.798
 7195SOL     OW22483   0.305   5.533   6.214
 7195SOL    HW122484   0.336   5.515   6.308
 7195SOL    HW222485   0.371   5.495   6.150
 7196SOL     OW22486   3.316   4.238   1.707
 7196SOL    HW122487   3.380   4.195   1.772
 7196SOL    HW222488   3.358   4.321   1.670
 7197SOL     OW22489   0.102   2.241   5.946
 7197SOL    HW122490   0.192   2.285   5.944
 7197SOL    HW222491   0.040   2.289   5.884
 7198SOL     OW22492   0.585   1.053   6.046
 7198SOL    HW122493   0.489   1.032   6.025
 7198SOL    HW222494   0.596   1.151   6.056
 7199SOL     OW22495   2.218   0.678   2.061
 7199SOL    HW122496   2.236   0.773   2.087
 7199SOL    HW222497   2.294   0.644   2.007
 7200SOL     OW22498   2.361   2.070   0.271
 7200SOL    HW122499   2.311   2.014   0.205
 7200SOL    HW222500   2.351   2.167   0.248
 7201SOL     OW22501   1.328   5.495   4.034
 7201SOL    HW122502   1.374   5.407   4.043
 7201SOL    HW222503   1.361   5.556   4.107
 7202SOL     OW22504   4.173   0.356   6.004
 7202SOL    HW122505   4.234   0.407   5.945
 7202SOL    HW222506   4.178   0.392   6.097
 7203SOL     OW22507   0.223   2.042   0.881
 7203SOL    HW122508   0.196   1.961   0.933
 7203SOL    HW222509   0.322   2.041   0.867
 7204SOL     OW22510   6.545   6.967   5.259
 7204SOL    HW122511   6.546   0.037   5.227
 7204SOL    HW222512   6.541   6.905   5.181
 7205SOL     OW22513   1.781   5.509   3.254
 7205SOL    HW122514   1.843   5.585   3.237
 7205SOL    HW222515   1.718   5.534   3.327
 7206SOL     OW22516   2.463   0.272   1.232
 7206SOL    HW122517   2.466   0.264   1.133
 7206SOL    HW222518   2.399   0.344   1.258
 7207SOL     OW22519   3.899   6.626   1.540
 7207SOL    HW122520   3.935   6.699   1.598
 7207SOL    HW222521   3.800   6.618   1.554
 7208SOL     OW22522   4.528   6.193   3.947
 7208SOL    HW122523   4.510   6.163   3.853
 7208SOL    HW222524   4.618   6.236   3.951
 7209SOL     OW22525   3.527   3.253   1.882
 7209SOL    HW122526   3.457   3.321   1.859
 7209SOL    HW222527   3.483   3.172   1.921
 7210SOL     OW22528   4.679   0.429   3.990
 7210SOL    HW122529   4.708   0.467   3.902
 7210SOL    HW222530   4.589   0.388   3.981
 7211SOL     OW22531   2.608   5.648   3.986
 7211SOL    HW122532   2.679   5.684   4.048
 7211SOL    HW222533   2.550   5.584   4.036
 7212SOL     OW22534   0.828   6.191   3.687
 7212SOL    HW122535   0.913   6.230   3.720
 7212SOL    HW222536   0.795   6.243   3.608
 7213SOL     OW22537   6.459   0.024   6.571
 7213SOL    HW122538   6.523   6.992   6.623
 7213SOL    HW222539   6.429   0.100   6.628
 7214SOL     OW22540   1.313   5.796   4.788
 7214SOL    HW122541   1.335   5.781   4.884
 7214SOL    HW222542   1.214   5.806   4.778
 7215SOL     OW22543   0.491   3.091   3.913
 7215SOL    HW122544   0.576   3.049   3.881
 7215SOL    HW222545   0.509   3.143   3.996
 7216SOL     OW22546   2.102   6.284   0.084
 7216SOL    HW122547   2.053   6.325   0.161
 7216SOL    HW222548   2.046   6.211   0.043
 7217SOL     OW22549   1.990   4.431   2.351
 7217SOL    HW122550   2.075   4.484   2.350
 7217SOL    HW222551   2.007   4.341   2.313
 7218SOL     OW22552   4.510   2.739   5.232
 7218SOL    HW122553   4.472   2.825   5.267
 7218SOL    HW222554   4.602   2.756   5.196
 7219SOL     OW22555   5.240   6.344   4.279
 7219SOL    HW122556   5.299   6.309   4.207
 7219SOL    HW222557   5.158   6.287   4.287
 7220SOL     OW22558   0.427   5.553   4.224
 7220SOL    HW122559   0.507   5.600   4.261
 7220SOL    HW222560   0.454   5.463   4.191
 7221SOL     OW22561   5.598   4.980   4.906
 7221SOL    HW122562   5.551   5.057   4.865
 7221SOL    HW222563   5.697   4.993   4.898
 7222SOL     OW22564   6.168   0.291   2.024
 7222SOL    HW122565   6.071   0.265   2.017
 7222SOL    HW222566   6.216   0.258   1.943
 7223SOL     OW22567   2.776   1.858   1.528
 7223SOL    HW122568   2.798   1.927   1.597
 7223SOL    HW222569   2.852   1.848   1.464
 7224SOL     OW22570   5.267   2.043   4.422
 7224SOL    HW122571   5.219   1.998   4.347
 7224SOL    HW222572   5.363   2.015   4.421
 7225SOL     OW22573   1.354   6.027   6.292
 7225SOL    HW122574   1.262   6.065   6.286
 7225SOL    HW222575   1.370   5.993   6.384
 7226SOL     OW22576   0.892   0.632   0.526
 7226SOL    HW122577   0.860   0.699   0.593
 7226SOL    HW222578   0.867   0.662   0.434
 7227SOL     OW22579   0.395   2.399   0.568
 7227SOL    HW122580   0.459   2.347   0.511
 7227SOL    HW222581   0.344   2.336   0.626
 7228SOL     OW22582   0.287   1.226   1.814
 7228SOL    HW122583   0.207   1.283   1.791
 7228SOL    HW222584   0.340   1.270   1.886
 7229SOL     OW22585   1.087   0.333   4.882
 7229SOL    HW122586   1.118   0.411   4.936
 7229SOL    HW222587   1.010   0.361   4.824
 7230SOL     OW22588   4.951   5.581   4.859
 7230SOL    HW122589   4.898   5.661   4.887
 7230SOL    HW222590   4.896   5.498   4.872
 7231SOL     OW22591   4.472   6.639   0.025
 7231SOL    HW122592   4.548   6.617   0.087
 7231SOL    HW222593   4.463   6.566   6.982
 7232SOL     OW22594   4.582   5.132   3.603
 7232SOL    HW122595   4.605   5.150   3.699
 7232SOL    HW222596   4.482   5.128   3.593
 7233SOL     OW22597   0.329   2.253   4.489
 7233SOL    HW122598   0.281   2.334   4.457
 7233SOL    HW222599   0.426   2.273   4.498
 7234SOL     OW22600   5.758   2.538   3.256
 7234SOL    HW122601   5.843   2.514   3.304
 7234SOL    HW222602   5.723   2.624   3.293
 7235SOL     OW22603   6.501   4.352   2.961
 7235SOL    HW122604   6.487   4.435   2.906
 7235SOL    HW222605   6.474   4.371   3.056
 7236SOL     OW22606   3.271   1.562   3.029
 7236SOL    HW122607   3.217   1.572   2.945
 7236SOL    HW222608   3.209   1.548   3.106
 7237SOL     OW22609   6.549   6.510   5.694
 7237SOL    HW122610   6.520   6.570   5.619
 7237SOL    HW222611   6.644   6.483   5.680
 7238SOL     OW22612   2.143   2.182   0.905
 7238SOL    HW122613   2.233   2.181   0.950
 7238SOL    HW222614   2.090   2.260   0.939
 7239SOL     OW22615   2.681   1.145   3.809
 7239SOL    HW122616   2.604   1.086   3.833
 7239SOL    HW222617   2.756   1.089   3.774
 7240SOL     OW22618   2.345   4.036   6.537
 7240SOL    HW122619   2.294   4.104   6.589
 7240SOL    HW222620   2.342   3.948   6.585
 7241SOL     OW22621   3.438   0.316   6.934
 7241SOL    HW122622   3.420   0.244   7.002
 7241SOL    HW222623   3.386   0.297   6.851
 7242SOL     OW22624   6.804   5.226   0.311
 7242SOL    HW122625   6.887   5.184   0.275
 7242SOL    HW222626   6.725   5.192   0.259
 7243SOL     OW22627   0.617   4.301   6.326
 7243SOL    HW122628   0.532   4.296   6.274
 7243SOL    HW222629   0.675   4.222   6.301
 7244SOL     OW22630   5.150   1.287   1.418
 7244SOL    HW122631   5.098   1.251   1.496
 7244SOL    HW222632   5.096   1.274   1.334
 7245SOL     OW22633   0.743   1.773   5.138
 7245SOL    HW122634   0.739   1.678   5.169
 7245SOL    HW222635   0.651   1.804   5.115
 7246SOL     OW22636   5.956   6.849   4.860
 7246SOL    HW122637   5.957   6.774   4.925
 7246SOL    HW222638   5.869   6.898   4.867
 7247SOL     OW22639   2.963   6.561   3.409
 7247SOL    HW122640   3.033   6.554   3.339
 7247SOL    HW222641   2.960   6.654   3.445
 7248SOL     OW22642   3.737   0.915   2.940
 7248SOL    HW122643   3.660   0.973   2.967
 7248SOL    HW222644   3.755   0.927   2.843
 7249SOL     OW22645   5.660   5.105   1.528
 7249SOL    HW122646   5.680   5.177   1.595
 7249SOL    HW222647   5.682   5.016   1.568
 7250SOL     OW22648   3.597   5.352   5.907
 7250SOL    HW122649   3.691   5.346   5.939
 7250SOL    HW222650   3.552   5.430   5.950
 7251SOL     OW22651   0.110   6.467   5.266
 7251SOL    HW122652   0.013   6.450   5.249
 7251SOL    HW222653   0.154   6.497   5.181
 7252SOL     OW22654   3.577   3.304   3.810
 7252SOL    HW122655   3.647   3.339   3.749
 7252SOL    HW222656   3.610   3.221   3.855
 7253SOL     OW22657   1.697   0.160   0.482
 7253SOL    HW122658   1.749   0.228   0.534
 7253SOL    HW222659   1.603   0.158   0.515
 7254SOL     OW22660   4.609   4.912   5.169
 7254SOL    HW122661   4.511   4.934   5.169
 7254SOL    HW222662   4.653   4.954   5.248
 7255SOL     OW22663   3.239   3.756   1.694
 7255SOL    HW122664   3.139   3.763   1.694
 7255SOL    HW222665   3.267   3.679   1.637
 7256SOL     OW22666   5.132   5.113   4.223
 7256SOL    HW122667   5.078   5.073   4.297
 7256SOL    HW222668   5.229   5.114   4.250
 7257SOL     OW22669   5.663   2.815   3.541
 7257SOL    HW122670   5.648   2.893   3.601
 7257SOL    HW222671   5.761   2.804   3.524
 7258SOL     OW22672   4.003   0.967   3.662
 7258SOL    HW122673   4.009   1.066   3.674
 7258SOL    HW222674   3.909   0.942   3.639
 7259SOL     OW22675   3.484   4.078   1.291
 7259SOL    HW122676   3.521   4.064   1.383
 7259SOL    HW222677   3.483   3.991   1.242
 7260SOL     OW22678   3.226   1.935   3.152
 7260SOL    HW122679   3.145   1.929   3.211
 7260SOL    HW222680   3.296   1.871   3.184
 7261SOL     OW22681   3.059   2.710   1.228
 7261SOL    HW122682   3.153   2.732   1.257
 7261SOL    HW222683   3.058   2.618   1.189
 7262SOL     OW22684   5.707   2.355   4.326
 7262SOL    HW122685   5.639   2.329   4.257
 7262SOL    HW222686   5.660   2.391   4.407
 7263SOL     OW22687   0.241   5.645   2.084
 7263SOL    HW122688   0.300   5.572   2.118
 7263SOL    HW222689   0.264   5.664   1.988
 7264SOL     OW22690   6.639   1.447   6.821
 7264SOL    HW122691   6.546   1.434   6.786
 7264SOL    HW222692   6.636   1.451   6.921
 7265SOL     OW22693   5.497   4.790   6.027
 7265SOL    HW122694   5.410   4.778   5.979
 7265SOL    HW222695   5.498   4.735   6.110
 7266SOL     OW22696   4.171   0.581   0.546
 7266SOL    HW122697   4.099   0.620   0.488
 7266SOL    HW222698   4.156   0.608   0.641
 7267SOL     OW22699   6.724   4.822   5.096
 7267SOL    HW122700   6.689   4.746   5.041
 7267SOL    HW222701   6.660   4.841   5.171
 7268SOL     OW22702   4.482   4.913   3.371
 7268SOL    HW122703   4.510   4.967   3.451
 7268SOL    HW222704   4.504   4.965   3.288
 7269SOL     OW22705   0.062   6.111   1.581
 7269SOL    HW122706   0.017   6.200   1.587
 7269SOL    HW222707   0.020   6.048   1.647
 7270SOL     OW22708   1.462   2.570   3.558
 7270SOL    HW122709   1.407   2.533   3.483
 7270SOL    HW222710   1.405   2.629   3.616
 7271SOL     OW22711   0.841   4.962   3.524
 7271SOL    HW122712   0.871   5.043   3.473
 7271SOL    HW222713   0.915   4.895   3.527
 7272SOL     OW22714   6.036   3.396   2.308
 7272SOL    HW122715   6.049   3.343   2.225
 7272SOL    HW222716   6.097   3.362   2.379
 7273SOL     OW22717   6.112   4.256   2.166
 7273SOL    HW122718   6.102   4.221   2.073
 7273SOL    HW222719   6.029   4.306   2.191
 7274SOL     OW22720   0.059   6.586   6.445
 7274SOL    HW122721   7.005   6.551   6.497
 7274SOL    HW222722   0.124   6.629   6.508
 7275SOL     OW22723   6.719   0.660   1.163
 7275SOL    HW122724   6.743   0.721   1.088
 7275SOL    HW222725   6.626   0.627   1.151
 7276SOL     OW22726   3.254   1.372   3.565
 7276SOL    HW122727   3.306   1.340   3.486
 7276SOL    HW222728   3.315   1.416   3.630
 7277SOL     OW22729   5.504   1.050   4.881
 7277SOL    HW122730   5.578   1.045   4.814
 7277SOL    HW222731   5.541   1.081   4.969
 7278SOL     OW22732   3.661   2.045   3.111
 7278SOL    HW122733   3.736   2.111   3.110
 7278SOL    HW222734   3.611   2.050   3.024
 7279SOL     OW22735   4.581   3.824   6.830
 7279SOL    HW122736   4.604   3.899   6.767
 7279SOL    HW222737   4.487   3.835   6.861
 7280SOL     OW22738   5.992   2.313   5.341
 7280SOL    HW122739   5.897   2.310   5.311
 7280SOL    HW222740   6.039   2.389   5.297
 7281SOL     OW22741   3.373   0.102   0.853
 7281SOL    HW122742   3.301   0.167   0.830
 7281SOL    HW222743   3.394   0.108   0.950
 7282SOL     OW22744   6.446   5.678   1.620
 7282SOL    HW122745   6.508   5.756   1.621
 7282SOL    HW222746   6.432   5.645   1.713
 7283SOL     OW22747   2.768   6.787   2.238
 7283SOL    HW122748   2.744   6.871   2.287
 7283SOL    HW222749   2.847   6.805   2.179
 7284SOL     OW22750   6.745   2.800   3.831
 7284SOL    HW122751   6.721   2.880   3.887
 7284SOL    HW222752   6.695   2.720   3.863
 7285SOL     OW22753   5.037   3.511   1.533
 7285SOL    HW122754   5.065   3.416   1.542
 7285SOL    HW222755   4.943   3.522   1.566
 7286SOL     OW22756   0.718   1.359   0.685
 7286SOL    HW122757   0.804   1.407   0.670
 7286SOL    HW222758   0.684   1.322   0.599
 7287SOL     OW22759   6.699   3.024   3.976
 7287SOL    HW122760   6.714   3.115   3.939
 7287SOL    HW222761   6.766   3.005   4.048
 7288SOL     OW22762   1.884   2.802   2.220
 7288SOL    HW122763   1.815   2.756   2.276
 7288SOL    HW222764   1.967   2.746   2.215
 7289SOL     OW22765   5.569   3.325   2.267
 7289SOL    HW122766   5.528   3.416   2.265
 7289SOL    HW222767   5.628   3.316   2.347
 7290SOL     OW22768   3.366   0.862   5.169
 7290SOL    HW122769   3.381   0.831   5.263
 7290SOL    HW222770   3.412   0.799   5.106
 7291SOL     OW22771   4.028   0.180   0.718
 7291SOL    HW122772   4.051   0.231   0.635
 7291SOL    HW222773   3.963   0.108   0.696
 7292SOL     OW22774   1.600   6.556   3.689
 7292SOL    HW122775   1.590   6.589   3.783
 7292SOL    HW222776   1.639   6.629   3.632
 7293SOL     OW22777   1.634   1.221   6.176
 7293SOL    HW122778   1.612   1.134   6.219
 7293SOL    HW222779   1.723   1.214   6.131
 7294SOL     OW22780   3.279   4.778   1.522
 7294SOL    HW122781   3.321   4.708   1.465
 7294SOL    HW222782   3.200   4.817   1.474
 7295SOL     OW22783   6.306   4.523   1.689
 7295SOL    HW122784   6.285   4.436   1.645
 7295SOL    HW222785   6.224   4.561   1.731
 7296SOL     OW22786   3.586   5.183   3.137
 7296SOL    HW122787   3.680   5.181   3.170
 7296SOL    HW222788   3.542   5.095   3.156
 7297SOL     OW22789   3.259   6.441   2.458
 7297SOL    HW122790   3.163   6.423   2.478
 7297SOL    HW222791   3.267   6.516   2.393
 7298SOL     OW22792   4.929   6.301   0.175
 7298SOL    HW122793   4.849   6.311   0.115
 7298SOL    HW222794   4.931   6.208   0.211
 7299SOL     OW22795   1.102   1.956   0.185
 7299SOL    HW122796   1.095   1.886   0.114
 7299SOL    HW222797   1.040   1.934   0.260
 7300SOL     OW22798   0.885   4.839   1.721
 7300SOL    HW122799   0.925   4.771   1.782
 7300SOL    HW222800   0.957   4.899   1.686
 7301SOL     OW22801   6.975   0.320   5.729
 7301SOL    HW122802   7.014   0.299   5.640
 7301SOL    HW222803   6.878   0.341   5.720
 7302SOL     OW22804   6.642   1.804   5.323
 7302SOL    HW122805   6.679   1.737   5.387
 7302SOL    HW222806   6.672   1.780   5.230
 7303SOL     OW22807   3.150   1.320   6.807
 7303SOL    HW122808   3.084   1.291   6.738
 7303SOL    HW222809   3.229   1.260   6.805
 7304SOL     OW22810   2.364   5.080   1.911
 7304SOL    HW122811   2.354   5.105   1.815
 7304SOL    HW222812   2.280   5.036   1.943
 7305SOL     OW22813   5.264   2.708   1.058
 7305SOL    HW122814   5.179   2.708   1.006
 7305SOL    HW222815   5.287   2.614   1.084
 7306SOL     OW22816   3.946   1.417   1.759
 7306SOL    HW122817   3.877   1.345   1.751
 7306SOL    HW222818   3.901   1.505   1.774
 7307SOL     OW22819   3.672   6.656   2.045
 7307SOL    HW122820   3.666   6.594   1.966
 7307SOL    HW222821   3.716   6.608   2.121
 7308SOL     OW22822   6.647   1.293   2.841
 7308SOL    HW122823   6.745   1.310   2.851
 7308SOL    HW222824   6.598   1.336   2.917
 7309SOL     OW22825   2.231   6.238   3.012
 7309SOL    HW122826   2.178   6.181   2.949
 7309SOL    HW222827   2.328   6.235   2.986
 7310SOL     OW22828   1.254   3.385   6.961
 7310SOL    HW122829   1.257   3.327   6.880
 7310SOL    HW222830   1.341   3.434   6.971
 7311SOL     OW22831   0.822   0.183   0.587
 7311SOL    HW122832   0.904   0.157   0.535
 7311SOL    HW222833   0.842   0.265   0.640
 7312SOL     OW22834   0.487   1.458   4.827
 7312SOL    HW122835   0.434   1.484   4.908
 7312SOL    HW222836   0.487   1.358   4.818
 7313SOL     OW22837   2.680   1.174   0.583
 7313SOL    HW122838   2.760   1.116   0.599
 7313SOL    HW222839   2.702   1.269   0.607
 7314SOL     OW22840   0.439   3.805   6.867
 7314SOL    HW122841   0.487   3.767   6.946
 7314SOL    HW222842   0.380   3.735   6.828
 7315SOL     OW22843   6.494   5.029   2.329
 7315SOL    HW122844   6.548   5.103   2.370
 7315SOL    HW222845   6.446   5.063   2.249
 7316SOL     OW22846   3.476   1.930   6.075
 7316SOL    HW122847   3.488   2.024   6.043
 7316SOL    HW222848   3.509   1.922   6.169
 7317SOL     OW22849   3.805   1.705   1.757
 7317SOL    HW122850   3.736   1.644   1.797
 7317SOL    HW222851   3.813   1.787   1.813
 7318SOL     OW22852   3.696   6.904   1.987
 7318SOL    HW122853   3.676   6.806   1.988
 7318SOL    HW222854   3.764   6.924   2.058
 7319SOL     OW22855   6.800   2.786   6.299
 7319SOL    HW122856   6.886   2.736   6.312
 7319SOL    HW222857   6.792   2.815   6.204
 7320SOL     OW22858   6.830   4.127   1.212
 7320SOL    HW122859   6.840   4.223   1.238
 7320SOL    HW222860   6.842   4.069   1.293
 7321SOL     OW22861   1.413   6.699   6.147
 7321SOL    HW122862   1.329   6.658   6.183
 7321SOL    HW222863   1.393   6.791   6.113
 7322SOL     OW22864   0.955   2.673   3.180
 7322SOL    HW122865   0.864   2.690   3.218
 7322SOL    HW222866   0.984   2.753   3.126
 7323SOL     OW22867   2.590   1.676   1.529
 7323SOL    HW122868   2.652   1.732   1.584
 7323SOL    HW222869   2.644   1.617   1.468
 7324SOL     OW22870   6.339   4.408   2.184
 7324SOL    HW122871   6.252   4.359   2.180
 7324SOL    HW222872   6.405   4.365   2.122
 7325SOL     OW22873   3.025   0.765   5.715
 7325SOL    HW122874   2.987   0.704   5.647
 7325SOL    HW222875   3.041   0.715   5.800
 7326SOL     OW22876   4.155   0.172   6.314
 7326SOL    HW122877   4.169   0.271   6.322
 7326SOL    HW222878   4.117   0.151   6.225
 7327SOL     OW22879   5.843   4.118   3.680
 7327SOL    HW122880   5.901   4.041   3.653
 7327SOL    HW222881   5.776   4.136   3.608
 7328SOL     OW22882   4.518   5.471   5.922
 7328SOL    HW122883   4.530   5.377   5.890
 7328SOL    HW222884   4.430   5.479   5.970
 7329SOL     OW22885   0.764   2.573   0.425
 7329SOL    HW122886   0.832   2.641   0.397
 7329SOL    HW222887   0.703   2.554   0.348
 7330SOL     OW22888   3.256   2.898   1.028
 7330SOL    HW122889   3.339   2.911   1.083
 7330SOL    HW222890   3.193   2.973   1.045
 7331SOL     OW22891   4.673   0.220   1.869
 7331SOL    HW122892   4.624   0.136   1.844
 7331SOL    HW222893   4.717   0.208   1.958
 7332SOL     OW22894   4.074   4.277   0.062
 7332SOL    HW122895   4.005   4.252   7.020
 7332SOL    HW222896   4.161   4.296   0.016
 7333SOL     OW22897   5.994   3.326   3.232
 7333SOL    HW122898   5.910   3.295   3.188
 7333SOL    HW222899   6.065   3.256   3.221
 7334SOL     OW22900   2.892   5.796   5.968
 7334SOL    HW122901   2.867   5.889   5.940
 7334SOL    HW222902   2.880   5.787   6.067
 7335SOL     OW22903   0.221   3.425   2.963
 7335SOL    HW122904   0.136   3.468   2.993
 7335SOL    HW222905   0.208   3.325   2.961
 7336SOL     OW22906   2.314   6.377   0.983
 7336SOL    HW122907   2.221   6.346   0.967
 7336SOL    HW222908   2.379   6.307   0.954
 7337SOL     OW22909   3.336   2.614   1.286
 7337SOL    HW122910   3.395   2.659   1.219
 7337SOL    HW222911   3.334   2.515   1.268
 7338SOL     OW22912   5.775   2.213   1.355
 7338SOL    HW122913   5.801   2.287   1.416
 7338SOL    HW222914   5.840   2.208   1.279
 7339SOL     OW22915   0.073   6.673   5.675
 7339SOL    HW122916   0.151   6.635   5.626
 7339SOL    HW222917   0.064   6.771   5.653
 7340SOL     OW22918   3.880   0.923   6.558
 7340SOL    HW122919   3.790   0.966   6.553
 7340SOL    HW222920   3.889   0.875   6.646
 7341SOL     OW22921   1.672   5.167   4.509
 7341SOL    HW122922   1.732   5.186   4.586
 7341SOL    HW222923   1.589   5.222   4.517
 7342SOL     OW22924   6.719   0.029   0.484
 7342SOL    HW122925   6.762   0.002   0.571
 7342SOL    HW222926   6.780   0.007   0.408
 7343SOL     OW22927   5.697   4.145   1.845
 7343SOL    HW122928   5.695   4.050   1.879
 7343SOL    HW222929   5.660   4.148   1.753
 7344SOL     OW22930   1.807   0.193   6.831
 7344SOL    HW122931   1.873   0.122   6.807
 7344SOL    HW222932   1.722   0.177   6.781
 7345SOL     OW22933   4.185   4.880   5.806
 7345SOL    HW122934   4.280   4.909   5.790
 7345SOL    HW222935   4.134   4.886   5.720
 7346SOL     OW22936   4.296   3.967   1.004
 7346SOL    HW122937   4.375   3.940   1.059
 7346SOL    HW222938   4.215   3.971   1.063
 7347SOL     OW22939   0.087   2.491   2.005
 7347SOL    HW122940   0.013   2.545   1.963
 7347SOL    HW222941   0.061   2.465   2.098
 7348SOL     OW22942   1.652   4.234   3.557
 7348SOL    HW122943   1.692   4.159   3.504
 7348SOL    HW222944   1.687   4.230   3.651
 7349SOL     OW22945   3.646   1.746   0.813
 7349SOL    HW122946   3.561   1.792   0.837
 7349SOL    HW222947   3.645   1.653   0.848
 7350SOL     OW22948   0.643   2.777   4.014
 7350SOL    HW122949   0.705   2.806   3.942
 7350SOL    HW222950   0.691   2.778   4.102
 7351SOL     OW22951   4.010   4.578   6.835
 7351SOL    HW122952   3.993   4.616   6.744
 7351SOL    HW222953   4.103   4.602   6.864
 7352SOL     OW22954   1.715   1.916   3.843
 7352SOL    HW122955   1.696   1.818   3.855
 7352SOL    HW222956   1.716   1.937   3.746
 7353SOL     OW22957   0.592   1.632   5.348
 7353SOL    HW122958   0.576   1.579   5.431
 7353SOL    HW222959   0.594   1.570   5.269
 7354SOL     OW22960   0.446   0.613   6.364
 7354SOL    HW122961   0.412   0.660   6.445
 7354SOL    HW222962   0.544   0.599   6.372
 7355SOL     OW22963   1.520   5.898   1.012
 7355SOL    HW122964   1.441   5.894   0.951
 7355SOL    HW222965   1.605   5.895   0.958
 7356SOL     OW22966   4.996   2.603   6.550
 7356SOL    HW122967   5.093   2.627   6.549
 7356SOL    HW222968   4.982   2.520   6.604
 7357SOL     OW22969   4.812   0.962   1.246
 7357SOL    HW122970   4.792   0.965   1.344
 7357SOL    HW222971   4.791   0.871   1.210
 7358SOL     OW22972   2.799   1.941   2.423
 7358SOL    HW122973   2.841   2.017   2.373
 7358SOL    HW222974   2.815   1.954   2.521
 7359SOL     OW22975   3.460   2.930   0.839
 7359SOL    HW122976   3.371   2.925   0.885
 7359SOL    HW222977   3.471   2.850   0.779
 7360SOL     OW22978   2.176   2.251   5.730
 7360SOL    HW122979   2.091   2.243   5.782
 7360SOL    HW222980   2.164   2.317   5.656
 7361SOL     OW22981   4.728   6.402   1.935
 7361SOL    HW122982   4.704   6.477   1.873
 7361SOL    HW222983   4.755   6.322   1.881
 7362SOL     OW22984   0.814   6.761   4.916
 7362SOL    HW122985   0.733   6.711   4.885
 7362SOL    HW222986   0.790   6.822   4.991
 7363SOL     OW22987   4.629   1.801   0.097
 7363SOL    HW122988   4.543   1.852   0.103
 7363SOL    HW222989   4.706   1.865   0.089
 7364SOL     OW22990   4.172   6.504   1.474
 7364SOL    HW122991   4.074   6.523   1.484
 7364SOL    HW222992   4.184   6.419   1.423
 7365SOL     OW22993   2.451   6.520   2.471
 7365SOL    HW122994   2.497   6.434   2.450
 7365SOL    HW222995   2.373   6.532   2.410
 7366SOL     OW22996   1.611   5.440   0.310
 7366SOL    HW122997   1.632   5.342   0.315
 7366SOL    HW222998   1.694   5.490   0.286
 7367SOL     OW22999   4.659   3.602   0.817
 7367SOL    HW123000   4.561   3.623   0.817
 7367SOL    HW223001   4.672   3.506   0.840
 7368SOL     OW23002   3.344   2.937   4.041
 7368SOL    HW123003   3.282   2.960   3.966
 7368SOL    HW223004   3.439   2.942   4.009
 7369SOL     OW23005   5.359   3.525   0.594
 7369SOL    HW123006   5.278   3.552   0.542
 7369SOL    HW223007   5.441   3.552   0.544
 7370SOL     OW23008   2.069   0.621   6.417
 7370SOL    HW123009   2.142   0.674   6.374
 7370SOL    HW223010   2.001   0.596   6.348
 7371SOL     OW23011   2.982   5.431   4.040
 7371SOL    HW123012   2.962   5.413   4.136
 7371SOL    HW223013   2.980   5.530   4.024
 7372SOL     OW23014   3.327   0.242   5.369
 7372SOL    HW123015   3.416   0.256   5.325
 7372SOL    HW223016   3.286   0.331   5.390
 7373SOL     OW23017   4.537   1.603   3.532
 7373SOL    HW123018   4.462   1.580   3.594
 7373SOL    HW223019   4.589   1.679   3.569
 7374SOL     OW23020   2.172   2.805   5.382
 7374SOL    HW123021   2.115   2.796   5.463
 7374SOL    HW223022   2.267   2.823   5.410
 7375SOL     OW23023   1.378   2.110   3.852
 7375SOL    HW123024   1.339   2.201   3.864
 7375SOL    HW223025   1.440   2.091   3.928
 7376SOL     OW23026   3.143   2.568   0.054
 7376SOL    HW123027   3.136   2.636   0.127
 7376SOL    HW223028   3.239   2.555   0.030
 7377SOL     OW23029   4.554   5.333   1.880
 7377SOL    HW123030   4.507   5.271   1.943
 7377SOL    HW223031   4.646   5.352   1.915
 7378SOL     OW23032   0.033   1.932   4.421
 7378SOL    HW123033   6.988   1.863   4.441
 7378SOL    HW223034   0.121   1.902   4.459
 7379SOL     OW23035   3.856   1.642   2.697
 7379SOL    HW123036   3.929   1.575   2.693
 7379SOL    HW223037   3.859   1.689   2.786
 7380SOL     OW23038   0.360   3.237   5.830
 7380SOL    HW123039   0.437   3.249   5.893
 7380SOL    HW223040   0.394   3.236   5.736
 7381SOL     OW23041   4.806   2.980   2.419
 7381SOL    HW123042   4.900   2.964   2.388
 7381SOL    HW223043   4.777   2.904   2.477
 7382SOL     OW23044   6.951   5.309   4.676
 7382SOL    HW123045   6.921   5.378   4.742
 7382SOL    HW223046   6.939   5.218   4.716
 7383SOL     OW23047   6.858   6.763   2.504
 7383SOL    HW123048   6.947   6.719   2.494
 7383SOL    HW223049   6.801   6.742   2.424
 7384SOL     OW23050   5.095   1.148   1.822
 7384SOL    HW123051   5.064   1.059   1.856
 7384SOL    HW223052   5.043   1.173   1.741
 7385SOL     OW23053   3.807   5.964   2.212
 7385SOL    HW123054   3.856   6.046   2.181
 7385SOL    HW223055   3.769   5.981   2.303
 7386SOL     OW23056   0.734   2.529   5.318
 7386SOL    HW123057   0.673   2.450   5.314
 7386SOL    HW223058   0.749   2.555   5.413
 7387SOL     OW23059   4.748   6.492   4.968
 7387SOL    HW123060   4.811   6.477   4.892
 7387SOL    HW223061   4.768   6.579   5.013
 7388SOL     OW23062   0.007   5.827   3.762
 7388SOL    HW123063   6.940   5.793   3.739
 7388SOL    HW223064   0.058   5.755   3.809
 7389SOL     OW23065   1.467   5.001   6.621
 7389SOL    HW123066   1.507   4.952   6.698
 7389SOL    HW223067   1.368   5.010   6.636
 7390SOL     OW23068   1.279   1.906   6.551
 7390SOL    HW123069   1.368   1.864   6.566
 7390SOL    HW223070   1.288   2.006   6.553
 7391SOL     OW23071   4.834   3.824   5.228
 7391SOL    HW123072   4.796   3.749   5.174
 7391SOL    HW223073   4.809   3.811   5.324
 7392SOL     OW23074   2.448   6.039   6.257
 7392SOL    HW123075   2.456   5.994   6.168
 7392SOL    HW223076   2.523   6.103   6.270
 7393SOL     OW23077   5.841   5.617   1.635
 7393SOL    HW123078   5.837   5.657   1.727
 7393SOL    HW223079   5.888   5.680   1.573
 7394SOL     OW23080   3.078   2.865   6.291
 7394SOL    HW123081   3.119   2.893   6.378
 7394SOL    HW223082   3.150   2.852   6.223
 7395SOL     OW23083   0.928   1.038   0.057
 7395SOL    HW123084   0.837   1.025   0.097
 7395SOL    HW223085   0.992   0.974   0.100
 7396SOL     OW23086   1.252   0.970   6.903
 7396SOL    HW123087   1.265   0.871   6.908
 7396SOL    HW223088   1.229   1.005   6.994
 7397SOL     OW23089   6.210   5.279   4.244
 7397SOL    HW123090   6.150   5.233   4.178
 7397SOL    HW223091   6.204   5.378   4.230
 7398SOL     OW23092   3.543   5.000   4.227
 7398SOL    HW123093   3.555   5.067   4.300
 7398SOL    HW223094   3.448   4.970   4.225
 7399SOL     OW23095   0.580   3.809   5.481
 7399SOL    HW123096   0.522   3.842   5.556
 7399SOL    HW223097   0.582   3.709   5.483
 7400SOL     OW23098   3.319   4.031   0.300
 7400SOL    HW123099   3.332   4.055   0.204
 7400SOL    HW223100   3.224   4.048   0.327
 7401SOL     OW23101   0.564   1.093   3.642
 7401SOL    HW123102   0.643   1.051   3.598
 7401SOL    HW223103   0.489   1.028   3.646
 7402SOL     OW23104   2.006   6.744   4.375
 7402SOL    HW123105   1.916   6.724   4.414
 7402SOL    HW223106   2.058   6.659   4.366
 7403SOL     OW23107   1.800   3.239   3.197
 7403SOL    HW123108   1.704   3.239   3.224
 7403SOL    HW223109   1.848   3.312   3.244
 7404SOL     OW23110   2.431   6.446   1.479
 7404SOL    HW123111   2.497   6.454   1.404
 7404SOL    HW223112   2.451   6.363   1.532
 7405SOL     OW23113   1.092   5.067   4.655
 7405SOL    HW123114   1.105   4.969   4.638
 7405SOL    HW223115   1.023   5.103   4.592
 7406SOL     OW23116   1.744   3.616   2.591
 7406SOL    HW123117   1.766   3.556   2.514
 7406SOL    HW223118   1.652   3.653   2.579
 7407SOL     OW23119   0.553   6.691   4.825
 7407SOL    HW123120   0.514   6.770   4.778
 7407SOL    HW223121   0.509   6.607   4.790
 7408SOL     OW23122   0.817   4.401   4.985
 7408SOL    HW123123   0.865   4.357   4.908
 7408SOL    HW223124   0.874   4.476   5.021
 7409SOL     OW23125   0.375   0.788   4.802
 7409SOL    HW123126   0.403   0.749   4.889
 7409SOL    HW223127   0.384   0.887   4.805
 7410SOL     OW23128   6.722   5.149   0.756
 7410SOL    HW123129   6.798   5.087   0.770
 7410SOL    HW223130   6.664   5.115   0.682
 7411SOL     OW23131   3.033   6.981   4.427
 7411SOL    HW123132   3.015   6.887   4.396
 7411SOL    HW223133   3.131   6.994   4.441
 7412SOL     OW23134   3.796   1.290   0.962
 7412SOL    HW123135   3.881   1.271   1.010
 7412SOL    HW223136   3.806   1.266   0.865
 7413SOL     OW23137   0.204   4.810   3.909
 7413SOL    HW123138   0.263   4.884   3.940
 7413SOL    HW223139   0.249   4.722   3.925
 7414SOL     OW23140   6.850   0.078   2.580
 7414SOL    HW123141   6.804   0.032   2.504
 7414SOL    HW223142   6.806   0.051   2.666
 7415SOL     OW23143   0.553   3.734   3.126
 7415SOL    HW123144   0.518   3.745   3.033
 7415SOL    HW223145   0.574   3.638   3.142
 7416SOL     OW23146   3.611   0.649   3.808
 7416SOL    HW123147   3.522   0.671   3.847
 7416SOL    HW223148   3.678   0.634   3.881
 7417SOL     OW23149   1.553   0.134   6.709
 7417SOL    HW123150   1.520   0.156   6.617
 7417SOL    HW223151   1.580   0.038   6.713
 7418SOL     OW23152   3.776   4.817   0.922
 7418SOL    HW123153   3.777   4.790   0.826
 7418SOL    HW223154   3.682   4.814   0.956
 7419SOL     OW23155   6.786   2.161   4.637
 7419SOL    HW123156   6.804   2.204   4.548
 7419SOL    HW223157   6.806   2.064   4.632
 7420SOL     OW23158   6.250   6.374   2.825
 7420SOL    HW123159   6.339   6.330   2.836
 7420SOL    HW223160   6.258   6.471   2.850
 7421SOL     OW23161   3.414   2.938   1.974
 7421SOL    HW123162   3.326   2.983   1.956
 7421SOL    HW223163   3.444   2.890   1.892
 7422SOL     OW23164   0.169   3.520   2.686
 7422SOL    HW123165   0.183   3.485   2.779
 7422SOL    HW223166   0.257   3.522   2.638
 7423SOL     OW23167   6.827   3.861   6.348
 7423SOL    HW123168   6.847   3.872   6.446
 7423SOL    HW223169   6.810   3.764   6.329
 7424SOL     OW23170   6.136   1.356   4.074
 7424SOL    HW123171   6.106   1.392   3.986
 7424SOL    HW223172   6.178   1.429   4.128
 7425SOL     OW23173   4.293   4.631   6.592
 7425SOL    HW123174   4.268   4.727   6.581
 7425SOL    HW223175   4.354   4.603   6.518
 7426SOL     OW23176   1.069   1.918   6.828
 7426SOL    HW123177   1.082   1.837   6.885
 7426SOL    HW223178   1.095   1.897   6.734
 7427SOL     OW23179   2.788   6.426   5.019
 7427SOL    HW123180   2.720   6.357   4.993
 7427SOL    HW223181   2.851   6.442   4.944
 7428SOL     OW23182   3.101   1.127   5.337
 7428SOL    HW123183   3.110   1.206   5.276
 7428SOL    HW223184   3.084   1.159   5.430
 7429SOL     OW23185   6.328   0.046   3.245
 7429SOL    HW123186   6.286   0.131   3.276
 7429SOL    HW223187   6.316   7.000   3.315
 7430SOL     OW23188   0.015   4.612   6.130
 7430SOL    HW123189   0.043   4.704   6.154
 7430SOL    HW223190   0.031   4.596   6.033
 7431SOL     OW23191   0.366   3.898   2.153
 7431SOL    HW123192   0.356   3.952   2.069
 7431SOL    HW223193   0.343   3.955   2.232
 7432SOL     OW23194   0.494   7.008   3.578
 7432SOL    HW123195   0.500   6.908   3.575
 7432SOL    HW223196   0.565   0.019   3.639
 7433SOL     OW23197   6.465   5.593   0.408
 7433SOL    HW123198   6.504   5.590   0.316
 7433SOL    HW223199   6.429   5.685   0.425
 7434SOL     OW23200   4.169   1.020   6.482
 7434SOL    HW123201   4.070   1.016   6.491
 7434SOL    HW223202   4.201   0.936   6.437
 7435SOL     OW23203   3.381   6.296   6.638
 7435SOL    HW123204   3.318   6.373   6.651
 7435SOL    HW223205   3.443   6.316   6.562
 7436SOL     OW23206   6.675   2.756   6.567
 7436SOL    HW123207   6.610   2.824   6.536
 7436SOL    HW223208   6.727   2.721   6.488
 7437SOL     OW23209   7.012   5.586   6.985
 7437SOL    HW123210   0.003   5.572   6.887
 7437SOL    HW223211   6.920   5.558   7.008
 7438SOL     OW23212   0.848   4.660   0.573
 7438SOL    HW123213   0.876   4.567   0.549
 7438SOL    HW223214   0.911   4.696   0.642
 7439SOL     OW23215   2.270   6.901   4.429
 7439SOL    HW123216   2.176   6.907   4.464
 7439SOL    HW223217   2.282   6.814   4.382
 7440SOL     OW23218   0.654   3.025   4.694
 7440SOL    HW123219   0.646   2.970   4.611
 7440SOL    HW223220   0.627   3.119   4.675
 7441SOL     OW23221   5.850   6.798   4.413
 7441SOL    HW123222   5.802   6.827   4.330
 7441SOL    HW223223   5.847   6.698   4.420
 7442SOL     OW23224   0.883   1.139   5.987
 7442SOL    HW123225   0.909   1.100   6.076
 7442SOL    HW223226   0.788   1.170   5.991
 7443SOL     OW23227   0.708   1.788   0.955
 7443SOL    HW123228   0.777   1.782   0.882
 7443SOL    HW223229   0.676   1.696   0.978
 7444SOL     OW23230   0.067   3.322   4.940
 7444SOL    HW123231   0.056   3.224   4.952
 7444SOL    HW223232   0.132   3.339   4.865
 7445SOL     OW23233   4.224   0.921   1.174
 7445SOL    HW123234   4.187   0.829   1.181
 7445SOL    HW223235   4.289   0.937   1.248
 7446SOL     OW23236   5.360   4.524   6.971
 7446SOL    HW123237   5.316   4.608   6.939
 7446SOL    HW223238   5.324   4.500   0.037
 7447SOL     OW23239   2.403   3.808   6.713
 7447SOL    HW123240   2.368   3.726   6.667
 7447SOL    HW223241   2.503   3.809   6.707
 7448SOL     OW23242   5.234   5.978   6.016
 7448SOL    HW123243   5.195   6.028   5.939
 7448SOL    HW223244   5.162   5.927   6.063
 7449SOL     OW23245   5.130   2.807   2.136
 7449SOL    HW123246   5.064   2.790   2.062
 7449SOL    HW223247   5.171   2.720   2.164
 7450SOL     OW23248   5.344   2.470   4.655
 7450SOL    HW123249   5.280   2.442   4.584
 7450SOL    HW223250   5.296   2.476   4.742
 7451SOL     OW23251   1.665   0.168   3.660
 7451SOL    HW123252   1.572   0.132   3.659
 7451SOL    HW223253   1.664   0.263   3.629
 7452SOL     OW23254   0.812   6.938   5.137
 7452SOL    HW123255   0.897   6.960   5.089
 7452SOL    HW223256   0.830   6.929   5.234
 7453SOL     OW23257   5.378   5.787   5.484
 7453SOL    HW123258   5.427   5.714   5.533
 7453SOL    HW223259   5.427   5.873   5.495
 7454SOL     OW23260   1.210   3.187   2.209
 7454SOL    HW123261   1.277   3.259   2.228
 7454SOL    HW223262   1.243   3.100   2.245
 7455SOL     OW23263   0.104   1.430   1.809
 7455SOL    HW123264   0.056   1.503   1.761
 7455SOL    HW223265   0.190   1.465   1.846
 7456SOL     OW23266   1.128   2.054   4.740
 7456SOL    HW123267   1.067   2.011   4.673
 7456SOL    HW223268   1.161   2.142   4.703
 7457SOL     OW23269   4.057   0.905   6.109
 7457SOL    HW123270   4.117   0.827   6.129
 7457SOL    HW223271   3.970   0.893   6.157
 7458SOL     OW23272   1.210   0.580   6.746
 7458SOL    HW123273   1.180   0.509   6.810
 7458SOL    HW223274   1.286   0.631   6.787
 7459SOL     OW23275   4.606   6.901   0.233
 7459SOL    HW123276   4.520   6.951   0.223
 7459SOL    HW223277   4.644   6.919   0.324
 7460SOL     OW23278   1.959   4.378   0.943
 7460SOL    HW123279   2.012   4.416   1.018
 7460SOL    HW223280   2.000   4.405   0.856
 7461SOL     OW23281   5.108   1.393   5.880
 7461SOL    HW123282   5.009   1.407   5.867
 7461SOL    HW223283   5.127   1.374   5.976
 7462SOL     OW23284   2.017   2.562   2.166
 7462SOL    HW123285   2.109   2.550   2.204
 7462SOL    HW223286   2.018   2.537   2.069
 7463SOL     OW23287   3.717   4.191   1.554
 7463SOL    HW123288   3.674   4.105   1.583
 7463SOL    HW223289   3.646   4.254   1.521
 7464SOL     OW23290   3.319   6.379   6.280
 7464SOL    HW123291   3.343   6.297   6.331
 7464SOL    HW223292   3.224   6.374   6.249
 7465SOL     OW23293   1.717   0.773   0.749
 7465SOL    HW123294   1.808   0.811   0.737
 7465SOL    HW223295   1.688   0.784   0.844
 7466SOL     OW23296   0.364   0.792   6.957
 7466SOL    HW123297   0.410   0.864   6.905
 7466SOL    HW223298   0.317   0.730   6.894
 7467SOL     OW23299   6.811   1.804   0.868
 7467SOL    HW123300   6.845   1.710   0.856
 7467SOL    HW223301   6.785   1.817   0.964
 7468SOL     OW23302   5.362   2.473   2.463
 7468SOL    HW123303   5.361   2.527   2.547
 7468SOL    HW223304   5.455   2.470   2.426
 7469SOL     OW23305   0.529   0.247   0.468
 7469SOL    HW123306   0.591   0.176   0.502
 7469SOL    HW223307   0.575   0.336   0.469
 7470SOL     OW23308   0.371   3.127   3.670
 7470SOL    HW123309   0.296   3.192   3.677
 7470SOL    HW223310   0.417   3.121   3.759
 7471SOL     OW23311   6.319   7.018   4.326
 7471SOL    HW123312   6.242   6.976   4.278
 7471SOL    HW223313   6.345   6.961   4.404
 7472SOL     OW23314   5.556   6.701   4.124
 7472SOL    HW123315   5.610   6.774   4.082
 7472SOL    HW223316   5.607   6.615   4.123
 7473SOL     OW23317   0.526   4.364   3.169
 7473SOL    HW123318   0.570   4.426   3.234
 7473SOL    HW223319   0.438   4.402   3.140
 7474SOL     OW23320   2.357   1.014   4.966
 7474SOL    HW123321   2.451   1.031   4.994
 7474SOL    HW223322   2.306   0.973   5.042
 7475SOL     OW23323   3.584   1.537   2.126
 7475SOL    HW123324   3.609   1.633   2.135
 7475SOL    HW223325   3.585   1.493   2.215
 7476SOL     OW23326   3.704   6.541   4.088
 7476SOL    HW123327   3.755   6.620   4.124
 7476SOL    HW223328   3.756   6.498   4.015
 7477SOL     OW23329   5.433   1.600   3.778
 7477SOL    HW123330   5.436   1.511   3.734
 7477SOL    HW223331   5.507   1.607   3.845
 7478SOL     OW23332   3.827   4.208   6.282
 7478SOL    HW123333   3.751   4.173   6.227
 7478SOL    HW223334   3.794   4.235   6.372
 7479SOL     OW23335   4.140   2.897   0.901
 7479SOL    HW123336   4.054   2.885   0.852
 7479SOL    HW223337   4.180   2.985   0.876
 7480SOL     OW23338   6.174   4.812   1.593
 7480SOL    HW123339   6.109   4.847   1.660
 7480SOL    HW223340   6.267   4.835   1.623
 7481SOL     OW23341   5.701   5.301   1.699
 7481SOL    HW123342   5.608   5.265   1.712
 7481SOL    HW223343   5.741   5.322   1.788
 7482SOL     OW23344   4.651   1.907   2.507
 7482SOL    HW123345   4.694   1.818   2.491
 7482SOL    HW223346   4.622   1.946   2.419
 7483SOL     OW23347   4.420   2.077   5.049
 7483SOL    HW123348   4.333   2.125   5.038
 7483SOL    HW223349   4.426   2.004   4.981
 7484SOL     OW23350   6.844   6.925   2.185
 7484SOL    HW123351   6.770   6.963   2.240
 7484SOL    HW223352   6.932   6.958   2.221
 7485SOL     OW23353   2.912   5.718   5.631
 7485SOL    HW123354   2.951   5.798   5.677
 7485SOL    HW223355   2.982   5.675   5.574
 7486SOL     OW23356   2.756   0.152   5.556
 7486SOL    HW123357   2.695   0.125   5.631
 7486SOL    HW223358   2.823   0.217   5.590
 7487SOL     OW23359   2.141   6.317   2.531
 7487SOL    HW123360   2.218   6.255   2.518
 7487SOL    HW223361   2.157   6.402   2.480
 7488SOL     OW23362   1.910   6.673   5.018
 7488SOL    HW123363   1.899   6.666   4.919
 7488SOL    HW223364   1.883   6.587   5.061
 7489SOL     OW23365   5.096   2.480   5.402
 7489SOL    HW123366   5.103   2.419   5.323
 7489SOL    HW223367   5.009   2.464   5.449
 7490SOL     OW23368   1.154   1.581   1.169
 7490SOL    HW123369   1.152   1.588   1.269
 7490SOL    HW223370   1.146   1.673   1.130
 7491SOL     OW23371   0.444   4.674   6.697
 7491SOL    HW123372   0.504   4.596   6.679
 7491SOL    HW223373   0.378   4.682   6.622
 7492SOL     OW23374   2.790   1.312   4.762
 7492SOL    HW123375   2.887   1.300   4.783
 7492SOL    HW223376   2.775   1.294   4.665
 7493SOL     OW23377   5.867   4.343   6.385
 7493SOL    HW123378   5.875   4.425   6.442
 7493SOL    HW223379   5.848   4.263   6.443
 7494SOL     OW23380   6.318   1.057   2.749
 7494SOL    HW123381   6.309   1.030   2.653
 7494SOL    HW223382   6.409   1.031   2.783
 7495SOL     OW23383   2.321   1.477   0.946
 7495SOL    HW123384   2.266   1.396   0.965
 7495SOL    HW223385   2.346   1.479   0.849
 7496SOL     OW23386   0.781   3.661   6.087
 7496SOL    HW123387   0.696   3.675   6.139
 7496SOL    HW223388   0.857   3.650   6.151
 7497SOL     OW23389   2.576   4.842   1.167
 7497SOL    HW123390   2.533   4.842   1.257
 7497SOL    HW223391   2.527   4.904   1.106
 7498SOL     OW23392   1.804   0.864   4.495
 7498SOL    HW123393   1.777   0.952   4.534
 7498SOL    HW223394   1.723   0.808   4.481
 7499SOL     OW23395   5.947   1.136   3.416
 7499SOL    HW123396   5.953   1.198   3.338
 7499SOL    HW223397   5.879   1.065   3.399
 7500SOL     OW23398   4.137   6.387   3.631
 7500SOL    HW123399   4.069   6.351   3.567
 7500SOL    HW223400   4.228   6.359   3.601
 7501SOL     OW23401   0.008   4.364   4.350
 7501SOL    HW123402   6.937   4.335   4.341
 7501SOL    HW223403   0.013   4.464   4.350
 7502SOL     OW23404   1.139   0.733   5.285
 7502SOL    HW123405   1.088   0.649   5.305
 7502SOL    HW223406   1.099   0.809   5.336
 7503SOL     OW23407   2.172   1.869   0.159
 7503SOL    HW123408   2.216   1.836   0.242
 7503SOL    HW223409   2.130   1.791   0.111
 7504SOL     OW23410   3.265   0.402   3.625
 7504SOL    HW123411   3.341   0.458   3.589
 7504SOL    HW223412   3.219   0.356   3.550
 7505SOL     OW23413   2.258   0.635   5.285
 7505SOL    HW123414   2.347   0.651   5.242
 7505SOL    HW223415   2.209   0.563   5.235
 7506SOL     OW23416   3.819   0.415   2.660
 7506SOL    HW123417   3.744   0.468   2.619
 7506SOL    HW223418   3.905   0.438   2.614
 7507SOL     OW23419   0.086   0.812   1.034
 7507SOL    HW123420   0.124   0.724   1.006
 7507SOL    HW223421   0.159   0.870   1.070
 7508SOL     OW23422   5.507   0.442   2.156
 7508SOL    HW123423   5.433   0.509   2.165
 7508SOL    HW223424   5.584   0.483   2.108
 7509SOL     OW23425   5.640   4.037   0.891
 7509SOL    HW123426   5.628   4.102   0.816
 7509SOL    HW223427   5.609   3.947   0.863
 7510SOL     OW23428   2.779   4.141   5.398
 7510SOL    HW123429   2.811   4.049   5.424
 7510SOL    HW223430   2.680   4.146   5.407
 7511SOL     OW23431   1.267   0.626   3.531
 7511SOL    HW123432   1.289   0.595   3.439
 7511SOL    HW223433   1.262   0.726   3.533
 7512SOL     OW23434   3.049   4.548   1.375
 7512SOL    HW123435   3.103   4.604   1.312
 7512SOL    HW223436   2.952   4.570   1.364
 7513SOL     OW23437   1.801   1.891   1.627
 7513SOL    HW123438   1.751   1.879   1.713
 7513SOL    HW223439   1.897   1.911   1.648
 7514SOL     OW23440   3.065   5.691   2.529
 7514SOL    HW123441   2.979   5.741   2.524
 7514SOL    HW223442   3.048   5.600   2.566
 7515SOL     OW23443   1.816   6.385   2.167
 7515SOL    HW123444   1.909   6.348   2.169
 7515SOL    HW223445   1.758   6.333   2.230
 7516SOL     OW23446   0.069   5.950   4.354
 7516SOL    HW123447   7.017   5.982   4.297
 7516SOL    HW223448   0.154   5.956   4.302
 7517SOL     OW23449   6.645   3.413   1.482
 7517SOL    HW123450   6.715   3.479   1.456
 7517SOL    HW223451   6.664   3.326   1.437
 7518SOL     OW23452   3.975   5.941   3.711
 7518SOL    HW123453   3.886   5.925   3.667
 7518SOL    HW223454   3.973   5.905   3.804
 7519SOL     OW23455   0.283   6.777   3.402
 7519SOL    HW123456   0.322   6.760   3.493
 7519SOL    HW223457   0.206   6.716   3.386
 7520SOL     OW23458   3.299   6.953   1.882
 7520SOL    HW123459   3.220   6.991   1.929
 7520SOL    HW223460   3.381   7.004   1.908
 7521SOL     OW23461   4.302   4.486   6.066
 7521SOL    HW123462   4.233   4.436   6.013
 7521SOL    HW223463   4.298   4.458   6.162
 7522SOL     OW23464   2.861   0.689   6.516
 7522SOL    HW123465   2.767   0.661   6.536
 7522SOL    HW223466   2.892   0.642   6.433
 7523SOL     OW23467   5.268   0.397   5.712
 7523SOL    HW123468   5.179   0.354   5.699
 7523SOL    HW223469   5.335   0.354   5.651
 7524SOL     OW23470   0.991   2.576   6.644
 7524SOL    HW123471   1.043   2.491   6.651
 7524SOL    HW223472   1.047   2.647   6.603
 7525SOL     OW23473   2.493   6.601   0.007
 7525SOL    HW123474   2.455   6.612   0.099
 7525SOL    HW223475   2.583   6.646   0.003
 7526SOL     OW23476   3.787   2.991   2.604
 7526SOL    HW123477   3.806   2.956   2.512
 7526SOL    HW223478   3.745   3.082   2.596
 7527SOL     OW23479   4.046   5.967   3.446
 7527SOL    HW123480   4.091   5.880   3.424
 7527SOL    HW223481   4.030   5.972   3.544
 7528SOL     OW23482   3.867   1.998   6.498
 7528SOL    HW123483   3.929   2.064   6.539
 7528SOL    HW223484   3.917   1.914   6.475
 7529SOL     OW23485   5.943   0.842   4.455
 7529SOL    HW123486   5.919   0.862   4.360
 7529SOL    HW223487   6.038   0.814   4.461
 7530SOL     OW23488   6.104   3.877   2.440
 7530SOL    HW123489   6.102   3.917   2.348
 7530SOL    HW223490   6.157   3.792   2.438
 7531SOL     OW23491   4.319   2.112   4.085
 7531SOL    HW123492   4.281   2.137   4.174
 7531SOL    HW223493   4.301   2.186   4.020
 7532SOL     OW23494   5.522   5.534   1.607
 7532SOL    HW123495   5.438   5.528   1.553
 7532SOL    HW223496   5.500   5.544   1.703
 7533SOL     OW23497   2.309   0.546   2.928
 7533SOL    HW123498   2.223   0.539   2.877
 7533SOL    HW223499   2.314   0.635   2.973
 7534SOL     OW23500   3.640   6.614   5.376
 7534SOL    HW123501   3.707   6.541   5.381
 7534SOL    HW223502   3.677   6.690   5.323
 7535SOL     OW23503   2.636   0.858   5.742
 7535SOL    HW123504   2.713   0.910   5.705
 7535SOL    HW223505   2.579   0.824   5.667
 7536SOL     OW23506   5.849   4.901   4.755
 7536SOL    HW123507   5.884   4.979   4.704
 7536SOL    HW223508   5.836   4.823   4.693
 7537SOL     OW23509   2.334   5.610   4.768
 7537SOL    HW123510   2.360   5.595   4.673
 7537SOL    HW223511   2.234   5.620   4.773
 7538SOL     OW23512   3.506   2.826   1.737
 7538SOL    HW123513   3.525   2.914   1.692
 7538SOL    HW223514   3.580   2.762   1.718
 7539SOL     OW23515   2.503   2.537   4.444
 7539SOL    HW123516   2.522   2.440   4.460
 7539SOL    HW223517   2.527   2.561   4.350
 7540SOL     OW23518   2.492   0.724   5.501
 7540SOL    HW123519   2.522   0.791   5.433
 7540SOL    HW223520   2.393   0.721   5.505
 7541SOL     OW23521   6.839   3.476   4.599
 7541SOL    HW123522   6.802   3.447   4.687
 7541SOL    HW223523   6.939   3.472   4.603
 7542SOL     OW23524   0.774   6.160   6.940
 7542SOL    HW123525   0.782   6.130   0.010
 7542SOL    HW223526   0.733   6.087   6.885
 7543SOL     OW23527   3.930   2.223   0.854
 7543SOL    HW123528   3.888   2.177   0.932
 7543SOL    HW223529   4.014   2.269   0.883
 7544SOL     OW23530   0.682   2.377   3.714
 7544SOL    HW123531   0.625   2.438   3.769
 7544SOL    HW223532   0.627   2.337   3.641
 7545SOL     OW23533   5.737   6.451   2.898
 7545SOL    HW123534   5.676   6.476   2.823
 7545SOL    HW223535   5.816   6.512   2.898
 7546SOL     OW23536   4.325   1.457   1.551
 7546SOL    HW123537   4.382   1.476   1.471
 7546SOL    HW223538   4.319   1.539   1.608
 7547SOL     OW23539   4.484   6.647   0.944
 7547SOL    HW123540   4.450   6.730   0.900
 7547SOL    HW223541   4.488   6.573   0.877
 7548SOL     OW23542   3.036   2.087   0.572
 7548SOL    HW123543   2.961   2.091   0.638
 7548SOL    HW223544   3.001   2.112   0.482
 7549SOL     OW23545   5.700   1.740   1.393
 7549SOL    HW123546   5.609   1.711   1.424
 7549SOL    HW223547   5.759   1.756   1.472
 7550SOL     OW23548   2.341   4.539   1.951
 7550SOL    HW123549   2.357   4.449   1.992
 7550SOL    HW223550   2.428   4.578   1.922
 7551SOL     OW23551   4.884   4.348   6.978
 7551SOL    HW123552   4.804   4.408   6.972
 7551SOL    HW223553   4.902   4.327   0.049
 7552SOL     OW23554   2.040   5.652   4.211
 7552SOL    HW123555   2.136   5.627   4.213
 7552SOL    HW223556   1.986   5.573   4.180
 7553SOL     OW23557   4.359   5.001   5.246
 7553SOL    HW123558   4.368   5.096   5.216
 7553SOL    HW223559   4.390   4.993   5.341
 7554SOL     OW23560   4.827   0.412   0.614
 7554SOL    HW123561   4.923   0.391   0.632
 7554SOL    HW223562   4.821   0.500   0.567
 7555SOL     OW23563   1.968   5.055   4.894
 7555SOL    HW123564   1.975   5.105   4.809
 7555SOL    HW223565   2.057   5.018   4.920
 7556SOL     OW23566   0.704   2.518   5.589
 7556SOL    HW123567   0.619   2.571   5.593
 7556SOL    HW223568   0.703   2.449   5.661
 7557SOL     OW23569   5.345   2.845   6.407
 7557SOL    HW123570   5.421   2.896   6.447
 7557SOL    HW223571   5.381   2.762   6.363
 7558SOL     OW23572   2.709   2.387   3.308
 7558SOL    HW123573   2.662   2.346   3.385
 7558SOL    HW223574   2.805   2.359   3.308
 7559SOL     OW23575   6.415   5.859   0.901
 7559SOL    HW123576   6.492   5.833   0.959
 7559SOL    HW223577   6.402   5.958   0.905
 7560SOL     OW23578   5.565   6.334   0.257
 7560SOL    HW123579   5.635   6.401   0.283
 7560SOL    HW223580   5.542   6.346   0.160
 7561SOL     OW23581   0.940   3.131   0.839
 7561SOL    HW123582   0.879   3.076   0.896
 7561SOL    HW223583   1.024   3.151   0.890
 7562SOL     OW23584   5.581   6.400   4.792
 7562SOL    HW123585   5.548   6.445   4.708
 7562SOL    HW223586   5.524   6.321   4.812
 7563SOL     OW23587   2.893   6.496   1.216
 7563SOL    HW123588   2.948   6.491   1.133
 7563SOL    HW223589   2.808   6.445   1.203
 7564SOL     OW23590   4.876   1.576   2.876
 7564SOL    HW123591   4.796   1.572   2.935
 7564SOL    HW223592   4.853   1.542   2.785
 7565SOL     OW23593   5.234   4.796   6.931
 7565SOL    HW123594   5.190   4.749   6.854
 7565SOL    HW223595   5.303   4.860   6.897
 7566SOL     OW23596   0.694   5.243   3.272
 7566SOL    HW123597   0.781   5.205   3.304
 7566SOL    HW223598   0.648   5.176   3.213
 7567SOL     OW23599   2.109   2.717   4.916
 7567SOL    HW123600   2.109   2.736   5.015
 7567SOL    HW223601   2.175   2.776   4.871
 7568SOL     OW23602   5.609   6.399   3.686
 7568SOL    HW123603   5.556   6.438   3.610
 7568SOL    HW223604   5.705   6.394   3.659
 7569SOL     OW23605   3.957   4.592   6.572
 7569SOL    HW123606   3.922   4.629   6.486
 7569SOL    HW223607   4.053   4.567   6.561
 7570SOL     OW23608   5.317   4.814   5.664
 7570SOL    HW123609   5.311   4.780   5.570
 7570SOL    HW223610   5.372   4.898   5.665
 7571SOL     OW23611   5.271   5.048   2.632
 7571SOL    HW123612   5.344   4.981   2.643
 7571SOL    HW223613   5.183   5.001   2.628
 7572SOL     OW23614   5.026   0.514   3.293
 7572SOL    HW123615   5.077   0.548   3.371
 7572SOL    HW223616   5.063   0.425   3.264
 7573SOL     OW23617   5.943   6.280   4.569
 7573SOL    HW123618   6.040   6.274   4.592
 7573SOL    HW223619   5.889   6.235   4.640
 7574SOL     OW23620   6.805   0.872   4.752
 7574SOL    HW123621   6.839   0.831   4.668
 7574SOL    HW223622   6.854   0.833   4.830
 7575SOL     OW23623   4.449   0.253   5.995
 7575SOL    HW123624   4.405   0.169   5.962
 7575SOL    HW223625   4.391   0.331   5.972
 7576SOL     OW23626   6.107   5.676   0.367
 7576SOL    HW123627   6.127   5.602   0.431
 7576SOL    HW223628   6.128   5.764   0.409
 7577SOL     OW23629   6.778   7.008   5.482
 7577SOL    HW123630   6.742   6.931   5.535
 7577SOL    HW223631   6.702   0.037   5.445
 7578SOL     OW23632   2.340   6.088   3.499
 7578SOL    HW123633   2.304   6.146   3.427
 7578SOL    HW223634   2.291   6.106   3.584
 7579SOL     OW23635   4.873   2.052   2.276
 7579SOL    HW123636   4.792   1.995   2.290
 7579SOL    HW223637   4.857   2.116   2.201
 7580SOL     OW23638   1.352   4.299   4.254
 7580SOL    HW123639   1.411   4.278   4.332
 7580SOL    HW223640   1.345   4.399   4.243
 7581SOL     OW23641   5.235   0.779   1.211
 7581SOL    HW123642   5.172   0.856   1.206
 7581SOL    HW223643   5.325   0.807   1.177
 7582SOL     OW23644   2.930   1.059   6.980
 7582SOL    HW123645   2.921   1.026   6.885
 7582SOL    HW223646   2.879   1.144   6.990
 7583SOL     OW23647   6.238   3.289   1.123
 7583SOL    HW123648   6.247   3.336   1.035
 7583SOL    HW223649   6.151   3.239   1.125
 7584SOL     OW23650   2.995   6.797   0.863
 7584SOL    HW123651   2.976   6.834   0.954
 7584SOL    HW223652   3.086   6.826   0.833
 7585SOL     OW23653   1.538   3.250   6.131
 7585SOL    HW123654   1.474   3.323   6.107
 7585SOL    HW223655   1.591   3.224   6.050
 7586SOL     OW23656   3.456   0.782   3.444
 7586SOL    HW123657   3.535   0.757   3.389
 7586SOL    HW223658   3.479   0.777   3.541
 7587SOL     OW23659   3.428   1.427   6.617
 7587SOL    HW123660   3.346   1.397   6.567
 7587SOL    HW223661   3.403   1.497   6.683
 7588SOL     OW23662   1.031   3.438   2.416
 7588SOL    HW123663   0.941   3.394   2.415
 7588SOL    HW223664   1.044   3.488   2.330
 7589SOL     OW23665   6.189   6.761   1.097
 7589SOL    HW123666   6.097   6.732   1.071
 7589SOL    HW223667   6.255   6.693   1.066
 7590SOL     OW23668   2.791   1.841   6.748
 7590SOL    HW123669   2.706   1.893   6.744
 7590SOL    HW223670   2.841   1.853   6.663
 7591SOL     OW23671   6.633   4.768   0.521
 7591SOL    HW123672   6.583   4.749   0.437
 7591SOL    HW223673   6.638   4.867   0.535
 7592SOL     OW23674   6.786   4.445   6.737
 7592SOL    HW123675   6.705   4.403   6.697
 7592SOL    HW223676   6.762   4.534   6.778
 7593SOL     OW23677   4.734   2.537   0.843
 7593SOL    HW123678   4.689   2.540   0.754
 7593SOL    HW223679   4.775   2.447   0.857
 7594SOL     OW23680   0.248   4.597   2.115
 7594SOL    HW123681   0.338   4.620   2.154
 7594SOL    HW223682   0.185   4.573   2.189
 7595SOL     OW23683   6.935   2.374   5.794
 7595SOL    HW123684   6.859   2.322   5.756
 7595SOL    HW223685   6.900   2.456   5.839
 7596SOL     OW23686   4.142   5.548   3.205
 7596SOL    HW123687   4.156   5.616   3.277
 7596SOL    HW223688   4.204   5.566   3.129
 7597SOL     OW23689   2.650   5.682   1.982
 7597SOL    HW123690   2.624   5.593   1.945
 7597SOL    HW223691   2.728   5.672   2.043
 7598SOL     OW23692   0.148   1.279   2.772
 7598SOL    HW123693   0.130   1.183   2.789
 7598SOL    HW223694   0.246   1.298   2.787
 7599SOL     OW23695   5.758   1.835   3.364
 7599SOL    HW123696   5.693   1.759   3.365
 7599SOL    HW223697   5.779   1.861   3.270
 7600SOL     OW23698   1.738   0.872   2.575
 7600SOL    HW123699   1.680   0.870   2.656
 7600SOL    HW223700   1.706   0.804   2.509
 7601SOL     OW23701   2.035   5.768   2.754
 7601SOL    HW123702   2.079   5.702   2.694
 7601SOL    HW223703   1.935   5.760   2.745
 7602SOL     OW23704   1.438   4.550   6.456
 7602SOL    HW123705   1.350   4.529   6.414
 7602SOL    HW223706   1.497   4.470   6.451
 7603SOL     OW23707   1.087   5.568   6.102
 7603SOL    HW123708   1.116   5.522   6.018
 7603SOL    HW223709   1.137   5.529   6.180
 7604SOL     OW23710   2.284   4.201   4.264
 7604SOL    HW123711   2.356   4.227   4.328
 7604SOL    HW223712   2.263   4.278   4.204
 7605SOL     OW23713   0.845   6.387   0.486
 7605SOL    HW123714   0.877   6.422   0.574
 7605SOL    HW223715   0.904   6.422   0.412
 7606SOL     OW23716   7.007   2.890   3.768
 7606SOL    HW123717   6.916   2.853   3.788
 7606SOL    HW223718   0.037   2.822   3.718
 7607SOL     OW23719   4.775   6.209   0.464
 7607SOL    HW123720   4.844   6.149   0.424
 7607SOL    HW223721   4.752   6.176   0.556
 7608SOL     OW23722   3.202   4.072   2.462
 7608SOL    HW123723   3.142   4.151   2.458
 7608SOL    HW223724   3.180   4.009   2.387
 7609SOL     OW23725   0.068   4.170   3.631
 7609SOL    HW123726   0.078   4.221   3.717
 7609SOL    HW223727   0.158   4.162   3.588
 7610SOL     OW23728   6.414   6.818   6.849
 7610SOL    HW123729   6.370   6.732   6.874
 7610SOL    HW223730   6.349   6.893   6.857
 7611SOL     OW23731   0.797   2.126   0.015
 7611SOL    HW123732   0.800   2.096   6.944
 7611SOL    HW223733   0.786   2.046   0.075
 7612SOL     OW23734   5.162   2.584   4.884
 7612SOL    HW123735   5.065   2.582   4.905
 7612SOL    HW223736   5.202   2.671   4.916
 7613SOL     OW23737   5.843   2.798   1.521
 7613SOL    HW123738   5.746   2.797   1.543
 7613SOL    HW223739   5.859   2.747   1.437
 7614SOL     OW23740   5.117   3.107   1.706
 7614SOL    HW123741   5.054   3.090   1.630
 7614SOL    HW223742   5.111   3.031   1.771
 7615SOL     OW23743   4.508   3.816   6.311
 7615SOL    HW123744   4.521   3.902   6.360
 7615SOL    HW223745   4.527   3.740   6.372
 7616SOL     OW23746   6.957   4.655   4.361
 7616SOL    HW123747   6.914   4.744   4.378
 7616SOL    HW223748   0.024   4.653   4.403
 7617SOL     OW23749   3.257   5.661   2.851
 7617SOL    HW123750   3.220   5.571   2.871
 7617SOL    HW223751   3.198   5.732   2.891
 7618SOL     OW23752   0.617   2.239   6.753
 7618SOL    HW123753   0.586   2.146   6.732
 7618SOL    HW223754   0.717   2.242   6.750
 7619SOL     OW23755   5.612   3.249   5.505
 7619SOL    HW123756   5.568   3.329   5.465
 7619SOL    HW223757   5.650   3.192   5.433
 7620SOL     OW23758   3.697   5.195   0.001
 7620SOL    HW123759   3.652   5.274   6.983
 7620SOL    HW223760   3.689   5.116   6.965
 7621SOL     OW23761   0.282   1.817   0.668
 7621SOL    HW123762   0.340   1.737   0.680
 7621SOL    HW223763   0.264   1.860   0.756
 7622SOL     OW23764   5.081   5.401   1.651
 7622SOL    HW123765   5.167   5.436   1.614
 7622SOL    HW223766   5.056   5.316   1.603
 7623SOL     OW23767   4.566   4.699   6.770
 7623SOL    HW123768   4.631   4.665   6.703
 7623SOL    HW223769   4.528   4.786   6.739
 7624SOL     OW23770   0.014   2.476   4.731
 7624SOL    HW123771   6.972   2.547   4.706
 7624SOL    HW223772   6.990   2.401   4.777
 7625SOL     OW23773   4.682   0.630   1.621
 7625SOL    HW123774   4.690   0.533   1.598
 7625SOL    HW223775   4.615   0.673   1.560
 7626SOL     OW23776   6.779   6.492   4.409
 7626SOL    HW123777   6.783   6.410   4.467
 7626SOL    HW223778   6.822   6.473   4.321
 7627SOL     OW23779   4.995   2.928   6.788
 7627SOL    HW123780   4.919   2.919   6.723
 7627SOL    HW223781   5.082   2.911   6.741
 7628SOL     OW23782   3.638   0.755   1.964
 7628SOL    HW123783   3.700   0.690   1.919
 7628SOL    HW223784   3.570   0.787   1.898
 7629SOL     OW23785   6.678   0.026   2.828
 7629SOL    HW123786   6.737   0.027   2.908
 7629SOL    HW223787   6.640   6.959   2.815
 7630SOL     OW23788   5.888   6.554   1.718
 7630SOL    HW123789   5.965   6.590   1.770
 7630SOL    HW223790   5.881   6.603   1.631
 7631SOL     OW23791   0.744   1.103   5.318
 7631SOL    HW123792   0.758   1.012   5.280
 7631SOL    HW223793   0.646   1.120   5.329
 7632SOL     OW23794   3.568   2.416   1.605
 7632SOL    HW123795   3.468   2.409   1.599
 7632SOL    HW223796   3.598   2.382   1.694
 7633SOL     OW23797   4.117   2.446   0.440
 7633SOL    HW123798   4.044   2.497   0.485
 7633SOL    HW223799   4.089   2.421   0.348
 7634SOL     OW23800   0.746   1.870   2.747
 7634SOL    HW123801   0.689   1.936   2.796
 7634SOL    HW223802   0.695   1.786   2.732
 7635SOL     OW23803   2.724   6.297   5.273
 7635SOL    HW123804   2.764   6.346   5.196
 7635SOL    HW223805   2.748   6.200   5.266
 7636SOL     OW23806   1.712   2.232   3.474
 7636SOL    HW123807   1.696   2.256   3.378
 7636SOL    HW223808   1.630   2.191   3.512
 7637SOL     OW23809   2.715   6.378   2.821
 7637SOL    HW123810   2.694   6.466   2.777
 7637SOL    HW223811   2.750   6.395   2.913
 7638SOL     OW23812   3.698   5.869   1.713
 7638SOL    HW123813   3.734   5.952   1.669
 7638SOL    HW223814   3.688   5.884   1.811
 7639SOL     OW23815   1.565   2.095   0.683
 7639SOL    HW123816   1.588   2.064   0.591
 7639SOL    HW223817   1.649   2.120   0.732
 7640SOL     OW23818   3.111   1.880   0.254
 7640SOL    HW123819   3.088   1.791   0.293
 7640SOL    HW223820   3.034   1.942   0.262
 7641SOL     OW23821   0.861   4.584   1.601
 7641SOL    HW123822   0.867   4.666   1.658
 7641SOL    HW223823   0.773   4.539   1.617
 7642SOL     OW23824   2.492   1.780   2.450
 7642SOL    HW123825   2.426   1.762   2.378
 7642SOL    HW223826   2.584   1.784   2.412
 7643SOL     OW23827   5.086   2.824   4.166
 7643SOL    HW123828   5.097   2.733   4.127
 7643SOL    HW223829   5.154   2.886   4.128
 7644SOL     OW23830   5.736   2.528   2.079
 7644SOL    HW123831   5.816   2.480   2.114
 7644SOL    HW223832   5.762   2.619   2.046
 7645SOL     OW23833   4.480   4.057   5.348
 7645SOL    HW123834   4.402   4.112   5.318
 7645SOL    HW223835   4.447   3.969   5.382
 7646SOL     OW23836   2.280   2.333   2.197
 7646SOL    HW123837   2.216   2.263   2.167
 7646SOL    HW223838   2.290   2.329   2.297
 7647SOL     OW23839   7.017   3.528   2.478
 7647SOL    HW123840   0.051   3.502   2.401
 7647SOL    HW223841   0.050   3.551   2.557
 7648SOL     OW23842   3.438   1.286   3.380
 7648SOL    HW123843   3.439   1.201   3.327
 7648SOL    HW223844   3.515   1.344   3.352
 7649SOL     OW23845   0.998   1.382   2.978
 7649SOL    HW123846   0.991   1.282   2.970
 7649SOL    HW223847   1.062   1.416   2.910
 7650SOL     OW23848   5.097   2.590   1.335
 7650SOL    HW123849   5.027   2.521   1.353
 7650SOL    HW223850   5.177   2.545   1.294
 7651SOL     OW23851   2.523   6.865   5.447
 7651SOL    HW123852   2.429   6.835   5.430
 7651SOL    HW223853   2.535   6.883   5.545
 7652SOL     OW23854   6.713   3.860   4.105
 7652SOL    HW123855   6.756   3.947   4.126
 7652SOL    HW223856   6.680   3.818   4.189
 7653SOL     OW23857   2.889   1.415   0.597
 7653SOL    HW123858   2.849   1.462   0.676
 7653SOL    HW223859   2.853   1.454   0.513
 7654SOL     OW23860   5.398   3.490   4.170
 7654SOL    HW123861   5.323   3.468   4.233
 7654SOL    HW223862   5.362   3.497   4.077
 7655SOL     OW23863   3.369   0.212   3.325
 7655SOL    HW123864   3.271   0.230   3.333
 7655SOL    HW223865   3.383   0.126   3.276
 7656SOL     OW23866   1.866   5.037   6.241
 7656SOL    HW123867   1.822   5.082   6.163
 7656SOL    HW223868   1.948   5.088   6.266
 7657SOL     OW23869   2.931   2.258   3.259
 7657SOL    HW123870   2.966   2.223   3.346
 7657SOL    HW223871   3.007   2.280   3.198
 7658SOL     OW23872   3.823   6.689   5.763
 7658SOL    HW123873   3.769   6.755   5.712
 7658SOL    HW223874   3.800   6.596   5.733
 7659SOL     OW23875   5.586   5.613   6.549
 7659SOL    HW123876   5.526   5.672   6.495
 7659SOL    HW223877   5.680   5.649   6.546
 7660SOL     OW23878   0.406   6.705   3.916
 7660SOL    HW123879   0.332   6.691   3.851
 7660SOL    HW223880   0.390   6.789   3.968
 7661SOL     OW23881   5.529   2.683   4.725
 7661SOL    HW123882   5.467   2.605   4.714
 7661SOL    HW223883   5.585   2.693   4.642
 7662SOL     OW23884   0.510   2.284   2.457
 7662SOL    HW123885   0.511   2.225   2.376
 7662SOL    HW223886   0.440   2.354   2.446
 7663SOL     OW23887   0.231   6.634   6.188
 7663SOL    HW123888   0.182   6.674   6.111
 7663SOL    HW223889   0.165   6.608   6.259
 7664SOL     OW23890   3.719   0.559   2.184
 7664SOL    HW123891   3.737   0.608   2.269
 7664SOL    HW223892   3.681   0.622   2.116
 7665SOL     OW23893   4.633   6.919   4.919
 7665SOL    HW123894   4.628   6.990   4.849
 7665SOL    HW223895   4.716   6.864   4.906
 7666SOL     OW23896   1.117   6.650   1.571
 7666SOL    HW123897   1.073   6.720   1.515
 7666SOL    HW223898   1.209   6.679   1.596
 7667SOL     OW23899   4.451   6.053   2.185
 7667SOL    HW123900   4.487   6.131   2.133
 7667SOL    HW223901   4.354   6.040   2.162
 7668SOL     OW23902   3.249   4.221   1.243
 7668SOL    HW123903   3.318   4.151   1.230
 7668SOL    HW223904   3.198   4.203   1.328
 7669SOL     OW23905   5.682   1.615   6.174
 7669SOL    HW123906   5.737   1.689   6.214
 7669SOL    HW223907   5.730   1.575   6.097
 7670SOL     OW23908   0.849   4.637   6.402
 7670SOL    HW123909   0.878   4.567   6.337
 7670SOL    HW223910   0.803   4.711   6.353
 7671SOL     OW23911   4.876   0.712   4.589
 7671SOL    HW123912   4.947   0.735   4.656
 7671SOL    HW223913   4.918   0.660   4.514
 7672SOL     OW23914   6.116   6.566   3.446
 7672SOL    HW123915   6.035   6.536   3.395
 7672SOL    HW223916   6.092   6.578   3.543
 7673SOL     OW23917   1.927   5.063   6.901
 7673SOL    HW123918   1.890   5.120   6.974
 7673SOL    HW223919   1.975   4.984   6.940
 7674SOL     OW23920   6.229   2.235   3.620
 7674SOL    HW123921   6.281   2.306   3.573
 7674SOL    HW223922   6.145   2.215   3.569
 7675SOL     OW23923   5.091   6.927   2.433
 7675SOL    HW123924   5.148   6.979   2.497
 7675SOL    HW223925   5.011   6.981   2.408
 7676SOL     OW23926   1.688   1.932   0.406
 7676SOL    HW123927   1.756   1.968   0.469
 7676SOL    HW223928   1.633   1.862   0.452
 7677SOL     OW23929   0.233   4.074   2.311
 7677SOL    HW123930   0.185   3.987   2.322
 7677SOL    HW223931   0.176   4.148   2.347
 7678SOL     OW23932   2.337   1.754   5.134
 7678SOL    HW123933   2.412   1.721   5.076
 7678SOL    HW223934   2.369   1.759   5.229
 7679SOL     OW23935   2.213   6.220   5.959
 7679SOL    HW123936   2.258   6.203   6.047
 7679SOL    HW223937   2.253   6.162   5.889
 7680SOL     OW23938   1.637   1.815   0.161
 7680SOL    HW123939   1.551   1.799   0.210
 7680SOL    HW223940   1.698   1.869   0.218
 7681SOL     OW23941   2.723   6.765   0.031
 7681SOL    HW123942   2.780   6.695   7.013
 7681SOL    HW223943   2.774   6.808   0.106
 7682SOL     OW23944   3.390   0.655   1.715
 7682SOL    HW123945   3.372   0.574   1.660
 7682SOL    HW223946   3.421   0.729   1.655
 7683SOL     OW23947   6.731   2.103   3.762
 7683SOL    HW123948   6.725   2.032   3.692
 7683SOL    HW223949   6.820   2.149   3.754
 7684SOL     OW23950   4.051   2.059   1.315
 7684SOL    HW123951   4.033   1.961   1.319
 7684SOL    HW223952   4.126   2.077   1.252
 7685SOL     OW23953   3.132   3.540   6.825
 7685SOL    HW123954   3.222   3.565   6.860
 7685SOL    HW223955   3.139   3.456   6.772
 7686SOL     OW23956   5.466   0.032   2.829
 7686SOL    HW123957   5.532   0.059   2.899
 7686SOL    HW223958   5.436   0.113   2.779
 7687SOL     OW23959   6.067   4.983   5.241
 7687SOL    HW123960   6.076   4.902   5.299
 7687SOL    HW223961   5.973   5.017   5.246
 7688SOL     OW23962   0.402   6.808   5.597
 7688SOL    HW123963   0.487   6.838   5.553
 7688SOL    HW223964   0.357   6.886   5.641
 7689SOL     OW23965   5.142   6.126   2.941
 7689SOL    HW123966   5.199   6.198   2.981
 7689SOL    HW223967   5.194   6.075   2.873
 7690SOL     OW23968   6.330   5.061   0.695
 7690SOL    HW123969   6.372   4.970   0.693
 7690SOL    HW223970   6.237   5.054   0.732
 7691SOL     OW23971   5.383   3.204   4.136
 7691SOL    HW123972   5.448   3.280   4.145
 7691SOL    HW223973   5.388   3.146   4.217
 7692SOL     OW23974   1.103   6.663   1.922
 7692SOL    HW123975   1.191   6.639   1.882
 7692SOL    HW223976   1.116   6.687   2.019
 7693SOL     OW23977   3.510   0.306   1.394
 7693SOL    HW123978   3.446   0.250   1.446
 7693SOL    HW223979   3.592   0.324   1.449
 7694SOL     OW23980   0.078   4.323   3.908
 7694SOL    HW123981   0.110   4.301   4.000
 7694SOL    HW223982   0.035   4.414   3.909
 7695SOL     OW23983   4.002   6.437   0.228
 7695SOL    HW123984   3.925   6.403   0.282
 7695SOL    HW223985   3.988   6.533   0.204
 7696SOL     OW23986   6.858   1.500   4.266
 7696SOL    HW123987   6.854   1.524   4.169
 7696SOL    HW223988   6.948   1.461   4.287
 7697SOL     OW23989   2.830   0.321   1.718
 7697SOL    HW123990   2.782   0.239   1.748
 7697SOL    HW223991   2.867   0.306   1.626
 7698SOL     OW23992   6.934   1.908   4.108
 7698SOL    HW123993   6.881   1.993   4.101
 7698SOL    HW223994   6.936   1.878   4.204
 7699SOL     OW23995   3.688   5.714   0.264
 7699SOL    HW123996   3.749   5.677   0.194
 7699SOL    HW223997   3.688   5.655   0.345
 7700SOL     OW23998   4.902   6.432   4.754
 7700SOL    HW123999   4.923   6.477   4.667
 7700SOL    HW224000   4.979   6.373   4.780
 7701SOL     OW24001   6.881   1.510   6.711
 7701SOL    HW124002   6.791   1.496   6.752
 7701SOL    HW224003   6.943   1.548   6.779
 7702SOL     OW24004   2.776   6.605   6.091
 7702SOL    HW124005   2.755   6.513   6.122
 7702SOL    HW224006   2.741   6.618   5.998
 7703SOL     OW24007   6.482   0.612   5.116
 7703SOL    HW124008   6.455   0.517   5.100
 7703SOL    HW224009   6.456   0.638   5.209
 7704SOL     OW24010   5.381   4.836   5.406
 7704SOL    HW124011   5.372   4.777   5.326
 7704SOL    HW224012   5.477   4.843   5.432
 7705SOL     OW24013   3.902   4.930   6.196
 7705SOL    HW124014   3.845   4.958   6.272
 7705SOL    HW224015   3.882   4.986   6.116
 7706SOL     OW24016   4.674   2.263   4.897
 7706SOL    HW124017   4.664   2.220   4.987
 7706SOL    HW224018   4.597   2.323   4.880
 7707SOL     OW24019   1.165   5.764   6.718
 7707SOL    HW124020   1.151   5.859   6.743
 7707SOL    HW224021   1.172   5.708   6.800
 7708SOL     OW24022   5.899   6.965   5.307
 7708SOL    HW124023   5.866   0.027   5.345
 7708SOL    HW224024   5.946   6.983   5.221
 7709SOL     OW24025   5.799   4.373   1.526
 7709SOL    HW124026   5.825   4.286   1.567
 7709SOL    HW224027   5.817   4.371   1.428
 7710SOL     OW24028   4.162   0.741   0.826
 7710SOL    HW124029   4.243   0.793   0.851
 7710SOL    HW224030   4.110   0.716   0.908
 7711SOL     OW24031   6.125   5.909   5.213
 7711SOL    HW124032   6.162   5.998   5.242
 7711SOL    HW224033   6.160   5.887   5.122
 7712SOL     OW24034   5.548   5.043   1.940
 7712SOL    HW124035   5.472   5.108   1.946
 7712SOL    HW224036   5.635   5.091   1.950
 7713SOL     OW24037   1.481   4.732   0.379
 7713SOL    HW124038   1.505   4.690   0.292
 7713SOL    HW224039   1.399   4.788   0.368
 7714SOL     OW24040   6.551   4.902   5.373
 7714SOL    HW124041   6.636   4.851   5.387
 7714SOL    HW224042   6.517   4.935   5.461
 7715SOL     OW24043   4.850   1.983   0.105
 7715SOL    HW124044   4.863   2.065   0.161
 7715SOL    HW224045   4.930   1.923   0.114
 7716SOL     OW24046   6.164   4.452   3.849
 7716SOL    HW124047   6.258   4.475   3.876
 7716SOL    HW224048   6.152   4.469   3.751
 7717SOL     OW24049   1.511   1.045   4.854
 7717SOL    HW124050   1.604   1.067   4.884
 7717SOL    HW224051   1.493   0.948   4.871
 7718SOL     OW24052   1.887   1.882   3.351
 7718SOL    HW124053   1.799   1.923   3.327
 7718SOL    HW224054   1.925   1.835   3.271
 7719SOL     OW24055   0.055   3.385   4.332
 7719SOL    HW124056   0.118   3.311   4.307
 7719SOL    HW224057   6.994   3.346   4.364
 7720SOL     OW24058   0.381   6.955   0.527
 7720SOL    HW124059   0.312   7.015   0.485
 7720SOL    HW224060   0.440   6.917   0.456
 7721SOL     OW24061   1.036   5.101   2.478
 7721SOL    HW124062   1.135   5.096   2.462
 7721SOL    HW224063   1.019   5.116   2.576
 7722SOL     OW24064   0.415   5.774   3.202
 7722SOL    HW124065   0.442   5.758   3.108
 7722SOL    HW224066   0.376   5.866   3.210
 7723SOL     OW24067   6.395   3.859   0.049
 7723SOL    HW124068   6.449   3.900   7.000
 7723SOL    HW224069   6.387   3.761   0.034
 7724SOL     OW24070   2.494   4.312   1.715
 7724SOL    HW124071   2.429   4.358   1.655
 7724SOL    HW224072   2.586   4.350   1.700
 7725SOL     OW24073   5.059   3.367   3.828
 7725SOL    HW124074   5.011   3.345   3.913
 7725SOL    HW224075   5.134   3.302   3.815
 7726SOL     OW24076   1.185   6.490   4.960
 7726SOL    HW124077   1.181   6.431   4.879
 7726SOL    HW224078   1.094   6.494   5.003
 7727SOL     OW24079   6.928   0.728   2.831
 7727SOL    HW124080   6.975   0.803   2.785
 7727SOL    HW224081   6.992   0.682   2.893
 7728SOL     OW24082   1.076   5.375   3.445
 7728SOL    HW124083   1.153   5.391   3.506
 7728SOL    HW224084   1.078   5.441   3.369
 7729SOL     OW24085   5.953   3.116   0.353
 7729SOL    HW124086   5.927   3.047   0.286
 7729SOL    HW224087   5.872   3.166   0.383
 7730SOL     OW24088   5.769   5.886   1.877
 7730SOL    HW124089   5.675   5.918   1.885
 7730SOL    HW224090   5.828   5.941   1.937
 7731SOL     OW24091   6.708   0.936   0.896
 7731SOL    HW124092   6.760   0.949   0.980
 7731SOL    HW224093   6.713   1.018   0.840
 7732SOL     OW24094   4.722   6.041   0.669
 7732SOL    HW124095   4.687   6.102   0.741
 7732SOL    HW224096   4.766   5.962   0.710
 7733SOL     OW24097   3.857   0.122   2.463
 7733SOL    HW124098   3.793   0.055   2.501
 7733SOL    HW224099   3.877   0.191   2.532
 7734SOL     OW24100   2.581   4.983   3.590
 7734SOL    HW124101   2.590   5.073   3.633
 7734SOL    HW224102   2.669   4.935   3.596
 7735SOL     OW24103   4.729   6.171   6.367
 7735SOL    HW124104   4.683   6.217   6.443
 7735SOL    HW224105   4.705   6.074   6.368
 7736SOL     OW24106   4.315   3.841   6.934
 7736SOL    HW124107   4.294   3.834   0.007
 7736SOL    HW224108   4.262   3.915   6.893
 7737SOL     OW24109   4.181   0.891   2.058
 7737SOL    HW124110   4.110   0.924   2.120
 7737SOL    HW224111   4.141   0.830   1.990
 7738SOL     OW24112   1.846   5.669   6.583
 7738SOL    HW124113   1.801   5.667   6.673
 7738SOL    HW224114   1.777   5.686   6.512
 7739SOL     OW24115   0.702   1.808   2.376
 7739SOL    HW124116   0.759   1.727   2.361
 7739SOL    HW224117   0.761   1.889   2.387
 7740SOL     OW24118   1.799   0.701   3.236
 7740SOL    HW124119   1.756   0.612   3.250
 7740SOL    HW224120   1.736   0.774   3.264
 7741SOL     OW24121   1.033   5.753   4.800
 7741SOL    HW124122   1.034   5.746   4.700
 7741SOL    HW224123   0.954   5.807   4.829
 7742SOL     OW24124   5.928   2.092   3.212
 7742SOL    HW124125   6.009   2.125   3.164
 7742SOL    HW224126   5.906   1.999   3.182
 7743SOL     OW24127   4.933   1.654   6.376
 7743SOL    HW124128   4.926   1.605   6.463
 7743SOL    HW224129   4.846   1.649   6.327
 7744SOL     OW24130   1.095   6.115   3.462
 7744SOL    HW124131   1.013   6.135   3.409
 7744SOL    HW224132   1.119   6.018   3.452
 7745SOL     OW24133   2.664   1.002   5.448
 7745SOL    HW124134   2.749   0.957   5.422
 7745SOL    HW224135   2.684   1.098   5.472
 7746SOL     OW24136   1.908   6.411   0.252
 7746SOL    HW124137   1.972   6.411   0.328
 7746SOL    HW224138   1.870   6.503   0.240
 7747SOL     OW24139   4.284   5.653   1.695
 7747SOL    HW124140   4.341   5.636   1.614
 7747SOL    HW224141   4.336   5.633   1.778
 7748SOL     OW24142   3.602   3.530   5.510
 7748SOL    HW124143   3.626   3.433   5.511
 7748SOL    HW224144   3.503   3.540   5.526
 7749SOL     OW24145   2.741   2.773   5.546
 7749SOL    HW124146   2.751   2.687   5.495
 7749SOL    HW224147   2.710   2.845   5.483
 7750SOL     OW24148   6.767   6.551   1.686
 7750SOL    HW124149   6.696   6.518   1.623
 7750SOL    HW224150   6.731   6.553   1.779
 7751SOL     OW24151   1.690   1.761   2.266
 7751SOL    HW124152   1.788   1.778   2.275
 7751SOL    HW224153   1.675   1.676   2.217
 7752SOL     OW24154   4.920   6.770   5.557
 7752SOL    HW124155   5.020   6.774   5.546
 7752SOL    HW224156   4.889   6.676   5.545
 7753SOL     OW24157   2.362   1.405   4.674
 7753SOL    HW124158   2.278   1.354   4.655
 7753SOL    HW224159   2.418   1.354   4.739
 7754SOL     OW24160   3.727   6.446   1.219
 7754SOL    HW124161   3.760   6.355   1.245
 7754SOL    HW224162   3.701   6.446   1.122
 7755SOL     OW24163   1.343   2.294   5.846
 7755SOL    HW124164   1.302   2.282   5.936
 7755SOL    HW224165   1.442   2.304   5.856
 7756SOL     OW24166   3.100   6.658   1.664
 7756SOL    HW124167   3.012   6.657   1.617
 7756SOL    HW224168   3.172   6.682   1.599
 7757SOL     OW24169   6.562   5.015   1.449
 7757SOL    HW124170   6.514   4.928   1.434
 7757SOL    HW224171   6.495   5.088   1.460
 7758SOL     OW24172   1.405   6.595   5.854
 7758SOL    HW124173   1.453   6.656   5.791
 7758SOL    HW224174   1.415   6.629   5.948
 7759SOL     OW24175   2.432   1.173   5.571
 7759SOL    HW124176   2.452   1.225   5.654
 7759SOL    HW224177   2.478   1.085   5.574
 7760SOL     OW24178   5.285   2.206   2.327
 7760SOL    HW124179   5.297   2.282   2.390
 7760SOL    HW224180   5.259   2.240   2.237
 7761SOL     OW24181   6.821   5.991   4.760
 7761SOL    HW124182   6.764   5.944   4.693
 7761SOL    HW224183   6.917   5.970   4.743
 7762SOL     OW24184   2.016   0.184   3.895
 7762SOL    HW124185   2.046   0.259   3.836
 7762SOL    HW224186   1.920   0.164   3.878
 7763SOL     OW24187   2.362   6.929   6.513
 7763SOL    HW124188   2.339   7.019   6.551
 7763SOL    HW224189   2.394   6.940   6.419
 7764SOL     OW24190   3.163   4.007   5.868
 7764SOL    HW124191   3.155   4.016   5.967
 7764SOL    HW224192   3.251   4.045   5.838
 7765SOL     OW24193   6.284   3.079   5.181
 7765SOL    HW124194   6.333   3.055   5.097
 7765SOL    HW224195   6.326   3.032   5.259
 7766SOL     OW24196   6.887   3.944   0.698
 7766SOL    HW124197   6.842   3.974   0.781
 7766SOL    HW224198   6.866   3.847   0.683
 7767SOL     OW24199   4.726   6.594   2.239
 7767SOL    HW124200   4.733   6.602   2.140
 7767SOL    HW224201   4.736   6.498   2.266
 7768SOL     OW24202   4.906   4.507   3.939
 7768SOL    HW124203   4.819   4.488   3.984
 7768SOL    HW224204   4.893   4.506   3.840
 7769SOL     OW24205   4.078   1.453   4.648
 7769SOL    HW124206   4.027   1.490   4.725
 7769SOL    HW224207   4.174   1.479   4.655
 7770SOL     OW24208   0.090   3.486   4.604
 7770SOL    HW124209   0.188   3.504   4.612
 7770SOL    HW224210   0.062   3.495   4.508
 7771SOL     OW24211   2.597   1.297   6.057
 7771SOL    HW124212   2.648   1.220   6.018
 7771SOL    HW224213   2.522   1.262   6.113
 7772SOL     OW24214   5.339   0.122   0.940
 7772SOL    HW124215   5.385   0.056   0.880
 7772SOL    HW224216   5.396   0.203   0.951
 7773SOL     OW24217   2.341   5.706   5.615
 7773SOL    HW124218   2.437   5.731   5.604
 7773SOL    HW224219   2.329   5.656   5.701
 7774SOL     OW24220   4.715   2.765   4.345
 7774SOL    HW124221   4.644   2.735   4.282
 7774SOL    HW224222   4.761   2.845   4.307
 7775SOL     OW24223   3.997   6.708   0.099
 7775SOL    HW124224   4.082   6.707   0.152
 7775SOL    HW224225   4.014   6.749   0.009
 7776SOL     OW24226   0.898   6.516   6.772
 7776SOL    HW124227   0.943   6.427   6.761
 7776SOL    HW224228   0.967   6.586   6.792
 7777SOL     OW24229   6.615   5.512   5.092
 7777SOL    HW124230   6.625   5.506   5.191
 7777SOL    HW224231   6.522   5.487   5.066
 7778SOL     OW24232   5.759   4.147   2.182
 7778SOL    HW124233   5.730   4.135   2.087
 7778SOL    HW224234   5.810   4.233   2.190
 7779SOL     OW24235   2.524   0.884   2.475
 7779SOL    HW124236   2.538   0.804   2.534
 7779SOL    HW224237   2.456   0.944   2.516
 7780SOL     OW24238   0.870   5.558   5.797
 7780SOL    HW124239   0.817   5.485   5.841
 7780SOL    HW224240   0.964   5.556   5.831
 7781SOL     OW24241   0.751   3.556   0.591
 7781SOL    HW124242   0.764   3.478   0.651
 7781SOL    HW224243   0.815   3.629   0.617
 7782SOL     OW24244   5.462   5.388   4.013
 7782SOL    HW124245   5.388   5.378   3.946
 7782SOL    HW224246   5.543   5.426   3.967
 7783SOL     OW24247   0.646   0.087   6.118
 7783SOL    HW124248   0.670   0.169   6.170
 7783SOL    HW224249   0.716   0.070   6.048
 7784SOL     OW24250   2.982   2.524   1.661
 7784SOL    HW124251   2.988   2.508   1.759
 7784SOL    HW224252   3.074   2.539   1.624
 7785SOL     OW24253   1.744   6.564   4.186
 7785SOL    HW124254   1.704   6.535   4.273
 7785SOL    HW224255   1.782   6.484   4.139
 7786SOL     OW24256   4.287   0.696   6.573
 7786SOL    HW124257   4.262   0.741   6.659
 7786SOL    HW224258   4.206   0.686   6.516
 7787SOL     OW24259   1.676   3.271   0.224
 7787SOL    HW124260   1.727   3.331   0.286
 7787SOL    HW224261   1.591   3.243   0.268
 7788SOL     OW24262   1.062   5.887   2.047
 7788SOL    HW124263   1.016   5.835   1.975
 7788SOL    HW224264   1.063   5.984   2.023
 7789SOL     OW24265   3.091   6.758   6.737
 7789SOL    HW124266   3.109   6.661   6.719
 7789SOL    HW224267   3.106   6.777   6.834
 7790SOL     OW24268   6.036   4.920   2.635
 7790SOL    HW124269   6.092   4.891   2.556
 7790SOL    HW224270   6.040   4.849   2.705
 7791SOL     OW24271   2.511   5.807   2.402
 7791SOL    HW124272   2.505   5.707   2.393
 7791SOL    HW224273   2.593   5.839   2.355
 7792SOL     OW24274   1.062   0.063   3.083
 7792SOL    HW124275   1.125   0.138   3.103
 7792SOL    HW224276   1.036   0.017   3.168
 7793SOL     OW24277   4.779   0.880   0.349
 7793SOL    HW124278   4.865   0.879   0.297
 7793SOL    HW224279   4.703   0.854   0.289
 7794SOL     OW24280   0.594   5.199   1.999
 7794SOL    HW124281   0.561   5.147   2.077
 7794SOL    HW224282   0.516   5.224   1.941
 7795SOL     OW24283   3.380   5.608   5.649
 7795SOL    HW124284   3.425   5.519   5.657
 7795SOL    HW224285   3.298   5.599   5.593
 7796SOL     OW24286   2.917   2.554   5.553
 7796SOL    HW124287   2.985   2.549   5.480
 7796SOL    HW224288   2.864   2.470   5.556
 7797SOL     OW24289   0.846   5.697   1.536
 7797SOL    HW124290   0.858   5.784   1.489
 7797SOL    HW224291   0.809   5.630   1.472
 7798SOL     OW24292   1.671   1.147   2.584
 7798SOL    HW124293   1.741   1.079   2.561
 7798SOL    HW224294   1.663   1.153   2.684
 7799SOL     OW24295   2.174   5.468   3.346
 7799SOL    HW124296   2.255   5.448   3.291
 7799SOL    HW224297   2.154   5.389   3.404
 7800SOL     OW24298   0.300   6.030   3.168
 7800SOL    HW124299   0.280   6.053   3.263
 7800SOL    HW224300   0.335   6.110   3.120
 7801SOL     OW24301   1.674   1.113   3.439
 7801SOL    HW124302   1.647   1.204   3.471
 7801SOL    HW224303   1.689   1.115   3.340
 7802SOL     OW24304   6.914   3.455   6.982
 7802SOL    HW124305   6.822   3.494   6.980
 7802SOL    HW224306   6.938   3.424   6.890
 7803SOL     OW24307   4.749   1.654   6.766
 7803SOL    HW124308   4.664   1.657   6.818
 7803SOL    HW224309   4.799   1.740   6.777
 7804SOL     OW24310   3.882   2.131   4.841
 7804SOL    HW124311   3.855   2.164   4.932
 7804SOL    HW224312   3.961   2.183   4.808
 7805SOL     OW24313   4.850   3.667   2.732
 7805SOL    HW124314   4.878   3.749   2.681
 7805SOL    HW224315   4.837   3.591   2.668
 7806SOL     OW24316   6.604   1.441   6.511
 7806SOL    HW124317   6.623   1.528   6.466
 7806SOL    HW224318   6.618   1.451   6.610
 7807SOL     OW24319   0.933   4.046   5.312
 7807SOL    HW124320   0.906   3.989   5.390
 7807SOL    HW224321   0.851   4.078   5.265
 7808SOL     OW24322   5.301   3.546   3.278
 7808SOL    HW124323   5.289   3.493   3.194
 7808SOL    HW224324   5.376   3.508   3.332
 7809SOL     OW24325   5.466   5.006   4.577
 7809SOL    HW124326   5.421   5.043   4.658
 7809SOL    HW224327   5.447   4.908   4.571
 7810SOL     OW24328   3.416   6.743   4.924
 7810SOL    HW124329   3.345   6.791   4.974
 7810SOL    HW224330   3.442   6.660   4.974
 7811SOL     OW24331   1.724   5.488   2.677
 7811SOL    HW124332   1.785   5.527   2.746
 7811SOL    HW224333   1.651   5.436   2.722
 7812SOL     OW24334   2.335   3.106   5.355
 7812SOL    HW124335   2.291   3.169   5.292
 7812SOL    HW224336   2.394   3.043   5.304
 7813SOL     OW24337   4.419   2.702   1.224
 7813SOL    HW124338   4.506   2.750   1.217
 7813SOL    HW224339   4.383   2.683   1.133
 7814SOL     OW24340   6.876   3.520   2.840
 7814SOL    HW124341   6.892   3.607   2.793
 7814SOL    HW224342   6.917   3.523   2.931
 7815SOL     OW24343   5.469   2.260   5.254
 7815SOL    HW124344   5.477   2.231   5.159
 7815SOL    HW224345   5.418   2.190   5.306
 7816SOL     OW24346   0.431   2.740   5.913
 7816SOL    HW124347   0.530   2.725   5.915
 7816SOL    HW224348   0.407   2.792   5.831
 7817SOL     OW24349   4.710   3.491   5.565
 7817SOL    HW124350   4.783   3.555   5.542
 7817SOL    HW224351   4.662   3.464   5.482
 7818SOL     OW24352   4.912   0.941   2.879
 7818SOL    HW124353   4.912   0.873   2.806
 7818SOL    HW224354   4.822   0.985   2.884
 7819SOL     OW24355   0.098   3.567   3.429
 7819SOL    HW124356   0.044   3.533   3.506
 7819SOL    HW224357   0.181   3.512   3.420
 7820SOL     OW24358   1.838   0.816   5.816
 7820SOL    HW124359   1.750   0.835   5.772
 7820SOL    HW224360   1.907   0.879   5.780
 7821SOL     OW24361   5.399   5.764   0.462
 7821SOL    HW124362   5.406   5.776   0.561
 7821SOL    HW224363   5.377   5.669   0.441
 7822SOL     OW24364   1.217   1.725   6.233
 7822SOL    HW124365   1.217   1.670   6.316
 7822SOL    HW224366   1.299   1.783   6.231
 7823SOL     OW24367   1.603   4.345   6.379
 7823SOL    HW124368   1.696   4.347   6.342
 7823SOL    HW224369   1.539   4.376   6.309
 7824SOL     OW24370   6.205   0.418   4.618
 7824SOL    HW124371   6.245   0.496   4.569
 7824SOL    HW224372   6.176   0.349   4.552
 7825SOL     OW24373   2.093   2.885   1.565
 7825SOL    HW124374   2.068   2.982   1.571
 7825SOL    HW224375   2.152   2.871   1.486
 7826SOL     OW24376   5.030   2.065   6.533
 7826SOL    HW124377   4.935   2.040   6.515
 7826SOL    HW224378   5.060   2.024   6.620
 7827SOL     OW24379   3.195   5.126   1.270
 7827SOL    HW124380   3.289   5.151   1.295
 7827SOL    HW224381   3.133   5.198   1.298
 7828SOL     OW24382   0.186   5.155   0.635
 7828SOL    HW124383   0.227   5.141   0.545
 7828SOL    HW224384   0.092   5.185   0.625
 7829SOL     OW24385   1.815   3.218   1.265
 7829SOL    HW124386   1.764   3.252   1.344
 7829SOL    HW224387   1.761   3.149   1.217
 7830SOL     OW24388   5.700   3.791   6.004
 7830SOL    HW124389   5.762   3.800   6.082
 7830SOL    HW224390   5.637   3.715   6.021
 7831SOL     OW24391   1.269   4.943   0.318
 7831SOL    HW124392   1.260   5.014   0.249
 7831SOL    HW224393   1.182   4.893   0.326
 7832SOL     OW24394   3.546   0.663   4.358
 7832SOL    HW124395   3.501   0.720   4.289
 7832SOL    HW224396   3.639   0.641   4.327
 7833SOL     OW24397   0.510   1.077   0.603
 7833SOL    HW124398   0.468   1.077   0.512
 7833SOL    HW224399   0.528   0.983   0.632
 7834SOL     OW24400   0.384   1.600   2.327
 7834SOL    HW124401   0.409   1.659   2.404
 7834SOL    HW224402   0.455   1.531   2.313
 7835SOL     OW24403   2.258   2.578   5.229
 7835SOL    HW124404   2.262   2.651   5.297
 7835SOL    HW224405   2.317   2.601   5.152
 7836SOL     OW24406   3.218   1.092   6.029
 7836SOL    HW124407   3.134   1.096   6.084
 7836SOL    HW224408   3.195   1.071   5.934
 7837SOL     OW24409   6.815   6.261   1.342
 7837SOL    HW124410   6.841   6.280   1.436
 7837SOL    HW224411   6.887   6.292   1.280
 7838SOL     OW24412   4.349   6.391   6.527
 7838SOL    HW124413   4.292   6.460   6.572
 7838SOL    HW224414   4.353   6.410   6.429
 7839SOL     OW24415   6.538   4.321   5.042
 7839SOL    HW124416   6.482   4.359   5.116
 7839SOL    HW224417   6.485   4.321   4.957
 7840SOL     OW24418   4.872   3.766   3.683
 7840SOL    HW124419   4.881   3.832   3.758
 7840SOL    HW224420   4.856   3.815   3.598
 7841SOL     OW24421   5.812   1.681   6.528
 7841SOL    HW124422   5.816   1.654   6.432
 7841SOL    HW224423   5.895   1.650   6.575
 7842SOL     OW24424   1.436   1.050   3.606
 7842SOL    HW124425   1.497   0.971   3.601
 7842SOL    HW224426   1.462   1.116   3.536
 7843SOL     OW24427   5.719   4.886   1.691
 7843SOL    HW124428   5.741   4.804   1.638
 7843SOL    HW224429   5.668   4.860   1.773
 7844SOL     OW24430   4.509   0.743   3.737
 7844SOL    HW124431   4.515   0.790   3.825
 7844SOL    HW224432   4.552   0.653   3.745
 7845SOL     OW24433   0.407   0.992   4.354
 7845SOL    HW124434   0.454   1.001   4.266
 7845SOL    HW224435   0.313   1.027   4.346
 7846SOL     OW24436   2.115   0.405   1.532
 7846SOL    HW124437   2.148   0.383   1.440
 7846SOL    HW224438   2.102   0.321   1.584
 7847SOL     OW24439   0.422   2.105   1.160
 7847SOL    HW124440   0.507   2.085   1.209
 7847SOL    HW224441   0.433   2.081   1.063
 7848SOL     OW24442   3.207   4.494   1.054
 7848SOL    HW124443   3.278   4.424   1.049
 7848SOL    HW224444   3.230   4.561   1.124
 7849SOL     OW24445   5.491   3.905   4.352
 7849SOL    HW124446   5.398   3.872   4.336
 7849SOL    HW224447   5.500   3.998   4.314
 7850SOL     OW24448   0.471   0.722   3.818
 7850SOL    HW124449   0.553   0.669   3.799
 7850SOL    HW224450   0.452   0.783   3.740
 7851SOL     OW24451   6.828   6.917   0.696
 7851SOL    HW124452   6.928   6.908   0.696
 7851SOL    HW224453   6.787   6.828   0.718
 7852SOL     OW24454   3.202   6.636   6.439
 7852SOL    HW124455   3.224   6.731   6.462
 7852SOL    HW224456   3.277   6.597   6.386
 7853SOL     OW24457   4.011   1.727   1.272
 7853SOL    HW124458   4.035   1.687   1.183
 7853SOL    HW224459   4.090   1.724   1.333
 7854SOL     OW24460   3.963   4.585   0.754
 7854SOL    HW124461   3.875   4.539   0.759
 7854SOL    HW224462   4.017   4.563   0.835
 7855SOL     OW24463   4.341   5.661   6.204
 7855SOL    HW124464   4.315   5.569   6.175
 7855SOL    HW224465   4.440   5.663   6.220
 7856SOL     OW24466   6.163   5.186   3.948
 7856SOL    HW124467   6.221   5.111   3.981
 7856SOL    HW224468   6.113   5.156   3.867
 7857SOL     OW24469   6.783   2.583   5.575
 7857SOL    HW124470   6.794   2.537   5.663
 7857SOL    HW224471   6.842   2.663   5.571
 7858SOL     OW24472   4.962   5.266   3.589
 7858SOL    HW124473   4.907   5.223   3.517
 7858SOL    HW224474   5.026   5.199   3.626
 7859SOL     OW24475   6.587   4.197   5.997
 7859SOL    HW124476   6.605   4.182   5.900
 7859SOL    HW224477   6.488   4.201   6.012
 7860SOL     OW24478   4.048   6.012   2.468
 7860SOL    HW124479   3.975   6.078   2.449
 7860SOL    HW224480   4.039   5.979   2.562
 7861SOL     OW24481   4.185   5.443   2.328
 7861SOL    HW124482   4.269   5.421   2.377
 7861SOL    HW224483   4.136   5.516   2.376
 7862SOL     OW24484   3.140   4.460   1.634
 7862SOL    HW124485   3.085   4.430   1.712
 7862SOL    HW224486   3.098   4.426   1.549
 7863SOL     OW24487   0.234   5.992   3.719
 7863SOL    HW124488   0.300   5.975   3.793
 7863SOL    HW224489   0.166   5.918   3.717
 7864SOL     OW24490   6.867   6.176   5.916
 7864SOL    HW124491   6.940   6.241   5.937
 7864SOL    HW224492   6.893   6.085   5.949
 7865SOL     OW24493   4.661   6.842   4.208
 7865SOL    HW124494   4.669   6.828   4.110
 7865SOL    HW224495   4.595   6.777   4.246
 7866SOL     OW24496   2.385   2.163   1.023
 7866SOL    HW124497   2.412   2.202   0.935
 7866SOL    HW224498   2.461   2.168   1.087
 7867SOL     OW24499   5.802   5.056   2.576
 7867SOL    HW124500   5.892   5.014   2.588
 7867SOL    HW224501   5.740   4.991   2.533
 7868SOL     OW24502   5.453   6.787   2.709
 7868SOL    HW124503   5.355   6.767   2.697
 7868SOL    HW224504   5.464   6.877   2.750
 7869SOL     OW24505   6.490   3.839   0.711
 7869SOL    HW124506   6.538   3.828   0.798
 7869SOL    HW224507   6.524   3.772   0.645
 7870SOL     OW24508   5.331   6.412   3.807
 7870SOL    HW124509   5.352   6.465   3.888
 7870SOL    HW224510   5.404   6.346   3.790
 7871SOL     OW24511   5.805   4.050   2.968
 7871SOL    HW124512   5.873   4.003   3.024
 7871SOL    HW224513   5.737   3.984   2.937
 7872SOL     OW24514   1.103   4.485   1.652
 7872SOL    HW124515   1.012   4.504   1.614
 7872SOL    HW224516   1.100   4.401   1.706
 7873SOL     OW24517   5.545   0.030   5.603
 7873SOL    HW124518   5.497   7.022   5.521
 7873SOL    HW224519   5.634   7.008   5.610
 7874SOL     OW24520   5.929   1.178   0.224
 7874SOL    HW124521   5.849   1.144   0.274
 7874SOL    HW224522   5.961   1.263   0.267
 7875SOL     OW24523   3.901   3.387   6.597
 7875SOL    HW124524   3.882   3.438   6.513
 7875SOL    HW224525   3.832   3.409   6.666
 7876SOL     OW24526   0.209   6.710   4.775
 7876SOL    HW124527   0.285   6.775   4.773
 7876SOL    HW224528   0.141   6.736   4.707
 7877SOL     OW24529   0.723   3.149   2.447
 7877SOL    HW124530   0.796   3.109   2.392
 7877SOL    HW224531   0.643   3.167   2.390
 7878SOL     OW24532   4.738   4.833   3.805
 7878SOL    HW124533   4.659   4.774   3.790
 7878SOL    HW224534   4.707   4.928   3.814
 7879SOL     OW24535   4.620   6.201   3.273
 7879SOL    HW124536   4.639   6.256   3.354
 7879SOL    HW224537   4.526   6.166   3.278
 7880SOL     OW24538   0.228   5.843   1.271
 7880SOL    HW124539   0.193   5.750   1.262
 7880SOL    HW224540   0.326   5.840   1.292
 7881SOL     OW24541   6.400   3.379   4.853
 7881SOL    HW124542   6.371   3.406   4.945
 7881SOL    HW224543   6.380   3.453   4.789
 7882SOL     OW24544   1.927   2.595   3.738
 7882SOL    HW124545   1.953   2.615   3.832
 7882SOL    HW224546   1.843   2.541   3.736
 7883SOL     OW24547   1.861   0.350   1.112
 7883SOL    HW124548   1.817   0.264   1.086
 7883SOL    HW224549   1.821   0.383   1.198
 7884SOL     OW24550   1.154   4.224   3.714
 7884SOL    HW124551   1.251   4.226   3.692
 7884SOL    HW224552   1.119   4.131   3.701
 7885SOL     OW24553   5.550   5.964   2.674
 7885SOL    HW124554   5.558   5.866   2.692
 7885SOL    HW224555   5.580   6.014   2.755
 7886SOL     OW24556   4.791   3.674   1.110
 7886SOL    HW124557   4.752   3.689   1.019
 7886SOL    HW224558   4.831   3.759   1.143
 7887SOL     OW24559   3.432   2.643   5.328
 7887SOL    HW124560   3.412   2.553   5.366
 7887SOL    HW224561   3.531   2.654   5.318
 7888SOL     OW24562   0.215   0.226   4.967
 7888SOL    HW124563   0.280   0.212   4.892
 7888SOL    HW224564   0.233   0.161   5.040
 7889SOL     OW24565   0.533   5.368   6.705
 7889SOL    HW124566   0.631   5.350   6.714
 7889SOL    HW224567   0.482   5.284   6.721
 7890SOL     OW24568   0.865   3.339   4.137
 7890SOL    HW124569   0.907   3.318   4.048
 7890SOL    HW224570   0.932   3.383   4.196
 7891SOL     OW24571   0.833   3.699   4.512
 7891SOL    HW124572   0.815   3.673   4.607
 7891SOL    HW224573   0.828   3.798   4.503
 7892SOL     OW24574   1.224   2.078   4.378
 7892SOL    HW124575   1.126   2.091   4.390
 7892SOL    HW224576   1.245   1.981   4.368
 7893SOL     OW24577   5.773   5.985   2.455
 7893SOL    HW124578   5.707   6.043   2.503
 7893SOL    HW224579   5.865   6.011   2.482
 7894SOL     OW24580   3.244   1.003   0.587
 7894SOL    HW124581   3.167   1.060   0.560
 7894SOL    HW224582   3.303   0.986   0.508
 7895SOL     OW24583   3.799   6.245   4.667
 7895SOL    HW124584   3.728   6.306   4.702
 7895SOL    HW224585   3.779   6.222   4.571
 7896SOL     OW24586   5.380   3.140   1.577
 7896SOL    HW124587   5.301   3.154   1.636
 7896SOL    HW224588   5.434   3.224   1.572
 7897SOL     OW24589   3.384   3.259   6.873
 7897SOL    HW124590   3.473   3.235   6.912
 7897SOL    HW224591   3.321   3.182   6.885
 7898SOL     OW24592   4.276   0.425   3.870
 7898SOL    HW124593   4.182   0.396   3.890
 7898SOL    HW224594   4.337   0.347   3.875
 7899SOL     OW24595   5.835   6.645   2.199
 7899SOL    HW124596   5.787   6.558   2.189
 7899SOL    HW224597   5.811   6.706   2.124
 7900SOL     OW24598   0.548   3.941   0.402
 7900SOL    HW124599   0.506   3.900   0.483
 7900SOL    HW224600   0.643   3.965   0.423
 7901SOL     OW24601   5.191   0.805   5.932
 7901SOL    HW124602   5.133   0.870   5.882
 7901SOL    HW224603   5.140   0.768   6.009
 7902SOL     OW24604   6.868   6.027   3.597
 7902SOL    HW124605   6.901   6.085   3.672
 7902SOL    HW224606   6.866   5.932   3.627
 7903SOL     OW24607   4.493   2.017   3.083
 7903SOL    HW124608   4.546   1.935   3.064
 7903SOL    HW224609   4.407   1.992   3.127
 7904SOL     OW24610   5.737   0.688   3.553
 7904SOL    HW124611   5.770   0.677   3.459
 7904SOL    HW224612   5.656   0.631   3.566
 7905SOL     OW24613   5.993   1.861   0.759
 7905SOL    HW124614   5.941   1.941   0.727
 7905SOL    HW224615   5.942   1.815   0.832
 7906SOL     OW24616   1.191   5.582   0.574
 7906SOL    HW124617   1.192   5.630   0.661
 7906SOL    HW224618   1.285   5.568   0.543
 7907SOL     OW24619   6.050   1.013   2.980
 7907SOL    HW124620   5.969   0.988   2.927
 7907SOL    HW224621   6.112   0.934   2.986
 7908SOL     OW24622   1.175   1.542   6.434
 7908SOL    HW124623   1.111   1.486   6.381
 7908SOL    HW224624   1.242   1.483   6.479
 7909SOL     OW24625   4.732   4.145   3.542
 7909SOL    HW124626   4.751   4.049   3.518
 7909SOL    HW224627   4.743   4.203   3.461
 7910SOL     OW24628   1.815   3.471   1.132
 7910SOL    HW124629   1.804   3.376   1.161
 7910SOL    HW224630   1.808   3.531   1.212
 7911SOL     OW24631   0.843   4.052   1.431
 7911SOL    HW124632   0.924   4.103   1.402
 7911SOL    HW224633   0.807   4.091   1.516
 7912SOL     OW24634   5.054   4.260   0.616
 7912SOL    HW124635   5.024   4.175   0.658
 7912SOL    HW224636   5.033   4.337   0.677
 7913SOL     OW24637   1.749   4.564   1.022
 7913SOL    HW124638   1.805   4.520   0.951
 7913SOL    HW224639   1.693   4.495   1.067
 7914SOL     OW24640   0.321   4.445   0.882
 7914SOL    HW124641   0.412   4.407   0.864
 7914SOL    HW224642   0.311   4.531   0.833
 7915SOL     OW24643   4.619   1.919   2.797
 7915SOL    HW124644   4.519   1.920   2.797
 7915SOL    HW224645   4.652   1.939   2.704
 7916SOL     OW24646   0.678   6.365   5.233
 7916SOL    HW124647   0.704   6.383   5.328
 7916SOL    HW224648   0.615   6.436   5.201
 7917SOL     OW24649   4.217   2.843   5.444
 7917SOL    HW124650   4.215   2.937   5.409
 7917SOL    HW224651   4.223   2.845   5.543
 7918SOL     OW24652   0.286   0.868   5.092
 7918SOL    HW124653   0.220   0.813   5.143
 7918SOL    HW224654   0.367   0.814   5.072
 7919SOL     OW24655   1.138   4.872   1.885
 7919SOL    HW124656   1.215   4.844   1.942
 7919SOL    HW224657   1.060   4.897   1.943
 7920SOL     OW24658   5.601   0.729   1.899
 7920SOL    HW124659   5.690   0.692   1.927
 7920SOL    HW224660   5.553   0.764   1.979
 7921SOL     OW24661   5.494   0.344   1.809
 7921SOL    HW124662   5.423   0.288   1.767
 7921SOL    HW224663   5.523   0.302   1.895
 7922SOL     OW24664   0.627   6.433   0.150
 7922SOL    HW124665   0.637   6.529   0.122
 7922SOL    HW224666   0.552   6.391   0.098
 7923SOL     OW24667   3.399   1.649   6.333
 7923SOL    HW124668   3.425   1.677   6.241
 7923SOL    HW224669   3.372   1.553   6.333
 7924SOL     OW24670   4.726   0.317   1.632
 7924SOL    HW124671   4.704   0.284   1.724
 7924SOL    HW224672   4.817   0.360   1.632
 7925SOL     OW24673   1.370   0.037   0.930
 7925SOL    HW124674   1.293   0.092   0.897
 7925SOL    HW224675   1.350   0.005   1.023
 7926SOL     OW24676   5.120   1.519   6.711
 7926SOL    HW124677   5.186   1.444   6.709
 7926SOL    HW224678   5.118   1.559   6.803
 7927SOL     OW24679   4.940   6.994   1.934
 7927SOL    HW124680   4.844   6.981   1.912
 7927SOL    HW224681   4.959   6.959   2.026
 7928SOL     OW24682   0.275   1.679   3.853
 7928SOL    HW124683   0.220   1.638   3.926
 7928SOL    HW224684   0.247   1.774   3.840
 7929SOL     OW24685   3.480   3.931   6.001
 7929SOL    HW124686   3.481   4.027   5.971
 7929SOL    HW224687   3.477   3.872   5.920
 7930SOL     OW24688   3.604   5.489   6.458
 7930SOL    HW124689   3.624   5.491   6.556
 7930SOL    HW224690   3.673   5.435   6.411
 7931SOL     OW24691   4.134   2.957   0.514
 7931SOL    HW124692   4.177   3.043   0.487
 7931SOL    HW224693   4.203   2.896   0.551
 7932SOL     OW24694   1.032   5.047   0.642
 7932SOL    HW124695   1.080   5.071   0.558
 7932SOL    HW224696   1.084   5.081   0.721
 7933SOL     OW24697   6.795   6.928   6.175
 7933SOL    HW124698   6.842   7.017   6.179
 7933SOL    HW224699   6.703   6.941   6.138
 7934SOL     OW24700   1.383   4.850   7.023
 7934SOL    HW124701   1.380   4.943   0.036
 7934SOL    HW224702   1.290   4.815   7.013
 7935SOL     OW24703   5.509   5.649   2.229
 7935SOL    HW124704   5.441   5.643   2.155
 7935SOL    HW224705   5.542   5.557   2.251
 7936SOL     OW24706   3.100   5.402   3.222
 7936SOL    HW124707   3.099   5.455   3.138
 7936SOL    HW224708   3.130   5.309   3.202
 7937SOL     OW24709   1.805   5.791   4.257
 7937SOL    HW124710   1.805   5.782   4.357
 7937SOL    HW224711   1.893   5.762   4.221
 7938SOL     OW24712   5.261   5.834   5.094
 7938SOL    HW124713   5.351   5.879   5.090
 7938SOL    HW224714   5.258   5.760   5.027
 7939SOL     OW24715   1.312   1.692   5.971
 7939SOL    HW124716   1.226   1.656   6.008
 7939SOL    HW224717   1.389   1.647   6.015
 7940SOL     OW24718   3.347   1.870   2.519
 7940SOL    HW124719   3.346   1.828   2.610
 7940SOL    HW224720   3.439   1.904   2.499
 7941SOL     OW24721   5.157   6.571   3.120
 7941SOL    HW124722   5.121   6.647   3.066
 7941SOL    HW224723   5.203   6.607   3.201
 7942SOL     OW24724   1.179   2.928   3.154
 7942SOL    HW124725   1.100   2.917   3.094
 7942SOL    HW224726   1.245   2.990   3.112
 7943SOL     OW24727   0.682   4.253   5.877
 7943SOL    HW124728   0.666   4.167   5.827
 7943SOL    HW224729   0.652   4.330   5.821
 7944SOL     OW24730   0.691   2.961   1.705
 7944SOL    HW124731   0.696   2.873   1.658
 7944SOL    HW224732   0.748   3.027   1.656
 7945SOL     OW24733   6.356   5.547   2.681
 7945SOL    HW124734   6.431   5.511   2.735
 7945SOL    HW224735   6.326   5.478   2.615
 7946SOL     OW24736   3.534   6.707   5.951
 7946SOL    HW124737   3.557   6.702   5.854
 7946SOL    HW224738   3.616   6.723   6.005
 7947SOL     OW24739   2.317   2.043   5.611
 7947SOL    HW124740   2.263   2.116   5.654
 7947SOL    HW224741   2.297   2.039   5.513
 7948SOL     OW24742   0.836   5.337   0.758
 7948SOL    HW124743   0.905   5.300   0.820
 7948SOL    HW224744   0.754   5.281   0.760
 7949SOL     OW24745   4.736   4.103   6.092
 7949SOL    HW124746   4.686   4.023   6.058
 7949SOL    HW224747   4.684   4.186   6.073
 7950SOL     OW24748   4.694   5.934   4.540
 7950SOL    HW124749   4.728   6.015   4.588
 7950SOL    HW224750   4.595   5.942   4.527
 7951SOL     OW24751   2.171   5.098   2.261
 7951SOL    HW124752   2.255   5.145   2.235
 7951SOL    HW224753   2.132   5.052   2.181
 7952SOL     OW24754   0.043   3.487   0.173
 7952SOL    HW124755   7.014   3.475   0.089
 7952SOL    HW224756   0.136   3.516   0.151
 7953SOL     OW24757   4.560   2.315   1.944
 7953SOL    HW124758   4.576   2.398   1.999
 7953SOL    HW224759   4.504   2.339   1.865
 7954SOL     OW24760   3.743   4.214   6.531
 7954SOL    HW124761   3.695   4.298   6.557
 7954SOL    HW224762   3.678   4.138   6.531
 7955SOL     OW24763   2.163   1.337   6.898
 7955SOL    HW124764   2.254   1.326   6.857
 7955SOL    HW224765   2.095   1.296   6.838
 7956SOL     OW24766   5.352   1.502   1.877
 7956SOL    HW124767   5.407   1.458   1.806
 7956SOL    HW224768   5.303   1.433   1.929
 7957SOL     OW24769   2.069   1.149   0.093
 7957SOL    HW124770   2.082   1.214   0.018
 7957SOL    HW224771   2.022   1.195   0.168
 7958SOL     OW24772   5.461   4.092   5.783
 7958SOL    HW124773   5.501   4.077   5.692
 7958SOL    HW224774   5.519   4.049   5.852
 7959SOL     OW24775   5.303   0.237   7.023
 7959SOL    HW124776   5.232   0.167   7.021
 7959SOL    HW224777   5.279   0.306   0.066
 7960SOL     OW24778   1.463   1.387   6.026
 7960SOL    HW124779   1.521   1.308   6.046
 7960SOL    HW224780   1.386   1.359   5.969
 7961SOL     OW24781   6.498   0.022   0.728
 7961SOL    HW124782   6.485   0.062   0.819
 7961SOL    HW224783   6.512   6.948   0.736
 7962SOL     OW24784   0.389   1.739   5.842
 7962SOL    HW124785   0.456   1.812   5.828
 7962SOL    HW224786   0.385   1.716   5.939
 7963SOL     OW24787   6.437   5.646   4.276
 7963SOL    HW124788   6.340   5.623   4.274
 7963SOL    HW224789   6.488   5.570   4.316
 7964SOL     OW24790   5.879   2.776   2.553
 7964SOL    HW124791   5.973   2.749   2.572
 7964SOL    HW224792   5.867   2.874   2.573
 7965SOL     OW24793   4.053   2.127   6.163
 7965SOL    HW124794   4.064   2.202   6.228
 7965SOL    HW224795   4.103   2.150   6.079
 7966SOL     OW24796   3.533   2.696   5.852
 7966SOL    HW124797   3.524   2.597   5.850
 7966SOL    HW224798   3.505   2.734   5.764
 7967SOL     OW24799   1.840   5.660   2.020
 7967SOL    HW124800   1.757   5.639   1.969
 7967SOL    HW224801   1.865   5.756   2.005
 7968SOL     OW24802   6.529   2.279   4.712
 7968SOL    HW124803   6.613   2.228   4.730
 7968SOL    HW224804   6.517   2.349   4.782
 7969SOL     OW24805   5.553   6.350   1.035
 7969SOL    HW124806   5.586   6.356   0.940
 7969SOL    HW224807   5.605   6.279   1.083
 7970SOL     OW24808   6.161   3.605   2.447
 7970SOL    HW124809   6.108   3.542   2.390
 7970SOL    HW224810   6.259   3.585   2.437
 7971SOL     OW24811   3.057   1.472   1.295
 7971SOL    HW124812   3.108   1.503   1.375
 7971SOL    HW224813   3.068   1.373   1.285
 7972SOL     OW24814   3.292   3.371   1.770
 7972SOL    HW124815   3.312   3.465   1.745
 7972SOL    HW224816   3.218   3.369   1.837
 7973SOL     OW24817   5.286   4.158   4.730
 7973SOL    HW124818   5.335   4.080   4.768
 7973SOL    HW224819   5.288   4.234   4.794
 7974SOL     OW24820   6.218   1.125   5.980
 7974SOL    HW124821   6.277   1.168   6.049
 7974SOL    HW224822   6.129   1.105   6.021
 7975SOL     OW24823   5.231   0.281   1.164
 7975SOL    HW124824   5.274   0.230   1.089
 7975SOL    HW224825   5.153   0.229   1.198
 7976SOL     OW24826   1.177   0.316   6.230
 7976SOL    HW124827   1.213   0.351   6.316
 7976SOL    HW224828   1.212   0.224   6.213
 7977SOL     OW24829   4.436   5.837   2.394
 7977SOL    HW124830   4.501   5.760   2.390
 7977SOL    HW224831   4.374   5.832   2.316
 7978SOL     OW24832   0.038   2.693   6.161
 7978SOL    HW124833   0.133   2.667   6.178
 7978SOL    HW224834   0.033   2.790   6.137
 7979SOL     OW24835   1.968   4.753   5.410
 7979SOL    HW124836   1.986   4.818   5.483
 7979SOL    HW224837   1.917   4.799   5.337
 7980SOL     OW24838   2.906   5.114   6.636
 7980SOL    HW124839   2.869   5.179   6.703
 7980SOL    HW224840   2.843   5.105   6.559
 7981SOL     OW24841   0.636   4.968   1.747
 7981SOL    HW124842   0.720   4.916   1.761
 7981SOL    HW224843   0.655   5.065   1.764
 7982SOL     OW24844   1.470   1.814   6.231
 7982SOL    HW124845   1.494   1.729   6.184
 7982SOL    HW224846   1.495   1.806   6.328
 7983SOL     OW24847   6.617   2.194   1.066
 7983SOL    HW124848   6.685   2.259   1.033
 7983SOL    HW224849   6.530   2.208   1.017
 7984SOL     OW24850   0.140   1.357   0.571
 7984SOL    HW124851   0.120   1.358   0.669
 7984SOL    HW224852   0.239   1.350   0.558
 7985SOL     OW24853   2.453   1.634   4.548
 7985SOL    HW124854   2.425   1.545   4.582
 7985SOL    HW224855   2.445   1.702   4.621
 7986SOL     OW24856   2.977   0.832   6.060
 7986SOL    HW124857   2.977   0.932   6.069
 7986SOL    HW224858   2.893   0.803   6.014
 7987SOL     OW24859   1.924   2.985   0.638
 7987SOL    HW124860   1.963   3.014   0.725
 7987SOL    HW224861   1.982   3.017   0.563
 7988SOL     OW24862   1.284   0.872   2.516
 7988SOL    HW124863   1.351   0.898   2.585
 7988SOL    HW224864   1.244   0.955   2.477
 7989SOL     OW24865   2.461   3.370   0.151
 7989SOL    HW124866   2.429   3.313   0.075
 7989SOL    HW224867   2.383   3.400   0.205
 7990SOL     OW24868   2.397   5.295   4.642
 7990SOL    HW124869   2.393   5.358   4.565
 7990SOL    HW224870   2.408   5.201   4.607
 7991SOL     OW24871   6.185   1.831   3.852
 7991SOL    HW124872   6.254   1.895   3.818
 7991SOL    HW224873   6.137   1.790   3.775
 7992SOL     OW24874   1.520   0.413   0.332
 7992SOL    HW124875   1.505   0.389   0.428
 7992SOL    HW224876   1.481   0.503   0.314
 7993SOL     OW24877   0.367   0.072   1.437
 7993SOL    HW124878   0.303   0.027   1.499
 7993SOL    HW224879   0.441   0.114   1.489
 7994SOL     OW24880   4.513   0.414   3.237
 7994SOL    HW124881   4.497   0.377   3.146
 7994SOL    HW224882   4.425   0.441   3.278
 7995SOL     OW24883   6.100   5.200   3.191
 7995SOL    HW124884   6.063   5.292   3.184
 7995SOL    HW224885   6.199   5.205   3.206
 7996SOL     OW24886   3.719   5.991   4.750
 7996SOL    HW124887   3.763   6.080   4.735
 7996SOL    HW224888   3.646   5.979   4.682
 7997SOL     OW24889   6.872   1.751   0.231
 7997SOL    HW124890   6.792   1.779   0.283
 7997SOL    HW224891   6.946   1.817   0.245
 7998SOL     OW24892   3.493   6.808   6.694
 7998SOL    HW124893   3.410   6.801   6.639
 7998SOL    HW224894   3.562   6.744   6.660
 7999SOL     OW24895   1.011   1.368   6.062
 7999SOL    HW124896   0.979   1.286   6.014
 7999SOL    HW224897   0.958   1.447   6.032
 8000SOL     OW24898   5.464   6.338   6.176
 8000SOL    HW124899   5.557   6.357   6.144
 8000SOL    HW224900   5.405   6.319   6.097
 8001SOL     OW24901   4.251   5.983   1.674
 8001SOL    HW124902   4.349   5.984   1.694
 8001SOL    HW224903   4.203   5.936   1.747
 8002SOL     OW24904   0.522   0.502   6.075
 8002SOL    HW124905   0.536   0.600   6.067
 8002SOL    HW224906   0.426   0.480   6.054
 8003SOL     OW24907   2.186   5.599   1.742
 8003SOL    HW124908   2.194   5.690   1.782
 8003SOL    HW224909   2.118   5.546   1.794
 8004SOL     OW24910   1.701   4.009   3.357
 8004SOL    HW124911   1.731   3.942   3.425
 8004SOL    HW224912   1.629   3.970   3.300
 8005SOL     OW24913   2.208   0.156   3.587
 8005SOL    HW124914   2.266   0.075   3.590
 8005SOL    HW224915   2.115   0.130   3.558
 8006SOL     OW24916   2.358   6.184   5.331
 8006SOL    HW124917   2.406   6.107   5.372
 8006SOL    HW224918   2.290   6.220   5.395
 8007SOL     OW24919   6.146   1.754   6.309
 8007SOL    HW124920   6.173   1.775   6.403
 8007SOL    HW224921   6.227   1.752   6.251
 8008SOL     OW24922   3.686   5.963   6.593
 8008SOL    HW124923   3.711   5.885   6.535
 8008SOL    HW224924   3.597   5.998   6.565
 8009SOL     OW24925   4.777   0.667   0.522
 8009SOL    HW124926   4.789   0.717   0.437
 8009SOL    HW224927   4.708   0.713   0.578
 8010SOL     OW24928   2.353   2.060   4.841
 8010SOL    HW124929   2.290   2.099   4.774
 8010SOL    HW224930   2.402   2.133   4.887
 8011SOL     OW24931   3.604   2.085   1.173
 8011SOL    HW124932   3.641   2.119   1.260
 8011SOL    HW224933   3.508   2.061   1.185
 8012SOL     OW24934   1.499   2.687   0.079
 8012SOL    HW124935   1.511   2.786   0.081
 8012SOL    HW224936   1.502   2.655   7.009
 8013SOL     OW24937   1.670   4.391   3.333
 8013SOL    HW124938   1.585   4.358   3.292
 8013SOL    HW224939   1.692   4.335   3.413
 8014SOL     OW24940   2.140   0.325   4.675
 8014SOL    HW124941   2.161   0.243   4.622
 8014SOL    HW224942   2.216   0.344   4.737
 8015SOL     OW24943   1.946   0.484   6.215
 8015SOL    HW124944   1.858   0.452   6.181
 8015SOL    HW224945   2.007   0.502   6.138
 8016SOL     OW24946   4.166   1.307   4.988
 8016SOL    HW124947   4.089   1.315   5.051
 8016SOL    HW224948   4.137   1.261   4.904
 8017SOL     OW24949   6.427   6.935   0.091
 8017SOL    HW124950   6.494   6.873   0.050
 8017SOL    HW224951   6.356   6.955   0.024
 8018SOL     OW24952   3.178   3.036   0.319
 8018SOL    HW124953   3.111   3.084   0.263
 8018SOL    HW224954   3.269   3.050   0.281
 8019SOL     OW24955   1.980   4.446   1.334
 8019SOL    HW124956   1.978   4.353   1.369
 8019SOL    HW224957   2.018   4.446   1.241
 8020SOL     OW24958   6.683   0.086   6.413
 8020SOL    HW124959   6.735   0.163   6.450
 8020SOL    HW224960   6.601   0.071   6.469
 8021SOL     OW24961   1.694   3.007   1.888
 8021SOL    HW124962   1.625   3.072   1.855
 8021SOL    HW224963   1.657   2.953   1.963
 8022SOL     OW24964   6.037   0.581   1.785
 8022SOL    HW124965   6.113   0.565   1.723
 8022SOL    HW224966   5.963   0.517   1.765
 8023SOL     OW24967   5.887   4.457   2.497
 8023SOL    HW124968   5.846   4.391   2.559
 8023SOL    HW224969   5.975   4.488   2.534
 8024SOL     OW24970   1.075   4.948   6.446
 8024SOL    HW124971   1.153   4.964   6.386
 8024SOL    HW224972   1.104   4.961   6.541
 8025SOL     OW24973   1.754   5.582   0.989
 8025SOL    HW124974   1.794   5.663   1.031
 8025SOL    HW224975   1.784   5.501   1.039
 8026SOL     OW24976   6.874   4.378   1.315
 8026SOL    HW124977   6.853   4.402   1.410
 8026SOL    HW224978   6.865   4.460   1.258
 8027SOL     OW24979   3.526   0.039   5.723
 8027SOL    HW124980   3.527   0.129   5.681
 8027SOL    HW224981   3.454   7.008   5.681
 8028SOL     OW24982   3.757   5.042   5.007
 8028SOL    HW124983   3.787   5.005   4.919
 8028SOL    HW224984   3.674   4.996   5.037
 8029SOL     OW24985   5.316   2.501   1.971
 8029SOL    HW124986   5.221   2.522   1.946
 8029SOL    HW224987   5.332   2.528   2.066
 8030SOL     OW24988   5.885   5.506   1.111
 8030SOL    HW124989   5.921   5.589   1.067
 8030SOL    HW224990   5.804   5.475   1.062
 8031SOL     OW24991   6.881   6.523   2.807
 8031SOL    HW124992   6.934   6.608   2.804
 8031SOL    HW224993   6.896   6.471   2.723
 8032SOL     OW24994   5.226   3.892   1.634
 8032SOL    HW124995   5.303   3.842   1.673
 8032SOL    HW224996   5.258   3.951   1.561
 8033SOL     OW24997   4.622   2.991   7.002
 8033SOL    HW124998   4.596   3.079   0.018
 8033SOL    HW224999   4.605   2.993   6.904
 8034SOL     OW25000   4.933   6.840   5.831
 8034SOL    HW125001   4.938   6.758   5.888
 8034SOL    HW225002   4.919   6.814   5.735
 8035SOL     OW25003   4.991   1.927   2.075
 8035SOL    HW125004   4.975   1.995   2.147
 8035SOL    HW225005   5.089   1.907   2.071
 8036SOL     OW25006   6.536   3.614   3.804
 8036SOL    HW125007   6.628   3.603   3.842
 8036SOL    HW225008   6.533   3.694   3.745
 8037SOL     OW25009   1.528   3.480   0.041
 8037SOL    HW125010   1.592   3.418   0.087
 8037SOL    HW225011   1.580   3.547   7.011
 8038SOL     OW25012   4.343   6.846   3.133
 8038SOL    HW125013   4.422   6.907   3.143
 8038SOL    HW225014   4.374   6.754   3.110
 8039SOL     OW25015   6.860   1.748   4.371
 8039SOL    HW125016   6.779   1.783   4.418
 8039SOL    HW225017   6.840   1.658   4.332
 8040SOL     OW25018   1.497   6.296   6.861
 8040SOL    HW125019   1.451   6.208   6.849
 8040SOL    HW225020   1.515   6.310   6.958
 8041SOL     OW25021   3.303   1.094   2.514
 8041SOL    HW125022   3.210   1.067   2.540
 8041SOL    HW225023   3.332   1.171   2.571
 8042SOL     OW25024   4.345   3.792   5.669
 8042SOL    HW125025   4.370   3.758   5.579
 8042SOL    HW225026   4.312   3.886   5.662
 8043SOL     OW25027   3.798   4.865   0.410
 8043SOL    HW125028   3.888   4.901   0.435
 8043SOL    HW225029   3.727   4.920   0.455
 8044SOL     OW25030   3.773   3.639   0.467
 8044SOL    HW125031   3.837   3.630   0.544
 8044SOL    HW225032   3.679   3.645   0.502
 8045SOL     OW25033   5.945   2.415   2.216
 8045SOL    HW125034   5.911   2.436   2.308
 8045SOL    HW225035   5.969   2.318   2.212
 8046SOL     OW25036   0.705   4.213   2.410
 8046SOL    HW125037   0.632   4.184   2.348
 8046SOL    HW225038   0.731   4.308   2.389
 8047SOL     OW25039   3.580   6.307   6.406
 8047SOL    HW125040   3.596   6.210   6.387
 8047SOL    HW225041   3.654   6.361   6.366
 8048SOL     OW25042   3.188   2.312   0.233
 8048SOL    HW125043   3.115   2.340   0.170
 8048SOL    HW225044   3.244   2.390   0.257
 8049SOL     OW25045   0.651   6.776   0.474
 8049SOL    HW125046   0.602   6.689   0.465
 8049SOL    HW225047   0.624   6.837   0.399
 8050SOL     OW25048   2.094   3.664   4.043
 8050SOL    HW125049   2.120   3.760   4.044
 8050SOL    HW225050   2.016   3.649   4.105
 8051SOL     OW25051   5.167   6.221   4.857
 8051SOL    HW125052   5.207   6.223   4.949
 8051SOL    HW225053   5.094   6.153   4.853
 8052SOL     OW25054   2.831   2.276   1.258
 8052SOL    HW125055   2.876   2.294   1.345
 8052SOL    HW225056   2.781   2.358   1.229
 8053SOL     OW25057   3.092   2.843   5.261
 8053SOL    HW125058   3.142   2.849   5.175
 8053SOL    HW225059   3.103   2.751   5.299
 8054SOL     OW25060   6.897   4.159   4.873
 8054SOL    HW125061   6.865   4.142   4.966
 8054SOL    HW225062   6.906   4.073   4.824
 8055SOL     OW25063   6.850   0.783   5.690
 8055SOL    HW125064   6.825   0.745   5.601
 8055SOL    HW225065   6.770   0.785   5.750
 8056SOL     OW25066   3.107   0.836   5.095
 8056SOL    HW125067   3.201   0.840   5.130
 8056SOL    HW225068   3.110   0.815   4.997
 8057SOL     OW25069   2.531   2.487   2.867
 8057SOL    HW125070   2.602   2.468   2.798
 8057SOL    HW225071   2.497   2.400   2.904
 8058SOL     OW25072   2.711   6.642   2.684
 8058SOL    HW125073   2.655   6.722   2.661
 8058SOL    HW225074   2.803   6.672   2.710
 8059SOL     OW25075   2.472   1.309   5.293
 8059SOL    HW125076   2.432   1.294   5.383
 8059SOL    HW225077   2.554   1.252   5.282
 8060SOL     OW25078   0.543   2.254   6.182
 8060SOL    HW125079   0.475   2.223   6.249
 8060SOL    HW225080   0.593   2.332   6.220
 8061SOL     OW25081   0.770   0.288   2.286
 8061SOL    HW125082   0.834   0.364   2.284
 8061SOL    HW225083   0.780   0.238   2.372
 8062SOL     OW25084   4.217   5.278   4.322
 8062SOL    HW125085   4.181   5.314   4.236
 8062SOL    HW225086   4.286   5.341   4.358
 8063SOL     OW25087   2.595   0.882   3.513
 8063SOL    HW125088   2.503   0.921   3.526
 8063SOL    HW225089   2.640   0.928   3.437
 8064SOL     OW25090   5.900   2.202   0.144
 8064SOL    HW125091   5.806   2.232   0.157
 8064SOL    HW225092   5.903   2.102   0.144
 8065SOL     OW25093   2.713   6.449   4.560
 8065SOL    HW125094   2.728   6.393   4.478
 8065SOL    HW225095   2.620   6.486   4.558
 8066SOL     OW25096   6.449   6.775   5.459
 8066SOL    HW125097   6.356   6.805   5.481
 8066SOL    HW225098   6.499   6.850   5.417
 8067SOL     OW25099   5.139   2.317   2.879
 8067SOL    HW125100   5.142   2.405   2.926
 8067SOL    HW225101   5.091   2.251   2.936
 8068SOL     OW25102   0.399   4.895   1.334
 8068SOL    HW125103   0.496   4.908   1.353
 8068SOL    HW225104   0.384   4.801   1.303
 8069SOL     OW25105   2.257   4.885   1.427
 8069SOL    HW125106   2.200   4.847   1.355
 8069SOL    HW225107   2.230   4.845   1.515
 8070SOL     OW25108   3.957   3.013   0.289
 8070SOL    HW125109   4.023   3.029   0.216
 8070SOL    HW225110   4.003   2.972   0.368
 8071SOL     OW25111   3.083   6.699   5.561
 8071SOL    HW125112   2.984   6.683   5.565
 8071SOL    HW225113   3.123   6.643   5.488
 8072SOL     OW25114   3.393   1.596   0.940
 8072SOL    HW125115   3.471   1.563   0.994
 8072SOL    HW225116   3.310   1.590   0.995
 8073SOL     OW25117   3.576   5.794   5.448
 8073SOL    HW125118   3.647   5.778   5.516
 8073SOL    HW225119   3.506   5.854   5.486
 8074SOL     OW25120   2.987   1.817   0.583
 8074SOL    HW125121   3.042   1.898   0.562
 8074SOL    HW225122   2.904   1.845   0.632
 8075SOL     OW25123   6.551   0.238   0.452
 8075SOL    HW125124   6.512   0.237   0.544
 8075SOL    HW225125   6.599   0.152   0.436
 8076SOL     OW25126   6.103   6.656   5.247
 8076SOL    HW125127   6.146   6.743   5.221
 8076SOL    HW225128   6.130   6.632   5.340
 8077SOL     OW25129   2.992   6.010   2.717
 8077SOL    HW125130   3.006   6.107   2.698
 8077SOL    HW225131   2.961   5.964   2.634
 8078SOL     OW25132   0.916   2.092   1.403
 8078SOL    HW125133   0.988   2.028   1.377
 8078SOL    HW225134   0.849   2.045   1.460
 8079SOL     OW25135   6.561   1.523   3.370
 8079SOL    HW125136   6.490   1.507   3.439
 8079SOL    HW225137   6.649   1.493   3.406
 8080SOL     OW25138   1.160   2.053   2.697
 8080SOL    HW125139   1.252   2.033   2.663
 8080SOL    HW225140   1.151   2.151   2.714
 8081SOL     OW25141   6.087   5.682   6.317
 8081SOL    HW125142   6.103   5.678   6.219
 8081SOL    HW225143   6.140   5.757   6.356
 8082SOL     OW25144   3.008   0.848   2.403
 8082SOL    HW125145   3.016   0.902   2.319
 8082SOL    HW225146   3.067   0.768   2.398
 8083SOL     OW25147   5.062   2.570   4.076
 8083SOL    HW125148   5.005   2.521   4.010
 8083SOL    HW225149   5.139   2.512   4.103
 8084SOL     OW25150   2.875   0.272   6.777
 8084SOL    HW125151   2.865   0.187   6.726
 8084SOL    HW225152   2.792   0.289   6.830
 8085SOL     OW25153   6.011   5.594   2.584
 8085SOL    HW125154   6.013   5.634   2.493
 8085SOL    HW225155   6.039   5.662   2.652
 8086SOL     OW25156   6.897   0.639   1.793
 8086SOL    HW125157   6.869   0.625   1.887
 8086SOL    HW225158   6.874   0.732   1.764
 8087SOL     OW25159   1.431   0.208   0.168
 8087SOL    HW125160   1.425   0.288   0.228
 8087SOL    HW225161   1.450   0.237   0.075
 8088SOL     OW25162   5.933   0.717   0.788
 8088SOL    HW125163   5.855   0.657   0.803
 8088SOL    HW225164   5.921   0.802   0.840
 8089SOL     OW25165   5.078   2.895   0.033
 8089SOL    HW125166   5.033   2.897   6.969
 8089SOL    HW225167   5.012   2.915   0.105
 8090SOL     OW25168   3.971   1.132   5.657
 8090SOL    HW125169   3.935   1.213   5.704
 8090SOL    HW225170   3.977   1.056   5.722
 8091SOL     OW25171   1.678   3.565   5.038
 8091SOL    HW125172   1.607   3.627   5.004
 8091SOL    HW225173   1.654   3.535   5.130
 8092SOL     OW25174   5.372   1.862   5.172
 8092SOL    HW125175   5.398   1.824   5.084
 8092SOL    HW225176   5.305   1.935   5.158
 8093SOL     OW25177   3.087   5.326   3.600
 8093SOL    HW125178   3.141   5.404   3.566
 8093SOL    HW225179   3.126   5.241   3.565
 8094SOL     OW25180   0.178   2.898   4.550
 8094SOL    HW125181   0.154   2.982   4.597
 8094SOL    HW225182   0.096   2.857   4.511
 8095SOL     OW25183   0.431   4.283   5.145
 8095SOL    HW125184   0.393   4.203   5.191
 8095SOL    HW225185   0.450   4.355   5.212
 8096SOL     OW25186   2.458   0.650   1.888
 8096SOL    HW125187   2.558   0.650   1.889
 8096SOL    HW225188   2.426   0.558   1.866
 8097SOL     OW25189   4.794   6.699   5.144
 8097SOL    HW125190   4.876   6.757   5.147
 8097SOL    HW225191   4.723   6.739   5.202
 8098SOL     OW25192   2.189   6.580   3.775
 8098SOL    HW125193   2.111   6.639   3.752
 8098SOL    HW225194   2.273   6.620   3.737
 8099SOL     OW25195   4.483   6.650   4.294
 8099SOL    HW125196   4.547   6.582   4.329
 8099SOL    HW225197   4.401   6.605   4.260
 8100SOL     OW25198   6.484   0.733   6.982
 8100SOL    HW125199   6.391   0.767   6.970
 8100SOL    HW225200   6.540   0.803   0.002
 8101SOL     OW25201   1.912   5.940   1.510
 8101SOL    HW125202   2.003   5.910   1.485
 8101SOL    HW225203   1.845   5.871   1.482
 8102SOL     OW25204   0.598   3.386   3.334
 8102SOL    HW125205   0.556   3.404   3.245
 8102SOL    HW225206   0.662   3.310   3.326
 8103SOL     OW25207   3.298   0.188   1.514
 8103SOL    HW125208   3.347   0.123   1.572
 8103SOL    HW225209   3.280   0.271   1.565
 8104SOL     OW25210   1.638   0.819   6.613
 8104SOL    HW125211   1.691   0.823   6.698
 8104SOL    HW225212   1.697   0.837   6.535
 8105SOL     OW25213   6.907   2.887   2.955
 8105SOL    HW125214   6.874   2.980   2.943
 8105SOL    HW225215   6.836   2.831   2.998
 8106SOL     OW25216   3.237   5.581   3.779
 8106SOL    HW125217   3.235   5.584   3.679
 8106SOL    HW225218   3.205   5.668   3.816
 8107SOL     OW25219   1.149   5.525   3.829
 8107SOL    HW125220   1.070   5.583   3.849
 8107SOL    HW225221   1.215   5.533   3.903
 8108SOL     OW25222   6.772   2.663   6.877
 8108SOL    HW125223   6.768   2.629   6.971
 8108SOL    HW225224   6.868   2.669   6.847
 8109SOL     OW25225   6.874   3.486   6.400
 8109SOL    HW125226   6.855   3.517   6.307
 8109SOL    HW225227   6.902   3.390   6.398
 8110SOL     OW25228   4.077   5.652   2.471
 8110SOL    HW125229   4.145   5.658   2.544
 8110SOL    HW225230   3.989   5.626   2.509
 8111SOL     OW25231   4.961   1.118   4.740
 8111SOL    HW125232   4.999   1.144   4.651
 8111SOL    HW225233   4.885   1.054   4.726
 8112SOL     OW25234   2.175   3.313   4.544
 8112SOL    HW125235   2.134   3.288   4.457
 8112SOL    HW225236   2.229   3.237   4.579
 8113SOL     OW25237   0.628   4.112   0.968
 8113SOL    HW125238   0.681   4.043   1.015
 8113SOL    HW225239   0.584   4.072   0.887
 8114SOL     OW25240   2.062   3.633   2.603
 8114SOL    HW125241   2.088   3.725   2.574
 8114SOL    HW225242   2.023   3.637   2.695
 8115SOL     OW25243   3.848   6.875   6.632
 8115SOL    HW125244   3.777   6.835   6.575
 8115SOL    HW225245   3.891   6.951   6.582
 8116SOL     OW25246   4.218   5.310   0.318
 8116SOL    HW125247   4.273   5.229   0.300
 8116SOL    HW225248   4.217   5.368   0.237
 8117SOL     OW25249   1.372   0.536   3.300
 8117SOL    HW125250   1.457   0.514   3.251
 8117SOL    HW225251   1.299   0.554   3.233
 8118SOL     OW25252   4.979   4.123   5.973
 8118SOL    HW125253   4.953   4.173   5.891
 8118SOL    HW225254   4.898   4.098   6.025
 8119SOL     OW25255   5.387   6.169   6.398
 8119SOL    HW125256   5.302   6.170   6.450
 8119SOL    HW225257   5.393   6.254   6.345
 8120SOL     OW25258   3.518   4.523   0.940
 8120SOL    HW125259   3.507   4.479   1.029
 8120SOL    HW225260   3.480   4.465   0.869
 8121SOL     OW25261   0.665   5.002   1.454
 8121SOL    HW125262   0.659   5.099   1.478
 8121SOL    HW225263   0.653   4.947   1.537
 8122SOL     OW25264   0.271   4.557   2.691
 8122SOL    HW125265   0.182   4.563   2.646
 8122SOL    HW225266   0.258   4.556   2.790
 8123SOL     OW25267   6.876   1.830   6.602
 8123SOL    HW125268   6.917   1.865   6.686
 8123SOL    HW225269   6.939   1.843   6.526
 8124SOL     OW25270   4.875   5.972   2.010
 8124SOL    HW125271   4.888   5.885   1.963
 8124SOL    HW225272   4.958   5.997   2.059
 8125SOL     OW25273   1.516   2.043   3.628
 8125SOL    HW125274   1.493   2.042   3.725
 8125SOL    HW225275   1.576   1.967   3.607
 8126SOL     OW25276   5.355   4.684   3.174
 8126SOL    HW125277   5.295   4.756   3.140
 8126SOL    HW225278   5.306   4.597   3.173
 8127SOL     OW25279   2.576   3.130   6.306
 8127SOL    HW125280   2.640   3.150   6.380
 8127SOL    HW225281   2.499   3.194   6.310
 8128SOL     OW25282   2.902   2.213   2.345
 8128SOL    HW125283   2.906   2.236   2.248
 8128SOL    HW225284   2.844   2.280   2.393
 8129SOL     OW25285   3.947   1.309   5.964
 8129SOL    HW125286   4.001   1.311   6.049
 8129SOL    HW225287   3.886   1.230   5.965
 8130SOL     OW25288   0.789   4.299   6.730
 8130SOL    HW125289   0.689   4.294   6.726
 8130SOL    HW225290   0.826   4.211   6.760
 8131SOL     OW25291   2.303   1.888   1.472
 8131SOL    HW125292   2.225   1.860   1.416
 8131SOL    HW225293   2.346   1.969   1.431
 8132SOL     OW25294   5.381   6.876   5.099
 8132SOL    HW125295   5.467   6.879   5.048
 8132SOL    HW225296   5.335   6.789   5.082
 8133SOL     OW25297   2.998   5.146   2.265
 8133SOL    HW125298   3.060   5.094   2.323
 8133SOL    HW225299   3.049   5.192   2.193
 8134SOL     OW25300   0.108   1.828   6.452
 8134SOL    HW125301   0.043   1.862   6.385
 8134SOL    HW225302   0.199   1.864   6.431
 8135SOL     OW25303   2.784   0.548   1.376
 8135SOL    HW125304   2.729   0.608   1.434
 8135SOL    HW225305   2.758   0.559   1.281
 8136SOL     OW25306   4.610   5.446   3.042
 8136SOL    HW125307   4.667   5.490   2.973
 8136SOL    HW225308   4.662   5.431   3.125
 8137SOL     OW25309   2.826   1.598   5.136
 8137SOL    HW125310   2.854   1.690   5.165
 8137SOL    HW225311   2.790   1.602   5.043
 8138SOL     OW25312   5.119   1.253   0.907
 8138SOL    HW125313   5.020   1.240   0.916
 8138SOL    HW225314   5.141   1.351   0.910
 8139SOL     OW25315   0.200   0.632   1.876
 8139SOL    HW125316   0.171   0.727   1.879
 8139SOL    HW225317   0.167   0.590   1.791
 8140SOL     OW25318   5.810   0.486   5.951
 8140SOL    HW125319   5.714   0.483   5.979
 8140SOL    HW225320   5.865   0.526   6.024
 8141SOL     OW25321   4.471   5.088   4.810
 8141SOL    HW125322   4.441   5.029   4.735
 8141SOL    HW225323   4.468   5.183   4.780
 8142SOL     OW25324   0.191   5.240   6.944
 8142SOL    HW125325   0.248   5.322   6.950
 8142SOL    HW225326   0.235   5.165   6.992
 8143SOL     OW25327   5.648   4.195   0.653
 8143SOL    HW125328   5.731   4.179   0.600
 8143SOL    HW225329   5.638   4.293   0.671
 8144SOL     OW25330   6.196   6.350   6.568
 8144SOL    HW125331   6.202   6.250   6.565
 8144SOL    HW225332   6.288   6.389   6.557
 8145SOL     OW25333   5.283   6.295   1.140
 8145SOL    HW125334   5.292   6.235   1.061
 8145SOL    HW225335   5.334   6.379   1.124
 8146SOL     OW25336   4.078   0.808   4.715
 8146SOL    HW125337   4.150   0.868   4.748
 8146SOL    HW225338   4.117   0.742   4.651
 8147SOL     OW25339   5.970   2.117   1.747
 8147SOL    HW125340   5.894   2.178   1.769
 8147SOL    HW225341   5.963   2.089   1.651
 8148SOL     OW25342   5.422   4.385   1.430
 8148SOL    HW125343   5.503   4.399   1.373
 8148SOL    HW225344   5.340   4.390   1.372
 8149SOL     OW25345   2.343   5.903   2.182
 8149SOL    HW125346   2.280   5.835   2.145
 8149SOL    HW225347   2.419   5.857   2.228
 8150SOL     OW25348   0.153   4.788   6.839
 8150SOL    HW125349   0.226   4.794   6.771
 8150SOL    HW225350   0.066   4.815   6.796
 8151SOL     OW25351   6.374   2.119   1.682
 8151SOL    HW125352   6.320   2.169   1.750
 8151SOL    HW225353   6.468   2.152   1.683
 8152SOL     OW25354   0.400   1.891   3.099
 8152SOL    HW125355   0.456   1.945   3.037
 8152SOL    HW225356   0.459   1.837   3.159
 8153SOL     OW25357   3.253   0.417   2.701
 8153SOL    HW125358   3.309   0.391   2.780
 8153SOL    HW225359   3.310   0.423   2.619
 8154SOL     OW25360   2.857   5.918   3.845
 8154SOL    HW125361   2.784   5.911   3.913
 8154SOL    HW225362   2.905   6.005   3.856
 8155SOL     OW25363   2.398   3.710   1.700
 8155SOL    HW125364   2.377   3.638   1.767
 8155SOL    HW225365   2.361   3.684   1.611
 8156SOL     OW25366   4.999   6.956   6.373
 8156SOL    HW125367   4.977   6.904   6.455
 8156SOL    HW225368   4.916   6.998   6.336
 8157SOL     OW25369   5.831   5.232   6.448
 8157SOL    HW125370   5.737   5.264   6.439
 8157SOL    HW225371   5.871   5.271   6.531
 8158SOL     OW25372   0.161   5.027   1.431
 8158SOL    HW125373   0.248   5.012   1.385
 8158SOL    HW225374   0.101   4.948   1.414
 8159SOL     OW25375   2.497   6.245   2.958
 8159SOL    HW125376   2.566   6.274   2.891
 8159SOL    HW225377   2.533   6.259   3.051
 8160SOL     OW25378   4.557   1.499   2.355
 8160SOL    HW125379   4.499   1.576   2.327
 8160SOL    HW225380   4.613   1.527   2.433
 8161SOL     OW25381   5.054   1.360   0.062
 8161SOL    HW125382   5.133   1.352   0.123
 8161SOL    HW225383   5.010   1.271   0.052
 8162SOL     OW25384   6.658   6.470   6.089
 8162SOL    HW125385   6.686   6.471   6.185
 8162SOL    HW225386   6.666   6.377   6.053
 8163SOL     OW25387   2.720   3.462   5.592
 8163SOL    HW125388   2.654   3.535   5.610
 8163SOL    HW225389   2.783   3.490   5.520
 8164SOL     OW25390   6.133   3.336   0.551
 8164SOL    HW125391   6.037   3.326   0.526
 8164SOL    HW225392   6.169   3.421   0.513
 8165SOL     OW25393   1.050   5.236   6.685
 8165SOL    HW125394   1.074   5.236   6.588
 8165SOL    HW225395   1.133   5.229   6.740
 8166SOL     OW25396   2.166   1.240   2.105
 8166SOL    HW125397   2.116   1.242   2.191
 8166SOL    HW225398   2.264   1.232   2.123
 8167SOL     OW25399   5.969   1.218   4.272
 8167SOL    HW125400   6.037   1.259   4.212
 8167SOL    HW225401   5.878   1.252   4.247
 8168SOL     OW25402   3.139   1.529   3.262
 8168SOL    HW125403   3.187   1.447   3.292
 8168SOL    HW225404   3.108   1.580   3.343
 8169SOL     OW25405   4.996   3.213   1.417
 8169SOL    HW125406   5.053   3.196   1.337
 8169SOL    HW225407   4.917   3.269   1.390
 8170SOL     OW25408   1.382   5.754   2.690
 8170SOL    HW125409   1.408   5.714   2.603
 8170SOL    HW225410   1.445   5.723   2.761
 8171SOL     OW25411   1.084   1.631   0.247
 8171SOL    HW125412   1.003   1.573   0.256
 8171SOL    HW225413   1.146   1.612   0.323
 8172SOL     OW25414   0.701   0.892   2.071
 8172SOL    HW125415   0.713   0.931   2.163
 8172SOL    HW225416   0.621   0.934   2.027
 8173SOL     OW25417   3.542   1.678   0.491
 8173SOL    HW125418   3.639   1.698   0.497
 8173SOL    HW225419   3.496   1.750   0.438
 8174SOL     OW25420   4.766   2.032   0.422
 8174SOL    HW125421   4.851   2.075   0.452
 8174SOL    HW225422   4.735   1.967   0.491
 8175SOL     OW25423   0.201   2.536   5.623
 8175SOL    HW125424   0.182   2.582   5.710
 8175SOL    HW225425   0.205   2.437   5.637
 8176SOL     OW25426   2.508   5.551   2.384
 8176SOL    HW125427   2.508   5.542   2.483
 8176SOL    HW225428   2.582   5.495   2.346
 8177SOL     OW25429   2.059   6.556   4.071
 8177SOL    HW125430   2.051   6.650   4.039
 8177SOL    HW225431   2.052   6.554   4.170
 8178SOL     OW25432   1.907   6.789   6.779
 8178SOL    HW125433   1.936   6.882   6.755
 8178SOL    HW225434   1.962   6.757   6.857
 8179SOL     OW25435   3.410   2.811   0.008
 8179SOL    HW125436   3.390   2.794   6.936
 8179SOL    HW225437   3.456   2.899   0.017
 8180SOL     OW25438   6.675   0.335   4.583
 8180SOL    HW125439   6.664   0.296   4.674
 8180SOL    HW225440   6.650   0.266   4.514
 8181SOL     OW25441   1.844   1.262   2.380
 8181SOL    HW125442   1.758   1.227   2.343
 8181SOL    HW225443   1.840   1.264   2.480
 8182SOL     OW25444   3.996   1.679   0.000
 8182SOL    HW125445   4.000   1.771   6.985
 8182SOL    HW225446   3.952   1.684   0.090
 8183SOL     OW25447   0.564   2.324   5.264
 8183SOL    HW125448   0.599   2.232   5.279
 8183SOL    HW225449   0.540   2.335   5.167
 8184SOL     OW25450   5.767   1.514   5.906
 8184SOL    HW125451   5.863   1.525   5.881
 8184SOL    HW225452   5.709   1.537   5.828
 8185SOL     OW25453   3.363   0.282   0.425
 8185SOL    HW125454   3.284   0.336   0.454
 8185SOL    HW225455   3.334   0.189   0.405
 8186SOL     OW25456   3.061   6.053   6.402
 8186SOL    HW125457   2.981   6.004   6.434
 8186SOL    HW225458   3.102   6.103   6.479
 8187SOL     OW25459   1.727   2.238   4.944
 8187SOL    HW125460   1.715   2.260   5.041
 8187SOL    HW225461   1.701   2.316   4.888
 8188SOL     OW25462   5.746   1.921   2.614
 8188SOL    HW125463   5.669   1.948   2.672
 8188SOL    HW225464   5.743   1.972   2.528
 8189SOL     OW25465   5.221   4.122   2.092
 8189SOL    HW125466   5.317   4.141   2.108
 8189SOL    HW225467   5.165   4.194   2.133
 8190SOL     OW25468   5.170   5.799   4.314
 8190SOL    HW125469   5.128   5.751   4.391
 8190SOL    HW225470   5.171   5.739   4.234
 8191SOL     OW25471   2.827   5.372   3.645
 8191SOL    HW125472   2.811   5.384   3.743
 8191SOL    HW225473   2.923   5.349   3.629
 8192SOL     OW25474   2.882   5.669   6.939
 8192SOL    HW125475   2.841   5.692   0.003
 8192SOL    HW225476   2.960   5.609   6.953
 8193SOL     OW25477   6.560   0.135   4.382
 8193SOL    HW125478   6.616   0.193   4.322
 8193SOL    HW225479   6.473   0.115   4.337
 8194SOL     OW25480   5.992   2.656   0.140
 8194SOL    HW125481   5.962   2.576   0.192
 8194SOL    HW225482   6.089   2.672   0.156
 8195SOL     OW25483   0.541   0.832   0.761
 8195SOL    HW125484   0.542   0.816   0.859
 8195SOL    HW225485   0.476   0.770   0.717
 8196SOL     OW25486   3.762   6.893   5.590
 8196SOL    HW125487   3.767   6.944   5.676
 8196SOL    HW225488   3.676   6.915   5.543
 8197SOL     OW25489   5.362   1.559   6.022
 8197SOL    HW125490   5.294   1.549   6.095
 8197SOL    HW225491   5.317   1.595   5.940
 8198SOL     OW25492   3.064   0.007   2.240
 8198SOL    HW125493   3.054   6.944   2.289
 8198SOL    HW225494   3.040   7.018   2.144
 8199SOL     OW25495   6.870   3.966   0.434
 8199SOL    HW125496   6.868   3.961   0.534
 8199SOL    HW225497   6.921   4.047   0.405
 8200SOL     OW25498   4.648   3.971   1.230
 8200SOL    HW125499   4.575   3.906   1.212
 8200SOL    HW225500   4.632   4.016   1.318
 8201SOL     OW25501   5.255   0.980   4.757
 8201SOL    HW125502   5.201   1.049   4.710
 8201SOL    HW225503   5.329   1.024   4.809
 8202SOL     OW25504   1.213   5.598   4.358
 8202SOL    HW125505   1.173   5.663   4.294
 8202SOL    HW225506   1.311   5.590   4.340
 8203SOL     OW25507   4.793   3.430   0.150
 8203SOL    HW125508   4.829   3.523   0.153
 8203SOL    HW225509   4.698   3.432   0.117
 8204SOL     OW25510   3.414   5.389   1.042
 8204SOL    HW125511   3.500   5.368   1.089
 8204SOL    HW225512   3.397   5.487   1.047
 8205SOL     OW25513   6.420   4.694   2.144
 8205SOL    HW125514   6.415   4.595   2.152
 8205SOL    HW225515   6.502   4.719   2.093
 8206SOL     OW25516   3.065   2.198   5.359
 8206SOL    HW125517   3.004   2.256   5.413
 8206SOL    HW225518   3.105   2.252   5.285
 8207SOL     OW25519   3.729   4.709   5.397
 8207SOL    HW125520   3.637   4.677   5.375
 8207SOL    HW225521   3.744   4.798   5.354
 8208SOL     OW25522   2.418   6.686   1.603
 8208SOL    HW125523   2.500   6.725   1.645
 8208SOL    HW225524   2.442   6.601   1.556
 8209SOL     OW25525   0.846   1.352   5.394
 8209SOL    HW125526   0.803   1.270   5.357
 8209SOL    HW225527   0.799   1.433   5.358
 8210SOL     OW25528   3.406   0.594   6.973
 8210SOL    HW125529   3.414   0.494   6.975
 8210SOL    HW225530   3.388   0.624   6.879
 8211SOL     OW25531   3.582   4.180   4.292
 8211SOL    HW125532   3.678   4.151   4.298
 8211SOL    HW225533   3.577   4.280   4.288
 8212SOL     OW25534   3.318   0.798   0.746
 8212SOL    HW125535   3.277   0.878   0.702
 8212SOL    HW225536   3.314   0.720   0.682
 8213SOL     OW25537   4.771   5.121   3.392
 8213SOL    HW125538   4.701   5.120   3.464
 8213SOL    HW225539   4.726   5.119   3.303
 8214SOL     OW25540   2.184   6.070   3.719
 8214SOL    HW125541   2.246   6.052   3.795
 8214SOL    HW225542   2.137   6.157   3.734
 8215SOL     OW25543   4.437   5.538   0.143
 8215SOL    HW125544   4.495   5.574   0.069
 8215SOL    HW225545   4.495   5.497   0.213
 8216SOL     OW25546   5.550   0.064   3.249
 8216SOL    HW125547   5.574   0.135   3.316
 8216SOL    HW225548   5.455   0.035   3.264
 8217SOL     OW25549   2.218   4.152   2.253
 8217SOL    HW125550   2.134   4.193   2.217
 8217SOL    HW225551   2.293   4.167   2.188
 8218SOL     OW25552   1.579   0.285   4.568
 8218SOL    HW125553   1.503   0.239   4.612
 8218SOL    HW225554   1.630   0.339   4.636
 8219SOL     OW25555   2.993   4.331   1.057
 8219SOL    HW125556   3.078   4.382   1.050
 8219SOL    HW225557   3.000   4.264   1.131
 8220SOL     OW25558   3.449   4.252   5.265
 8220SOL    HW125559   3.534   4.217   5.225
 8220SOL    HW225560   3.371   4.204   5.224
 8221SOL     OW25561   6.043   4.193   3.201
 8221SOL    HW125562   5.944   4.195   3.192
 8221SOL    HW225563   6.083   4.147   3.121
 8222SOL     OW25564   5.575   2.251   0.466
 8222SOL    HW125565   5.592   2.265   0.368
 8222SOL    HW225566   5.644   2.301   0.518
 8223SOL     OW25567   0.012   4.875   5.660
 8223SOL    HW125568   0.095   4.917   5.697
 8223SOL    HW225569   7.024   4.904   5.565
 8224SOL     OW25570   4.242   2.025   1.115
 8224SOL    HW125571   4.338   1.999   1.122
 8224SOL    HW225572   4.203   1.985   1.032
 8225SOL     OW25573   4.350   6.876   0.868
 8225SOL    HW125574   4.421   6.933   0.828
 8225SOL    HW225575   4.261   6.918   0.851
 8226SOL     OW25576   3.612   0.299   0.291
 8226SOL    HW125577   3.524   0.292   0.337
 8226SOL    HW225578   3.629   0.216   0.238
 8227SOL     OW25579   6.191   1.391   2.475
 8227SOL    HW125580   6.281   1.364   2.441
 8227SOL    HW225581   6.163   1.331   2.550
 8228SOL     OW25582   0.477   1.111   5.413
 8228SOL    HW125583   0.434   1.023   5.393
 8228SOL    HW225584   0.494   1.118   5.511
 8229SOL     OW25585   4.535   4.274   1.060
 8229SOL    HW125586   4.468   4.209   1.095
 8229SOL    HW225587   4.612   4.224   1.020
 8230SOL     OW25588   4.230   0.072   5.431
 8230SOL    HW125589   4.130   0.074   5.429
 8230SOL    HW225590   4.265   0.164   5.446
 8231SOL     OW25591   3.243   1.697   2.277
 8231SOL    HW125592   3.149   1.708   2.309
 8231SOL    HW225593   3.302   1.668   2.352
 8232SOL     OW25594   5.584   1.197   2.246
 8232SOL    HW125595   5.580   1.197   2.146
 8232SOL    HW225596   5.653   1.263   2.276
 8233SOL     OW25597   0.910   0.366   5.827
 8233SOL    HW125598   0.990   0.413   5.864
 8233SOL    HW225599   0.832   0.428   5.826
 8234SOL     OW25600   3.502   3.345   0.212
 8234SOL    HW125601   3.589   3.393   0.225
 8234SOL    HW225602   3.428   3.399   0.254
 8235SOL     OW25603   6.919   4.378   0.142
 8235SOL    HW125604   6.980   4.452   0.115
 8235SOL    HW225605   6.838   4.378   0.083
 8236SOL     OW25606   0.164   6.036   5.838
 8236SOL    HW125607   0.086   6.036   5.901
 8236SOL    HW225608   0.219   6.118   5.853
 8237SOL     OW25609   4.321   5.377   6.079
 8237SOL    HW125610   4.343   5.312   6.007
 8237SOL    HW225611   4.281   5.328   6.157
 8238SOL     OW25612   1.190   5.619   6.948
 8238SOL    HW125613   1.115   5.558   6.972
 8238SOL    HW225614   1.198   5.691   7.016
 8239SOL     OW25615   0.290   1.059   4.864
 8239SOL    HW125616   0.236   1.006   4.799
 8239SOL    HW225617   0.293   1.012   4.952
 8240SOL     OW25618   3.048   3.394   3.251
 8240SOL    HW125619   3.039   3.295   3.239
 8240SOL    HW225620   3.113   3.430   3.184
 8241SOL     OW25621   1.036   3.329   0.078
 8241SOL    HW125622   1.029   3.229   0.082
 8241SOL    HW225623   1.122   3.354   0.034
 8242SOL     OW25624   0.997   3.513   4.715
 8242SOL    HW125625   0.903   3.537   4.738
 8242SOL    HW225626   1.039   3.467   4.794
 8243SOL     OW25627   0.472   4.416   5.993
 8243SOL    HW125628   0.481   4.321   6.023
 8243SOL    HW225629   0.518   4.477   6.058
 8244SOL     OW25630   1.183   0.939   3.515
 8244SOL    HW125631   1.281   0.954   3.527
 8244SOL    HW225632   1.132   1.002   3.574
 8245SOL     OW25633   4.690   1.989   3.458
 8245SOL    HW125634   4.641   1.909   3.492
 8245SOL    HW225635   4.747   1.962   3.380
 8246SOL     OW25636   1.109   4.171   6.222
 8246SOL    HW125637   1.072   4.263   6.233
 8246SOL    HW225638   1.040   4.111   6.180
 8247SOL     OW25639   3.266   5.332   4.007
 8247SOL    HW125640   3.223   5.244   4.028
 8247SOL    HW225641   3.197   5.394   3.968
 8248SOL     OW25642   1.386   6.010   4.408
 8248SOL    HW125643   1.349   5.974   4.323
 8248SOL    HW225644   1.474   6.054   4.390
 8249SOL     OW25645   2.414   1.751   5.414
 8249SOL    HW125646   2.493   1.695   5.437
 8249SOL    HW225647   2.357   1.763   5.495
 8250SOL     OW25648   3.085   1.598   0.794
 8250SOL    HW125649   3.007   1.618   0.734
 8250SOL    HW225650   3.170   1.617   0.746
 8251SOL     OW25651   6.242   2.059   4.246
 8251SOL    HW125652   6.152   2.042   4.206
 8251SOL    HW225653   6.250   2.156   4.271
 8252SOL     OW25654   2.587   1.857   6.471
 8252SOL    HW125655   2.515   1.919   6.502
 8252SOL    HW225656   2.667   1.910   6.442
 8253SOL     OW25657   3.961   5.814   6.498
 8253SOL    HW125658   3.941   5.735   6.557
 8253SOL    HW225659   3.912   5.804   6.412
 8254SOL     OW25660   5.941   5.056   5.912
 8254SOL    HW125661   6.006   5.105   5.853
 8254SOL    HW225662   5.881   5.122   5.957
 8255SOL     OW25663   1.128   6.870   6.230
 8255SOL    HW125664   1.061   6.904   6.296
 8255SOL    HW225665   1.140   6.771   6.242
 8256SOL     OW25666   6.837   6.836   2.983
 8256SOL    HW125667   6.868   6.928   3.006
 8256SOL    HW225668   6.907   6.789   2.929
 8257SOL     OW25669   5.921   4.117   4.128
 8257SOL    HW125670   5.824   4.094   4.124
 8257SOL    HW225671   5.936   4.189   4.195
 8258SOL     OW25672   5.651   2.733   0.922
 8258SOL    HW125673   5.570   2.788   0.900
 8258SOL    HW225674   5.732   2.775   0.881
 8259SOL     OW25675   3.915   1.871   4.817
 8259SOL    HW125676   3.980   1.857   4.743
 8259SOL    HW225677   3.877   1.963   4.812
 8260SOL     OW25678   1.914   6.657   0.621
 8260SOL    HW125679   1.962   6.742   0.599
 8260SOL    HW225680   1.827   6.679   0.664
 8261SOL     OW25681   5.558   6.627   3.322
 8261SOL    HW125682   5.582   6.721   3.345
 8261SOL    HW225683   5.527   6.579   3.404
 8262SOL     OW25684   0.283   5.066   0.411
 8262SOL    HW125685   0.267   4.987   0.351
 8262SOL    HW225686   0.375   5.100   0.396
 8263SOL     OW25687   6.911   2.641   6.596
 8263SOL    HW125688   6.975   2.680   6.664
 8263SOL    HW225689   6.817   2.662   6.623
 8264SOL     OW25690   1.387   6.837   1.430
 8264SOL    HW125691   1.388   6.737   1.441
 8264SOL    HW225692   1.312   6.875   1.485
 8265SOL     OW25693   3.981   0.262   1.688
 8265SOL    HW125694   4.063   0.319   1.692
 8265SOL    HW225695   3.978   0.212   1.602
 8266SOL     OW25696   2.941   0.437   4.601
 8266SOL    HW125697   3.013   0.396   4.657
 8266SOL    HW225698   2.867   0.372   4.588
 8267SOL     OW25699   1.266   5.090   2.317
 8267SOL    HW125700   1.333   5.099   2.390
 8267SOL    HW225701   1.270   4.996   2.280
 8268SOL     OW25702   2.257   3.952   6.892
 8268SOL    HW125703   2.315   4.022   6.934
 8268SOL    HW225704   2.299   3.922   6.806
 8269SOL     OW25705   4.723   2.810   3.182
 8269SOL    HW125706   4.703   2.903   3.212
 8269SOL    HW225707   4.790   2.769   3.243
 8270SOL     OW25708   2.492   6.379   5.780
 8270SOL    HW125709   2.407   6.330   5.760
 8270SOL    HW225710   2.563   6.350   5.715
 8271SOL     OW25711   6.065   6.519   4.758
 8271SOL    HW125712   6.029   6.588   4.695
 8271SOL    HW225713   5.989   6.471   4.801
 8272SOL     OW25714   0.191   0.496   2.111
 8272SOL    HW125715   0.172   0.553   2.030
 8272SOL    HW225716   0.232   0.410   2.082
 8273SOL     OW25717   3.168   6.784   7.007
 8273SOL    HW125718   3.146   6.686   7.011
 8273SOL    HW225719   3.267   6.796   7.017
 8274SOL     OW25720   4.064   4.251   6.680
 8274SOL    HW125721   4.015   4.337   6.666
 8274SOL    HW225722   4.158   4.260   6.648
 8275SOL     OW25723   6.288   0.190   4.773
 8275SOL    HW125724   6.346   0.228   4.845
 8275SOL    HW225725   6.265   0.262   4.708
 8276SOL     OW25726   6.587   2.633   5.960
 8276SOL    HW125727   6.556   2.713   5.908
 8276SOL    HW225728   6.687   2.627   5.956
 8277SOL     OW25729   2.216   5.544   5.409
 8277SOL    HW125730   2.250   5.587   5.493
 8277SOL    HW225731   2.253   5.592   5.329
 8278SOL     OW25732   3.353   1.148   6.283
 8278SOL    HW125733   3.302   1.127   6.199
 8278SOL    HW225734   3.449   1.122   6.271
 8279SOL     OW25735   5.141   5.719   6.994
 8279SOL    HW125736   5.192   5.760   6.918
 8279SOL    HW225737   5.181   5.630   7.017
 8280SOL     OW25738   4.273   2.448   6.829
 8280SOL    HW125739   4.301   2.377   6.893
 8280SOL    HW225740   4.353   2.483   6.780
 8281SOL     OW25741   1.907   4.361   0.579
 8281SOL    HW125742   1.820   4.376   0.627
 8281SOL    HW225743   1.982   4.398   0.634
 8282SOL     OW25744   2.955   2.168   1.011
 8282SOL    HW125745   2.927   2.247   0.956
 8282SOL    HW225746   2.936   2.188   1.108
 8283SOL     OW25747   0.514   5.173   3.863
 8283SOL    HW125748   0.433   5.204   3.813
 8283SOL    HW225749   0.562   5.105   3.809
 8284SOL     OW25750   1.923   2.501   2.510
 8284SOL    HW125751   2.005   2.535   2.462
 8284SOL    HW225752   1.908   2.405   2.485
 8285SOL     OW25753   3.249   3.727   5.806
 8285SOL    HW125754   3.347   3.728   5.822
 8285SOL    HW225755   3.212   3.820   5.814
 8286SOL     OW25756   5.335   1.201   4.499
 8286SOL    HW125757   5.356   1.297   4.518
 8286SOL    HW225758   5.419   1.149   4.490
 8287SOL     OW25759   1.435   6.837   4.570
 8287SOL    HW125760   1.404   6.929   4.548
 8287SOL    HW225761   1.420   6.777   4.491
 8288SOL     OW25762   1.649   2.154   2.225
 8288SOL    HW125763   1.573   2.119   2.280
 8288SOL    HW225764   1.731   2.161   2.281
 8289SOL     OW25765   6.206   0.658   5.668
 8289SOL    HW125766   6.112   0.679   5.642
 8289SOL    HW225767   6.217   0.673   5.767
 8290SOL     OW25768   4.004   3.346   1.766
 8290SOL    HW125769   4.002   3.341   1.666
 8290SOL    HW225770   4.035   3.258   1.803
 8291SOL     OW25771   5.922   6.578   6.415
 8291SOL    HW125772   5.926   6.482   6.442
 8291SOL    HW225773   5.827   6.605   6.398
 8292SOL     OW25774   1.989   4.951   5.590
 8292SOL    HW125775   2.070   5.006   5.611
 8292SOL    HW225776   1.933   4.942   5.673
 8293SOL     OW25777   2.044   4.453   1.981
 8293SOL    HW125778   2.141   4.457   1.960
 8293SOL    HW225779   1.997   4.397   1.913
 8294SOL     OW25780   6.405   3.613   5.595
 8294SOL    HW125781   6.307   3.621   5.577
 8294SOL    HW225782   6.440   3.701   5.628
 8295SOL     OW25783   4.830   4.019   3.137
 8295SOL    HW125784   4.901   4.020   3.207
 8295SOL    HW225785   4.829   3.930   3.091
 8296SOL     OW25786   3.667   5.755   6.863
 8296SOL    HW125787   3.578   5.718   6.889
 8296SOL    HW225788   3.655   5.827   6.795
 8297SOL     OW25789   6.090   3.712   1.782
 8297SOL    HW125790   6.130   3.721   1.873
 8297SOL    HW225791   6.034   3.792   1.762
 8298SOL     OW25792   0.741   0.879   6.227
 8298SOL    HW125793   0.713   0.946   6.296
 8298SOL    HW225794   0.691   0.896   6.142
 8299SOL     OW25795   0.215   3.824   1.416
 8299SOL    HW125796   0.298   3.775   1.390
 8299SOL    HW225797   0.195   3.808   1.513
 8300SOL     OW25798   5.989   5.732   4.108
 8300SOL    HW125799   5.921   5.707   4.038
 8300SOL    HW225800   5.942   5.763   4.190
 8301SOL     OW25801   4.415   0.169   6.748
 8301SOL    HW125802   4.492   0.201   6.803
 8301SOL    HW225803   4.330   0.209   6.783
 8302SOL     OW25804   3.286   6.885   5.112
 8302SOL    HW125805   3.213   6.822   5.085
 8302SOL    HW225806   3.322   6.858   5.201
 8303SOL     OW25807   6.885   0.345   2.615
 8303SOL    HW125808   6.853   0.250   2.605
 8303SOL    HW225809   6.823   0.394   2.676
 8304SOL     OW25810   5.550   4.134   3.094
 8304SOL    HW125811   5.634   4.089   3.124
 8304SOL    HW225812   5.559   4.233   3.108
 8305SOL     OW25813   4.580   5.173   4.135
 8305SOL    HW125814   4.531   5.118   4.202
 8305SOL    HW225815   4.574   5.270   4.160
 8306SOL     OW25816   6.302   0.936   2.469
 8306SOL    HW125817   6.379   0.960   2.410
 8306SOL    HW225818   6.233   0.887   2.415
 8307SOL     OW25819   1.382   5.161   1.010
 8307SOL    HW125820   1.321   5.211   1.072
 8307SOL    HW225821   1.374   5.198   0.918
 8308SOL     OW25822   1.354   4.079   0.244
 8308SOL    HW125823   1.392   3.989   0.223
 8308SOL    HW225824   1.426   4.138   0.281
 8309SOL     OW25825   6.626   4.959   4.843
 8309SOL    HW125826   6.621   4.954   4.942
 8309SOL    HW225827   6.663   5.048   4.816
 8310SOL     OW25828   0.944   6.419   1.112
 8310SOL    HW125829   0.901   6.396   1.200
 8310SOL    HW225830   0.963   6.517   1.109
 8311SOL     OW25831   5.437   7.021   4.217
 8311SOL    HW125832   5.534   0.009   4.238
 8311SOL    HW225833   5.408   6.930   4.247
 8312SOL     OW25834   5.509   0.288   0.330
 8312SOL    HW125835   5.419   0.302   0.371
 8312SOL    HW225836   5.553   0.376   0.315
 8313SOL     OW25837   3.956   0.010   5.374
 8313SOL    HW125838   3.955   7.003   5.279
 8313SOL    HW225839   3.973   6.956   5.434
 8314SOL     OW25840   5.634   6.347   6.570
 8314SOL    HW125841   5.616   6.253   6.540
 8314SOL    HW225842   5.547   6.394   6.587
 8315SOL     OW25843   3.721   3.911   3.893
 8315SOL    HW125844   3.765   3.943   3.809
 8315SOL    HW225845   3.749   3.817   3.912
 8316SOL     OW25846   1.076   3.365   6.520
 8316SOL    HW125847   1.143   3.340   6.590
 8316SOL    HW225848   0.984   3.343   6.552
 8317SOL     OW25849   2.080   2.121   4.676
 8317SOL    HW125850   2.049   2.137   4.769
 8317SOL    HW225851   2.087   2.208   4.627
 8318SOL     OW25852   4.350   1.187   6.024
 8318SOL    HW125853   4.262   1.195   6.072
 8318SOL    HW225854   4.336   1.200   5.926
 8319SOL     OW25855   1.119   0.570   5.958
 8319SOL    HW125856   1.119   0.641   5.887
 8319SOL    HW225857   1.203   0.576   6.011
 8320SOL     OW25858   3.428   4.156   3.685
 8320SOL    HW125859   3.507   4.159   3.746
 8320SOL    HW225860   3.346   4.129   3.737
 8321SOL     OW25861   0.054   0.633   6.465
 8321SOL    HW125862   0.134   0.680   6.503
 8321SOL    HW225863   0.081   0.543   6.432
 8322SOL     OW25864   0.003   1.129   0.550
 8322SOL    HW125865   0.059   1.211   0.560
 8322SOL    HW225866   0.059   1.048   0.564
 8323SOL     OW25867   4.874   4.572   1.290
 8323SOL    HW125868   4.898   4.475   1.302
 8323SOL    HW225869   4.936   4.614   1.224
 8324SOL     OW25870   5.926   0.440   0.052
 8324SOL    HW125871   5.890   0.347   0.044
 8324SOL    HW225872   6.025   0.438   0.061
 8325SOL     OW25873   1.313   5.099   5.119
 8325SOL    HW125874   1.361   5.112   5.206
 8325SOL    HW225875   1.338   5.173   5.056
 8326SOL     OW25876   3.183   3.809   0.043
 8326SOL    HW125877   3.166   3.778   0.136
 8326SOL    HW225878   3.238   3.741   7.019
 8327SOL     OW25879   0.647   0.837   5.222
 8327SOL    HW125880   0.693   0.748   5.219
 8327SOL    HW225881   0.573   0.834   5.288
 8328SOL     OW25882   0.869   6.274   5.725
 8328SOL    HW125883   0.896   6.317   5.811
 8328SOL    HW225884   0.775   6.300   5.703
 8329SOL     OW25885   1.002   2.797   5.324
 8329SOL    HW125886   1.049   2.716   5.290
 8329SOL    HW225887   0.904   2.778   5.333
 8330SOL     OW25888   3.732   1.112   6.200
 8330SOL    HW125889   3.776   1.040   6.147
 8330SOL    HW225890   3.687   1.072   6.280
 8331SOL     OW25891   2.456   2.127   0.512
 8331SOL    HW125892   2.444   2.080   0.425
 8331SOL    HW225893   2.491   2.219   0.497
 8332SOL     OW25894   5.492   5.300   2.248
 8332SOL    HW125895   5.480   5.250   2.333
 8332SOL    HW225896   5.415   5.280   2.187
 8333SOL     OW25897   1.677   5.094   0.761
 8333SOL    HW125898   1.651   5.190   0.772
 8333SOL    HW225899   1.608   5.048   0.706
 8334SOL     OW25900   3.253   1.390   6.408
 8334SOL    HW125901   3.178   1.456   6.404
 8334SOL    HW225902   3.252   1.333   6.325
 8335SOL     OW25903   4.087   2.546   6.533
 8335SOL    HW125904   4.179   2.577   6.559
 8335SOL    HW225905   4.040   2.510   6.614
 8336SOL     OW25906   1.453   3.905   2.423
 8336SOL    HW125907   1.436   3.838   2.350
 8336SOL    HW225908   1.498   3.859   2.500
 8337SOL     OW25909   0.961   0.657   5.000
 8337SOL    HW125910   0.932   0.671   4.905
 8337SOL    HW225911   1.030   0.725   5.025
 8338SOL     OW25912   4.034   4.802   2.262
 8338SOL    HW125913   3.936   4.815   2.247
 8338SOL    HW225914   4.070   4.740   2.191
 8339SOL     OW25915   6.954   0.839   0.492
 8339SOL    HW125916   6.995   0.779   0.423
 8339SOL    HW225917   6.997   0.822   0.581
 8340SOL     OW25918   5.180   3.027   0.609
 8340SOL    HW125919   5.089   3.067   0.623
 8340SOL    HW225920   5.246   3.101   0.595
 8341SOL     OW25921   3.310   0.549   6.285
 8341SOL    HW125922   3.331   0.475   6.221
 8341SOL    HW225923   3.322   0.515   6.379
 8342SOL     OW25924   3.388   6.068   0.130
 8342SOL    HW125925   3.364   5.976   0.097
 8342SOL    HW225926   3.376   6.133   0.055
 8343SOL     OW25927   6.609   5.301   3.810
 8343SOL    HW125928   6.601   5.269   3.715
 8343SOL    HW225929   6.518   5.305   3.851
 8344SOL     OW25930   0.395   4.618   3.932
 8344SOL    HW125931   0.450   4.560   3.993
 8344SOL    HW225932   0.367   4.565   3.852
 8345SOL     OW25933   5.376   1.385   3.461
 8345SOL    HW125934   5.326   1.471   3.460
 8345SOL    HW225935   5.387   1.351   3.368
 8346SOL     OW25936   4.092   2.917   6.090
 8346SOL    HW125937   4.006   2.949   6.132
 8346SOL    HW225938   4.123   2.984   6.023
 8347SOL     OW25939   2.190   6.601   6.313
 8347SOL    HW125940   2.213   6.621   6.409
 8347SOL    HW225941   2.133   6.519   6.309
 8348SOL     OW25942   2.830   6.979   1.462
 8348SOL    HW125943   2.828   6.894   1.411
 8348SOL    HW225944   2.837   6.960   1.560
 8349SOL     OW25945   0.847   6.528   1.590
 8349SOL    HW125946   0.936   6.568   1.613
 8349SOL    HW225947   0.780   6.554   1.660
 8350SOL     OW25948   2.943   6.894   6.526
 8350SOL    HW125949   2.909   6.824   6.463
 8350SOL    HW225950   2.993   6.850   6.601
 8351SOL     OW25951   5.960   5.672   3.730
 8351SOL    HW125952   5.900   5.682   3.810
 8351SOL    HW225953   6.033   5.607   3.751
 8352SOL     OW25954   2.831   6.263   2.602
 8352SOL    HW125955   2.771   6.191   2.567
 8352SOL    HW225956   2.785   6.311   2.677
 8353SOL     OW25957   1.496   4.137   1.447
 8353SOL    HW125958   1.459   4.091   1.528
 8353SOL    HW225959   1.566   4.203   1.474
 8354SOL     OW25960   3.501   6.950   4.347
 8354SOL    HW125961   3.581   6.982   4.297
 8354SOL    HW225962   3.498   6.850   4.344
 8355SOL     OW25963   1.252   0.618   6.285
 8355SOL    HW125964   1.348   0.597   6.303
 8355SOL    HW225965   1.199   0.606   6.369
 8356SOL     OW25966   1.489   5.323   2.152
 8356SOL    HW125967   1.397   5.300   2.120
 8356SOL    HW225968   1.557   5.277   2.094
 8357SOL     OW25969   3.455   5.494   6.113
 8357SOL    HW125970   3.543   5.539   6.128
 8357SOL    HW225971   3.413   5.473   6.201
 8358SOL     OW25972   1.050   2.888   5.910
 8358SOL    HW125973   1.144   2.880   5.942
 8358SOL    HW225974   1.025   2.804   5.860
 8359SOL     OW25975   2.008   1.588   4.363
 8359SOL    HW125976   2.048   1.657   4.302
 8359SOL    HW225977   2.069   1.573   4.441
 8360SOL     OW25978   4.803   6.751   0.874
 8360SOL    HW125979   4.732   6.743   0.803
 8360SOL    HW225980   4.809   6.665   0.925
 8361SOL     OW25981   2.319   6.665   6.567
 8361SOL    HW125982   2.278   6.642   6.655
 8361SOL    HW225983   2.334   6.764   6.562
 8362SOL     OW25984   6.084   1.974   0.478
 8362SOL    HW125985   6.058   2.035   0.404
 8362SOL    HW225986   6.049   2.010   0.565
 8363SOL     OW25987   4.230   2.023   0.283
 8363SOL    HW125988   4.139   1.983   0.284
 8363SOL    HW225989   4.251   2.061   0.373
 8364SOL     OW25990   1.035   2.910   4.127
 8364SOL    HW125991   1.118   2.927   4.074
 8364SOL    HW225992   0.968   2.863   4.070
 8365SOL     OW25993   2.070   2.595   2.919
 8365SOL    HW125994   2.101   2.600   3.014
 8365SOL    HW225995   2.148   2.574   2.860
 8366SOL     OW25996   4.102   5.423   1.374
 8366SOL    HW125997   4.085   5.458   1.467
 8366SOL    HW225998   4.096   5.323   1.375
 8367SOL     OW25999   2.958   5.266   5.168
 8367SOL    HW126000   3.047   5.234   5.202
 8367SOL    HW226001   2.888   5.247   5.236
 8368SOL     OW26002   1.217   6.127   0.088
 8368SOL    HW126003   1.185   6.122   0.183
 8368SOL    HW226004   1.179   6.209   0.045
 8369SOL     OW26005   0.743   1.092   1.051
 8369SOL    HW126006   0.684   1.120   0.976
 8369SOL    HW226007   0.689   1.046   1.121
 8370SOL     OW26008   2.235   1.592   6.813
 8370SOL    HW126009   2.216   1.499   6.843
 8370SOL    HW226010   2.286   1.590   6.727
 8371SOL     OW26011   1.617   3.417   5.727
 8371SOL    HW126012   1.639   3.377   5.638
 8371SOL    HW226013   1.688   3.392   5.793
 8372SOL     OW26014   2.153   6.159   1.836
 8372SOL    HW126015   2.215   6.217   1.888
 8372SOL    HW226016   2.150   6.190   1.741
 8373SOL     OW26017   1.322   1.470   4.566
 8373SOL    HW126018   1.378   1.552   4.555
 8373SOL    HW226019   1.286   1.467   4.660
 8374SOL     OW26020   0.893   0.431   4.305
 8374SOL    HW126021   0.840   0.492   4.365
 8374SOL    HW226022   0.985   0.419   4.343
 8375SOL     OW26023   3.508   0.590   5.518
 8375SOL    HW126024   3.563   0.506   5.513
 8375SOL    HW226025   3.565   0.668   5.494
 8376SOL     OW26026   1.638   1.413   3.877
 8376SOL    HW126027   1.589   1.347   3.934
 8376SOL    HW226028   1.736   1.408   3.897
 8377SOL     OW26029   5.117   5.374   0.675
 8377SOL    HW126030   5.069   5.409   0.594
 8377SOL    HW226031   5.168   5.292   0.651
 8378SOL     OW26032   5.552   5.451   3.091
 8378SOL    HW126033   5.565   5.373   3.029
 8378SOL    HW226034   5.524   5.416   3.181
 8379SOL     OW26035   4.887   2.281   1.107
 8379SOL    HW126036   4.911   2.205   1.168
 8379SOL    HW226037   4.788   2.282   1.093
 8380SOL     OW26038   7.017   6.815   6.988
 8380SOL    HW126039   0.028   6.721   6.983
 8380SOL    HW226040   6.942   6.825   6.922
 8381SOL     OW26041   0.331   2.747   3.453
 8381SOL    HW126042   0.325   2.674   3.385
 8381SOL    HW226043   0.427   2.770   3.469
 8382SOL     OW26044   2.436   0.549   0.969
 8382SOL    HW126045   2.454   0.607   0.890
 8382SOL    HW226046   2.408   0.458   0.939
 8383SOL     OW26047   2.508   0.682   5.170
 8383SOL    HW126048   2.600   0.695   5.207
 8383SOL    HW226049   2.503   0.723   5.078
 8384SOL     OW26050   6.982   1.575   0.837
 8384SOL    HW126051   0.046   1.536   0.862
 8384SOL    HW226052   6.917   1.502   0.818
 8385SOL     OW26053   4.719   2.972   0.583
 8385SOL    HW126054   4.640   2.938   0.531
 8385SOL    HW226055   4.693   2.987   0.678
 8386SOL     OW26056   2.067   5.663   1.240
 8386SOL    HW126057   2.059   5.565   1.256
 8386SOL    HW226058   2.111   5.706   1.319
 8387SOL     OW26059   1.703   1.442   1.752
 8387SOL    HW126060   1.628   1.508   1.764
 8387SOL    HW226061   1.746   1.456   1.663
 8388SOL     OW26062   1.572   0.367   0.867
 8388SOL    HW126063   1.652   0.418   0.899
 8388SOL    HW226064   1.514   0.345   0.945
 8389SOL     OW26065   1.086   3.463   4.219
 8389SOL    HW126066   1.184   3.453   4.237
 8389SOL    HW226067   1.061   3.560   4.227
 8390SOL     OW26068   3.351   0.131   6.493
 8390SOL    HW126069   3.338   0.159   6.588
 8390SOL    HW226070   3.441   0.089   6.482
 8391SOL     OW26071   5.322   5.078   0.846
 8391SOL    HW126072   5.243   5.037   0.800
 8391SOL    HW226073   5.290   5.133   0.923
 8392SOL     OW26074   6.396   5.585   5.318
 8392SOL    HW126075   6.417   5.675   5.280
 8392SOL    HW226076   6.450   5.516   5.270
 8393SOL     OW26077   0.187   0.586   3.954
 8393SOL    HW126078   0.112   0.618   3.896
 8393SOL    HW226079   0.274   0.620   3.918
 8394SOL     OW26080   0.451   1.796   2.496
 8394SOL    HW126081   0.407   1.885   2.498
 8394SOL    HW226082   0.540   1.803   2.450
 8395SOL     OW26083   1.240   6.513   3.804
 8395SOL    HW126084   1.192   6.595   3.773
 8395SOL    HW226085   1.305   6.484   3.734
 8396SOL     OW26086   4.695   4.239   2.417
 8396SOL    HW126087   4.644   4.296   2.354
 8396SOL    HW226088   4.751   4.174   2.366
 8397SOL     OW26089   2.178   6.989   2.674
 8397SOL    HW126090   2.232   0.002   2.599
 8397SOL    HW226091   2.145   6.898   2.650
 8398SOL     OW26092   3.420   1.382   0.016
 8398SOL    HW126093   3.512   1.342   0.006
 8398SOL    HW226094   3.427   1.466   0.070
 8399SOL     OW26095   6.738   6.467   0.086
 8399SOL    HW126096   6.689   6.384   0.113
 8399SOL    HW226097   6.672   6.538   0.060
 8400SOL     OW26098   1.050   0.802   3.303
 8400SOL    HW126099   0.985   0.855   3.249
 8400SOL    HW226100   1.083   0.857   3.380
 8401SOL     OW26101   4.186   3.142   5.662
 8401SOL    HW126102   4.208   3.045   5.650
 8401SOL    HW226103   4.171   3.184   5.573
 8402SOL     OW26104   3.002   1.638   5.453
 8402SOL    HW126105   2.973   1.729   5.484
 8402SOL    HW226106   3.093   1.619   5.489
 8403SOL     OW26107   0.558   1.212   3.299
 8403SOL    HW126108   0.493   1.258   3.360
 8403SOL    HW226109   0.537   1.114   3.296
 8404SOL     OW26110   5.896   6.338   6.518
 8404SOL    HW126111   5.805   6.343   6.560
 8404SOL    HW226112   5.943   6.256   6.550
 8405SOL     OW26113   1.823   1.623   6.845
 8405SOL    HW126114   1.790   1.713   6.818
 8405SOL    HW226115   1.769   1.588   6.922
 8406SOL     OW26116   3.969   0.618   0.966
 8406SOL    HW126117   3.894   0.676   0.935
 8406SOL    HW226118   3.970   0.534   0.912
 8407SOL     OW26119   5.414   5.709   4.415
 8407SOL    HW126120   5.387   5.619   4.381
 8407SOL    HW226121   5.341   5.775   4.396
 8408SOL     OW26122   4.475   1.519   3.234
 8408SOL    HW126123   4.550   1.512   3.168
 8408SOL    HW226124   4.485   1.603   3.287
 8409SOL     OW26125   6.397   2.545   3.708
 8409SOL    HW126126   6.471   2.481   3.688
 8409SOL    HW226127   6.363   2.529   3.801
 8410SOL     OW26128   4.476   0.660   1.867
 8410SOL    HW126129   4.538   0.613   1.805
 8410SOL    HW226130   4.381   0.640   1.841
 8411SOL     OW26131   1.867   5.431   4.184
 8411SOL    HW126132   1.903   5.409   4.275
 8411SOL    HW226133   1.794   5.366   4.161
 8412SOL     OW26134   3.745   1.766   1.265
 8412SOL    HW126135   3.843   1.747   1.270
 8412SOL    HW226136   3.722   1.798   1.173
 8413SOL     OW26137   4.987   4.636   0.208
 8413SOL    HW126138   4.918   4.596   0.267
 8413SOL    HW226139   4.945   4.705   0.149
 8414SOL     OW26140   3.913   0.284   2.064
 8414SOL    HW126141   3.978   0.230   2.116
 8414SOL    HW226142   3.935   0.381   2.072
 8415SOL     OW26143   0.311   5.028   4.017
 8415SOL    HW126144   0.390   5.072   3.975
 8415SOL    HW226145   0.333   5.000   4.110
 8416SOL     OW26146   5.053   4.977   3.335
 8416SOL    HW126147   5.088   4.887   3.363
 8416SOL    HW226148   4.966   4.994   3.379
 8417SOL     OW26149   1.442   5.723   5.500
 8417SOL    HW126150   1.488   5.789   5.559
 8417SOL    HW226151   1.381   5.772   5.437
 8418SOL     OW26152   5.876   5.295   1.445
 8418SOL    HW126153   5.881   5.204   1.486
 8418SOL    HW226154   5.958   5.313   1.391
 8419SOL     OW26155   4.679   1.004   2.092
 8419SOL    HW126156   4.701   0.909   2.069
 8419SOL    HW226157   4.582   1.011   2.114
 8420SOL     OW26158   3.692   6.484   0.935
 8420SOL    HW126159   3.771   6.479   0.874
 8420SOL    HW226160   3.644   6.570   0.920
 8421SOL     OW26161   3.413   6.602   1.143
 8421SOL    HW126162   3.444   6.685   1.097
 8421SOL    HW226163   3.463   6.591   1.229
 8422SOL     OW26164   4.752   6.161   1.400
 8422SOL    HW126165   4.688   6.186   1.474
 8422SOL    HW226166   4.758   6.237   1.335
 8423SOL     OW26167   3.800   3.812   6.086
 8423SOL    HW126168   3.791   3.805   6.185
 8423SOL    HW226169   3.716   3.779   6.042
 8424SOL     OW26170   2.551   2.534   3.157
 8424SOL    HW126171   2.561   2.515   3.059
 8424SOL    HW226172   2.628   2.495   3.207
 8425SOL     OW26173   6.539   5.487   1.028
 8425SOL    HW126174   6.515   5.489   0.930
 8425SOL    HW226175   6.630   5.445   1.039
 8426SOL     OW26176   3.812   2.960   4.385
 8426SOL    HW126177   3.889   3.010   4.424
 8426SOL    HW226178   3.765   2.909   4.457
 8427SOL     OW26179   1.333   4.203   5.770
 8427SOL    HW126180   1.334   4.166   5.863
 8427SOL    HW226181   1.327   4.302   5.774
 8428SOL     OW26182   6.635   4.731   1.969
 8428SOL    HW126183   6.696   4.802   1.934
 8428SOL    HW226184   6.610   4.669   1.895
 8429SOL     OW26185   2.063   4.522   4.358
 8429SOL    HW126186   2.046   4.438   4.307
 8429SOL    HW226187   2.052   4.504   4.456
 8430SOL     OW26188   4.029   5.292   3.068
 8430SOL    HW126189   4.097   5.223   3.043
 8430SOL    HW226190   4.074   5.368   3.115
 8431SOL     OW26191   2.118   5.177   1.266
 8431SOL    HW126192   2.140   5.141   1.357
 8431SOL    HW226193   2.034   5.135   1.233
 8432SOL     OW26194   4.563   5.755   5.914
 8432SOL    HW126195   4.537   5.659   5.910
 8432SOL    HW226196   4.593   5.785   5.824
 8433SOL     OW26197   6.994   2.433   6.282
 8433SOL    HW126198   7.011   2.495   6.205
 8433SOL    HW226199   0.036   2.451   6.355
 8434SOL     OW26200   2.909   0.670   4.739
 8434SOL    HW126201   2.922   0.592   4.678
 8434SOL    HW226202   2.863   0.639   4.823
 8435SOL     OW26203   4.826   1.680   1.272
 8435SOL    HW126204   4.891   1.643   1.338
 8435SOL    HW226205   4.858   1.770   1.241
 8436SOL     OW26206   3.510   6.410   4.234
 8436SOL    HW126207   3.577   6.461   4.180
 8436SOL    HW226208   3.482   6.328   4.185
 8437SOL     OW26209   1.950   0.201   2.474
 8437SOL    HW126210   1.925   0.141   2.550
 8437SOL    HW226211   1.867   0.227   2.424
 8438SOL     OW26212   3.197   4.974   2.305
 8438SOL    HW126213   3.143   4.931   2.377
 8438SOL    HW226214   3.164   4.944   2.216
 8439SOL     OW26215   6.678   5.837   1.573
 8439SOL    HW126216   6.676   5.935   1.554
 8439SOL    HW226217   6.729   5.791   1.500
 8440SOL     OW26218   0.460   0.784   2.801
 8440SOL    HW126219   0.510   0.765   2.717
 8440SOL    HW226220   0.396   0.710   2.819
 8441SOL     OW26221   6.577   6.133   0.264
 8441SOL    HW126222   6.642   6.208   0.268
 8441SOL    HW226223   6.520   6.133   0.347
 8442SOL     OW26224   3.405   3.342   6.081
 8442SOL    HW126225   3.486   3.293   6.113
 8442SOL    HW226226   3.392   3.324   5.983
 8443SOL     OW26227   1.546   6.629   2.998
 8443SOL    HW126228   1.588   6.696   2.936
 8443SOL    HW226229   1.464   6.590   2.955
 8444SOL     OW26230   3.099   6.392   3.944
 8444SOL    HW126231   3.132   6.456   3.874
 8444SOL    HW226232   3.164   6.389   4.020
 8445SOL     OW26233   3.412   5.226   2.200
 8445SOL    HW126234   3.440   5.136   2.234
 8445SOL    HW226235   3.462   5.246   2.115
 8446SOL     OW26236   5.262   5.532   1.448
 8446SOL    HW126237   5.206   5.602   1.404
 8446SOL    HW226238   5.292   5.465   1.380
 8447SOL     OW26239   5.737   2.270   1.976
 8447SOL    HW126240   5.811   2.232   2.031
 8447SOL    HW226241   5.709   2.358   2.015
 8448SOL     OW26242   6.470   3.497   5.350
 8448SOL    HW126243   6.542   3.428   5.360
 8448SOL    HW226244   6.467   3.554   5.432
 8449SOL     OW26245   7.000   2.795   4.431
 8449SOL    HW126246   0.023   2.744   4.359
 8449SOL    HW226247   6.956   2.876   4.391
 8450SOL     OW26248   1.918   6.057   2.370
 8450SOL    HW126249   1.867   6.023   2.291
 8450SOL    HW226250   1.977   6.132   2.342
 8451SOL     OW26251   4.151   3.108   0.130
 8451SOL    HW126252   4.202   3.182   0.085
 8451SOL    HW226253   4.172   3.022   0.084
 8452SOL     OW26254   0.229   0.252   1.288
 8452SOL    HW126255   0.269   0.199   1.363
 8452SOL    HW226256   0.134   0.276   1.312
 8453SOL     OW26257   5.956   4.400   6.118
 8453SOL    HW126258   5.921   4.406   6.212
 8453SOL    HW226259   5.884   4.367   6.058
 8454SOL     OW26260   1.282   5.667   1.525
 8454SOL    HW126261   1.217   5.673   1.600
 8454SOL    HW226262   1.254   5.730   1.452
 8455SOL     OW26263   4.840   2.390   0.531
 8455SOL    HW126264   4.852   2.293   0.552
 8455SOL    HW226265   4.926   2.428   0.499
 8456SOL     OW26266   5.492   4.733   3.438
 8456SOL    HW126267   5.510   4.830   3.456
 8456SOL    HW226268   5.489   4.717   3.339
 8457SOL     OW26269   6.345   6.364   5.828
 8457SOL    HW126270   6.370   6.305   5.904
 8457SOL    HW226271   6.420   6.427   5.808
 8458SOL     OW26272   2.486   0.974   6.910
 8458SOL    HW126273   2.476   1.070   6.938
 8458SOL    HW226274   2.397   0.928   6.919
 8459SOL     OW26275   3.175   6.845   1.298
 8459SOL    HW126276   3.161   6.746   1.304
 8459SOL    HW226277   3.270   6.867   1.320
 8460SOL     OW26278   4.593   2.091   5.745
 8460SOL    HW126279   4.510   2.038   5.762
 8460SOL    HW226280   4.603   2.161   5.816
 8461SOL     OW26281   1.122   4.052   2.320
 8461SOL    HW126282   1.050   4.057   2.389
 8461SOL    HW226283   1.111   4.127   2.255
 8462SOL     OW26284   2.944   2.458   0.384
 8462SOL    HW126285   2.889   2.507   0.451
 8462SOL    HW226286   2.913   2.482   0.292
 8463SOL     OW26287   6.836   1.233   0.387
 8463SOL    HW126288   6.886   1.212   0.303
 8463SOL    HW226289   6.891   1.206   0.466
 8464SOL     OW26290   0.033   4.325   5.136
 8464SOL    HW126291   0.082   4.323   5.048
 8464SOL    HW226292   6.983   4.391   5.130
 8465SOL     OW26293   3.319   2.044   0.633
 8465SOL    HW126294   3.354   1.975   0.569
 8465SOL    HW226295   3.224   2.064   0.612
 8466SOL     OW26296   5.949   6.649   5.031
 8466SOL    HW126297   5.940   6.554   5.000
 8466SOL    HW226298   6.001   6.652   5.116
 8467SOL     OW26299   4.185   1.105   0.971
 8467SOL    HW126300   4.126   1.170   1.019
 8467SOL    HW226301   4.204   1.027   1.030
 8468SOL     OW26302   5.626   3.373   6.896
 8468SOL    HW126303   5.577   3.440   6.953
 8468SOL    HW226304   5.582   3.367   6.807
 8469SOL     OW26305   2.925   1.950   5.472
 8469SOL    HW126306   2.901   2.041   5.437
 8469SOL    HW226307   2.887   1.938   5.563
 8470SOL     OW26308   1.312   4.466   0.276
 8470SOL    HW126309   1.307   4.461   0.376
 8470SOL    HW226310   1.395   4.515   0.249
 8471SOL     OW26311   3.951   0.623   5.696
 8471SOL    HW126312   3.938   0.549   5.762
 8471SOL    HW226313   3.976   0.584   5.607
 8472SOL     OW26314   5.506   0.933   5.224
 8472SOL    HW126315   5.600   0.965   5.212
 8472SOL    HW226316   5.504   0.862   5.294
 8473SOL     OW26317   6.046   5.278   0.290
 8473SOL    HW126318   6.136   5.290   0.333
 8473SOL    HW226319   5.978   5.333   0.339
 8474SOL     OW26320   3.721   3.882   1.783
 8474SOL    HW126321   3.789   3.946   1.817
 8474SOL    HW226322   3.663   3.927   1.715
 8475SOL     OW26323   7.009   2.855   2.680
 8475SOL    HW126324   6.969   2.885   2.766
 8475SOL    HW226325   0.080   2.884   2.675
 8476SOL     OW26326   6.770   1.813   1.364
 8476SOL    HW126327   6.754   1.874   1.287
 8476SOL    HW226328   6.857   1.767   1.352
 8477SOL     OW26329   4.124   6.862   2.547
 8477SOL    HW126330   4.049   6.799   2.529
 8477SOL    HW226331   4.104   6.916   2.629
 8478SOL     OW26332   0.778   0.940   5.817
 8478SOL    HW126333   0.843   0.980   5.881
 8478SOL    HW226334   0.703   0.897   5.868
 8479SOL     OW26335   1.279   3.568   1.060
 8479SOL    HW126336   1.370   3.540   1.089
 8479SOL    HW226337   1.269   3.667   1.070
 8480SOL     OW26338   5.142   3.544   0.033
 8480SOL    HW126339   5.156   3.643   0.036
 8480SOL    HW226340   5.084   3.522   6.979
 8481SOL     OW26341   4.897   2.310   4.747
 8481SOL    HW126342   4.875   2.325   4.651
 8481SOL    HW226343   4.813   2.298   4.799
 8482SOL     OW26344   5.207   0.243   2.158
 8482SOL    HW126345   5.232   0.314   2.092
 8482SOL    HW226346   5.242   0.268   2.248
 8483SOL     OW26347   3.192   5.795   3.420
 8483SOL    HW126348   3.106   5.832   3.384
 8483SOL    HW226349   3.186   5.695   3.425
 8484SOL     OW26350   6.823   6.223   4.528
 8484SOL    HW126351   6.774   6.139   4.502
 8484SOL    HW226352   6.821   6.233   4.627
 8485SOL     OW26353   3.678   2.915   0.310
 8485SOL    HW126354   3.672   2.833   0.254
 8485SOL    HW226355   3.760   2.967   0.285
 8486SOL     OW26356   1.890   0.725   2.978
 8486SOL    HW126357   1.855   0.705   3.069
 8486SOL    HW226358   1.954   0.801   2.983
 8487SOL     OW26359   5.864   2.144   6.025
 8487SOL    HW126360   5.821   2.205   5.959
 8487SOL    HW226361   5.925   2.195   6.085
 8488SOL     OW26362   5.189   6.058   2.343
 8488SOL    HW126363   5.149   6.107   2.266
 8488SOL    HW226364   5.282   6.093   2.360
 8489SOL     OW26365   6.424   1.052   1.770
 8489SOL    HW126366   6.379   0.983   1.828
 8489SOL    HW226367   6.455   1.009   1.686
 8490SOL     OW26368   3.317   6.871   5.691
 8490SOL    HW126369   3.338   6.906   5.782
 8490SOL    HW226370   3.383   6.799   5.668
 8491SOL     OW26371   1.593   6.061   2.485
 8491SOL    HW126372   1.548   6.034   2.570
 8491SOL    HW226373   1.692   6.065   2.500
 8492SOL     OW26374   5.715   5.002   4.033
 8492SOL    HW126375   5.718   5.043   3.942
 8492SOL    HW226376   5.770   4.918   4.034
 8493SOL     OW26377   1.678   2.138   6.807
 8493SOL    HW126378   1.653   2.049   6.845
 8493SOL    HW226379   1.756   2.175   6.856
 8494SOL     OW26380   4.110   5.068   2.318
 8494SOL    HW126381   4.057   5.130   2.260
 8494SOL    HW226382   4.076   4.975   2.308
 8495SOL     OW26383   0.307   4.993   0.856
 8495SOL    HW126384   0.283   5.050   0.777
 8495SOL    HW226385   0.383   5.033   0.906
 8496SOL     OW26386   6.819   0.993   2.775
 8496SOL    HW126387   6.800   1.038   2.863
 8496SOL    HW226388   6.913   1.010   2.749
 8497SOL     OW26389   6.953   1.226   3.295
 8497SOL    HW126390   0.002   1.239   3.362
 8497SOL    HW226391   6.898   1.309   3.290
 8498SOL     OW26392   6.524   6.816   3.054
 8498SOL    HW126393   6.441   6.837   3.003
 8498SOL    HW226394   6.602   6.816   2.992
 8499SOL     OW26395   1.012   3.870   6.595
 8499SOL    HW126396   1.060   3.957   6.607
 8499SOL    HW226397   0.977   3.839   6.683
 8500SOL     OW26398   1.627   6.540   6.144
 8500SOL    HW126399   1.551   6.603   6.131
 8500SOL    HW226400   1.701   6.563   6.081
 8501SOL     OW26401   0.706   2.714   6.361
 8501SOL    HW126402   0.700   2.702   6.460
 8501SOL    HW226403   0.619   2.750   6.327
 8502SOL     OW26404   0.356   3.044   1.572
 8502SOL    HW126405   0.374   3.049   1.670
 8502SOL    HW226406   0.348   2.948   1.544
 8503SOL     OW26407   0.062   5.687   5.164
 8503SOL    HW126408   0.110   5.603   5.140
 8503SOL    HW226409   0.109   5.765   5.123
 8504SOL     OW26410   1.723   5.656   2.271
 8504SOL    HW126411   1.791   5.670   2.199
 8504SOL    HW226412   1.656   5.730   2.269
 8505SOL     OW26413   6.266   3.415   2.800
 8505SOL    HW126414   6.214   3.330   2.791
 8505SOL    HW226415   6.308   3.437   2.712
 8506SOL     OW26416   0.876   0.920   6.828
 8506SOL    HW126417   0.910   0.973   6.906
 8506SOL    HW226418   0.891   0.970   6.743
 8507SOL     OW26419   3.683   6.509   4.737
 8507SOL    HW126420   3.659   6.597   4.779
 8507SOL    HW226421   3.767   6.519   4.685
 8508SOL     OW26422   4.379   1.634   5.634
 8508SOL    HW126423   4.370   1.731   5.610
 8508SOL    HW226424   4.441   1.589   5.570
 8509SOL     OW26425   5.707   0.434   3.251
 8509SOL    HW126426   5.696   0.503   3.179
 8509SOL    HW226427   5.803   0.407   3.258
 8510SOL     OW26428   5.333   3.987   2.517
 8510SOL    HW126429   5.335   3.895   2.557
 8510SOL    HW226430   5.419   4.004   2.469
 8511SOL     OW26431   6.174   2.907   2.739
 8511SOL    HW126432   6.205   2.922   2.645
 8511SOL    HW226433   6.083   2.946   2.751
 8512SOL     OW26434   2.693   0.375   2.767
 8512SOL    HW126435   2.721   0.471   2.761
 8512SOL    HW226436   2.670   0.353   2.862
 8513SOL     OW26437   0.184   5.321   0.882
 8513SOL    HW126438   0.208   5.298   0.788
 8513SOL    HW226439   0.185   5.420   0.893
 8514SOL     OW26440   2.431   0.565   3.546
 8514SOL    HW126441   2.508   0.627   3.529
 8514SOL    HW226442   2.467   0.474   3.567
 8515SOL     OW26443   4.954   2.192   0.818
 8515SOL    HW126444   4.987   2.281   0.849
 8515SOL    HW226445   4.854   2.187   0.831
 8516SOL     OW26446   7.013   2.189   2.160
 8516SOL    HW126447   0.088   2.194   2.149
 8516SOL    HW226448   6.985   2.249   2.235
 8517SOL     OW26449   0.783   2.790   5.492
 8517SOL    HW126450   0.779   2.875   5.545
 8517SOL    HW226451   0.802   2.713   5.553
 8518SOL     OW26452   4.578   4.212   6.952
 8518SOL    HW126453   4.646   4.253   6.891
 8518SOL    HW226454   4.486   4.240   6.922
 8519SOL     OW26455   2.013   5.512   2.263
 8519SOL    HW126456   1.965   5.492   2.178
 8519SOL    HW226457   1.998   5.608   2.288
 8520SOL     OW26458   3.813   0.988   0.399
 8520SOL    HW126459   3.877   1.062   0.379
 8520SOL    HW226460   3.752   1.015   0.473
 8521SOL     OW26461   2.000   5.790   5.720
 8521SOL    HW126462   1.922   5.727   5.724
 8521SOL    HW226463   2.061   5.773   5.797
 8522SOL     OW26464   1.153   5.659   2.343
 8522SOL    HW126465   1.118   5.703   2.425
 8522SOL    HW226466   1.214   5.584   2.369
 8523SOL     OW26467   2.705   6.578   6.560
 8523SOL    HW126468   2.634   6.510   6.540
 8523SOL    HW226469   2.701   6.650   6.491
 8524SOL     OW26470   1.350   2.892   4.810
 8524SOL    HW126471   1.372   2.931   4.899
 8524SOL    HW226472   1.425   2.833   4.781
 8525SOL     OW26473   5.998   3.875   3.628
 8525SOL    HW126474   6.095   3.891   3.643
 8525SOL    HW226475   5.962   3.816   3.700
 8526SOL     OW26476   2.561   3.928   1.188
 8526SOL    HW126477   2.504   3.987   1.245
 8526SOL    HW226478   2.529   3.934   1.093
 8527SOL     OW26479   3.789   0.046   4.750
 8527SOL    HW126480   3.738   0.100   4.816
 8527SOL    HW226481   3.833   0.107   4.684
 8528SOL     OW26482   5.469   3.336   6.039
 8528SOL    HW126483   5.485   3.268   6.112
 8528SOL    HW226484   5.372   3.358   6.035
 8529SOL     OW26485   0.977   0.296   0.099
 8529SOL    HW126486   0.887   0.274   0.137
 8529SOL    HW226487   1.038   0.217   0.112
 8530SOL     OW26488   0.971   5.039   6.007
 8530SOL    HW126489   0.959   5.042   6.106
 8530SOL    HW226490   1.066   5.017   5.985
 8531SOL     OW26491   5.563   4.412   3.069
 8531SOL    HW126492   5.482   4.433   3.013
 8531SOL    HW226493   5.561   4.467   3.152
 8532SOL     OW26494   4.499   4.705   4.913
 8532SOL    HW126495   4.553   4.758   4.978
 8532SOL    HW226496   4.455   4.629   4.961
 8533SOL     OW26497   1.753   0.817   5.230
 8533SOL    HW126498   1.764   0.730   5.278
 8533SOL    HW226499   1.820   0.824   5.156
 8534SOL     OW26500   0.259   4.116   3.420
 8534SOL    HW126501   0.356   4.138   3.411
 8534SOL    HW226502   0.245   4.018   3.410
 8535SOL     OW26503   0.746   2.134   4.875
 8535SOL    HW126504   0.653   2.097   4.879
 8535SOL    HW226505   0.743   2.228   4.840
 8536SOL     OW26506   6.437   2.402   4.963
 8536SOL    HW126507   6.445   2.501   4.957
 8536SOL    HW226508   6.345   2.377   4.991
 8537SOL     OW26509   6.487   1.406   0.906
 8537SOL    HW126510   6.512   1.324   0.957
 8537SOL    HW226511   6.510   1.487   0.960
 8538SOL     OW26512   0.627   0.343   5.249
 8538SOL    HW126513   0.680   0.421   5.216
 8538SOL    HW226514   0.613   0.279   5.174
 8539SOL     OW26515   6.212   2.201   2.404
 8539SOL    HW126516   6.114   2.183   2.396
 8539SOL    HW226517   6.233   2.233   2.497
 8540SOL     OW26518   3.679   1.281   0.349
 8540SOL    HW126519   3.586   1.247   0.352
 8540SOL    HW226520   3.707   1.312   0.440
 8541SOL     OW26521   2.604   1.957   5.129
 8541SOL    HW126522   2.532   2.019   5.096
 8541SOL    HW226523   2.579   1.923   5.219
 8542SOL     OW26524   3.226   4.518   6.854
 8542SOL    HW126525   3.264   4.606   6.827
 8542SOL    HW226526   3.130   4.530   6.880
 8543SOL     OW26527   2.867   1.422   5.343
 8543SOL    HW126528   2.934   1.482   5.387
 8543SOL    HW226529   2.820   1.472   5.271
 8544SOL     OW26530   5.234   2.978   5.205
 8544SOL    HW126531   5.207   3.058   5.151
 8544SOL    HW226532   5.280   3.008   5.288
 8545SOL     OW26533   3.097   6.827   4.777
 8545SOL    HW126534   3.012   6.776   4.764
 8545SOL    HW226535   3.080   6.925   4.765
 8546SOL     OW26536   5.643   0.306   1.329
 8546SOL    HW126537   5.701   0.288   1.249
 8546SOL    HW226538   5.561   0.249   1.324
 8547SOL     OW26539   6.805   1.039   5.217
 8547SOL    HW126540   6.714   1.013   5.186
 8547SOL    HW226541   6.852   1.089   5.145
 8548SOL     OW26542   0.535   2.758   5.335
 8548SOL    HW126543   0.547   2.683   5.271
 8548SOL    HW226544   0.625   2.790   5.366
 8549SOL     OW26545   0.938   2.229   4.176
 8549SOL    HW126546   1.008   2.295   4.147
 8549SOL    HW226547   0.939   2.220   4.275
 8550SOL     OW26548   1.029   3.545   6.238
 8550SOL    HW126549   1.120   3.530   6.198
 8550SOL    HW226550   1.021   3.493   6.323
 8551SOL     OW26551   2.492   2.585   6.852
 8551SOL    HW126552   2.489   2.486   6.836
 8551SOL    HW226553   2.562   2.626   6.795
 8552SOL     OW26554   3.031   0.706   2.017
 8552SOL    HW126555   3.021   0.791   2.070
 8552SOL    HW226556   2.986   0.717   1.928
 8553SOL     OW26557   4.385   4.187   0.468
 8553SOL    HW126558   4.297   4.142   0.478
 8553SOL    HW226559   4.456   4.131   0.511
 8554SOL     OW26560   0.755   6.195   1.575
 8554SOL    HW126561   0.675   6.136   1.585
 8554SOL    HW226562   0.817   6.182   1.652
 8555SOL     OW26563   4.176   1.569   3.292
 8555SOL    HW126564   4.272   1.584   3.271
 8555SOL    HW226565   4.166   1.484   3.343
 8556SOL     OW26566   1.742   6.423   5.740
 8556SOL    HW126567   1.772   6.351   5.678
 8556SOL    HW226568   1.644   6.411   5.760
 8557SOL     OW26569   6.507   1.194   1.117
 8557SOL    HW126570   6.459   1.141   1.047
 8557SOL    HW226571   6.509   1.143   1.203
 8558SOL     OW26572   2.308   4.982   3.139
 8558SOL    HW126573   2.370   5.028   3.203
 8558SOL    HW226574   2.258   5.050   3.086
 8559SOL     OW26575   1.474   6.316   2.731
 8559SOL    HW126576   1.521   6.349   2.649
 8559SOL    HW226577   1.448   6.220   2.718
 8560SOL     OW26578   1.451   5.489   1.825
 8560SOL    HW126579   1.371   5.482   1.883
 8560SOL    HW226580   1.454   5.412   1.762
 8561SOL     OW26581   4.180   0.186   3.534
 8561SOL    HW126582   4.176   0.209   3.631
 8561SOL    HW226583   4.270   0.208   3.498
 8562SOL     OW26584   4.105   0.131   6.779
 8562SOL    HW126585   4.022   0.089   6.817
 8562SOL    HW226586   4.090   0.229   6.767
 8563SOL     OW26587   0.851   5.447   2.374
 8563SOL    HW126588   0.837   5.350   2.351
 8563SOL    HW226589   0.782   5.475   2.441
 8564SOL     OW26590   3.801   6.034   6.000
 8564SOL    HW126591   3.771   6.111   5.944
 8564SOL    HW226592   3.884   5.994   5.961
 8565SOL     OW26593   3.810   5.367   1.654
 8565SOL    HW126594   3.896   5.415   1.641
 8565SOL    HW226595   3.828   5.274   1.685
 8566SOL     OW26596   2.294   0.935   2.138
 8566SOL    HW126597   2.392   0.949   2.149
 8566SOL    HW226598   2.245   1.020   2.161
 8567SOL     OW26599   1.504   1.822   2.087
 8567SOL    HW126600   1.574   1.812   2.157
 8567SOL    HW226601   1.416   1.840   2.131
 8568SOL     OW26602   6.092   1.347   0.722
 8568SOL    HW126603   6.152   1.403   0.665
 8568SOL    HW226604   6.098   1.251   0.694
 8569SOL     OW26605   5.136   1.760   6.005
 8569SOL    HW126606   5.054   1.755   5.948
 8569SOL    HW226607   5.139   1.681   6.066
 8570SOL     OW26608   2.016   2.101   4.154
 8570SOL    HW126609   1.955   2.170   4.192
 8570SOL    HW226610   1.972   2.012   4.156
 8571SOL     OW26611   0.906   0.360   4.677
 8571SOL    HW126612   0.809   0.384   4.668
 8571SOL    HW226613   0.927   0.281   4.621
 8572SOL     OW26614   1.927   4.060   5.705
 8572SOL    HW126615   1.867   3.995   5.658
 8572SOL    HW226616   1.932   4.145   5.652
 8573SOL     OW26617   2.775   6.036   6.663
 8573SOL    HW126618   2.845   6.104   6.684
 8573SOL    HW226619   2.694   6.082   6.625
 8574SOL     OW26620   6.238   6.758   5.919
 8574SOL    HW126621   6.261   6.759   6.017
 8574SOL    HW226622   6.321   6.742   5.866
 8575SOL     OW26623   3.482   0.964   2.705
 8575SOL    HW126624   3.562   0.956   2.646
 8575SOL    HW226625   3.401   0.981   2.650
 8576SOL     OW26626   1.930   4.761   4.311
 8576SOL    HW126627   1.911   4.814   4.394
 8576SOL    HW226628   1.991   4.685   4.332
 8577SOL     OW26629   1.338   0.709   6.042
 8577SOL    HW126630   1.369   0.803   6.028
 8577SOL    HW226631   1.288   0.702   6.128
 8578SOL     OW26632   6.059   5.574   5.950
 8578SOL    HW126633   6.108   5.662   5.944
 8578SOL    HW226634   6.108   5.513   6.012
 8579SOL     OW26635   1.614   6.213   2.288
 8579SOL    HW126636   1.607   6.144   2.359
 8579SOL    HW226637   1.587   6.173   2.200
 8580SOL     OW26638   2.134   6.114   0.910
 8580SOL    HW126639   2.127   6.027   0.959
 8580SOL    HW226640   2.084   6.185   0.961
 8581SOL     OW26641   3.940   4.730   1.549
 8581SOL    HW126642   3.982   4.748   1.638
 8581SOL    HW226643   3.901   4.638   1.548
 8582SOL     OW26644   5.001   4.481   5.271
 8582SOL    HW126645   4.986   4.391   5.313
 8582SOL    HW226646   4.927   4.543   5.298
 8583SOL     OW26647   2.965   6.682   2.756
 8583SOL    HW126648   2.980   6.596   2.805
 8583SOL    HW226649   3.025   6.753   2.795
 8584SOL     OW26650   0.389   0.403   5.438
 8584SOL    HW126651   0.353   0.317   5.400
 8584SOL    HW226652   0.484   0.413   5.411
 8585SOL     OW26653   6.204   1.697   1.034
 8585SOL    HW126654   6.250   1.656   0.955
 8585SOL    HW226655   6.266   1.763   1.078
 8586SOL     OW26656   4.425   6.742   1.439
 8586SOL    HW126657   4.420   6.673   1.510
 8586SOL    HW226658   4.345   6.735   1.380
 8587SOL     OW26659   1.174   1.457   4.819
 8587SOL    HW126660   1.177   1.556   4.834
 8587SOL    HW226661   1.185   1.410   4.906
 8588SOL     OW26662   4.786   1.228   0.316
 8588SOL    HW126663   4.767   1.326   0.322
 8588SOL    HW226664   4.725   1.178   0.376
 8589SOL     OW26665   6.731   2.865   5.274
 8589SOL    HW126666   6.801   2.857   5.345
 8589SOL    HW226667   6.656   2.801   5.293
 8590SOL     OW26668   0.437   0.847   2.274
 8590SOL    HW126669   0.440   0.775   2.205
 8590SOL    HW226670   0.357   0.834   2.332
 8591SOL     OW26671   6.973   4.259   0.560
 8591SOL    HW126672   6.995   4.233   0.466
 8591SOL    HW226673   0.033   4.282   0.608
 8592SOL     OW26674   0.354   2.666   6.947
 8592SOL    HW126675   0.320   2.740   7.004
 8592SOL    HW226676   0.356   2.581   7.000
 8593SOL     OW26677   3.442   0.989   6.740
 8593SOL    HW126678   3.376   1.035   6.681
 8593SOL    HW226679   3.532   1.033   6.732
 8594SOL     OW26680   6.051   2.304   6.167
 8594SOL    HW126681   6.131   2.280   6.222
 8594SOL    HW226682   6.068   2.392   6.121
 8595SOL     OW26683   6.340   1.140   3.632
 8595SOL    HW126684   6.287   1.134   3.716
 8595SOL    HW226685   6.410   1.069   3.632
 8596SOL     OW26686   1.420   4.595   2.953
 8596SOL    HW126687   1.418   4.691   2.924
 8596SOL    HW226688   1.515   4.565   2.963
 8597SOL     OW26689   5.568   2.077   1.051
 8597SOL    HW126690   5.543   2.022   0.972
 8597SOL    HW226691   5.615   2.020   1.119
 8598SOL     OW26692   5.047   0.195   5.481
 8598SOL    HW126693   4.984   0.128   5.442
 8598SOL    HW226694   5.020   0.215   5.576
 8599SOL     OW26695   1.197   2.681   4.384
 8599SOL    HW126696   1.288   2.655   4.416
 8599SOL    HW226697   1.175   2.772   4.418
 8600SOL     OW26698   5.571   3.573   0.417
 8600SOL    HW126699   5.534   3.632   0.345
 8600SOL    HW226700   5.624   3.499   0.375
 8601SOL     OW26701   6.731   1.869   3.590
 8601SOL    HW126702   6.728   1.772   3.613
 8601SOL    HW226703   6.703   1.882   3.495
 8602SOL     OW26704   2.619   6.657   3.052
 8602SOL    HW126705   2.663   6.576   3.091
 8602SOL    HW226706   2.690   6.722   3.023
 8603SOL     OW26707   5.445   0.043   6.870
 8603SOL    HW126708   5.361   0.001   6.836
 8603SOL    HW226709   5.422   0.113   6.937
 8604SOL     OW26710   1.034   2.797   6.209
 8604SOL    HW126711   1.098   2.753   6.146
 8604SOL    HW226712   1.047   2.896   6.205
 8605SOL     OW26713   1.057   4.736   3.858
 8605SOL    HW126714   1.048   4.828   3.896
 8605SOL    HW226715   1.027   4.668   3.926
 8606SOL     OW26716   2.715   2.244   0.225
 8606SOL    HW126717   2.649   2.315   0.201
 8606SOL    HW226718   2.682   2.156   0.193
 8607SOL     OW26719   2.591   4.371   6.961
 8607SOL    HW126720   2.657   4.354   6.888
 8607SOL    HW226721   2.527   4.442   6.933
 8608SOL     OW26722   2.063   4.727   2.134
 8608SOL    HW126723   2.003   4.680   2.069
 8608SOL    HW226724   2.136   4.665   2.163
 8609SOL     OW26725   4.955   0.665   4.100
 8609SOL    HW126726   4.916   0.755   4.116
 8609SOL    HW226727   5.031   0.672   4.036
 8610SOL     OW26728   6.793   0.312   3.187
 8610SOL    HW126729   6.762   0.330   3.093
 8610SOL    HW226730   6.717   0.326   3.250
 8611SOL     OW26731   3.028   1.149   4.260
 8611SOL    HW126732   2.990   1.095   4.336
 8611SOL    HW226733   2.958   1.212   4.226
 8612SOL     OW26734   2.672   3.387   1.712
 8612SOL    HW126735   2.724   3.318   1.660
 8612SOL    HW226736   2.577   3.388   1.680
 8613SOL     OW26737   2.871   2.316   1.528
 8613SOL    HW126738   2.884   2.231   1.580
 8613SOL    HW226739   2.912   2.392   1.578
 8614SOL     OW26740   1.689   2.465   3.677
 8614SOL    HW126741   1.608   2.499   3.631
 8614SOL    HW226742   1.688   2.365   3.675
 8615SOL     OW26743   4.926   1.962   5.234
 8615SOL    HW126744   4.868   1.897   5.283
 8615SOL    HW226745   4.874   2.045   5.215
 8616SOL     OW26746   2.590   4.609   1.808
 8616SOL    HW126747   2.667   4.607   1.871
 8616SOL    HW226748   2.624   4.619   1.714
 8617SOL     OW26749   5.794   1.447   3.965
 8617SOL    HW126750   5.762   1.540   3.950
 8617SOL    HW226751   5.775   1.392   3.884
 8618SOL     OW26752   6.056   4.586   1.163
 8618SOL    HW126753   6.062   4.632   1.074
 8618SOL    HW226754   6.071   4.653   1.236
 8619SOL     OW26755   3.780   5.508   3.520
 8619SOL    HW126756   3.750   5.572   3.591
 8619SOL    HW226757   3.730   5.422   3.529
 8620SOL     OW26758   2.039   0.049   4.570
 8620SOL    HW126759   1.994   0.061   4.658
 8620SOL    HW226760   1.970   0.034   4.499
 8621SOL     OW26761   4.893   3.124   2.201
 8621SOL    HW126762   4.830   3.103   2.276
 8621SOL    HW226763   4.844   3.122   2.114
 8622SOL     OW26764   5.398   4.764   1.471
 8622SOL    HW126765   5.449   4.723   1.396
 8622SOL    HW226766   5.395   4.863   1.459
 8623SOL     OW26767   0.536   3.871   5.079
 8623SOL    HW126768   0.462   3.814   5.043
 8623SOL    HW226769   0.508   3.911   5.167
 8624SOL     OW26770   3.846   3.927   5.476
 8624SOL    HW126771   3.759   3.878   5.461
 8624SOL    HW226772   3.827   4.016   5.518
 8625SOL     OW26773   4.277   0.743   5.710
 8625SOL    HW126774   4.367   0.786   5.712
 8625SOL    HW226775   4.224   0.780   5.634
 8626SOL     OW26776   3.900   3.085   6.552
 8626SOL    HW126777   3.885   3.177   6.516
 8626SOL    HW226778   3.998   3.066   6.554
 8627SOL     OW26779   2.076   1.713   2.405
 8627SOL    HW126780   2.167   1.671   2.409
 8627SOL    HW226781   2.008   1.643   2.383
 8628SOL     OW26782   6.708   6.552   6.827
 8628SOL    HW126783   6.721   6.634   6.882
 8628SOL    HW226784   6.643   6.491   6.873
 8629SOL     OW26785   1.521   6.303   5.475
 8629SOL    HW126786   1.531   6.401   5.456
 8629SOL    HW226787   1.429   6.286   5.510
 8630SOL     OW26788   4.883   3.857   4.229
 8630SOL    HW126789   4.855   3.909   4.149
 8630SOL    HW226790   4.926   3.771   4.200
 8631SOL     OW26791   1.643   6.091   6.458
 8631SOL    HW126792   1.571   6.029   6.487
 8631SOL    HW226793   1.602   6.172   6.416
 8632SOL     OW26794   4.000   3.972   5.238
 8632SOL    HW126795   3.953   3.950   5.324
 8632SOL    HW226796   3.968   4.060   5.204
 8633SOL     OW26797   5.903   3.058   5.897
 8633SOL    HW126798   5.829   3.112   5.857
 8633SOL    HW226799   5.909   2.970   5.850
 8634SOL     OW26800   4.869   4.231   0.199
 8634SOL    HW126801   4.790   4.192   0.248
 8634SOL    HW226802   4.938   4.261   0.265
 8635SOL     OW26803   5.358   2.659   0.067
 8635SOL    HW126804   5.340   2.739   0.125
 8635SOL    HW226805   5.368   2.688   6.996
 8636SOL     OW26806   4.752   5.800   1.156
 8636SOL    HW126807   4.774   5.826   1.250
 8636SOL    HW226808   4.694   5.719   1.156
 8637SOL     OW26809   1.904   1.241   6.335
 8637SOL    HW126810   1.841   1.319   6.342
 8637SOL    HW226811   1.881   1.187   6.254
 8638SOL     OW26812   4.059   2.379   5.383
 8638SOL    HW126813   4.061   2.452   5.315
 8638SOL    HW226814   4.114   2.302   5.349
 8639SOL     OW26815   4.419   3.547   6.728
 8639SOL    HW126816   4.355   3.472   6.747
 8639SOL    HW226817   4.369   3.634   6.731
 8640SOL     OW26818   4.295   3.326   0.827
 8640SOL    HW126819   4.294   3.226   0.828
 8640SOL    HW226820   4.245   3.361   0.907
 8641SOL     OW26821   3.982   4.823   4.407
 8641SOL    HW126822   3.909   4.851   4.344
 8641SOL    HW226823   4.012   4.902   4.460
 8642SOL     OW26824   0.918   0.429   3.397
 8642SOL    HW126825   0.958   0.507   3.445
 8642SOL    HW226826   0.916   0.349   3.457
 8643SOL     OW26827   2.353   0.245   0.381
 8643SOL    HW126828   2.261   0.280   0.362
 8643SOL    HW226829   2.349   0.182   0.459
 8644SOL     OW26830   6.019   2.597   6.315
 8644SOL    HW126831   6.093   2.538   6.348
 8644SOL    HW226832   5.931   2.553   6.333
 8645SOL     OW26833   4.517   4.597   1.627
 8645SOL    HW126834   4.558   4.656   1.557
 8645SOL    HW226835   4.588   4.540   1.668
 8646SOL     OW26836   0.781   1.963   6.814
 8646SOL    HW126837   0.859   1.900   6.817
 8646SOL    HW226838   0.734   1.953   6.727
 8647SOL     OW26839   2.214   4.961   0.032
 8647SOL    HW126840   2.167   5.012   0.104
 8647SOL    HW226841   2.148   4.907   7.004
 8648SOL     OW26842   6.078   6.599   0.778
 8648SOL    HW126843   6.029   6.579   0.694
 8648SOL    HW226844   6.113   6.693   0.775
 8649SOL     OW26845   5.559   6.760   0.477
 8649SOL    HW126846   5.581   6.774   0.381
 8649SOL    HW226847   5.536   6.664   0.492
 8650SOL     OW26848   1.599   6.906   4.792
 8650SOL    HW126849   1.505   6.910   4.758
 8650SOL    HW226850   1.635   6.814   4.779
 8651SOL     OW26851   3.749   1.392   0.585
 8651SOL    HW126852   3.679   1.419   0.651
 8651SOL    HW226853   3.797   1.311   0.618
 8652SOL     OW26854   1.118   5.075   3.683
 8652SOL    HW126855   1.217   5.085   3.680
 8652SOL    HW226856   1.094   4.979   3.700
 8653SOL     OW26857   6.479   1.515   5.804
 8653SOL    HW126858   6.545   1.445   5.832
 8653SOL    HW226859   6.528   1.600   5.786
 8654SOL     OW26860   0.222   4.776   0.986
 8654SOL    HW126861   0.196   4.794   1.080
 8654SOL    HW226862   0.254   4.860   0.943
 8655SOL     OW26863   5.743   0.571   4.301
 8655SOL    HW126864   5.795   0.654   4.282
 8655SOL    HW226865   5.803   0.491   4.291
 8656SOL     OW26866   5.571   1.030   1.954
 8656SOL    HW126867   5.610   1.120   1.933
 8656SOL    HW226868   5.491   1.014   1.896
 8657SOL     OW26869   5.770   5.834   6.945
 8657SOL    HW126870   5.747   5.751   6.996
 8657SOL    HW226871   5.727   5.913   6.989
 8658SOL     OW26872   6.343   5.721   0.687
 8658SOL    HW126873   6.394   5.785   0.745
 8658SOL    HW226874   6.282   5.666   0.743
 8659SOL     OW26875   4.532   2.582   2.635
 8659SOL    HW126876   4.506   2.630   2.551
 8659SOL    HW226877   4.625   2.546   2.627
 8660SOL     OW26878   0.244   2.931   2.615
 8660SOL    HW126879   0.251   2.883   2.528
 8660SOL    HW226880   0.291   2.878   2.686
 8661SOL     OW26881   5.881   3.945   1.352
 8661SOL    HW126882   5.923   3.857   1.373
 8661SOL    HW226883   5.831   3.939   1.266
 8662SOL     OW26884   4.208   5.888   2.209
 8662SOL    HW126885   4.176   5.800   2.173
 8662SOL    HW226886   4.142   5.923   2.275
 8663SOL     OW26887   2.784   5.015   2.145
 8663SOL    HW126888   2.857   5.070   2.186
 8663SOL    HW226889   2.790   4.921   2.178
 8664SOL     OW26890   2.575   5.152   2.304
 8664SOL    HW126891   2.558   5.233   2.247
 8664SOL    HW226892   2.666   5.116   2.284
 8665SOL     OW26893   6.174   5.585   4.272
 8665SOL    HW126894   6.133   5.673   4.248
 8665SOL    HW226895   6.126   5.547   4.351
 8666SOL     OW26896   5.080   0.604   4.428
 8666SOL    HW126897   5.093   0.534   4.357
 8666SOL    HW226898   5.133   0.579   4.509
 8667SOL     OW26899   5.111   1.679   4.061
 8667SOL    HW126900   5.189   1.729   4.097
 8667SOL    HW226901   5.135   1.583   4.048
 8668SOL     OW26902   5.441   3.456   5.107
 8668SOL    HW126903   5.502   3.429   5.033
 8668SOL    HW226904   5.361   3.395   5.108
 8669SOL     OW26905   0.706   6.278   6.300
 8669SOL    HW126906   0.702   6.359   6.241
 8669SOL    HW226907   0.623   6.274   6.356
 8670SOL     OW26908   4.831   5.145   5.761
 8670SOL    HW126909   4.915   5.092   5.765
 8670SOL    HW226910   4.753   5.083   5.750
 8671SOL     OW26911   0.230   1.779   2.160
 8671SOL    HW126912   0.197   1.849   2.223
 8671SOL    HW226913   0.285   1.712   2.210
 8672SOL     OW26914   0.607   0.176   3.425
 8672SOL    HW126915   0.700   0.140   3.431
 8672SOL    HW226916   0.544   0.115   3.474
 8673SOL     OW26917   6.539   1.532   0.430
 8673SOL    HW126918   6.545   1.549   0.331
 8673SOL    HW226919   6.609   1.585   0.477
 8674SOL     OW26920   6.798   4.833   2.600
 8674SOL    HW126921   6.761   4.846   2.692
 8674SOL    HW226922   6.845   4.916   2.571
 8675SOL     OW26923   4.292   1.094   5.323
 8675SOL    HW126924   4.383   1.078   5.286
 8675SOL    HW226925   4.292   1.177   5.379
 8676SOL     OW26926   5.182   0.192   1.466
 8676SOL    HW126927   5.167   0.289   1.450
 8676SOL    HW226928   5.147   0.140   1.388
 8677SOL     OW26929   1.725   6.094   5.998
 8677SOL    HW126930   1.670   6.171   6.030
 8677SOL    HW226931   1.762   6.116   5.908
 8678SOL     OW26932   1.125   0.147   0.863
 8678SOL    HW126933   1.115   0.231   0.810
 8678SOL    HW226934   1.035   0.115   0.893
 8679SOL     OW26935   2.084   0.987   3.640
 8679SOL    HW126936   2.082   1.002   3.541
 8679SOL    HW226937   2.075   1.075   3.687
 8680SOL     OW26938   6.132   2.417   6.712
 8680SOL    HW126939   6.069   2.489   6.683
 8680SOL    HW226940   6.202   2.456   6.772
 8681SOL     OW26941   4.483   5.206   1.345
 8681SOL    HW126942   4.531   5.118   1.344
 8681SOL    HW226943   4.496   5.251   1.434
 8682SOL     OW26944   6.838   0.841   1.378
 8682SOL    HW126945   6.771   0.867   1.448
 8682SOL    HW226946   6.812   0.753   1.338
 8683SOL     OW26947   1.730   3.070   5.013
 8683SOL    HW126948   1.725   3.142   4.944
 8683SOL    HW226949   1.673   3.094   5.091
 8684SOL     OW26950   6.811   3.130   4.645
 8684SOL    HW126951   6.909   3.139   4.627
 8684SOL    HW226952   6.784   3.192   4.718
 8685SOL     OW26953   5.456   3.113   6.615
 8685SOL    HW126954   5.466   3.114   6.714
 8685SOL    HW226955   5.509   3.037   6.577
 8686SOL     OW26956   6.348   0.020   2.251
 8686SOL    HW126957   6.346   6.973   2.182
 8686SOL    HW226958   6.255   0.042   2.279
 8687SOL     OW26959   6.032   5.109   2.961
 8687SOL    HW126960   6.043   5.149   3.052
 8687SOL    HW226961   5.975   5.169   2.905
 8688SOL     OW26962   1.327   4.001   6.834
 8688SOL    HW126963   1.247   3.941   6.830
 8688SOL    HW226964   1.318   4.063   6.912
 8689SOL     OW26965   4.250   3.323   7.005
 8689SOL    HW126966   4.213   3.353   6.917
 8689SOL    HW226967   4.293   3.401   0.027
 8690SOL     OW26968   0.792   2.814   2.743
 8690SOL    HW126969   0.812   2.816   2.645
 8690SOL    HW226970   0.728   2.740   2.762
 8691SOL     OW26971   2.874   1.856   5.220
 8691SOL    HW126972   2.793   1.897   5.177
 8691SOL    HW226973   2.890   1.900   5.308
 8692SOL     OW26974   3.681   0.775   4.642
 8692SOL    HW126975   3.718   0.683   4.629
 8692SOL    HW226976   3.744   0.842   4.603
 8693SOL     OW26977   6.217   0.702   5.951
 8693SOL    HW126978   6.287   0.758   5.995
 8693SOL    HW226979   6.127   0.740   5.971
 8694SOL     OW26980   6.353   2.059   4.685
 8694SOL    HW126981   6.404   2.143   4.700
 8694SOL    HW226982   6.373   1.994   4.759
 8695SOL     OW26983   3.845   2.702   5.798
 8695SOL    HW126984   3.883   2.794   5.789
 8695SOL    HW226985   3.761   2.707   5.852
 8696SOL     OW26986   2.690   5.821   5.323
 8696SOL    HW126987   2.674   5.727   5.293
 8696SOL    HW226988   2.621   5.847   5.390
 8697SOL     OW26989   0.365   4.309   6.218
 8697SOL    HW126990   0.332   4.340   6.129
 8697SOL    HW226991   0.291   4.319   6.285
 8698SOL     OW26992   5.280   6.144   5.534
 8698SOL    HW126993   5.228   6.136   5.449
 8698SOL    HW226994   5.367   6.095   5.525
 8699SOL     OW26995   1.834   2.954   6.092
 8699SOL    HW126996   1.928   2.984   6.106
 8699SOL    HW226997   1.778   3.031   6.062
 8700SOL     OW26998   1.374   1.064   5.213
 8700SOL    HW126999   1.373   1.139   5.147
 8700SOL    HW227000   1.395   1.100   5.304
 8701SOL     OW27001   1.734   1.221   0.011
 8701SOL    HW127002   1.677   1.140   0.001
 8701SOL    HW227003   1.830   1.195   0.014
 8702SOL     OW27004   5.238   4.880   1.953
 8702SOL    HW127005   5.264   4.872   1.857
 8702SOL    HW227006   5.150   4.835   1.968
 8703SOL     OW27007   3.296   4.894   6.702
 8703SOL    HW127008   3.238   4.938   6.634
 8703SOL    HW227009   3.240   4.844   6.767
 8704SOL     OW27010   6.386   3.926   3.403
 8704SOL    HW127011   6.334   3.978   3.470
 8704SOL    HW227012   6.406   3.835   3.439
 8705SOL     OW27013   4.422   1.803   6.136
 8705SOL    HW127014   4.399   1.723   6.192
 8705SOL    HW227015   4.398   1.786   6.041
 8706SOL     OW27016   5.179   1.977   6.922
 8706SOL    HW127017   5.168   1.921   7.004
 8706SOL    HW227018   5.164   1.920   6.841
 8707SOL     OW27019   1.140   2.939   4.482
 8707SOL    HW127020   1.159   2.970   4.388
 8707SOL    HW227021   1.192   2.995   4.546
 8708SOL     OW27022   4.031   1.848   3.922
 8708SOL    HW127023   4.016   1.947   3.927
 8708SOL    HW227024   3.983   1.811   3.843
 8709SOL     OW27025   6.675   6.756   0.003
 8709SOL    HW127026   6.650   6.853   0.002
 8709SOL    HW227027   6.716   6.733   0.092
 8710SOL     OW27028   2.124   2.630   3.537
 8710SOL    HW127029   2.038   2.646   3.586
 8710SOL    HW227030   2.124   2.537   3.501
 8711SOL     OW27031   1.535   6.677   2.520
 8711SOL    HW127032   1.618   6.719   2.555
 8711SOL    HW227033   1.525   6.586   2.560
 8712SOL     OW27034   3.281   1.369   4.022
 8712SOL    HW127035   3.278   1.291   4.085
 8712SOL    HW227036   3.207   1.360   3.955
 8713SOL     OW27037   0.127   4.344   1.283
 8713SOL    HW127038   0.033   4.315   1.264
 8713SOL    HW227039   0.170   4.374   1.198
 8714SOL     OW27040   0.972   6.963   6.466
 8714SOL    HW127041   0.997   6.983   6.561
 8714SOL    HW227042   0.940   6.868   6.459
 8715SOL     OW27043   3.906   1.437   6.893
 8715SOL    HW127044   3.838   1.419   6.821
 8715SOL    HW227045   3.917   1.536   6.904
 8716SOL     OW27046   0.687   6.574   1.154
 8716SOL    HW127047   0.600   6.612   1.122
 8716SOL    HW227048   0.680   6.474   1.157
 8717SOL     OW27049   2.182   3.648   5.841
 8717SOL    HW127050   2.145   3.688   5.757
 8717SOL    HW227051   2.270   3.690   5.861
 8718SOL     OW27052   2.167   3.146   6.519
 8718SOL    HW127053   2.266   3.148   6.532
 8718SOL    HW227054   2.136   3.052   6.507
 8719SOL     OW27055   4.092   0.385   0.223
 8719SOL    HW127056   4.120   0.464   0.169
 8719SOL    HW227057   4.004   0.405   0.268
 8720SOL     OW27058   0.197   6.092   6.398
 8720SOL    HW127059   0.126   6.043   6.449
 8720SOL    HW227060   0.284   6.084   6.446
 8721SOL     OW27061   6.171   0.381   0.113
 8721SOL    HW127062   6.265   0.400   0.085
 8721SOL    HW227063   6.164   0.285   0.141
 8722SOL     OW27064   3.836   1.090   6.928
 8722SOL    HW127065   3.855   0.994   6.952
 8722SOL    HW227066   3.918   1.145   6.945
 8723SOL     OW27067   5.625   7.017   2.270
 8723SOL    HW127068   5.702   6.972   2.316
 8723SOL    HW227069   5.544   6.959   2.275
 8724SOL     OW27070   5.845   0.804   4.188
 8724SOL    HW127071   5.799   0.779   4.102
 8724SOL    HW227072   5.921   0.865   4.168
 8725SOL     OW27073   0.828   6.030   5.255
 8725SOL    HW127074   0.759   5.958   5.244
 8725SOL    HW227075   0.803   6.088   5.333
 8726SOL     OW27076   6.638   0.601   0.402
 8726SOL    HW127077   6.544   0.571   0.420
 8726SOL    HW227078   6.659   0.681   0.457
 8727SOL     OW27079   5.836   6.831   6.935
 8727SOL    HW127080   5.795   6.754   6.887
 8727SOL    HW227081   5.822   6.915   6.881
 8728SOL     OW27082   5.308   1.965   2.052
 8728SOL    HW127083   5.263   1.889   2.004
 8728SOL    HW227084   5.397   1.936   2.086
 8729SOL     OW27085   3.016   5.345   5.483
 8729SOL    HW127086   2.920   5.372   5.477
 8729SOL    HW227087   3.045   5.345   5.579
 8730SOL     OW27088   5.083   4.494   3.438
 8730SOL    HW127089   5.056   4.406   3.478
 8730SOL    HW227090   5.069   4.491   3.339
 8731SOL     OW27091   0.838   2.955   3.128
 8731SOL    HW127092   0.860   2.917   3.038
 8731SOL    HW227093   0.786   2.888   3.181
 8732SOL     OW27094   5.890   4.398   2.219
 8732SOL    HW127095   5.906   4.406   2.317
 8732SOL    HW227096   5.816   4.460   2.192
 8733SOL     OW27097   0.880   6.110   0.538
 8733SOL    HW127098   0.813   6.048   0.497
 8733SOL    HW227099   0.846   6.204   0.532
 8734SOL     OW27100   6.552   3.058   2.530
 8734SOL    HW127101   6.613   3.000   2.584
 8734SOL    HW227102   6.598   3.086   2.446
 8735SOL     OW27103   0.935   3.208   5.343
 8735SOL    HW127104   0.968   3.131   5.397
 8735SOL    HW227105   0.879   3.267   5.401
 8736SOL     OW27106   0.465   5.487   2.199
 8736SOL    HW127107   0.514   5.401   2.184
 8736SOL    HW227108   0.431   5.491   2.293
 8737SOL     OW27109   2.603   6.312   6.894
 8737SOL    HW127110   2.651   6.365   6.964
 8737SOL    HW227111   2.508   6.299   6.922
 8738SOL     OW27112   2.407   5.376   3.534
 8738SOL    HW127113   2.333   5.314   3.560
 8738SOL    HW227114   2.421   5.373   3.435
 8739SOL     OW27115   5.548   4.669   5.682
 8739SOL    HW127116   5.617   4.711   5.741
 8739SOL    HW227117   5.465   4.725   5.682
 8740SOL     OW27118   3.700   2.107   2.654
 8740SOL    HW127119   3.631   2.104   2.581
 8740SOL    HW227120   3.780   2.156   2.622
 8741SOL     OW27121   2.337   0.454   2.585
 8741SOL    HW127122   2.263   0.450   2.518
 8741SOL    HW227123   2.424   0.470   2.538
 8742SOL     OW27124   4.011   0.026   1.862
 8742SOL    HW127125   3.989   0.105   1.806
 8742SOL    HW227126   4.037   0.055   1.954
 8743SOL     OW27127   2.102   0.806   1.070
 8743SOL    HW127128   2.098   0.744   1.148
 8743SOL    HW227129   2.147   0.891   1.097
 8744SOL     OW27130   4.434   3.029   0.489
 8744SOL    HW127131   4.505   3.085   0.445
 8744SOL    HW227132   4.418   2.947   0.435
 8745SOL     OW27133   6.676   2.347   6.666
 8745SOL    HW127134   6.695   2.259   6.624
 8745SOL    HW227135   6.669   2.336   6.765
 8746SOL     OW27136   4.753   5.680   4.666
 8746SOL    HW127137   4.676   5.657   4.726
 8746SOL    HW227138   4.731   5.764   4.615
 8747SOL     OW27139   0.213   1.098   2.561
 8747SOL    HW127140   0.242   1.194   2.550
 8747SOL    HW227141   0.155   1.072   2.484
 8748SOL     OW27142   0.609   2.255   4.541
 8748SOL    HW127143   0.670   2.299   4.606
 8748SOL    HW227144   0.601   2.157   4.563
 8749SOL     OW27145   1.819   1.063   5.341
 8749SOL    HW127146   1.767   1.123   5.280
 8749SOL    HW227147   1.791   0.968   5.326
 8750SOL     OW27148   3.995   3.702   5.450
 8750SOL    HW127149   3.941   3.771   5.497
 8750SOL    HW227150   3.996   3.721   5.352
 8751SOL     OW27151   0.044   0.980   1.630
 8751SOL    HW127152   0.126   1.023   1.666
 8751SOL    HW227153   0.068   0.924   1.550
 8752SOL     OW27154   4.341   2.923   6.208
 8752SOL    HW127155   4.399   2.841   6.212
 8752SOL    HW227156   4.258   2.902   6.156
 8753SOL     OW27157   2.237   3.192   0.075
 8753SOL    HW127158   2.138   3.206   0.074
 8753SOL    HW227159   2.259   3.109   0.023
 8754SOL     OW27160   3.094   4.632   5.760
 8754SOL    HW127161   3.088   4.691   5.679
 8754SOL    HW227162   3.087   4.536   5.733
 8755SOL     OW27163   2.340   1.293   1.178
 8755SOL    HW127164   2.304   1.365   1.238
 8755SOL    HW227165   2.431   1.319   1.146
 8756SOL     OW27166   1.681   2.938   3.498
 8756SOL    HW127167   1.771   2.974   3.475
 8756SOL    HW227168   1.663   2.856   3.443
 8757SOL     OW27169   5.122   6.024   6.327
 8757SOL    HW127170   5.103   6.122   6.326
 8757SOL    HW227171   5.182   6.002   6.403
 8758SOL     OW27172   4.871   6.570   3.477
 8758SOL    HW127173   4.928   6.512   3.536
 8758SOL    HW227174   4.798   6.514   3.436
 8759SOL     OW27175   6.199   2.096   6.649
 8759SOL    HW127176   6.287   2.132   6.677
 8759SOL    HW227177   6.126   2.142   6.700
 8760SOL     OW27178   2.530   1.621   4.302
 8760SOL    HW127179   2.496   1.618   4.396
 8760SOL    HW227180   2.630   1.626   4.302
 8761SOL     OW27181   6.333   1.837   1.774
 8761SOL    HW127182   6.421   1.813   1.815
 8761SOL    HW227183   6.337   1.931   1.739
 8762SOL     OW27184   1.096   5.785   4.205
 8762SOL    HW127185   1.130   5.879   4.203
 8762SOL    HW227186   1.021   5.775   4.140
 8763SOL     OW27187   5.525   0.341   5.295
 8763SOL    HW127188   5.473   0.324   5.211
 8763SOL    HW227189   5.592   0.413   5.278
 8764SOL     OW27190   4.905   6.008   5.969
 8764SOL    HW127191   4.851   6.047   5.894
 8764SOL    HW227192   4.972   6.075   6.001
 8765SOL     OW27193   5.511   1.334   4.673
 8765SOL    HW127194   5.492   1.393   4.751
 8765SOL    HW227195   5.590   1.276   4.692
 8766SOL     OW27196   4.247   4.216   5.320
 8766SOL    HW127197   4.257   4.291   5.254
 8766SOL    HW227198   4.150   4.194   5.331
 8767SOL     OW27199   4.164   0.073   3.088
 8767SOL    HW127200   4.219   7.020   3.121
 8767SOL    HW227201   4.069   0.045   3.079
 8768SOL     OW27202   1.278   2.151   1.157
 8768SOL    HW127203   1.341   2.138   1.080
 8768SOL    HW227204   1.262   2.063   1.202
 8769SOL     OW27205   0.349   1.498   1.575
 8769SOL    HW127206   0.285   1.562   1.532
 8769SOL    HW227207   0.437   1.544   1.590
 8770SOL     OW27208   5.542   4.637   2.335
 8770SOL    HW127209   5.470   4.583   2.378
 8770SOL    HW227210   5.607   4.577   2.290
 8771SOL     OW27211   0.295   2.637   6.230
 8771SOL    HW127212   0.274   2.584   6.313
 8771SOL    HW227213   0.356   2.713   6.254
 8772SOL     OW27214   4.524   0.756   6.108
 8772SOL    HW127215   4.602   0.723   6.053
 8772SOL    HW227216   4.531   0.855   6.120
 8773SOL     OW27217   5.426   2.638   3.027
 8773SOL    HW127218   5.437   2.726   2.982
 8773SOL    HW227219   5.505   2.580   3.006
 8774SOL     OW27220   0.356   0.403   0.016
 8774SOL    HW127221   0.376   0.397   6.942
 8774SOL    HW227222   0.273   0.350   0.035
 8775SOL     OW27223   5.020   1.068   5.373
 8775SOL    HW127224   4.950   1.028   5.432
 8775SOL    HW227225   5.092   1.000   5.355
 8776SOL     OW27226   5.097   3.302   1.913
 8776SOL    HW127227   5.112   3.231   1.844
 8776SOL    HW227228   5.172   3.302   1.979
 8777SOL     OW27229   0.238   3.401   3.732
 8777SOL    HW127230   0.287   3.420   3.648
 8777SOL    HW227231   0.210   3.487   3.775
 8778SOL     OW27232   5.063   3.502   5.916
 8778SOL    HW127233   5.071   3.416   5.967
 8778SOL    HW227234   4.969   3.536   5.923
 8779SOL     OW27235   2.955   5.444   2.666
 8779SOL    HW127236   2.958   5.361   2.610
 8779SOL    HW227237   2.862   5.461   2.697
 8780SOL     OW27238   0.445   6.489   3.536
 8780SOL    HW127239   0.532   6.441   3.548
 8780SOL    HW227240   0.370   6.430   3.565
 8781SOL     OW27241   4.686   0.053   3.408
 8781SOL    HW127242   4.646   0.143   3.391
 8781SOL    HW227243   4.615   7.007   3.400
 8782SOL     OW27244   5.809   1.537   1.740
 8782SOL    HW127245   5.744   1.467   1.712
 8782SOL    HW227246   5.769   1.594   1.812
 8783SOL     OW27247   6.544   4.073   4.474
 8783SOL    HW127248   6.557   4.007   4.400
 8783SOL    HW227249   6.572   4.032   4.560
 8784SOL     OW27250   6.412   6.099   0.497
 8784SOL    HW127251   6.326   6.080   0.545
 8784SOL    HW227252   6.484   6.117   0.563
 8785SOL     OW27253   6.738   4.973   6.273
 8785SOL    HW127254   6.746   4.889   6.219
 8785SOL    HW227255   6.646   5.012   6.260
 8786SOL     OW27256   3.588   1.575   1.849
 8786SOL    HW127257   3.591   1.561   1.948
 8786SOL    HW227258   3.515   1.639   1.826
 8787SOL     OW27259   3.185   0.651   2.386
 8787SOL    HW127260   3.201   0.657   2.288
 8787SOL    HW227261   3.184   0.555   2.414
 8788SOL     OW27262   6.704   1.403   5.443
 8788SOL    HW127263   6.671   1.312   5.469
 8788SOL    HW227264   6.639   1.446   5.380
 8789SOL     OW27265   6.793   4.238   5.604
 8789SOL    HW127266   6.842   4.167   5.553
 8789SOL    HW227267   6.758   4.201   5.689
 8790SOL     OW27268   6.574   0.937   6.736
 8790SOL    HW127269   6.605   0.982   6.819
 8790SOL    HW227270   6.485   0.974   6.709
 8791SOL     OW27271   4.874   6.329   5.142
 8791SOL    HW127272   4.957   6.384   5.150
 8791SOL    HW227273   4.807   6.377   5.084
 8792SOL     OW27274   3.249   4.903   2.727
 8792SOL    HW127275   3.168   4.862   2.686
 8792SOL    HW227276   3.329   4.886   2.668
 8793SOL     OW27277   0.640   4.976   3.723
 8793SOL    HW127278   0.671   4.888   3.759
 8793SOL    HW227279   0.691   4.999   3.640
 8794SOL     OW27280   6.505   0.890   3.599
 8794SOL    HW127281   6.485   0.826   3.673
 8794SOL    HW227282   6.447   0.869   3.520
 8795SOL     OW27283   1.426   5.047   4.753
 8795SOL    HW127284   1.330   5.035   4.731
 8795SOL    HW227285   1.460   4.965   4.800
 8796SOL     OW27286   5.917   3.567   3.111
 8796SOL    HW127287   5.969   3.492   3.153
 8796SOL    HW227288   5.910   3.643   3.175
 8797SOL     OW27289   6.935   7.017   4.200
 8797SOL    HW127290   6.913   6.960   4.279
 8797SOL    HW227291   6.868   7.000   4.127
 8798SOL     OW27292   4.515   6.192   5.873
 8798SOL    HW127293   4.438   6.171   5.932
 8798SOL    HW227294   4.496   6.276   5.822
 8799SOL     OW27295   2.951   4.902   2.475
 8799SOL    HW127296   2.929   4.877   2.569
 8799SOL    HW227297   2.883   4.966   2.440
 8800SOL     OW27298   5.989   5.283   5.452
 8800SOL    HW127299   6.054   5.355   5.428
 8800SOL    HW227300   6.033   5.219   5.515
 8801SOL     OW27301   6.135   1.783   4.626
 8801SOL    HW127302   6.214   1.845   4.637
 8801SOL    HW227303   6.109   1.780   4.530
 8802SOL     OW27304   1.663   5.378   5.673
 8802SOL    HW127305   1.592   5.393   5.604
 8802SOL    HW227306   1.709   5.464   5.692
 8803SOL     OW27307   6.675   0.592   0.112
 8803SOL    HW127308   6.640   0.617   0.203
 8803SOL    HW227309   6.636   0.653   0.043
 8804SOL     OW27310   1.976   6.312   1.322
 8804SOL    HW127311   2.046   6.378   1.350
 8804SOL    HW227312   1.913   6.296   1.398
 8805SOL     OW27313   3.887   5.329   3.995
 8805SOL    HW127314   3.885   5.409   3.935
 8805SOL    HW227315   3.973   5.328   4.047
 8806SOL     OW27316   2.021   4.835   0.774
 8806SOL    HW127317   1.950   4.894   0.812
 8806SOL    HW227318   2.098   4.830   0.838
 8807SOL     OW27319   4.527   1.670   6.543
 8807SOL    HW127320   4.466   1.637   6.614
 8807SOL    HW227321   4.622   1.666   6.575
 8808SOL     OW27322   0.232   2.125   6.708
 8808SOL    HW127323   0.171   2.135   6.629
 8808SOL    HW227324   0.273   2.214   6.730
 8809SOL     OW27325   2.208   4.461   3.464
 8809SOL    HW127326   2.283   4.449   3.399
 8809SOL    HW227327   2.121   4.452   3.415
 8810SOL     OW27328   5.640   1.188   5.315
 8810SOL    HW127329   5.689   1.238   5.386
 8810SOL    HW227330   5.703   1.170   5.239
 8811SOL     OW27331   3.623   0.433   2.998
 8811SOL    HW127332   3.706   0.408   3.047
 8811SOL    HW227333   3.644   0.507   2.933
 8812SOL     OW27334   3.081   0.461   0.339
 8812SOL    HW127335   3.105   0.428   0.248
 8812SOL    HW227336   3.105   0.557   0.347
 8813SOL     OW27337   1.657   4.578   2.647
 8813SOL    HW127338   1.716   4.640   2.698
 8813SOL    HW227339   1.698   4.487   2.646
 8814SOL     OW27340   5.502   6.911   0.858
 8814SOL    HW127341   5.587   6.860   0.845
 8814SOL    HW227342   5.439   6.891   0.782
 8815SOL     OW27343   5.456   0.132   1.266
 8815SOL    HW127344   5.430   0.035   1.270
 8815SOL    HW227345   5.381   0.185   1.226
 8816SOL     OW27346   0.547   0.191   6.844
 8816SOL    HW127347   0.572   0.284   6.816
 8816SOL    HW227348   0.471   0.159   6.789
 8817SOL     OW27349   6.803   3.575   4.265
 8817SOL    HW127350   6.734   3.504   4.253
 8817SOL    HW227351   6.798   3.611   4.358
 8818SOL     OW27352   1.083   6.251   3.717
 8818SOL    HW127353   1.116   6.213   3.630
 8818SOL    HW227354   1.140   6.329   3.742
 8819SOL     OW27355   6.070   4.529   5.311
 8819SOL    HW127356   5.994   4.591   5.330
 8819SOL    HW227357   6.156   4.580   5.313
 8820SOL     OW27358   2.822   1.703   4.604
 8820SOL    HW127359   2.773   1.785   4.575
 8820SOL    HW227360   2.901   1.729   4.659
 8821SOL     OW27361   1.238   5.319   0.277
 8821SOL    HW127362   1.257   5.416   0.290
 8821SOL    HW227363   1.145   5.306   0.244
 8822SOL     OW27364   0.561   0.353   3.214
 8822SOL    HW127365   0.570   0.275   3.275
 8822SOL    HW227366   0.639   0.414   3.225
 8823SOL     OW27367   2.561   0.999   2.208
 8823SOL    HW127368   2.537   0.964   2.298
 8823SOL    HW227369   2.633   0.943   2.168
 8824SOL     OW27370   1.150   0.811   0.958
 8824SOL    HW127371   1.223   0.878   0.953
 8824SOL    HW227372   1.088   0.834   1.033
 8825SOL     OW27373   0.625   0.684   1.628
 8825SOL    HW127374   0.626   0.783   1.641
 8825SOL    HW227375   0.717   0.647   1.643
 8826SOL     OW27376   1.208   3.313   1.145
 8826SOL    HW127377   1.234   3.317   1.241
 8826SOL    HW227378   1.233   3.399   1.100
 8827SOL     OW27379   3.784   0.165   2.751
 8827SOL    HW127380   3.755   0.258   2.728
 8827SOL    HW227381   3.709   0.101   2.733
 8828SOL     OW27382   3.839   4.845   6.917
 8828SOL    HW127383   3.937   4.851   6.898
 8828SOL    HW227384   3.825   4.832   7.015
 8829SOL     OW27385   6.181   2.054   1.478
 8829SOL    HW127386   6.258   2.077   1.538
 8829SOL    HW227387   6.174   1.954   1.470
 8830SOL     OW27388   1.731   1.623   3.217
 8830SOL    HW127389   1.764   1.553   3.280
 8830SOL    HW227390   1.808   1.662   3.167
 8831SOL     OW27391   5.927   3.009   2.771
 8831SOL    HW127392   5.845   3.042   2.724
 8831SOL    HW227393   5.906   2.992   2.868
 8832SOL     OW27394   0.623   6.413   4.341
 8832SOL    HW127395   0.638   6.511   4.352
 8832SOL    HW227396   0.644   6.366   4.426
 8833SOL     OW27397   3.509   3.756   0.153
 8833SOL    HW127398   3.458   3.798   0.078
 8833SOL    HW227399   3.592   3.714   0.118
 8834SOL     OW27400   5.940   3.762   5.131
 8834SOL    HW127401   5.980   3.847   5.096
 8834SOL    HW227402   5.997   3.684   5.104
 8835SOL     OW27403   5.702   1.344   6.628
 8835SOL    HW127404   5.794   1.353   6.665
 8835SOL    HW227405   5.662   1.435   6.619
 8836SOL     OW27406   5.064   2.467   0.156
 8836SOL    HW127407   5.040   2.397   0.089
 8836SOL    HW227408   5.017   2.552   0.134
 8837SOL     OW27409   6.914   6.894   1.598
 8837SOL    HW127410   6.910   6.925   1.693
 8837SOL    HW227411   6.842   6.939   1.545
 8838SOL     OW27412   0.727   4.861   2.459
 8838SOL    HW127413   0.659   4.837   2.389
 8838SOL    HW227414   0.789   4.784   2.472
 8839SOL     OW27415   3.643   5.970   2.481
 8839SOL    HW127416   3.711   6.043   2.486
 8839SOL    HW227417   3.593   5.966   2.568
 8840SOL     OW27418   5.962   6.997   2.017
 8840SOL    HW127419   5.919   0.057   2.048
 8840SOL    HW227420   5.957   6.992   1.917
 8841SOL     OW27421   5.523   1.236   2.633
 8841SOL    HW127422   5.539   1.331   2.606
 8841SOL    HW227423   5.426   1.215   2.622
 8842SOL     OW27424   3.228   3.924   3.713
 8842SOL    HW127425   3.212   3.975   3.798
 8842SOL    HW227426   3.162   3.954   3.644
 8843SOL     OW27427   1.397   3.432   4.260
 8843SOL    HW127428   1.429   3.514   4.308
 8843SOL    HW227429   1.383   3.358   4.325
 8844SOL     OW27430   0.199   1.761   4.581
 8844SOL    HW127431   0.251   1.727   4.503
 8844SOL    HW227432   0.200   1.693   4.654
 8845SOL     OW27433   2.345   4.739   0.111
 8845SOL    HW127434   2.296   4.824   0.093
 8845SOL    HW227435   2.443   4.757   0.116
 8846SOL     OW27436   5.419   4.641   4.469
 8846SOL    HW127437   5.405   4.632   4.567
 8846SOL    HW227438   5.340   4.604   4.420
 8847SOL     OW27439   2.132   1.304   3.425
 8847SOL    HW127440   2.116   1.207   3.407
 8847SOL    HW227441   2.196   1.313   3.502
 8848SOL     OW27442   3.368   1.969   2.173
 8848SOL    HW127443   3.281   2.017   2.167
 8848SOL    HW227444   3.356   1.884   2.223
 8849SOL     OW27445   3.209   4.885   3.628
 8849SOL    HW127446   3.294   4.911   3.674
 8849SOL    HW227447   3.195   4.943   3.548
 8850SOL     OW27448   2.930   1.154   0.831
 8850SOL    HW127449   2.857   1.223   0.828
 8850SOL    HW227450   3.016   1.194   0.800
 8851SOL     OW27451   1.211   4.473   2.027
 8851SOL    HW127452   1.144   4.546   2.013
 8851SOL    HW227453   1.212   4.447   2.123
 8852SOL     OW27454   4.681   3.100   5.956
 8852SOL    HW127455   4.743   3.023   5.941
 8852SOL    HW227456   4.711   3.179   5.903
 8853SOL     OW27457   3.190   0.564   4.114
 8853SOL    HW127458   3.205   0.557   4.213
 8853SOL    HW227459   3.110   0.622   4.096
 8854SOL     OW27460   2.525   0.518   6.049
 8854SOL    HW127461   2.597   0.450   6.068
 8854SOL    HW227462   2.443   0.471   6.016
 8855SOL     OW27463   6.913   6.476   0.477
 8855SOL    HW127464   6.951   6.486   0.569
 8855SOL    HW227465   6.975   6.516   0.410
 8856SOL     OW27466   6.095   0.134   5.649
 8856SOL    HW127467   6.058   0.202   5.586
 8856SOL    HW227468   6.043   0.135   5.734
 8857SOL     OW27469   6.257   2.192   3.890
 8857SOL    HW127470   6.228   2.213   3.797
 8857SOL    HW227471   6.177   2.177   3.948
 8858SOL     OW27472   2.189   3.472   5.598
 8858SOL    HW127473   2.140   3.559   5.593
 8858SOL    HW227474   2.189   3.429   5.508
 8859SOL     OW27475   0.066   6.822   5.387
 8859SOL    HW127476   7.004   6.815   5.336
 8859SOL    HW227477   0.047   6.849   5.481
 8860SOL     OW27478   1.762   4.011   2.939
 8860SOL    HW127479   1.709   4.096   2.949
 8860SOL    HW227480   1.834   4.009   3.007
 8861SOL     OW27481   3.358   2.072   5.799
 8861SOL    HW127482   3.407   2.120   5.872
 8861SOL    HW227483   3.272   2.037   5.834
 8862SOL     OW27484   6.440   1.407   3.581
 8862SOL    HW127485   6.408   1.481   3.640
 8862SOL    HW227486   6.391   1.323   3.603
 8863SOL     OW27487   1.765   6.001   4.639
 8863SOL    HW127488   1.668   6.026   4.647
 8863SOL    HW227489   1.809   6.006   4.728
 8864SOL     OW27490   2.441   3.358   6.491
 8864SOL    HW127491   2.540   3.350   6.508
 8864SOL    HW227492   2.405   3.434   6.545
 8865SOL     OW27493   2.999   1.817   4.775
 8865SOL    HW127494   3.076   1.819   4.839
 8865SOL    HW227495   2.913   1.829   4.825
 8866SOL     OW27496   4.959   6.940   3.957
 8866SOL    HW127497   4.860   6.953   3.968
 8866SOL    HW227498   5.003   0.004   3.940
 8867SOL     OW27499   5.129   3.108   2.816
 8867SOL    HW127500   5.031   3.087   2.816
 8867SOL    HW227501   5.165   3.096   2.909
 8868SOL     OW27502   6.161   3.608   0.718
 8868SOL    HW127503   6.213   3.592   0.803
 8868SOL    HW227504   6.073   3.649   0.741
 8869SOL     OW27505   4.475   5.769   3.231
 8869SOL    HW127506   4.563   5.796   3.190
 8869SOL    HW227507   4.491   5.735   3.324
 8870SOL     OW27508   3.665   0.007   0.158
 8870SOL    HW127509   3.720   0.009   0.075
 8870SOL    HW227510   3.724   7.012   0.236
 8871SOL     OW27511   3.487   0.963   3.768
 8871SOL    HW127512   3.474   0.908   3.850
 8871SOL    HW227513   3.398   0.990   3.732
 8872SOL     OW27514   1.772   4.209   4.668
 8872SOL    HW127515   1.833   4.220   4.589
 8872SOL    HW227516   1.825   4.210   4.752
 8873SOL     OW27517   6.560   6.241   1.808
 8873SOL    HW127518   6.604   6.197   1.886
 8873SOL    HW227519   6.494   6.178   1.767
 8874SOL     OW27520   2.272   6.600   0.842
 8874SOL    HW127521   2.301   6.516   0.888
 8874SOL    HW227522   2.273   6.586   0.743
 8875SOL     OW27523   1.093   2.941   5.092
 8875SOL    HW127524   1.046   2.906   5.173
 8875SOL    HW227525   1.094   2.871   5.021
 8876SOL     OW27526   0.873   7.021   4.711
 8876SOL    HW127527   0.861   6.956   4.786
 8876SOL    HW227528   0.954   6.995   4.658
 8877SOL     OW27529   3.127   0.810   4.827
 8877SOL    HW127530   3.049   0.784   4.769
 8877SOL    HW227531   3.209   0.765   4.794
 8878SOL     OW27532   0.478   5.368   0.572
 8878SOL    HW127533   0.494   5.440   0.640
 8878SOL    HW227534   0.533   5.288   0.595
 8879SOL     OW27535   6.053   5.052   1.138
 8879SOL    HW127536   6.044   5.143   1.178
 8879SOL    HW227537   6.070   4.986   1.211
 8880SOL     OW27538   6.937   5.760   4.484
 8880SOL    HW127539   7.014   5.824   4.482
 8880SOL    HW227540   6.855   5.808   4.516
 8881SOL     OW27541   6.080   0.131   4.121
 8881SOL    HW127542   6.063   0.035   4.143
 8881SOL    HW227543   6.035   0.189   4.189
 8882SOL     OW27544   5.062   1.705   0.717
 8882SOL    HW127545   5.092   1.760   0.795
 8882SOL    HW227546   4.967   1.677   0.730
 8883SOL     OW27547   0.914   0.791   5.633
 8883SOL    HW127548   0.845   0.834   5.692
 8883SOL    HW227549   0.938   0.854   5.559
 8884SOL     OW27550   5.693   5.793   6.174
 8884SOL    HW127551   5.617   5.858   6.178
 8884SOL    HW227552   5.693   5.747   6.086
 8885SOL     OW27553   6.861   3.580   1.427
 8885SOL    HW127554   6.940   3.545   1.478
 8885SOL    HW227555   6.878   3.675   1.402
 8886SOL     OW27556   3.493   6.656   5.663
 8886SOL    HW127557   3.529   6.642   5.571
 8886SOL    HW227558   3.510   6.574   5.719
 8887SOL     OW27559   3.045   1.104   1.085
 8887SOL    HW127560   3.010   1.121   0.993
 8887SOL    HW227561   3.145   1.110   1.084
 8888SOL     OW27562   1.071   1.845   1.101
 8888SOL    HW127563   0.995   1.904   1.129
 8888SOL    HW227564   1.085   1.854   1.002
 8889SOL     OW27565   5.422   6.441   5.433
 8889SOL    HW127566   5.395   6.393   5.517
 8889SOL    HW227567   5.340   6.463   5.380
 8890SOL     OW27568   6.760   5.962   4.131
 8890SOL    HW127569   6.761   6.026   4.053
 8890SOL    HW227570   6.830   5.892   4.118
 8891SOL     OW27571   6.081   3.211   6.055
 8891SOL    HW127572   6.124   3.280   5.998
 8891SOL    HW227573   6.013   3.161   6.002
 8892SOL     OW27574   3.418   5.922   3.593
 8892SOL    HW127575   3.388   5.863   3.518
 8892SOL    HW227576   3.347   5.990   3.613
 8893SOL     OW27577   1.106   0.633   2.052
 8893SOL    HW127578   1.152   0.690   2.120
 8893SOL    HW227579   1.031   0.684   2.011
 8894SOL     OW27580   3.935   2.948   5.693
 8894SOL    HW127581   3.877   2.916   5.618
 8894SOL    HW227582   3.945   3.047   5.688
 8895SOL     OW27583   6.617   1.550   1.713
 8895SOL    HW127584   6.586   1.580   1.804
 8895SOL    HW227585   6.585   1.457   1.696
 8896SOL     OW27586   1.723   3.266   4.813
 8896SOL    HW127587   1.782   3.216   4.751
 8896SOL    HW227588   1.755   3.361   4.821
 8897SOL     OW27589   1.965   1.710   3.106
 8897SOL    HW127590   1.997   1.639   3.042
 8897SOL    HW227591   2.043   1.764   3.137
 8898SOL     OW27592   6.088   3.508   4.695
 8898SOL    HW127593   6.079   3.607   4.703
 8898SOL    HW227594   6.137   3.486   4.611
 8899SOL     OW27595   1.510   4.620   0.135
 8899SOL    HW127596   1.487   4.699   0.078
 8899SOL    HW227597   1.526   4.540   0.076
 8900SOL     OW27598   5.738   3.646   2.930
 8900SOL    HW127599   5.812   3.610   2.987
 8900SOL    HW227600   5.650   3.618   2.968
 8901SOL     OW27601   2.508   1.018   3.995
 8901SOL    HW127602   2.416   0.998   3.963
 8901SOL    HW227603   2.509   1.021   4.094
 8902SOL     OW27604   3.049   6.137   6.956
 8902SOL    HW127605   3.121   6.071   6.975
 8902SOL    HW227606   3.016   6.177   0.018
 8903SOL     OW27607   1.397   0.973   4.437
 8903SOL    HW127608   1.350   1.051   4.478
 8903SOL    HW227609   1.382   0.891   4.493
 8904SOL     OW27610   6.497   5.658   3.571
 8904SOL    HW127611   6.574   5.598   3.551
 8904SOL    HW227612   6.423   5.606   3.613
 8905SOL     OW27613   2.184   4.000   4.803
 8905SOL    HW127614   2.165   3.905   4.778
 8905SOL    HW227615   2.218   4.003   4.897
 8906SOL     OW27616   0.126   0.033   6.846
 8906SOL    HW127617   0.132   6.977   6.905
 8906SOL    HW227618   0.041   0.030   6.794
 8907SOL     OW27619   3.012   2.017   4.569
 8907SOL    HW127620   2.996   1.949   4.640
 8907SOL    HW227621   3.020   2.108   4.611
 8908SOL     OW27622   1.552   2.948   0.128
 8908SOL    HW127623   1.595   2.947   0.218
 8908SOL    HW227624   1.618   2.981   0.060
 8909SOL     OW27625   1.481   0.704   4.856
 8909SOL    HW127626   1.467   0.754   4.941
 8909SOL    HW227627   1.472   0.606   4.873
 8910SOL     OW27628   2.007   3.624   6.255
 8910SOL    HW127629   1.956   3.708   6.238
 8910SOL    HW227630   2.057   3.598   6.173
 8911SOL     OW27631   4.101   2.261   4.750
 8911SOL    HW127632   4.126   2.356   4.766
 8911SOL    HW227633   4.123   2.206   4.831
 8912SOL     OW27634   4.179   1.454   0.118
 8912SOL    HW127635   4.107   1.522   0.111
 8912SOL    HW227636   4.261   1.496   0.158
 8913SOL     OW27637   4.384   5.288   0.699
 8913SOL    HW127638   4.407   5.385   0.706
 8913SOL    HW227639   4.378   5.249   0.791
 8914SOL     OW27640   4.192   0.533   4.902
 8914SOL    HW127641   4.227   0.548   4.809
 8914SOL    HW227642   4.269   0.535   4.966
 8915SOL     OW27643   1.218   2.931   3.920
 8915SOL    HW127644   1.233   2.885   3.833
 8915SOL    HW227645   1.207   3.029   3.904
 8916SOL     OW27646   0.918   3.531   2.162
 8916SOL    HW127647   0.923   3.431   2.165
 8916SOL    HW227648   0.830   3.561   2.201
 8917SOL     OW27649   5.650   4.509   6.494
 8917SOL    HW127650   5.638   4.416   6.529
 8917SOL    HW227651   5.726   4.553   6.541
 8918SOL     OW27652   0.125   5.679   0.950
 8918SOL    HW127653   0.027   5.698   0.945
 8918SOL    HW227654   0.163   5.676   0.858
 8919SOL     OW27655   4.471   3.826   0.437
 8919SOL    HW127656   4.467   3.838   0.536
 8919SOL    HW227657   4.418   3.746   0.411
 8920SOL     OW27658   0.202   6.747   6.635
 8920SOL    HW127659   0.263   6.710   6.705
 8920SOL    HW227660   0.255   6.792   6.564
 8921SOL     OW27661   2.243   2.046   3.346
 8921SOL    HW127662   2.220   2.063   3.441
 8921SOL    HW227663   2.313   1.975   3.341
 8922SOL     OW27664   2.893   4.875   1.545
 8922SOL    HW127665   2.830   4.953   1.540
 8922SOL    HW227666   2.953   4.876   1.465
 8923SOL     OW27667   1.279   3.633   5.841
 8923SOL    HW127668   1.321   3.599   5.757
 8923SOL    HW227669   1.204   3.573   5.869
 8924SOL     OW27670   3.207   6.180   5.749
 8924SOL    HW127671   3.184   6.225   5.835
 8924SOL    HW227672   3.269   6.239   5.696
 8925SOL     OW27673   0.874   0.673   2.412
 8925SOL    HW127674   0.870   0.617   2.329
 8925SOL    HW227675   0.858   0.768   2.388
 8926SOL     OW27676   5.832   3.273   0.057
 8926SOL    HW127677   5.906   3.229   0.007
 8926SOL    HW227678   5.753   3.284   7.021
 8927SOL     OW27679   1.642   2.017   4.823
 8927SOL    HW127680   1.706   1.987   4.752
 8927SOL    HW227681   1.675   2.101   4.864
 8928SOL     OW27682   6.905   1.112   4.985
 8928SOL    HW127683   6.987   1.163   5.013
 8928SOL    HW227684   6.849   1.169   4.926
 8929SOL     OW27685   0.496   3.507   3.997
 8929SOL    HW127686   0.527   3.412   4.008
 8929SOL    HW227687   0.492   3.530   3.900
 8930SOL     OW27688   2.253   4.772   4.511
 8930SOL    HW127689   2.205   4.726   4.585
 8930SOL    HW227690   2.313   4.843   4.548
 8931SOL     OW27691   3.440   2.853   0.516
 8931SOL    HW127692   3.415   2.759   0.541
 8931SOL    HW227693   3.539   2.863   0.518
 8932SOL     OW27694   5.210   0.432   0.155
 8932SOL    HW127695   5.173   0.488   0.228
 8932SOL    HW227696   5.194   0.476   0.067
 8933SOL     OW27697   1.014   1.927   5.636
 8933SOL    HW127698   1.019   1.844   5.692
 8933SOL    HW227699   1.102   1.942   5.591
 8934SOL     OW27700   2.524   5.878   3.816
 8934SOL    HW127701   2.554   5.794   3.861
 8934SOL    HW227702   2.478   5.854   3.730
 8935SOL     OW27703   5.474   4.623   1.746
 8935SOL    HW127704   5.459   4.679   1.664
 8935SOL    HW227705   5.403   4.552   1.751
 8936SOL     OW27706   0.766   3.570   0.977
 8936SOL    HW127707   0.799   3.627   0.901
 8936SOL    HW227708   0.835   3.567   1.048
 8937SOL     OW27709   0.378   0.554   4.279
 8937SOL    HW127710   0.374   0.633   4.340
 8937SOL    HW227711   0.289   0.509   4.276
 8938SOL     OW27712   0.110   1.414   0.303
 8938SOL    HW127713   0.115   1.403   0.403
 8938SOL    HW227714   0.051   1.343   0.265
 8939SOL     OW27715   6.508   3.095   4.590
 8939SOL    HW127716   6.604   3.121   4.599
 8939SOL    HW227717   6.461   3.109   4.678
 8940SOL     OW27718   5.252   2.198   0.534
 8940SOL    HW127719   5.249   2.250   0.619
 8940SOL    HW227720   5.320   2.240   0.473
 8941SOL     OW27721   4.992   2.249   1.801
 8941SOL    HW127722   5.063   2.192   1.842
 8941SOL    HW227723   5.014   2.346   1.818
 8942SOL     OW27724   0.928   5.186   4.417
 8942SOL    HW127725   0.952   5.245   4.340
 8942SOL    HW227726   0.847   5.133   4.395
 8943SOL     OW27727   4.331   5.063   0.296
 8943SOL    HW127728   4.361   5.020   0.211
 8943SOL    HW227729   4.260   5.007   0.339
 8944SOL     OW27730   5.036   4.984   4.468
 8944SOL    HW127731   5.048   5.049   4.544
 8944SOL    HW227732   5.084   4.899   4.489
 8945SOL     OW27733   6.920   1.945   4.749
 8945SOL    HW127734   7.002   2.002   4.749
 8945SOL    HW227735   6.935   1.865   4.806
 8946SOL     OW27736   3.486   0.513   4.580
 8946SOL    HW127737   3.504   0.556   4.491
 8946SOL    HW227738   3.570   0.468   4.612
 8947SOL     OW27739   1.859   3.829   6.181
 8947SOL    HW127740   1.839   3.883   6.099
 8947SOL    HW227741   1.793   3.851   6.252
 8948SOL     OW27742   6.286   5.806   3.435
 8948SOL    HW127743   6.376   5.771   3.462
 8948SOL    HW227744   6.231   5.823   3.517
 8949SOL     OW27745   3.851   5.996   0.062
 8949SOL    HW127746   3.820   6.018   6.994
 8949SOL    HW227747   3.795   6.044   0.129
 8950SOL     OW27748   4.452   3.395   1.376
 8950SOL    HW127749   4.454   3.372   1.473
 8950SOL    HW227750   4.539   3.437   1.350
 8951SOL     OW27751   2.007   1.073   4.722
 8951SOL    HW127752   1.937   1.073   4.650
 8951SOL    HW227753   1.999   1.156   4.777
 8952SOL     OW27754   1.721   5.217   3.175
 8952SOL    HW127755   1.706   5.160   3.256
 8952SOL    HW227756   1.716   5.314   3.201
 8953SOL     OW27757   1.968   4.699   1.433
 8953SOL    HW127758   1.978   4.601   1.413
 8953SOL    HW227759   1.908   4.740   1.365
 8954SOL     OW27760   0.229   6.687   3.717
 8954SOL    HW127761   0.180   6.605   3.686
 8954SOL    HW227762   0.166   6.765   3.715
 8955SOL     OW27763   0.088   3.118   2.478
 8955SOL    HW127764   7.020   3.080   2.488
 8955SOL    HW227765   0.151   3.063   2.534
 8956SOL     OW27766   0.660   0.347   6.513
 8956SOL    HW127767   0.689   0.254   6.533
 8956SOL    HW227768   0.659   0.362   6.414
 8957SOL     OW27769   2.126   4.767   1.647
 8957SOL    HW127770   2.056   4.746   1.579
 8957SOL    HW227771   2.160   4.682   1.686
 8958SOL     OW27772   1.434   2.751   5.168
 8958SOL    HW127773   1.374   2.672   5.182
 8958SOL    HW227774   1.396   2.810   5.097
 8959SOL     OW27775   1.501   3.700   2.193
 8959SOL    HW127776   1.589   3.653   2.187
 8959SOL    HW227777   1.500   3.777   2.128
 8960SOL     OW27778   6.533   5.230   3.524
 8960SOL    HW127779   6.437   5.236   3.498
 8960SOL    HW227780   6.588   5.199   3.446
 8961SOL     OW27781   4.223   1.664   3.981
 8961SOL    HW127782   4.251   1.629   3.892
 8961SOL    HW227783   4.145   1.726   3.970
 8962SOL     OW27784   6.938   6.343   1.604
 8962SOL    HW127785   6.866   6.404   1.638
 8962SOL    HW227786   0.003   6.382   1.624
 8963SOL     OW27787   3.322   6.725   4.676
 8963SOL    HW127788   3.380   6.719   4.757
 8963SOL    HW227789   3.242   6.782   4.695
 8964SOL     OW27790   4.848   3.932   2.564
 8964SOL    HW127791   4.802   3.926   2.476
 8964SOL    HW227792   4.887   4.024   2.575
 8965SOL     OW27793   3.608   5.083   0.595
 8965SOL    HW127794   3.671   5.092   0.672
 8965SOL    HW227795   3.524   5.133   0.615
 8966SOL     OW27796   6.681   4.690   6.461
 8966SOL    HW127797   6.599   4.729   6.421
 8966SOL    HW227798   6.662   4.658   6.553
 8967SOL     OW27799   4.342   0.758   2.987
 8967SOL    HW127800   4.312   0.668   3.018
 8967SOL    HW227801   4.386   0.750   2.898
 8968SOL     OW27802   2.963   5.043   1.811
 8968SOL    HW127803   2.951   4.975   1.738
 8968SOL    HW227804   3.014   5.121   1.775
 8969SOL     OW27805   0.341   0.694   3.420
 8969SOL    HW127806   0.409   0.622   3.402
 8969SOL    HW227807   0.274   0.660   3.486
 8970SOL     OW27808   1.369   2.204   0.178
 8970SOL    HW127809   1.302   2.176   0.248
 8970SOL    HW227810   1.378   2.303   0.178
 8971SOL     OW27811   4.872   6.695   2.011
 8971SOL    HW127812   4.901   6.773   2.066
 8971SOL    HW227813   4.950   6.662   1.957
 8972SOL     OW27814   5.090   4.262   0.357
 8972SOL    HW127815   5.067   4.264   0.455
 8972SOL    HW227816   5.122   4.170   0.333
 8973SOL     OW27817   0.234   2.800   2.366
 8973SOL    HW127818   0.291   2.821   2.287
 8973SOL    HW227819   0.149   2.756   2.336
 8974SOL     OW27820   1.857   3.930   3.982
 8974SOL    HW127821   1.853   3.894   4.075
 8974SOL    HW227822   1.951   3.953   3.959
 8975SOL     OW27823   0.411   0.080   0.060
 8975SOL    HW127824   0.318   0.082   0.096
 8975SOL    HW227825   0.430   0.165   0.011
 8976SOL     OW27826   0.035   6.202   0.807
 8976SOL    HW127827   6.989   6.163   0.747
 8976SOL    HW227828   0.099   6.129   0.835
 8977SOL     OW27829   0.035   4.458   6.756
 8977SOL    HW127830   6.960   4.458   6.760
 8977SOL    HW227831   0.065   4.522   6.684
 8978SOL     OW27832   5.523   6.422   5.061
 8978SOL    HW127833   5.552   6.439   4.967
 8978SOL    HW227834   5.554   6.498   5.119
 8979SOL     OW27835   1.130   5.485   6.363
 8979SOL    HW127836   1.039   5.490   6.402
 8979SOL    HW227837   1.197   5.523   6.427
 8980SOL     OW27838   5.440   2.001   5.671
 8980SOL    HW127839   5.417   2.033   5.763
 8980SOL    HW227840   5.356   1.974   5.623
 8981SOL     OW27841   5.194   1.883   5.639
 8981SOL    HW127842   5.182   1.849   5.546
 8981SOL    HW227843   5.237   1.812   5.696
 8982SOL     OW27844   6.696   2.090   1.597
 8982SOL    HW127845   6.697   2.105   1.498
 8982SOL    HW227846   6.676   1.994   1.616
 8983SOL     OW27847   1.209   5.304   1.177
 8983SOL    HW127848   1.283   5.344   1.230
 8983SOL    HW227849   1.152   5.248   1.237
 8984SOL     OW27850   6.171   0.264   4.377
 8984SOL    HW127851   6.190   0.172   4.343
 8984SOL    HW227852   6.231   0.330   4.333
 8985SOL     OW27853   3.834   2.488   0.840
 8985SOL    HW127854   3.739   2.486   0.870
 8985SOL    HW227855   3.863   2.395   0.816
 8986SOL     OW27856   5.353   4.286   2.291
 8986SOL    HW127857   5.308   4.307   2.378
 8986SOL    HW227858   5.425   4.218   2.306
 8987SOL     OW27859   3.150   0.681   1.104
 8987SOL    HW127860   3.136   0.588   1.138
 8987SOL    HW227861   3.062   0.726   1.090
 8988SOL     OW27862   2.034   5.081   0.171
 8988SOL    HW127863   1.984   5.059   0.255
 8988SOL    HW227864   2.032   5.180   0.156
 8989SOL     OW27865   4.883   2.998   2.913
 8989SOL    HW127866   4.877   3.041   3.003
 8989SOL    HW227867   4.795   2.958   2.889
 8990SOL     OW27868   2.132   6.285   1.593
 8990SOL    HW127869   2.169   6.239   1.513
 8990SOL    HW227870   2.146   6.384   1.584
 8991SOL     OW27871   2.495   2.134   1.476
 8991SOL    HW127872   2.534   2.118   1.566
 8991SOL    HW227873   2.546   2.082   1.407
 8992SOL     OW27874   0.450   3.213   0.675
 8992SOL    HW127875   0.518   3.275   0.713
 8992SOL    HW227876   0.433   3.236   0.579
 8993SOL     OW27877   5.341   2.637   2.690
 8993SOL    HW127878   5.352   2.734   2.713
 8993SOL    HW227879   5.260   2.624   2.632
 8994SOL     OW27880   1.750   5.171   4.128
 8994SOL    HW127881   1.723   5.096   4.189
 8994SOL    HW227882   1.837   5.149   4.084
 8995SOL     OW27883   1.453   2.466   4.818
 8995SOL    HW127884   1.446   2.449   4.720
 8995SOL    HW227885   1.368   2.437   4.863
 8996SOL     OW27886   0.948   3.964   2.012
 8996SOL    HW127887   0.865   3.998   2.055
 8996SOL    HW227888   0.983   3.886   2.064
 8997SOL     OW27889   5.629   0.734   6.357
 8997SOL    HW127890   5.620   0.797   6.280
 8997SOL    HW227891   5.551   0.673   6.361
 8998SOL     OW27892   0.182   1.562   4.787
 8998SOL    HW127893   0.251   1.573   4.858
 8998SOL    HW227894   0.174   1.465   4.763
 8999SOL     OW27895   5.061   0.705   6.707
 8999SOL    HW127896   5.064   0.803   6.728
 8999SOL    HW227897   5.127   0.685   6.635
 9000SOL     OW27898   2.734   4.278   6.741
 9000SOL    HW127899   2.700   4.257   6.650
 9000SOL    HW227900   2.739   4.193   6.795
 9001SOL     OW27901   1.093   4.718   2.702
 9001SOL    HW127902   1.052   4.742   2.790
 9001SOL    HW227903   1.173   4.776   2.685
 9002SOL     OW27904   6.874   5.330   5.987
 9002SOL    HW127905   6.843   5.408   6.041
 9002SOL    HW227906   6.971   5.342   5.964
 9003SOL     OW27907   6.329   2.251   1.023
 9003SOL    HW127908   6.355   2.335   1.071
 9003SOL    HW227909   6.257   2.204   1.074
 9004SOL     OW27910   4.963   6.397   2.090
 9004SOL    HW127911   5.034   6.461   2.062
 9004SOL    HW227912   4.880   6.415   2.037
 9005SOL     OW27913   4.977   2.544   3.665
 9005SOL    HW127914   5.068   2.584   3.678
 9005SOL    HW227915   4.948   2.556   3.570
 9006SOL     OW27916   1.287   5.633   0.846
 9006SOL    HW127917   1.222   5.627   0.921
 9006SOL    HW227918   1.346   5.552   0.846
 9007SOL     OW27919   3.585   5.623   4.090
 9007SOL    HW127920   3.558   5.585   4.001
 9007SOL    HW227921   3.653   5.563   4.132
 9008SOL     OW27922   6.269   4.889   2.445
 9008SOL    HW127923   6.337   4.931   2.385
 9008SOL    HW227924   6.205   4.835   2.391
 9009SOL     OW27925   3.296   6.512   0.889
 9009SOL    HW127926   3.278   6.603   0.851
 9009SOL    HW227927   3.359   6.520   0.966
 9010SOL     OW27928   1.208   6.564   5.365
 9010SOL    HW127929   1.162   6.478   5.388
 9010SOL    HW227930   1.159   6.609   5.291
 9011SOL     OW27931   3.821   2.446   1.315
 9011SOL    HW127932   3.903   2.430   1.261
 9011SOL    HW227933   3.819   2.541   1.347
 9012SOL     OW27934   2.080   5.458   0.409
 9012SOL    HW127935   2.043   5.397   0.339
 9012SOL    HW227936   2.016   5.463   0.486
 9013SOL     OW27937   6.119   5.809   4.700
 9013SOL    HW127938   6.051   5.784   4.632
 9013SOL    HW227939   6.190   5.739   4.703
 9014SOL     OW27940   1.567   1.699   0.537
 9014SOL    HW127941   1.626   1.618   0.532
 9014SOL    HW227942   1.472   1.673   0.523
 9015SOL     OW27943   6.507   1.124   7.019
 9015SOL    HW127944   6.490   1.054   0.064
 9015SOL    HW227945   6.428   1.129   6.957
 9016SOL     OW27946   6.479   6.065   5.882
 9016SOL    HW127947   6.515   5.975   5.860
 9016SOL    HW227948   6.379   6.061   5.886
 9017SOL     OW27949   5.588   1.721   3.136
 9017SOL    HW127950   5.594   1.634   3.088
 9017SOL    HW227951   5.590   1.796   3.070
 9018SOL     OW27952   3.528   1.719   5.131
 9018SOL    HW127953   3.544   1.815   5.155
 9018SOL    HW227954   3.479   1.674   5.206
 9019SOL     OW27955   1.499   6.854   0.263
 9019SOL    HW127956   1.540   6.908   0.336
 9019SOL    HW227957   1.551   6.867   0.178
 9020SOL     OW27958   1.924   3.812   2.387
 9020SOL    HW127959   1.936   3.738   2.454
 9020SOL    HW227960   2.012   3.857   2.371
 9021SOL     OW27961   6.780   6.853   4.031
 9021SOL    HW127962   6.706   6.809   4.082
 9021SOL    HW227963   6.762   6.846   3.933
 9022SOL     OW27964   2.799   0.531   0.279
 9022SOL    HW127965   2.897   0.511   0.280
 9022SOL    HW227966   2.749   0.446   0.264
 9023SOL     OW27967   3.831   3.358   3.615
 9023SOL    HW127968   3.830   3.277   3.557
 9023SOL    HW227969   3.921   3.367   3.659
 9024SOL     OW27970   2.019   6.041   6.059
 9024SOL    HW127971   1.926   6.028   6.023
 9024SOL    HW227972   2.068   6.105   6.001
 9025SOL     OW27973   6.134   6.086   1.426
 9025SOL    HW127974   6.217   6.043   1.459
 9025SOL    HW227975   6.074   6.108   1.504
 9026SOL     OW27976   3.789   3.630   3.921
 9026SOL    HW127977   3.700   3.590   3.899
 9026SOL    HW227978   3.862   3.568   3.891
 9027SOL     OW27979   2.655   1.937   3.794
 9027SOL    HW127980   2.623   1.870   3.861
 9027SOL    HW227981   2.615   2.026   3.815
 9028SOL     OW27982   2.502   4.456   6.522
 9028SOL    HW127983   2.533   4.536   6.574
 9028SOL    HW227984   2.403   4.461   6.511
 9029SOL     OW27985   3.775   5.218   4.622
 9029SOL    HW127986   3.693   5.238   4.676
 9029SOL    HW227987   3.853   5.207   4.683
 9030SOL     OW27988   1.540   0.740   2.408
 9030SOL    HW127989   1.457   0.791   2.431
 9030SOL    HW227990   1.604   0.800   2.361
 9031SOL     OW27991   3.390   5.168   5.967
 9031SOL    HW127992   3.301   5.180   5.922
 9031SOL    HW227993   3.460   5.218   5.915
 9032SOL     OW27994   3.785   2.872   0.900
 9032SOL    HW127995   3.692   2.908   0.888
 9032SOL    HW227996   3.850   2.932   0.855
 9033SOL     OW27997   1.600   3.298   4.134
 9033SOL    HW127998   1.557   3.356   4.204
 9033SOL    HW227999   1.530   3.242   4.091
 9034SOL     OW28000   2.691   6.666   5.395
 9034SOL    HW128001   2.629   6.737   5.429
 9034SOL    HW228002   2.753   6.638   5.469
 9035SOL     OW28003   0.507   6.505   5.658
 9035SOL    HW128004   0.490   6.596   5.696
 9035SOL    HW228005   0.436   6.483   5.591
 9036SOL     OW28006   2.346   2.374   5.387
 9036SOL    HW128007   2.262   2.336   5.428
 9036SOL    HW228008   2.324   2.457   5.336
 9037SOL     OW28009   1.735   3.849   6.867
 9037SOL    HW128010   1.715   3.933   6.817
 9037SOL    HW228011   1.751   3.870   6.963
 9038SOL     OW28012   5.593   0.866   5.642
 9038SOL    HW128013   5.509   0.844   5.692
 9038SOL    HW228014   5.602   0.965   5.634
 9039SOL     OW28015   1.969   4.560   4.941
 9039SOL    HW128016   1.921   4.488   4.990
 9039SOL    HW228017   2.055   4.524   4.906
 9040SOL     OW28018   2.835   1.257   3.584
 9040SOL    HW128019   2.929   1.221   3.589
 9040SOL    HW228020   2.771   1.187   3.615
 9041SOL     OW28021   0.876   1.583   2.295
 9041SOL    HW128022   0.929   1.576   2.210
 9041SOL    HW228023   0.936   1.564   2.373
 9042SOL     OW28024   2.394   6.656   3.603
 9042SOL    HW128025   2.457   6.712   3.550
 9042SOL    HW228026   2.397   6.562   3.570
 9043SOL     OW28027   2.239   1.765   5.620
 9043SOL    HW128028   2.150   1.794   5.584
 9043SOL    HW228029   2.290   1.846   5.650
 9044SOL     OW28030   6.147   1.261   0.989
 9044SOL    HW128031   6.238   1.220   0.993
 9044SOL    HW228032   6.135   1.307   0.901
 9045SOL     OW28033   3.871   1.433   2.352
 9045SOL    HW128034   3.942   1.417   2.421
 9045SOL    HW228035   3.851   1.531   2.348
 9046SOL     OW28036   3.671   4.120   5.164
 9046SOL    HW128037   3.765   4.155   5.165
 9046SOL    HW228038   3.641   4.107   5.070
 9047SOL     OW28039   1.915   4.255   5.523
 9047SOL    HW128040   1.856   4.239   5.444
 9047SOL    HW228041   1.933   4.353   5.531
 9048SOL     OW28042   0.444   3.591   5.936
 9048SOL    HW128043   0.531   3.579   5.889
 9048SOL    HW228044   0.369   3.580   5.871
 9049SOL     OW28045   4.949   6.519   6.653
 9049SOL    HW128046   4.886   6.526   6.730
 9049SOL    HW228047   4.906   6.469   6.579
 9050SOL     OW28048   1.228   5.240   6.210
 9050SOL    HW128049   1.208   5.291   6.293
 9050SOL    HW228050   1.241   5.143   6.232
 9051SOL     OW28051   4.458   5.816   1.248
 9051SOL    HW128052   4.433   5.864   1.332
 9051SOL    HW228053   4.518   5.873   1.193
 9052SOL     OW28054   2.681   4.711   4.722
 9052SOL    HW128055   2.658   4.733   4.817
 9052SOL    HW228056   2.695   4.612   4.714
 9053SOL     OW28057   2.534   2.166   3.888
 9053SOL    HW128058   2.518   2.261   3.913
 9053SOL    HW228059   2.463   2.108   3.927
 9054SOL     OW28060   1.724   0.900   1.772
 9054SOL    HW128061   1.688   0.873   1.682
 9054SOL    HW228062   1.727   1.000   1.777
 9055SOL     OW28063   0.532   3.921   3.543
 9055SOL    HW128064   0.584   3.917   3.457
 9055SOL    HW228065   0.481   3.836   3.555
 9056SOL     OW28066   4.964   0.442   1.649
 9056SOL    HW128067   5.037   0.501   1.614
 9056SOL    HW228068   4.945   0.466   1.744
 9057SOL     OW28069   6.814   4.874   5.839
 9057SOL    HW128070   6.768   4.963   5.839
 9057SOL    HW228071   6.888   4.875   5.771
 9058SOL     OW28072   2.328   2.005   4.014
 9058SOL    HW128073   2.336   1.946   4.094
 9058SOL    HW228074   2.258   1.968   3.953
 9059SOL     OW28075   0.011   0.470   2.945
 9059SOL    HW128076   0.073   0.405   2.900
 9059SOL    HW228077   0.014   0.456   3.044
 9060SOL     OW28078   6.775   3.958   2.439
 9060SOL    HW128079   6.807   3.869   2.410
 9060SOL    HW228080   6.736   3.951   2.531
 9061SOL     OW28081   4.371   5.599   3.033
 9061SOL    HW128082   4.437   5.593   2.958
 9061SOL    HW228083   4.415   5.641   3.112
 9062SOL     OW28084   0.700   4.874   2.091
 9062SOL    HW128085   0.650   4.941   2.036
 9062SOL    HW228086   0.650   4.788   2.094
 9063SOL     OW28087   3.276   0.685   2.138
 9063SOL    HW128088   3.337   0.745   2.087
 9063SOL    HW228089   3.187   0.681   2.091
 9064SOL     OW28090   6.417   4.305   4.555
 9064SOL    HW128091   6.473   4.231   4.518
 9064SOL    HW228092   6.395   4.370   4.482
 9065SOL     OW28093   2.397   5.906   6.001
 9065SOL    HW128094   2.325   5.858   6.052
 9065SOL    HW228095   2.467   5.840   5.973
 9066SOL     OW28096   5.946   0.239   5.870
 9066SOL    HW128097   5.857   0.284   5.866
 9066SOL    HW228098   6.016   0.306   5.895
 9067SOL     OW28099   6.395   5.990   4.061
 9067SOL    HW128100   6.375   5.920   3.992
 9067SOL    HW228101   6.449   5.949   4.134
 9068SOL     OW28102   3.704   6.856   5.156
 9068SOL    HW128103   3.796   6.895   5.169
 9068SOL    HW228104   3.694   6.827   5.061
 9069SOL     OW28105   4.262   1.973   2.495
 9069SOL    HW128106   4.180   2.028   2.510
 9069SOL    HW228107   4.318   1.973   2.578
 9070SOL     OW28108   1.352   2.757   6.383
 9070SOL    HW128109   1.391   2.691   6.318
 9070SOL    HW228110   1.355   2.849   6.344
 9071SOL     OW28111   4.798   0.197   6.481
 9071SOL    HW128112   4.847   0.141   6.548
 9071SOL    HW228113   4.833   0.290   6.484
 9072SOL     OW28114   4.896   6.819   1.291
 9072SOL    HW128115   4.909   6.857   1.199
 9072SOL    HW228116   4.805   6.842   1.324
 9073SOL     OW28117   3.540   6.560   1.384
 9073SOL    HW128118   3.478   6.496   1.430
 9073SOL    HW228119   3.602   6.509   1.324
 9074SOL     OW28120   1.947   0.610   1.544
 9074SOL    HW128121   1.898   0.598   1.458
 9074SOL    HW228122   2.000   0.528   1.564
 9075SOL     OW28123   0.357   0.283   1.995
 9075SOL    HW128124   0.445   0.241   2.017
 9075SOL    HW228125   0.337   0.267   1.898
 9076SOL     OW28126   4.708   1.779   3.955
 9076SOL    HW128127   4.612   1.784   3.983
 9076SOL    HW228128   4.759   1.723   4.020
 9077SOL     OW28129   4.408   1.551   6.293
 9077SOL    HW128130   4.315   1.516   6.302
 9077SOL    HW228131   4.445   1.570   6.384
 9078SOL     OW28132   5.134   4.695   6.696
 9078SOL    HW128133   5.083   4.612   6.717
 9078SOL    HW228134   5.176   4.688   6.606
 9079SOL     OW28135   1.263   6.902   4.809
 9079SOL    HW128136   1.299   6.820   4.853
 9079SOL    HW228137   1.282   6.982   4.867
 9080SOL     OW28138   5.780   2.641   6.980
 9080SOL    HW128139   5.707   2.617   0.020
 9080SOL    HW228140   5.864   2.659   0.006
 9081SOL     OW28141   3.621   1.307   1.750
 9081SOL    HW128142   3.635   1.406   1.753
 9081SOL    HW228143   3.622   1.271   1.843
 9082SOL     OW28144   2.013   6.247   5.215
 9082SOL    HW128145   1.923   6.245   5.259
 9082SOL    HW228146   2.048   6.341   5.216
 9083SOL     OW28147   3.700   3.906   6.766
 9083SOL    HW128148   3.657   3.917   6.677
 9083SOL    HW228149   3.739   3.994   6.795
 9084SOL     OW28150   1.253   2.332   6.431
 9084SOL    HW128151   1.340   2.379   6.447
 9084SOL    HW228152   1.181   2.399   6.412
 9085SOL     OW28153   2.393   5.919   1.097
 9085SOL    HW128154   2.441   5.855   1.037
 9085SOL    HW228155   2.295   5.898   1.097
 9086SOL     OW28156   5.724   4.110   1.171
 9086SOL    HW128157   5.790   4.184   1.158
 9086SOL    HW228158   5.726   4.049   1.092
 9087SOL     OW28159   5.105   3.198   2.342
 9087SOL    HW128160   5.029   3.171   2.282
 9087SOL    HW228161   5.145   3.283   2.308
 9088SOL     OW28162   6.663   0.059   1.181
 9088SOL    HW128163   6.679   7.007   1.119
 9088SOL    HW228164   6.724   0.135   1.158
 9089SOL     OW28165   3.998   5.949   5.381
 9089SOL    HW128166   3.917   6.007   5.380
 9089SOL    HW228167   4.039   5.946   5.290
 9090SOL     OW28168   5.276   0.241   3.458
 9090SOL    HW128169   5.291   0.142   3.463
 9090SOL    HW228170   5.223   0.263   3.376
 9091SOL     OW28171   2.649   3.325   0.611
 9091SOL    HW128172   2.653   3.328   0.711
 9091SOL    HW228173   2.611   3.411   0.576
 9092SOL     OW28174   0.498   1.341   0.112
 9092SOL    HW128175   0.529   1.263   0.059
 9092SOL    HW228176   0.399   1.339   0.120
 9093SOL     OW28177   1.290   6.476   6.905
 9093SOL    HW128178   1.205   6.425   6.908
 9093SOL    HW228179   1.361   6.420   6.862
 9094SOL     OW28180   1.020   5.083   2.761
 9094SOL    HW128181   1.019   5.099   2.860
 9094SOL    HW228182   0.931   5.050   2.731
 9095SOL     OW28183   4.232   3.858   6.307
 9095SOL    HW128184   4.326   3.848   6.274
 9095SOL    HW228185   4.233   3.882   6.404
 9096SOL     OW28186   5.620   3.639   2.600
 9096SOL    HW128187   5.617   3.578   2.679
 9096SOL    HW228188   5.713   3.675   2.590
 9097SOL     OW28189   0.371   3.262   6.651
 9097SOL    HW128190   0.456   3.310   6.671
 9097SOL    HW228191   0.294   3.324   6.669
 9098SOL     OW28192   3.367   2.696   6.783
 9098SOL    HW128193   3.281   2.650   6.805
 9098SOL    HW228194   3.418   2.640   6.718
 9099SOL     OW28195   3.463   3.560   0.527
 9099SOL    HW128196   3.439   3.477   0.577
 9099SOL    HW228197   3.448   3.640   0.586
 9100SOL     OW28198   0.953   3.261   3.111
 9100SOL    HW128199   0.930   3.206   3.031
 9100SOL    HW228200   0.976   3.201   3.187
 9101SOL     OW28201   2.202   2.914   3.037
 9101SOL    HW128202   2.251   2.892   2.953
 9101SOL    HW228203   2.200   2.834   3.097
 9102SOL     OW28204   3.348   6.711   1.760
 9102SOL    HW128205   3.338   6.790   1.820
 9102SOL    HW228206   3.259   6.665   1.751
 9103SOL     OW28207   6.385   3.602   6.971
 9103SOL    HW128208   6.320   3.572   6.901
 9103SOL    HW228209   6.403   3.526   0.010
 9104SOL     OW28210   4.389   6.544   3.021
 9104SOL    HW128211   4.352   6.452   3.025
 9104SOL    HW228212   4.440   6.555   2.935
 9105SOL     OW28213   2.006   1.126   0.378
 9105SOL    HW128214   1.909   1.111   0.394
 9105SOL    HW228215   2.048   1.164   0.461
 9106SOL     OW28216   6.080   4.059   6.846
 9106SOL    HW128217   5.985   4.090   6.854
 9106SOL    HW228218   6.121   4.053   6.937
 9107SOL     OW28219   3.357   0.512   5.860
 9107SOL    HW128220   3.267   0.551   5.879
 9107SOL    HW228221   3.427   0.569   5.903
 9108SOL     OW28222   5.241   3.870   5.749
 9108SOL    HW128223   5.269   3.947   5.805
 9108SOL    HW228224   5.255   3.785   5.800
 9109SOL     OW28225   1.408   2.703   2.636
 9109SOL    HW128226   1.476   2.776   2.642
 9109SOL    HW228227   1.455   2.615   2.630
 9110SOL     OW28228   1.868   4.200   4.106
 9110SOL    HW128229   1.814   4.172   4.027
 9110SOL    HW228230   1.950   4.248   4.075
 9111SOL     OW28231   3.863   3.030   6.840
 9111SOL    HW128232   3.808   3.098   6.888
 9111SOL    HW228233   3.873   3.056   6.744
 9112SOL     OW28234   0.722   4.700   5.281
 9112SOL    HW128235   0.694   4.683   5.187
 9112SOL    HW228236   0.761   4.792   5.287
 9113SOL     OW28237   4.702   6.500   1.043
 9113SOL    HW128238   4.618   6.553   1.057
 9113SOL    HW228239   4.751   6.493   1.129
 9114SOL     OW28240   1.494   4.751   1.192
 9114SOL    HW128241   1.430   4.827   1.206
 9114SOL    HW228242   1.450   4.665   1.218
 9115SOL     OW28243   0.957   5.358   5.607
 9115SOL    HW128244   0.976   5.434   5.670
 9115SOL    HW228245   0.926   5.278   5.659
 9116SOL     OW28246   6.481   1.271   0.429
 9116SOL    HW128247   6.453   1.283   0.333
 9116SOL    HW228248   6.535   1.350   0.458
 9117SOL     OW28249   5.667   2.760   0.369
 9117SOL    HW128250   5.607   2.725   0.441
 9117SOL    HW228251   5.749   2.799   0.410
 9118SOL     OW28252   6.436   5.144   6.951
 9118SOL    HW128253   6.440   5.219   7.017
 9118SOL    HW228254   6.370   5.076   6.982
 9119SOL     OW28255   5.179   0.950   1.466
 9119SOL    HW128256   5.123   0.891   1.524
 9119SOL    HW228257   5.132   0.966   1.379
 9120SOL     OW28258   6.348   2.262   5.545
 9120SOL    HW128259   6.393   2.241   5.458
 9120SOL    HW228260   6.359   2.359   5.565
 9121SOL     OW28261   2.489   2.388   6.096
 9121SOL    HW128262   2.414   2.434   6.050
 9121SOL    HW228263   2.496   2.422   6.190
 9122SOL     OW28264   1.999   4.173   2.067
 9122SOL    HW128265   1.966   4.264   2.043
 9122SOL    HW228266   1.923   4.119   2.103
 9123SOL     OW28267   3.281   0.053   4.472
 9123SOL    HW128268   3.347   7.017   4.429
 9123SOL    HW228269   3.303   0.062   4.570
 9124SOL     OW28270   5.302   6.505   6.349
 9124SOL    HW128271   5.372   6.471   6.286
 9124SOL    HW228272   5.345   6.529   6.436
 9125SOL     OW28273   5.295   4.429   1.713
 9125SOL    HW128274   5.328   4.390   1.628
 9125SOL    HW228275   5.203   4.395   1.733
 9126SOL     OW28276   5.920   2.370   0.935
 9126SOL    HW128277   6.011   2.349   0.972
 9126SOL    HW228278   5.869   2.425   1.001
 9127SOL     OW28279   6.338   1.241   6.211
 9127SOL    HW128280   6.294   1.206   6.294
 9127SOL    HW228281   6.434   1.259   6.229
 9128SOL     OW28282   5.221   1.473   5.348
 9128SOL    HW128283   5.302   1.515   5.389
 9128SOL    HW228284   5.205   1.513   5.258
 9129SOL     OW28285   0.242   2.689   0.961
 9129SOL    HW128286   0.257   2.596   0.927
 9129SOL    HW228287   0.277   2.696   1.055
 9130SOL     OW28288   0.156   3.438   0.543
 9130SOL    HW128289   0.170   3.529   0.583
 9130SOL    HW228290   0.174   3.368   0.612
 9131SOL     OW28291   6.895   2.835   5.582
 9131SOL    HW128292   6.990   2.842   5.614
 9131SOL    HW228293   6.858   2.927   5.567
 9132SOL     OW28294   0.517   5.211   4.364
 9132SOL    HW128295   0.516   5.253   4.274
 9132SOL    HW228296   0.594   5.147   4.370
 9133SOL     OW28297   3.980   6.063   1.915
 9133SOL    HW128298   4.045   6.131   1.881
 9133SOL    HW228299   4.020   5.972   1.906
 9134SOL     OW28300   4.967   6.054   0.308
 9134SOL    HW128301   5.042   6.025   0.368
 9134SOL    HW228302   4.931   5.975   0.260
 9135SOL     OW28303   6.199   6.622   1.353
 9135SOL    HW128304   6.284   6.604   1.403
 9135SOL    HW228305   6.208   6.707   1.301
 9136SOL     OW28306   5.540   5.436   5.860
 9136SOL    HW128307   5.447   5.399   5.859
 9136SOL    HW228308   5.539   5.527   5.819
 9137SOL     OW28309   4.931   1.931   1.175
 9137SOL    HW128310   5.014   1.929   1.120
 9137SOL    HW228311   4.936   2.005   1.242
 9138SOL     OW28312   0.413   5.924   5.958
 9138SOL    HW128313   0.378   5.998   6.016
 9138SOL    HW228314   0.441   5.961   5.869
 9139SOL     OW28315   2.151   1.575   4.620
 9139SOL    HW128316   2.242   1.544   4.647
 9139SOL    HW228317   2.155   1.672   4.597
 9140SOL     OW28318   6.306   3.415   3.070
 9140SOL    HW128319   6.246   3.356   3.124
 9140SOL    HW228320   6.289   3.401   2.973
 9141SOL     OW28321   5.830   0.480   6.791
 9141SOL    HW128322   5.852   0.561   6.736
 9141SOL    HW228323   5.845   0.501   6.888
 9142SOL     OW28324   0.311   2.519   1.328
 9142SOL    HW128325   0.270   2.454   1.264
 9142SOL    HW228326   0.240   2.557   1.387
 9143SOL     OW28327   6.382   3.123   0.753
 9143SOL    HW128328   6.324   3.199   0.780
 9143SOL    HW228329   6.327   3.039   0.747
 9144SOL     OW28330   2.249   5.135   5.250
 9144SOL    HW128331   2.281   5.171   5.337
 9144SOL    HW228332   2.159   5.173   5.229
 9145SOL     OW28333   0.048   5.441   0.352
 9145SOL    HW128334   0.019   5.447   0.447
 9145SOL    HW228335   6.999   5.473   0.292
 9146SOL     OW28336   5.219   3.066   3.110
 9146SOL    HW128337   5.262   2.978   3.132
 9146SOL    HW228338   5.253   3.136   3.172
 9147SOL     OW28339   6.545   0.718   4.727
 9147SOL    HW128340   6.518   0.623   4.714
 9147SOL    HW228341   6.519   0.772   4.646
 9148SOL     OW28342   5.116   5.739   0.592
 9148SOL    HW128343   5.032   5.746   0.645
 9148SOL    HW228344   5.109   5.661   0.529
 9149SOL     OW28345   6.175   3.584   3.798
 9149SOL    HW128346   6.253   3.615   3.852
 9149SOL    HW228347   6.095   3.640   3.819
 9150SOL     OW28348   3.341   5.064   1.932
 9150SOL    HW128349   3.358   5.040   2.027
 9150SOL    HW228350   3.366   4.986   1.873
 9151SOL     OW28351   1.677   4.504   3.912
 9151SOL    HW128352   1.697   4.408   3.892
 9151SOL    HW228353   1.713   4.528   4.002
 9152SOL     OW28354   2.201   4.415   4.887
 9152SOL    HW128355   2.300   4.408   4.876
 9152SOL    HW228356   2.173   4.360   4.966
 9153SOL     OW28357   1.297   3.167   0.299
 9153SOL    HW128358   1.277   3.074   0.330
 9153SOL    HW228359   1.311   3.168   0.200
 9154SOL     OW28360   4.261   4.438   6.324
 9154SOL    HW128361   4.276   4.419   6.421
 9154SOL    HW228362   4.196   4.372   6.286
 9155SOL     OW28363   1.762   4.083   1.886
 9155SOL    HW128364   1.678   4.134   1.866
 9155SOL    HW228365   1.783   4.091   1.983
 9156SOL     OW28366   1.303   2.396   1.283
 9156SOL    HW128367   1.292   2.322   1.216
 9156SOL    HW228368   1.218   2.406   1.335
 9157SOL     OW28369   6.559   4.790   5.695
 9157SOL    HW128370   6.585   4.728   5.769
 9157SOL    HW228371   6.638   4.807   5.636
 9158SOL     OW28372   5.868   3.164   5.089
 9158SOL    HW128373   5.800   3.146   5.017
 9158SOL    HW228374   5.857   3.258   5.122
 9159SOL     OW28375   1.920   0.892   2.107
 9159SOL    HW128376   2.000   0.840   2.135
 9159SOL    HW228377   1.940   0.941   2.022
 9160SOL     OW28378   5.784   0.200   5.349
 9160SOL    HW128379   5.686   0.219   5.353
 9160SOL    HW228380   5.818   0.213   5.256
 9161SOL     OW28381   5.019   4.051   4.802
 9161SOL    HW128382   5.096   4.107   4.772
 9161SOL    HW228383   4.937   4.109   4.812
 9162SOL     OW28384   4.288   1.240   4.469
 9162SOL    HW128385   4.253   1.291   4.547
 9162SOL    HW228386   4.350   1.298   4.417
 9163SOL     OW28387   1.574   2.787   4.693
 9163SOL    HW128388   1.663   2.806   4.651
 9163SOL    HW228389   1.522   2.725   4.635
 9164SOL     OW28390   2.620   0.186   6.403
 9164SOL    HW128391   2.669   0.110   6.445
 9164SOL    HW228392   2.532   0.199   6.449
 9165SOL     OW28393   6.330   1.699   5.946
 9165SOL    HW128394   6.394   1.641   5.895
 9165SOL    HW228395   6.351   1.692   6.044
 9166SOL     OW28396   4.093   6.261   1.790
 9166SOL    HW128397   4.069   6.210   1.707
 9166SOL    HW228398   4.047   6.350   1.788
 9167SOL     OW28399   1.929   2.495   6.693
 9167SOL    HW128400   1.939   2.524   6.598
 9167SOL    HW228401   1.930   2.395   6.697
 9168SOL     OW28402   6.921   0.133   6.666
 9168SOL    HW128403   6.883   0.193   6.596
 9168SOL    HW228404   6.849   0.076   6.705
 9169SOL     OW28405   5.776   0.689   4.827
 9169SOL    HW128406   5.815   0.657   4.741
 9169SOL    HW228407   5.850   0.707   4.892
 9170SOL     OW28408   1.533   6.229   0.114
 9170SOL    HW128409   1.488   6.167   0.178
 9170SOL    HW228410   1.617   6.186   0.081
 9171SOL     OW28411   4.191   4.878   0.861
 9171SOL    HW128412   4.270   4.853   0.804
 9171SOL    HW228413   4.183   4.814   0.937
 9172SOL     OW28414   4.098   1.129   2.421
 9172SOL    HW128415   4.101   1.104   2.324
 9172SOL    HW228416   4.112   1.047   2.477
 9173SOL     OW28417   6.424   3.573   6.162
 9173SOL    HW128418   6.473   3.499   6.116
 9173SOL    HW228419   6.470   3.660   6.145
 9174SOL     OW28420   5.798   4.076   1.553
 9174SOL    HW128421   5.706   4.113   1.535
 9174SOL    HW228422   5.831   4.029   1.471
 9175SOL     OW28423   0.294   7.011   5.748
 9175SOL    HW128424   0.335   0.078   5.756
 9175SOL    HW228425   0.225   7.000   5.820
 9176SOL     OW28426   2.010   1.018   3.977
 9176SOL    HW128427   2.088   1.063   4.021
 9176SOL    HW228428   1.962   1.084   3.919
 9177SOL     OW28429   0.410   5.084   5.066
 9177SOL    HW128430   0.458   4.997   5.055
 9177SOL    HW228431   0.336   5.091   4.999
 9178SOL     OW28432   1.698   4.643   0.525
 9178SOL    HW128433   1.645   4.604   0.601
 9178SOL    HW228434   1.641   4.706   0.473
 9179SOL     OW28435   2.438   4.379   3.988
 9179SOL    HW128436   2.526   4.417   3.959
 9179SOL    HW228437   2.376   4.453   4.011
 9180SOL     OW28438   6.476   2.603   3.309
 9180SOL    HW128439   6.546   2.651   3.363
 9180SOL    HW228440   6.449   2.661   3.232
 9181SOL     OW28441   4.777   2.205   5.163
 9181SOL    HW128442   4.786   2.304   5.166
 9181SOL    HW228443   4.726   2.173   5.243
 9182SOL     OW28444   2.784   6.351   1.965
 9182SOL    HW128445   2.750   6.305   1.883
 9182SOL    HW228446   2.867   6.402   1.944
 9183SOL     OW28447   4.922   5.512   0.206
 9183SOL    HW128448   4.862   5.448   0.159
 9183SOL    HW228449   5.008   5.520   0.155
 9184SOL     OW28450   4.480   2.333   0.277
 9184SOL    HW128451   4.515   2.273   0.349
 9184SOL    HW228452   4.462   2.423   0.315
 9185SOL     OW28453   4.957   6.854   4.553
 9185SOL    HW128454   5.031   6.866   4.488
 9185SOL    HW228455   4.876   6.903   4.521
 9186SOL     OW28456   5.789   5.988   4.571
 9186SOL    HW128457   5.696   6.003   4.604
 9186SOL    HW228458   5.854   6.024   4.637
 9187SOL     OW28459   2.468   1.934   0.724
 9187SOL    HW128460   2.461   1.852   0.667
 9187SOL    HW228461   2.467   2.015   0.666
 9188SOL     OW28462   1.649   6.736   0.682
 9188SOL    HW128463   1.582   6.676   0.726
 9188SOL    HW228464   1.617   6.830   0.687
 9189SOL     OW28465   2.747   5.960   1.951
 9189SOL    HW128466   2.695   5.875   1.959
 9189SOL    HW228467   2.696   6.034   1.994
 9190SOL     OW28468   2.451   4.725   5.513
 9190SOL    HW128469   2.366   4.685   5.477
 9190SOL    HW228470   2.524   4.657   5.509
 9191SOL     OW28471   6.638   1.735   6.496
 9191SOL    HW128472   6.709   1.755   6.563
 9191SOL    HW228473   6.625   1.815   6.436
 9192SOL     OW28474   1.157   2.292   6.024
 9192SOL    HW128475   1.144   2.250   6.114
 9192SOL    HW228476   1.096   2.248   5.958
 9193SOL     OW28477   3.470   3.964   6.257
 9193SOL    HW128478   3.472   3.910   6.173
 9193SOL    HW228479   3.420   4.049   6.242
 9194SOL     OW28480   3.105   1.152   3.611
 9194SOL    HW128481   3.150   1.068   3.580
 9194SOL    HW228482   3.167   1.229   3.600
 9195SOL     OW28483   1.226   1.601   3.145
 9195SOL    HW128484   1.208   1.513   3.189
 9195SOL    HW228485   1.169   1.672   3.188
 9196SOL     OW28486   5.599   0.427   2.618
 9196SOL    HW128487   5.516   0.452   2.668
 9196SOL    HW228488   5.635   0.342   2.656
 9197SOL     OW28489   1.806   4.862   1.822
 9197SOL    HW128490   1.890   4.913   1.804
 9197SOL    HW228491   1.728   4.908   1.778
 9198SOL     OW28492   6.057   4.791   6.947
 9198SOL    HW128493   6.101   4.862   6.892
 9198SOL    HW228494   5.970   4.765   6.904
 9199SOL     OW28495   0.814   3.519   5.245
 9199SOL    HW128496   0.786   3.614   5.256
 9199SOL    HW228497   0.750   3.459   5.294
 9200SOL     OW28498   2.960   6.228   6.728
 9200SOL    HW128499   2.961   6.324   6.754
 9200SOL    HW228500   2.977   6.171   6.808
 9201SOL     OW28501   6.782   3.459   0.277
 9201SOL    HW128502   6.778   3.547   0.229
 9201SOL    HW228503   6.855   3.462   0.345
 9202SOL     OW28504   1.041   6.368   2.464
 9202SOL    HW128505   1.081   6.416   2.542
 9202SOL    HW228506   1.109   6.305   2.426
 9203SOL     OW28507   0.197   3.642   5.749
 9203SOL    HW128508   0.156   3.730   5.774
 9203SOL    HW228509   0.171   3.573   5.817
 9204SOL     OW28510   4.935   2.956   5.917
 9204SOL    HW128511   4.965   2.913   5.832
 9204SOL    HW228512   4.990   3.038   5.934
 9205SOL     OW28513   5.290   6.188   3.468
 9205SOL    HW128514   5.198   6.217   3.440
 9205SOL    HW228515   5.315   6.104   3.420
 9206SOL     OW28516   3.445   5.224   3.759
 9206SOL    HW128517   3.348   5.243   3.771
 9206SOL    HW228518   3.459   5.126   3.749
 9207SOL     OW28519   4.911   4.275   5.761
 9207SOL    HW128520   4.999   4.276   5.713
 9207SOL    HW228521   4.838   4.257   5.696
 9208SOL     OW28522   5.806   5.019   3.750
 9208SOL    HW128523   5.906   5.017   3.748
 9208SOL    HW228524   5.770   4.927   3.736
 9209SOL     OW28525   4.379   0.346   0.089
 9209SOL    HW128526   4.282   0.325   0.103
 9209SOL    HW228527   4.389   0.414   0.017
 9210SOL     OW28528   0.356   1.296   2.102
 9210SOL    HW128529   0.269   1.297   2.151
 9210SOL    HW228530   0.428   1.261   2.162
 9211SOL     OW28531   0.158   2.979   6.217
 9211SOL    HW128532   0.097   3.044   6.170
 9211SOL    HW228533   0.245   2.975   6.170
 9212SOL     OW28534   4.392   5.702   4.201
 9212SOL    HW128535   4.477   5.752   4.179
 9212SOL    HW228536   4.346   5.747   4.277
 9213SOL     OW28537   5.603   3.081   5.293
 9213SOL    HW128538   5.607   3.144   5.215
 9213SOL    HW228539   5.609   2.987   5.260
 9214SOL     OW28540   6.805   3.894   6.073
 9214SOL    HW128541   6.836   3.963   6.009
 9214SOL    HW228542   6.835   3.918   6.165
 9215SOL     OW28543   1.352   2.862   1.604
 9215SOL    HW128544   1.301   2.810   1.536
 9215SOL    HW228545   1.302   2.945   1.629
 9216SOL     OW28546   3.510   0.392   2.194
 9216SOL    HW128547   3.452   0.417   2.116
 9216SOL    HW228548   3.599   0.438   2.185
 9217SOL     OW28549   6.889   3.076   6.668
 9217SOL    HW128550   6.872   3.063   6.570
 9217SOL    HW228551   6.982   3.047   6.690
 9218SOL     OW28552   2.201   0.959   6.985
 9218SOL    HW128553   2.160   0.869   6.967
 9218SOL    HW228554   2.138   1.013   0.016
 9219SOL     OW28555   5.736   3.263   0.478
 9219SOL    HW128556   5.666   3.214   0.530
 9219SOL    HW228557   5.755   3.351   0.522
 9220SOL     OW28558   1.513   6.236   1.789
 9220SOL    HW128559   1.588   6.181   1.753
 9220SOL    HW228560   1.546   6.327   1.813
 9221SOL     OW28561   2.765   0.650   3.384
 9221SOL    HW128562   2.717   0.722   3.434
 9221SOL    HW228563   2.767   0.674   3.287
 9222SOL     OW28564   2.837   5.785   6.238
 9222SOL    HW128565   2.742   5.793   6.269
 9222SOL    HW228566   2.891   5.736   6.306
 9223SOL     OW28567   0.922   2.430   3.821
 9223SOL    HW128568   0.989   2.355   3.822
 9223SOL    HW228569   0.836   2.397   3.783
 9224SOL     OW28570   1.279   5.226   4.278
 9224SOL    HW128571   1.267   5.299   4.345
 9224SOL    HW228572   1.197   5.217   4.222
 9225SOL     OW28573   2.891   6.491   6.749
 9225SOL    HW128574   2.819   6.526   6.689
 9225SOL    HW228575   2.878   6.526   6.842
 9226SOL     OW28576   6.401   6.825   1.845
 9226SOL    HW128577   6.332   6.858   1.910
 9226SOL    HW228578   6.457   6.902   1.815
 9227SOL     OW28579   1.754   5.954   0.858
 9227SOL    HW128580   1.776   6.017   0.933
 9227SOL    HW228581   1.811   5.975   0.779
 9228SOL     OW28582   1.636   2.052   5.905
 9228SOL    HW128583   1.542   2.025   5.927
 9228SOL    HW228584   1.640   2.084   5.810
 9229SOL     OW28585   1.261   5.439   5.195
 9229SOL    HW128586   1.221   5.529   5.174
 9229SOL    HW228587   1.255   5.422   5.293
 9230SOL     OW28588   5.139   2.560   2.987
 9230SOL    HW128589   5.220   2.617   2.973
 9230SOL    HW228590   5.061   2.619   3.010
 9231SOL     OW28591   0.267   3.322   4.764
 9231SOL    HW128592   0.320   3.257   4.818
 9231SOL    HW228593   0.325   3.363   4.694
 9232SOL     OW28594   4.194   5.512   0.509
 9232SOL    HW128595   4.153   5.458   0.583
 9232SOL    HW228596   4.197   5.457   0.426
 9233SOL     OW28597   5.884   5.394   1.937
 9233SOL    HW128598   5.819   5.469   1.928
 9233SOL    HW228599   5.977   5.429   1.929
 9234SOL     OW28600   3.430   6.028   6.492
 9234SOL    HW128601   3.358   6.084   6.535
 9234SOL    HW228602   3.390   5.973   6.419
 9235SOL     OW28603   1.471   3.423   2.950
 9235SOL    HW128604   1.556   3.424   2.897
 9235SOL    HW228605   1.429   3.514   2.948
 9236SOL     OW28606   2.085   4.617   5.783
 9236SOL    HW128607   2.167   4.560   5.775
 9236SOL    HW228608   2.101   4.690   5.850
 9237SOL     OW28609   1.680   6.013   4.375
 9237SOL    HW128610   1.726   5.952   4.310
 9237SOL    HW228611   1.740   6.031   4.452
 9238SOL     OW28612   2.792   1.951   0.204
 9238SOL    HW128613   2.855   2.022   0.236
 9238SOL    HW228614   2.826   1.913   0.118
 9239SOL     OW28615   6.737   4.073   0.047
 9239SOL    HW128616   6.689   4.086   6.985
 9239SOL    HW228617   6.671   4.055   0.120
 9240SOL     OW28618   4.577   1.634   1.257
 9240SOL    HW128619   4.669   1.669   1.272
 9240SOL    HW228620   4.578   1.534   1.266
 9241SOL     OW28621   0.705   5.367   5.937
 9241SOL    HW128622   0.748   5.284   5.903
 9241SOL    HW228623   0.651   5.409   5.865
 9242SOL     OW28624   1.106   5.069   6.935
 9242SOL    HW128625   1.021   5.073   6.988
 9242SOL    HW228626   1.161   5.150   6.954
 9243SOL     OW28627   6.469   6.702   1.426
 9243SOL    HW128628   6.521   6.764   1.484
 9243SOL    HW228629   6.529   6.663   1.356
 9244SOL     OW28630   4.518   5.170   6.284
 9244SOL    HW128631   4.524   5.249   6.346
 9244SOL    HW228632   4.587   5.178   6.213
 9245SOL     OW28633   1.962   5.025   3.093
 9245SOL    HW128634   1.868   5.058   3.093
 9245SOL    HW228635   1.989   4.998   3.185
 9246SOL     OW28636   0.131   5.829   2.645
 9246SOL    HW128637   0.122   5.762   2.719
 9246SOL    HW228638   0.090   5.916   2.675
 9247SOL     OW28639   1.235   6.780   2.887
 9247SOL    HW128640   1.300   6.777   2.811
 9247SOL    HW228641   1.193   6.691   2.899
 9248SOL     OW28642   2.269   2.198   4.211
 9248SOL    HW128643   2.173   2.172   4.200
 9248SOL    HW228644   2.325   2.147   4.146
 9249SOL     OW28645   3.803   3.812   0.177
 9249SOL    HW128646   3.891   3.854   0.160
 9249SOL    HW228647   3.794   3.790   0.274
 9250SOL     OW28648   5.577   3.292   3.830
 9250SOL    HW128649   5.481   3.315   3.847
 9250SOL    HW228650   5.630   3.305   3.913
 9251SOL     OW28651   3.936   1.708   2.405
 9251SOL    HW128652   3.898   1.744   2.490
 9251SOL    HW228653   4.035   1.722   2.405
 9252SOL     OW28654   5.412   0.467   4.376
 9252SOL    HW128655   5.340   0.533   4.397
 9252SOL    HW228656   5.498   0.516   4.361
 9253SOL     OW28657   5.832   6.234   5.061
 9253SOL    HW128658   5.742   6.217   5.102
 9253SOL    HW228659   5.895   6.266   5.131
 9254SOL     OW28660   6.429   4.527   2.759
 9254SOL    HW128661   6.394   4.617   2.784
 9254SOL    HW228662   6.513   4.537   2.706
 9255SOL     OW28663   4.911   3.708   0.181
 9255SOL    HW128664   4.889   3.790   0.129
 9255SOL    HW228665   5.011   3.700   0.189
 9256SOL     OW28666   3.727   6.911   2.524
 9256SOL    HW128667   3.659   6.850   2.483
 9256SOL    HW228668   3.807   6.858   2.552
 9257SOL     OW28669   6.766   3.320   3.215
 9257SOL    HW128670   6.754   3.232   3.170
 9257SOL    HW228671   6.695   3.383   3.184
 9258SOL     OW28672   3.149   3.059   3.383
 9258SOL    HW128673   3.220   2.991   3.400
 9258SOL    HW228674   3.141   3.074   3.284
 9259SOL     OW28675   1.230   2.418   0.419
 9259SOL    HW128676   1.208   2.324   0.390
 9259SOL    HW228677   1.299   2.415   0.491
 9260SOL     OW28678   5.414   1.765   4.909
 9260SOL    HW128679   5.341   1.702   4.882
 9260SOL    HW228680   5.416   1.842   4.846
 9261SOL     OW28681   4.337   0.778   0.112
 9261SOL    HW128682   4.280   0.696   0.120
 9261SOL    HW228683   4.280   0.856   0.086
 9262SOL     OW28684   6.899   4.109   5.934
 9262SOL    HW128685   6.972   4.113   5.867
 9262SOL    HW228686   6.867   4.201   5.956
 9263SOL     OW28687   5.004   6.274   1.147
 9263SOL    HW128688   4.981   6.192   1.199
 9263SOL    HW228689   5.101   6.296   1.160
 9264SOL     OW28690   5.106   4.721   0.439
 9264SOL    HW128691   5.065   4.689   0.354
 9264SOL    HW228692   5.088   4.819   0.450
 9265SOL     OW28693   3.700   2.172   6.951
 9265SOL    HW128694   3.798   2.194   6.958
 9265SOL    HW228695   3.666   2.200   6.861
 9266SOL     OW28696   2.561   0.189   1.687
 9266SOL    HW128697   2.497   0.227   1.755
 9266SOL    HW228698   2.552   0.239   1.601
 9267SOL     OW28699   6.711   2.957   4.830
 9267SOL    HW128700   6.748   3.007   4.752
 9267SOL    HW228701   6.787   2.919   4.884
 9268SOL     OW28702   0.797   5.409   1.951
 9268SOL    HW128703   0.843   5.409   1.862
 9268SOL    HW228704   0.753   5.320   1.965
 9269SOL     OW28705   2.903   1.326   5.853
 9269SOL    HW128706   2.857   1.405   5.814
 9269SOL    HW228707   3.000   1.328   5.830
 9270SOL     OW28708   4.462   6.469   6.023
 9270SOL    HW128709   4.447   6.460   5.925
 9270SOL    HW228710   4.553   6.506   6.040
 9271SOL     OW28711   6.676   0.007   6.957
 9271SOL    HW128712   6.667   0.091   6.904
 9271SOL    HW228713   6.697   0.030   0.028
 9272SOL     OW28714   1.469   5.663   4.245
 9272SOL    HW128715   1.525   5.689   4.167
 9272SOL    HW228716   1.526   5.651   4.325
 9273SOL     OW28717   6.332   6.294   3.736
 9273SOL    HW128718   6.419   6.253   3.711
 9273SOL    HW228719   6.257   6.236   3.702
 9274SOL     OW28720   6.469   2.330   7.000
 9274SOL    HW128721   6.457   2.275   0.059
 9274SOL    HW228722   6.388   2.387   6.986
 9275SOL     OW28723   0.258   1.323   6.589
 9275SOL    HW128724   0.192   1.304   6.517
 9275SOL    HW228725   0.307   1.408   6.568
 9276SOL     OW28726   2.197   3.972   2.001
 9276SOL    HW128727   2.122   4.032   2.027
 9276SOL    HW228728   2.181   3.881   2.040
 9277SOL     OW28729   5.038   3.153   6.951
 9277SOL    HW128730   5.092   3.117   0.003
 9277SOL    HW228731   5.026   3.082   6.882
 9278SOL     OW28732   1.539   0.588   6.324
 9278SOL    HW128733   1.562   0.539   6.240
 9278SOL    HW228734   1.602   0.664   6.337
 9279SOL     OW28735   4.731   0.943   1.495
 9279SOL    HW128736   4.701   0.985   1.581
 9279SOL    HW228737   4.799   0.873   1.514
 9280SOL     OW28738   1.918   2.067   3.545
 9280SOL    HW128739   1.858   2.141   3.515
 9280SOL    HW228740   1.915   1.993   3.478
 9281SOL     OW28741   2.921   4.709   0.681
 9281SOL    HW128742   2.950   4.743   0.591
 9281SOL    HW228743   2.830   4.744   0.702
 9282SOL     OW28744   4.613   1.381   4.038
 9282SOL    HW128745   4.641   1.312   4.105
 9282SOL    HW228746   4.693   1.409   3.984
 9283SOL     OW28747   5.513   0.541   3.611
 9283SOL    HW128748   5.465   0.501   3.689
 9283SOL    HW228749   5.466   0.514   3.527
 9284SOL     OW28750   3.349   3.586   6.241
 9284SOL    HW128751   3.416   3.652   6.206
 9284SOL    HW228752   3.367   3.496   6.202
 9285SOL     OW28753   5.069   3.035   0.969
 9285SOL    HW128754   4.972   3.058   0.980
 9285SOL    HW228755   5.077   2.943   0.931
 9286SOL     OW28756   5.516   6.100   0.427
 9286SOL    HW128757   5.463   6.151   0.495
 9286SOL    HW228758   5.561   6.163   0.365
 9287SOL     OW28759   3.529   4.831   6.556
 9287SOL    HW128760   3.610   4.800   6.607
 9287SOL    HW228761   3.449   4.827   6.615
 9288SOL     OW28762   4.600   1.254   3.781
 9288SOL    HW128763   4.583   1.165   3.738
 9288SOL    HW228764   4.516   1.285   3.826
 9289SOL     OW28765   3.661   1.229   2.463
 9289SOL    HW128766   3.576   1.261   2.421
 9289SOL    HW228767   3.738   1.281   2.424
 9290SOL     OW28768   5.367   1.475   2.999
 9290SOL    HW128769   5.274   1.439   3.008
 9290SOL    HW228770   5.430   1.400   2.981
 9291SOL     OW28771   1.590   6.519   4.510
 9291SOL    HW128772   1.539   6.466   4.578
 9291SOL    HW228773   1.661   6.461   4.470
 9292SOL     OW28774   0.812   3.447   6.994
 9292SOL    HW128775   0.745   3.373   7.000
 9292SOL    HW228776   0.897   3.418   0.014
 9293SOL     OW28777   5.166   3.791   6.636
 9293SOL    HW128778   5.128   3.858   6.573
 9293SOL    HW228779   5.182   3.705   6.587
 9294SOL     OW28780   4.077   0.684   5.272
 9294SOL    HW128781   4.147   0.736   5.224
 9294SOL    HW228782   4.052   0.732   5.356
 9295SOL     OW28783   5.584   2.366   4.578
 9295SOL    HW128784   5.587   2.352   4.677
 9295SOL    HW228785   5.497   2.408   4.553
 9296SOL     OW28786   0.645   6.699   0.041
 9296SOL    HW128787   0.656   6.698   6.965
 9296SOL    HW228788   0.569   6.758   0.066
 9297SOL     OW28789   6.432   0.595   0.602
 9297SOL    HW128790   6.487   0.677   0.614
 9297SOL    HW228791   6.340   0.620   0.572
 9298SOL     OW28792   0.669   0.207   5.494
 9298SOL    HW128793   0.749   0.255   5.530
 9298SOL    HW228794   0.636   0.256   5.413
 9299SOL     OW28795   0.571   2.655   5.055
 9299SOL    HW128796   0.554   2.730   4.992
 9299SOL    HW228797   0.657   2.671   5.104
 9300SOL     OW28798   0.453   4.754   5.513
 9300SOL    HW128799   0.425   4.662   5.541
 9300SOL    HW228800   0.513   4.794   5.582
 9301SOL     OW28801   4.898   4.563   3.656
 9301SOL    HW128802   4.801   4.578   3.639
 9301SOL    HW228803   4.942   4.529   3.573
 9302SOL     OW28804   2.091   3.335   4.036
 9302SOL    HW128805   2.114   3.428   4.064
 9302SOL    HW228806   2.139   3.312   3.951
 9303SOL     OW28807   2.706   4.855   0.749
 9303SOL    HW128808   2.608   4.842   0.766
 9303SOL    HW228809   2.728   4.952   0.756
 9304SOL     OW28810   4.229   4.683   2.090
 9304SOL    HW128811   4.268   4.631   2.014
 9304SOL    HW228812   4.302   4.736   2.135
 9305SOL     OW28813   3.460   0.996   0.392
 9305SOL    HW128814   3.540   0.939   0.374
 9305SOL    HW228815   3.442   1.054   0.313
 9306SOL     OW28816   0.210   4.761   4.549
 9306SOL    HW128817   0.132   4.824   4.542
 9306SOL    HW228818   0.243   4.740   4.457
 9307SOL     OW28819   1.931   3.394   1.978
 9307SOL    HW128820   1.925   3.481   1.929
 9307SOL    HW228821   2.026   3.362   1.977
 9308SOL     OW28822   1.856   3.703   0.673
 9308SOL    HW128823   1.937   3.645   0.664
 9308SOL    HW228824   1.778   3.648   0.705
 9309SOL     OW28825   3.482   4.703   6.096
 9309SOL    HW128826   3.428   4.745   6.170
 9309SOL    HW228827   3.545   4.636   6.135
 9310SOL     OW28828   4.473   4.933   6.431
 9310SOL    HW128829   4.464   5.004   6.362
 9310SOL    HW228830   4.511   4.973   6.515
 9311SOL     OW28831   4.305   4.960   2.510
 9311SOL    HW128832   4.274   4.865   2.514
 9311SOL    HW228833   4.246   5.011   2.448
 9312SOL     OW28834   1.138   3.687   1.474
 9312SOL    HW128835   1.102   3.734   1.394
 9312SOL    HW228836   1.089   3.600   1.487
 9313SOL     OW28837   0.790   0.751   1.331
 9313SOL    HW128838   0.839   0.664   1.323
 9313SOL    HW228839   0.804   0.789   1.423
 9314SOL     OW28840   5.161   5.199   6.486
 9314SOL    HW128841   5.176   5.276   6.549
 9314SOL    HW228842   5.062   5.181   6.479
 9315SOL     OW28843   6.001   0.718   4.989
 9315SOL    HW128844   6.014   0.794   5.053
 9315SOL    HW228845   6.053   0.735   4.905
 9316SOL     OW28846   4.234   5.679   5.199
 9316SOL    HW128847   4.142   5.663   5.237
 9316SOL    HW228848   4.302   5.651   5.267
 9317SOL     OW28849   5.444   5.340   3.341
 9317SOL    HW128850   5.348   5.323   3.319
 9317SOL    HW228851   5.454   5.346   3.440
 9318SOL     OW28852   6.134   0.938   5.546
 9318SOL    HW128853   6.201   0.877   5.588
 9318SOL    HW228854   6.123   0.914   5.449
 9319SOL     OW28855   1.917   2.934   0.346
 9319SOL    HW128856   1.896   2.898   0.256
 9319SOL    HW228857   1.953   3.027   0.338
 9320SOL     OW28858   3.997   0.192   5.027
 9320SOL    HW128859   3.999   0.211   4.929
 9320SOL    HW228860   3.976   0.276   5.077
 9321SOL     OW28861   6.835   0.276   3.529
 9321SOL    HW128862   6.891   0.220   3.467
 9321SOL    HW228863   6.816   0.364   3.486
 9322SOL     OW28864   0.515   4.273   6.856
 9322SOL    HW128865   0.449   4.338   6.893
 9322SOL    HW228866   0.481   4.180   6.868
 9323SOL     OW28867   0.920   0.588   5.448
 9323SOL    HW128868   0.885   0.638   5.527
 9323SOL    HW228869   0.997   0.530   5.476
 9324SOL     OW28870   1.105   4.502   0.666
 9324SOL    HW128871   1.049   4.523   0.746
 9324SOL    HW228872   1.200   4.527   0.683
 9325SOL     OW28873   5.259   0.320   0.455
 9325SOL    HW128874   5.286   0.395   0.516
 9325SOL    HW228875   5.218   0.357   0.372
 9326SOL     OW28876   2.067   5.349   0.126
 9326SOL    HW128877   2.109   5.369   0.038
 9326SOL    HW228878   2.044   5.435   0.172
 9327SOL     OW28879   5.561   0.737   2.700
 9327SOL    HW128880   5.605   0.800   2.635
 9327SOL    HW228881   5.629   0.708   2.768
 9328SOL     OW28882   2.612   1.017   4.970
 9328SOL    HW128883   2.687   0.992   4.909
 9328SOL    HW228884   2.649   1.038   5.061
 9329SOL     OW28885   5.925   3.686   0.893
 9329SOL    HW128886   5.968   3.644   0.973
 9329SOL    HW228887   5.836   3.643   0.876
 9330SOL     OW28888   6.598   6.798   6.426
 9330SOL    HW128889   6.607   6.884   6.377
 9330SOL    HW228890   6.627   6.810   6.521
 9331SOL     OW28891   2.723   1.431   0.180
 9331SOL    HW128892   2.724   1.481   0.266
 9331SOL    HW228893   2.656   1.473   0.118
 9332SOL     OW28894   3.987   3.981   1.609
 9332SOL    HW128895   3.889   3.960   1.608
 9332SOL    HW228896   4.025   3.967   1.518
 9333SOL     OW28897   4.545   4.031   0.120
 9333SOL    HW128898   4.551   4.082   0.034
 9333SOL    HW228899   4.619   4.060   0.181
 9334SOL     OW28900   6.037   5.991   3.304
 9334SOL    HW128901   6.121   6.004   3.251
 9334SOL    HW228902   6.060   5.968   3.399
 9335SOL     OW28903   0.920   1.555   6.784
 9335SOL    HW128904   0.833   1.508   6.767
 9335SOL    HW228905   0.991   1.487   6.804
 9336SOL     OW28906   3.138   5.932   5.679
 9336SOL    HW128907   3.145   6.026   5.713
 9336SOL    HW228908   3.187   5.870   5.740
 9337SOL     OW28909   4.061   1.846   4.559
 9337SOL    HW128910   4.079   1.762   4.508
 9337SOL    HW228911   3.977   1.889   4.524
 9338SOL     OW28912   5.250   0.391   1.925
 9338SOL    HW128913   5.186   0.383   1.849
 9338SOL    HW228914   5.343   0.401   1.890
 9339SOL     OW28915   6.000   6.955   1.746
 9339SOL    HW128916   5.959   0.003   1.690
 9339SOL    HW228917   6.071   6.908   1.694
 9340SOL     OW28918   5.741   4.368   4.651
 9340SOL    HW128919   5.698   4.301   4.711
 9340SOL    HW228920   5.787   4.438   4.705
 9341SOL     OW28921   0.200   5.998   0.776
 9341SOL    HW128922   0.127   5.941   0.740
 9341SOL    HW228923   0.264   6.021   0.702
 9342SOL     OW28924   2.075   6.316   3.763
 9342SOL    HW128925   2.138   6.393   3.759
 9342SOL    HW228926   1.995   6.341   3.818
 9343SOL     OW28927   5.552   4.093   2.367
 9343SOL    HW128928   5.584   4.068   2.458
 9343SOL    HW228929   5.628   4.131   2.314
 9344SOL     OW28930   5.027   6.377   2.824
 9344SOL    HW128931   5.028   6.343   2.730
 9344SOL    HW228932   5.060   6.305   2.885
 9345SOL     OW28933   5.869   5.556   2.208
 9345SOL    HW128934   5.967   5.553   2.222
 9345SOL    HW228935   5.828   5.469   2.238
 9346SOL     OW28936   5.808   1.586   1.197
 9346SOL    HW128937   5.794   1.626   1.287
 9346SOL    HW228938   5.903   1.554   1.189
 9347SOL     OW28939   3.098   3.885   0.446
 9347SOL    HW128940   3.089   3.787   0.428
 9347SOL    HW228941   3.100   3.935   0.359
 9348SOL     OW28942   3.230   6.422   2.071
 9348SOL    HW128943   3.223   6.499   2.134
 9348SOL    HW228944   3.275   6.346   2.116
 9349SOL     OW28945   6.810   5.432   3.319
 9349SOL    HW128946   6.710   5.423   3.323
 9349SOL    HW228947   6.841   5.497   3.389
 9350SOL     OW28948   0.515   2.986   5.134
 9350SOL    HW128949   0.494   2.970   5.038
 9350SOL    HW228950   0.564   2.907   5.171
 9351SOL     OW28951   3.029   7.004   0.097
 9351SOL    HW128952   3.051   0.070   0.061
 9351SOL    HW228953   3.084   6.935   0.050
 9352SOL     OW28954   3.755   1.639   6.314
 9352SOL    HW128955   3.723   1.616   6.406
 9352SOL    HW228956   3.728   1.733   6.293
 9353SOL     OW28957   0.570   4.342   0.764
 9353SOL    HW128958   0.647   4.339   0.827
 9353SOL    HW228959   0.596   4.301   0.677
 9354SOL     OW28960   0.310   2.235   6.381
 9354SOL    HW128961   0.234   2.295   6.407
 9354SOL    HW228962   0.394   2.268   6.424
 9355SOL     OW28963   0.514   1.940   4.400
 9355SOL    HW128964   0.569   1.879   4.343
 9355SOL    HW228965   0.442   1.982   4.345
 9356SOL     OW28966   4.959   0.353   2.136
 9356SOL    HW128967   4.886   0.297   2.174
 9356SOL    HW228968   5.047   0.308   2.149
 9357SOL     OW28969   1.636   3.129   5.906
 9357SOL    HW128970   1.690   3.202   5.865
 9357SOL    HW228971   1.657   3.042   5.861
 9358SOL     OW28972   6.752   3.321   1.993
 9358SOL    HW128973   6.835   3.377   1.986
 9358SOL    HW228974   6.701   3.327   1.907
 9359SOL     OW28975   1.952   4.517   5.556
 9359SOL    HW128976   2.009   4.543   5.634
 9359SOL    HW228977   1.937   4.597   5.497
 9360SOL     OW28978   0.810   4.583   6.678
 9360SOL    HW128979   0.820   4.587   6.578
 9360SOL    HW228980   0.765   4.497   6.704
 9361SOL     OW28981   1.993   5.327   2.874
 9361SOL    HW128982   1.947   5.272   2.805
 9361SOL    HW228983   1.981   5.285   2.964
 9362SOL     OW28984   1.582   1.470   2.551
 9362SOL    HW128985   1.620   1.505   2.636
 9362SOL    HW228986   1.605   1.373   2.542
 9363SOL     OW28987   3.187   5.249   1.774
 9363SOL    HW128988   3.231   5.168   1.814
 9363SOL    HW228989   3.256   5.319   1.756
 9364SOL     OW28990   2.636   2.154   6.325
 9364SOL    HW128991   2.685   2.139   6.239
 9364SOL    HW228992   2.696   2.198   6.391
 9365SOL     OW28993   3.274   1.975   3.521
 9365SOL    HW128994   3.362   1.970   3.473
 9365SOL    HW228995   3.283   1.935   3.612
 9366SOL     OW28996   3.362   5.470   6.358
 9366SOL    HW128997   3.445   5.477   6.413
 9366SOL    HW228998   3.312   5.387   6.384
 9367SOL     OW28999   6.689   6.265   2.255
 9367SOL    HW129000   6.698   6.216   2.341
 9367SOL    HW229001   6.740   6.350   2.259
 9368SOL     OW29002   3.136   0.702   2.974
 9368SOL    HW129003   3.188   0.700   3.059
 9368SOL    HW229004   3.105   0.610   2.951
 9369SOL     OW29005   6.715   6.758   3.753
 9369SOL    HW129006   6.749   6.678   3.704
 9369SOL    HW229007   6.685   6.827   3.687
 9370SOL     OW29008   5.240   0.551   4.634
 9370SOL    HW129009   5.297   0.471   4.617
 9370SOL    HW229010   5.298   0.629   4.661
 9371SOL     OW29011   2.405   5.259   0.297
 9371SOL    HW129012   2.310   5.266   0.267
 9371SOL    HW229013   2.454   5.342   0.270
 9372SOL     OW29014   5.128   6.640   1.272
 9372SOL    HW129015   5.051   6.703   1.268
 9372SOL    HW229016   5.190   6.659   1.195
 9373SOL     OW29017   4.402   2.641   1.479
 9373SOL    HW129018   4.415   2.726   1.531
 9373SOL    HW229019   4.414   2.660   1.382
 9374SOL     OW29020   0.740   3.097   6.649
 9374SOL    HW129021   0.749   3.084   6.550
 9374SOL    HW229022   0.721   3.009   6.692
 9375SOL     OW29023   0.561   2.407   1.042
 9375SOL    HW129024   0.478   2.416   0.988
 9375SOL    HW229025   0.641   2.422   0.984
 9376SOL     OW29026   2.366   4.062   1.327
 9376SOL    HW129027   2.299   4.128   1.363
 9376SOL    HW229028   2.330   3.969   1.338
 9377SOL     OW29029   2.035   5.282   3.161
 9377SOL    HW129030   2.009   5.189   3.185
 9377SOL    HW229031   2.062   5.331   3.245
 9378SOL     OW29032   2.943   1.374   3.105
 9378SOL    HW129033   2.990   1.427   3.175
 9378SOL    HW229034   2.905   1.436   3.035
 9379SOL     OW29035   4.774   0.061   5.108
 9379SOL    HW129036   4.823   0.033   5.191
 9379SOL    HW229037   4.714   7.011   5.078
 9380SOL     OW29038   3.775   5.428   5.082
 9380SOL    HW129039   3.683   5.450   5.050
 9380SOL    HW229040   3.771   5.396   5.176
 9381SOL     OW29041   5.526   3.064   5.848
 9381SOL    HW129042   5.589   3.127   5.802
 9381SOL    HW229043   5.551   3.056   5.945
 9382SOL     OW29044   4.001   0.433   3.258
 9382SOL    HW129045   4.014   0.532   3.258
 9382SOL    HW229046   3.978   0.402   3.166
 9383SOL     OW29047   5.522   4.723   3.865
 9383SOL    HW129048   5.548   4.662   3.940
 9383SOL    HW229049   5.465   4.797   3.901
 9384SOL     OW29050   4.040   0.066   2.203
 9384SOL    HW129051   4.123   0.047   2.256
 9384SOL    HW229052   3.979   7.011   2.206
 9385SOL     OW29053   4.466   1.432   4.304
 9385SOL    HW129054   4.518   1.394   4.228
 9385SOL    HW229055   4.526   1.488   4.362
 9386SOL     OW29056   3.138   5.588   5.512
 9386SOL    HW129057   3.108   5.495   5.490
 9386SOL    HW229058   3.116   5.649   5.436
 9387SOL     OW29059   2.751   2.248   0.755
 9387SOL    HW129060   2.723   2.253   0.659
 9387SOL    HW229061   2.846   2.278   0.764
 9388SOL     OW29062   2.614   6.099   3.635
 9388SOL    HW129063   2.531   6.121   3.584
 9388SOL    HW229064   2.600   6.016   3.689
 9389SOL     OW29065   2.817   0.609   3.111
 9389SOL    HW129066   2.894   0.548   3.090
 9389SOL    HW229067   2.736   0.578   3.063
 9390SOL     OW29068   5.682   5.218   5.770
 9390SOL    HW129069   5.663   5.137   5.827
 9390SOL    HW229070   5.629   5.296   5.804
 9391SOL     OW29071   0.394   6.854   6.480
 9391SOL    HW129072   0.427   6.781   6.420
 9391SOL    HW229073   0.472   6.902   6.519
 9392SOL     OW29074   5.257   4.936   4.966
 9392SOL    HW129075   5.283   5.023   4.925
 9392SOL    HW229076   5.331   4.905   5.026
 9393SOL     OW29077   3.014   0.360   5.706
 9393SOL    HW129078   2.970   0.431   5.651
 9393SOL    HW229079   2.983   0.367   5.801
 9394SOL     OW29080   6.237   0.784   0.909
 9394SOL    HW129081   6.266   0.689   0.911
 9394SOL    HW229082   6.141   0.790   0.882
 9395SOL     OW29083   2.586   0.906   0.545
 9395SOL    HW129084   2.659   0.838   0.538
 9395SOL    HW229085   2.610   0.986   0.489
 9396SOL     OW29086   2.004   4.899   4.555
 9396SOL    HW129087   2.028   4.968   4.487
 9396SOL    HW229088   2.085   4.845   4.580
 9397SOL     OW29089   3.249   6.355   5.995
 9397SOL    HW129090   3.338   6.316   6.022
 9397SOL    HW229091   3.245   6.451   6.022
 9398SOL     OW29092   5.956   0.782   6.028
 9398SOL    HW129093   5.864   0.758   5.998
 9398SOL    HW229094   5.963   0.881   6.039
 9399SOL     OW29095   0.700   3.284   4.554
 9399SOL    HW129096   0.791   3.272   4.592
 9399SOL    HW229097   0.686   3.380   4.529
 9400SOL     OW29098   4.771   0.729   1.096
 9400SOL    HW129099   4.829   0.649   1.081
 9400SOL    HW229100   4.676   0.700   1.110
 9401SOL     OW29101   6.967   2.019   2.847
 9401SOL    HW129102   6.873   2.005   2.879
 9401SOL    HW229103   0.005   2.018   2.925
 9402SOL     OW29104   1.113   3.706   3.005
 9402SOL    HW129105   1.029   3.686   2.956
 9402SOL    HW229106   1.132   3.804   3.000
 9403SOL     OW29107   6.536   1.665   1.940
 9403SOL    HW129108   6.578   1.746   1.980
 9403SOL    HW229109   6.437   1.669   1.950
 9404SOL     OW29110   0.442   2.370   1.504
 9404SOL    HW129111   0.419   2.273   1.499
 9404SOL    HW229112   0.383   2.422   1.441
 9405SOL     OW29113   1.742   4.233   3.854
 9405SOL    HW129114   1.820   4.270   3.802
 9405SOL    HW229115   1.749   4.133   3.857
 9406SOL     OW29116   0.788   3.351   6.554
 9406SOL    HW129117   0.711   3.414   6.566
 9406SOL    HW229118   0.765   3.263   6.597
 9407SOL     OW29119   2.526   5.503   4.444
 9407SOL    HW129120   2.574   5.582   4.407
 9407SOL    HW229121   2.547   5.494   4.542
 9408SOL     OW29122   6.865   2.668   5.885
 9408SOL    HW129123   6.876   2.711   5.974
 9408SOL    HW229124   6.883   2.736   5.813
 9409SOL     OW29125   6.182   5.891   1.792
 9409SOL    HW129126   6.157   5.900   1.889
 9409SOL    HW229127   6.176   5.795   1.765
 9410SOL     OW29128   3.840   1.063   1.648
 9410SOL    HW129129   3.813   0.967   1.640
 9410SOL    HW229130   3.765   1.121   1.617
 9411SOL     OW29131   3.801   3.106   3.467
 9411SOL    HW129132   3.707   3.121   3.436
 9411SOL    HW229133   3.865   3.132   3.395
 9412SOL     OW29134   2.043   0.497   2.218
 9412SOL    HW129135   2.051   0.575   2.281
 9412SOL    HW229136   2.062   0.527   2.125
 9413SOL     OW29137   4.670   5.098   3.885
 9413SOL    HW129138   4.629   5.118   3.974
 9413SOL    HW229139   4.764   5.132   3.884
 9414SOL     OW29140   3.076   1.381   3.835
 9414SOL    HW129141   2.979   1.399   3.847
 9414SOL    HW229142   3.104   1.403   3.741
 9415SOL     OW29143   2.130   6.977   1.817
 9415SOL    HW129144   2.165   6.958   1.725
 9415SOL    HW229145   2.110   6.892   1.864
 9416SOL     OW29146   7.010   0.697   5.908
 9416SOL    HW129147   6.985   0.734   5.819
 9416SOL    HW229148   6.927   0.674   5.959
 9417SOL     OW29149   3.592   6.667   0.600
 9417SOL    HW129150   3.517   6.729   0.576
 9417SOL    HW229151   3.589   6.587   0.540
 9418SOL     OW29152   1.919   1.474   2.194
 9418SOL    HW129153   1.834   1.503   2.150
 9418SOL    HW229154   1.898   1.414   2.271
 9419SOL     OW29155   1.608   3.607   6.369
 9419SOL    HW129156   1.514   3.620   6.338
 9419SOL    HW229157   1.667   3.677   6.328
 9420SOL     OW29158   5.577   4.255   7.002
 9420SOL    HW129159   5.652   4.297   0.028
 9420SOL    HW229160   5.492   4.268   0.029
 9421SOL     OW29161   3.115   5.339   4.766
 9421SOL    HW129162   3.019   5.319   4.786
 9421SOL    HW229163   3.174   5.281   4.823
 9422SOL     OW29164   3.256   6.136   3.630
 9422SOL    HW129165   3.161   6.153   3.604
 9422SOL    HW229166   3.308   6.221   3.622
 9423SOL     OW29167   3.969   6.561   3.158
 9423SOL    HW129168   3.890   6.615   3.189
 9423SOL    HW229169   4.053   6.604   3.189
 9424SOL     OW29170   5.114   1.930   4.626
 9424SOL    HW129171   5.147   2.011   4.578
 9424SOL    HW229172   5.186   1.894   4.684
 9425SOL     OW29173   5.704   5.270   1.021
 9425SOL    HW129174   5.766   5.267   0.943
 9425SOL    HW229175   5.645   5.189   1.021
 9426SOL     OW29176   2.509   1.745   5.807
 9426SOL    HW129177   2.561   1.666   5.838
 9426SOL    HW229178   2.421   1.748   5.855
 9427SOL     OW29179   2.596   5.618   3.185
 9427SOL    HW129180   2.647   5.677   3.123
 9427SOL    HW229181   2.658   5.577   3.251
 9428SOL     OW29182   0.075   6.900   0.753
 9428SOL    HW129183   0.166   6.862   0.770
 9428SOL    HW229184   0.083   6.996   0.728
 9429SOL     OW29185   2.294   2.764   3.738
 9429SOL    HW129186   2.254   2.828   3.804
 9429SOL    HW229187   2.222   2.729   3.678
 9430SOL     OW29188   0.484   2.071   4.864
 9430SOL    HW129189   0.500   2.017   4.782
 9430SOL    HW229190   0.399   2.123   4.854
 9431SOL     OW29191   6.657   5.029   1.022
 9431SOL    HW129192   6.629   5.083   0.943
 9431SOL    HW229193   6.584   4.964   1.044
 9432SOL     OW29194   5.878   1.350   4.671
 9432SOL    HW129195   5.835   1.406   4.600
 9432SOL    HW229196   5.906   1.262   4.631
 9433SOL     OW29197   3.402   6.649   2.856
 9433SOL    HW129198   3.408   6.698   2.943
 9433SOL    HW229199   3.484   6.667   2.802
 9434SOL     OW29200   6.037   5.446   3.004
 9434SOL    HW129201   6.075   5.381   2.938
 9434SOL    HW229202   6.112   5.499   3.045
 9435SOL     OW29203   0.558   1.759   3.282
 9435SOL    HW129204   0.507   1.749   3.367
 9435SOL    HW229205   0.562   1.671   3.234
 9436SOL     OW29206   1.624   1.130   2.851
 9436SOL    HW129207   1.578   1.116   2.939
 9436SOL    HW229208   1.702   1.190   2.863
 9437SOL     OW29209   0.400   5.284   3.368
 9437SOL    HW129210   0.383   5.382   3.358
 9437SOL    HW229211   0.492   5.262   3.337
 9438SOL     OW29212   1.216   7.004   1.969
 9438SOL    HW129213   1.293   0.009   2.026
 9438SOL    HW229214   1.132   7.001   2.024
 9439SOL     OW29215   0.618   3.175   1.473
 9439SOL    HW129216   0.533   3.175   1.526
 9439SOL    HW229217   0.604   3.126   1.387
 9440SOL     OW29218   3.838   4.888   3.512
 9440SOL    HW129219   3.740   4.906   3.520
 9440SOL    HW229220   3.879   4.884   3.603
 9441SOL     OW29221   6.578   5.826   5.811
 9441SOL    HW129222   6.564   5.751   5.746
 9441SOL    HW229223   6.636   5.793   5.886
 9442SOL     OW29224   4.739   3.458   1.680
 9442SOL    HW129225   4.640   3.459   1.672
 9442SOL    HW229226   4.768   3.385   1.741
 9443SOL     OW29227   2.626   5.384   0.553
 9443SOL    HW129228   2.664   5.302   0.510
 9443SOL    HW229229   2.580   5.358   0.638
 9444SOL     OW29230   1.688   4.370   0.747
 9444SOL    HW129231   1.677   4.455   0.800
 9444SOL    HW229232   1.670   4.292   0.807
 9445SOL     OW29233   6.869   2.958   3.452
 9445SOL    HW129234   6.800   2.989   3.517
 9445SOL    HW229235   6.959   2.961   3.494
 9446SOL     OW29236   6.980   5.476   4.463
 9446SOL    HW129237   6.966   5.569   4.496
 9446SOL    HW229238   6.962   5.411   4.537
 9447SOL     OW29239   5.452   5.375   3.645
 9447SOL    HW129240   5.386   5.373   3.719
 9447SOL    HW229241   5.524   5.308   3.662
 9448SOL     OW29242   6.918   6.677   6.163
 9448SOL    HW129243   6.890   6.772   6.149
 9448SOL    HW229244   6.851   6.631   6.222
 9449SOL     OW29245   6.248   6.610   6.937
 9449SOL    HW129246   6.324   6.605   7.003
 9449SOL    HW229247   6.178   6.672   6.972
 9450SOL     OW29248   2.421   5.413   3.236
 9450SOL    HW129249   2.468   5.496   3.205
 9450SOL    HW229250   2.454   5.334   3.184
 9451SOL     OW29251   3.743   5.810   5.690
 9451SOL    HW129252   3.836   5.792   5.660
 9451SOL    HW229253   3.730   5.908   5.703
 9452SOL     OW29254   1.001   4.245   0.028
 9452SOL    HW129255   1.089   4.216   7.015
 9452SOL    HW229256   0.950   4.295   6.982
 9453SOL     OW29257   2.872   4.956   2.755
 9453SOL    HW129258   2.786   5.005   2.767
 9453SOL    HW229259   2.866   4.866   2.798
 9454SOL     OW29260   3.500   3.052   6.271
 9454SOL    HW129261   3.416   3.023   6.227
 9454SOL    HW229262   3.576   3.044   6.206
 9455SOL     OW29263   2.691   2.397   2.614
 9455SOL    HW129264   2.651   2.424   2.526
 9455SOL    HW229265   2.790   2.401   2.608
 9456SOL     OW29266   6.083   3.729   1.196
 9456SOL    HW129267   6.150   3.770   1.258
 9456SOL    HW229268   6.018   3.675   1.250
 9457SOL     OW29269   0.228   5.213   4.448
 9457SOL    HW129270   0.213   5.222   4.547
 9457SOL    HW229271   0.325   5.197   4.431
 9458SOL     OW29272   0.157   3.976   0.143
 9458SOL    HW129273   0.230   4.026   0.097
 9458SOL    HW229274   0.196   3.899   0.193
 9459SOL     OW29275   5.416   5.093   3.800
 9459SOL    HW129276   5.382   5.172   3.850
 9459SOL    HW229277   5.441   5.021   3.865
 9460SOL     OW29278   2.120   3.565   5.013
 9460SOL    HW129279   2.182   3.587   5.087
 9460SOL    HW229280   2.168   3.510   4.944
 9461SOL     OW29281   0.320   2.045   2.328
 9461SOL    HW129282   0.419   2.033   2.318
 9461SOL    HW229283   0.286   2.103   2.254
 9462SOL     OW29284   1.923   2.878   3.736
 9462SOL    HW129285   1.904   2.784   3.705
 9462SOL    HW229286   1.890   2.889   3.830
 9463SOL     OW29287   5.459   6.578   1.174
 9463SOL    HW129288   5.508   6.511   1.118
 9463SOL    HW229289   5.501   6.584   1.264
 9464SOL     OW29290   5.822   6.941   0.842
 9464SOL    HW129291   5.912   6.982   0.826
 9464SOL    HW229292   5.763   7.009   0.886
 9465SOL     OW29293   0.096   3.702   1.749
 9465SOL    HW129294   0.017   3.679   1.805
 9465SOL    HW229295   0.105   3.802   1.744
 9466SOL     OW29296   3.372   4.106   5.751
 9466SOL    HW129297   3.319   4.184   5.720
 9466SOL    HW229298   3.453   4.095   5.693
 9467SOL     OW29299   0.545   2.863   1.045
 9467SOL    HW129300   0.518   2.778   1.090
 9467SOL    HW229301   0.523   2.858   0.948
 9468SOL     OW29302   6.314   3.495   6.414
 9468SOL    HW129303   6.262   3.413   6.391
 9468SOL    HW229304   6.377   3.517   6.339
 9469SOL     OW29305   6.809   5.763   1.311
 9469SOL    HW129306   6.858   5.850   1.313
 9469SOL    HW229307   6.874   5.688   1.330
 9470SOL     OW29308   4.543   3.265   0.059
 9470SOL    HW129309   4.473   3.336   0.072
 9470SOL    HW229310   4.614   3.300   7.022
 9471SOL     OW29311   6.676   1.816   4.841
 9471SOL    HW129312   6.744   1.875   4.798
 9471SOL    HW229313   6.660   1.736   4.783
 9472SOL     OW29314   0.291   3.914   5.910
 9472SOL    HW129315   0.219   3.872   5.966
 9472SOL    HW229316   0.299   4.011   5.933
 9473SOL     OW29317   3.420   4.177   6.616
 9473SOL    HW129318   3.421   4.230   6.701
 9473SOL    HW229319   3.326   4.149   6.596
 9474SOL     OW29320   5.909   3.776   2.101
 9474SOL    HW129321   5.894   3.720   2.182
 9474SOL    HW229322   6.001   3.759   2.066
 9475SOL     OW29323   4.680   3.427   0.500
 9475SOL    HW129324   4.671   3.384   0.589
 9475SOL    HW229325   4.752   3.496   0.503
 9476SOL     OW29326   3.871   3.719   4.829
 9476SOL    HW129327   3.923   3.692   4.748
 9476SOL    HW229328   3.934   3.756   4.898
 9477SOL     OW29329   0.496   2.640   1.179
 9477SOL    HW129330   0.532   2.568   1.120
 9477SOL    HW229331   0.431   2.601   1.245
 9478SOL     OW29332   5.357   3.362   1.135
 9478SOL    HW129333   5.312   3.445   1.102
 9478SOL    HW229334   5.289   3.297   1.167
 9479SOL     OW29335   4.579   6.269   0.820
 9479SOL    HW129336   4.517   6.344   0.795
 9479SOL    HW229337   4.525   6.193   0.857
 9480SOL     OW29338   5.903   5.104   0.488
 9480SOL    HW129339   6.003   5.102   0.489
 9480SOL    HW229340   5.872   5.187   0.442
 9481SOL     OW29341   4.827   2.339   2.436
 9481SOL    HW129342   4.898   2.324   2.504
 9481SOL    HW229343   4.752   2.274   2.451
 9482SOL     OW29344   6.737   0.518   2.767
 9482SOL    HW129345   6.655   0.553   2.720
 9482SOL    HW229346   6.782   0.594   2.814
 9483SOL     OW29347   1.703   1.087   0.427
 9483SOL    HW129348   1.668   1.159   0.366
 9483SOL    HW229349   1.729   1.127   0.515
 9484SOL     OW29350   3.292   0.109   4.806
 9484SOL    HW129351   3.314   0.201   4.837
 9484SOL    HW229352   3.201   0.108   4.764
 9485SOL     OW29353   0.517   2.013   0.901
 9485SOL    HW129354   0.581   1.943   0.934
 9485SOL    HW229355   0.532   2.028   0.803
 9486SOL     OW29356   4.433   6.058   1.393
 9486SOL    HW129357   4.398   6.043   1.485
 9486SOL    HW229358   4.513   6.118   1.396
 9487SOL     OW29359   3.393   4.028   4.175
 9487SOL    HW129360   3.471   4.073   4.218
 9487SOL    HW229361   3.327   4.002   4.245
 9488SOL     OW29362   2.669   0.584   1.114
 9488SOL    HW129363   2.724   0.534   1.047
 9488SOL    HW229364   2.573   0.585   1.085
 9489SOL     OW29365   5.224   4.377   1.257
 9489SOL    HW129366   5.252   4.367   1.162
 9489SOL    HW229367   5.167   4.299   1.284
 9490SOL     OW29368   6.804   5.747   3.650
 9490SOL    HW129369   6.709   5.775   3.658
 9490SOL    HW229370   6.811   5.648   3.663
 9491SOL     OW29371   5.527   5.784   3.906
 9491SOL    HW129372   5.499   5.876   3.933
 9491SOL    HW229373   5.510   5.771   3.808
 9492SOL     OW29374   3.616   3.124   5.046
 9492SOL    HW129375   3.595   3.027   5.046
 9492SOL    HW229376   3.625   3.157   4.952
 9493SOL     OW29377   2.960   5.974   5.013
 9493SOL    HW129378   3.017   6.036   4.959
 9493SOL    HW229379   2.953   5.885   4.968
 9494SOL     OW29380   5.801   3.091   2.537
 9494SOL    HW129381   5.756   3.180   2.541
 9494SOL    HW229382   5.844   3.079   2.447
 9495SOL     OW29383   6.943   1.429   2.933
 9495SOL    HW129384   7.020   1.453   2.875
 9495SOL    HW229385   6.918   1.507   2.990
 9496SOL     OW29386   5.331   2.801   1.822
 9496SOL    HW129387   5.295   2.863   1.892
 9496SOL    HW229388   5.382   2.727   1.865
 9497SOL     OW29389   4.594   6.011   5.017
 9497SOL    HW129390   4.572   6.034   4.922
 9497SOL    HW229391   4.692   5.992   5.024
 9498SOL     OW29392   6.502   4.789   4.668
 9498SOL    HW129393   6.542   4.849   4.738
 9498SOL    HW229394   6.403   4.805   4.663
 9499SOL     OW29395   0.968   5.808   5.170
 9499SOL    HW129396   0.890   5.798   5.109
 9499SOL    HW229397   0.942   5.866   5.248
 9500SOL     OW29398   3.885   6.729   0.420
 9500SOL    HW129399   3.977   6.754   0.391
 9500SOL    HW229400   3.891   6.667   0.498
 9501SOL     OW29401   1.912   1.283   4.295
 9501SOL    HW129402   1.972   1.226   4.350
 9501SOL    HW229403   1.932   1.380   4.313
 9502SOL     OW29404   6.311   3.721   5.204
 9502SOL    HW129405   6.257   3.740   5.121
 9502SOL    HW229406   6.323   3.806   5.255
 9503SOL     OW29407   6.519   2.641   0.200
 9503SOL    HW129408   6.518   2.740   0.209
 9503SOL    HW229409   6.592   2.613   0.138
 9504SOL     OW29410   6.820   3.865   2.070
 9504SOL    HW129411   6.892   3.842   2.136
 9504SOL    HW229412   6.793   3.961   2.081
 9505SOL     OW29413   5.202   4.572   5.483
 9505SOL    HW129414   5.174   4.568   5.387
 9505SOL    HW229415   5.136   4.628   5.534
 9506SOL     OW29416   1.583   2.670   1.044
 9506SOL    HW129417   1.668   2.650   0.994
 9506SOL    HW229418   1.595   2.648   1.141
 9507SOL     OW29419   6.809   0.877   1.688
 9507SOL    HW129420   6.794   0.938   1.766
 9507SOL    HW229421   6.896   0.900   1.645
 9508SOL     OW29422   5.854   1.723   2.856
 9508SOL    HW129423   5.907   1.692   2.777
 9508SOL    HW229424   5.759   1.738   2.829
 9509SOL     OW29425   0.012   0.662   3.239
 9509SOL    HW129426   0.077   0.734   3.265
 9509SOL    HW229427   6.962   0.701   3.186
 9510SOL     OW29428   1.270   4.001   3.201
 9510SOL    HW129429   1.304   3.928   3.260
 9510SOL    HW229430   1.178   4.027   3.229
 9511SOL     OW29431   2.267   0.577   1.216
 9511SOL    HW129432   2.292   0.637   1.292
 9511SOL    HW229433   2.327   0.593   1.139
 9512SOL     OW29434   6.641   2.085   0.475
 9512SOL    HW129435   6.565   2.149   0.468
 9512SOL    HW229436   6.613   1.996   0.440
 9513SOL     OW29437   2.691   4.588   6.685
 9513SOL    HW129438   2.683   4.489   6.690
 9513SOL    HW229439   2.747   4.613   6.606
 9514SOL     OW29440   2.797   4.866   6.781
 9514SOL    HW129441   2.771   4.908   6.694
 9514SOL    HW229442   2.736   4.789   6.801
 9515SOL     OW29443   1.903   6.300   2.686
 9515SOL    HW129444   1.990   6.309   2.638
 9515SOL    HW229445   1.869   6.206   2.676
 9516SOL     OW29446   5.632   4.615   0.237
 9516SOL    HW129447   5.537   4.613   0.270
 9516SOL    HW229448   5.692   4.577   0.307
 9517SOL     OW29449   2.232   4.275   1.417
 9517SOL    HW129450   2.142   4.274   1.461
 9517SOL    HW229451   2.291   4.341   1.463
 9518SOL     OW29452   2.059   1.339   0.901
 9518SOL    HW129453   2.056   1.422   0.846
 9518SOL    HW229454   2.016   1.356   0.990
 9519SOL     OW29455   2.907   3.083   5.210
 9519SOL    HW129456   2.946   3.166   5.248
 9519SOL    HW229457   2.962   3.004   5.240
 9520SOL     OW29458   2.608   0.866   3.047
 9520SOL    HW129459   2.592   0.930   3.123
 9520SOL    HW229460   2.705   0.865   3.024
 9521SOL     OW29461   5.766   5.525   2.709
 9521SOL    HW129462   5.794   5.558   2.799
 9521SOL    HW229463   5.842   5.535   2.645
 9522SOL     OW29464   3.055   5.357   1.348
 9522SOL    HW129465   3.053   5.417   1.428
 9522SOL    HW229466   3.080   5.411   1.267
 9523SOL     OW29467   2.920   5.522   5.099
 9523SOL    HW129468   2.950   5.432   5.131
 9523SOL    HW229469   2.942   5.590   5.169
 9524SOL     OW29470   3.835   2.758   1.312
 9524SOL    HW129471   3.844   2.857   1.311
 9524SOL    HW229472   3.862   2.721   1.223
 9525SOL     OW29473   2.563   2.554   6.358
 9525SOL    HW129474   2.578   2.647   6.390
 9525SOL    HW229475   2.650   2.507   6.345
 9526SOL     OW29476   4.821   6.163   1.820
 9526SOL    HW129477   4.847   6.093   1.886
 9526SOL    HW229478   4.853   6.136   1.729
 9527SOL     OW29479   0.619   0.502   1.978
 9527SOL    HW129480   0.542   0.505   1.915
 9527SOL    HW229481   0.627   0.411   2.018
 9528SOL     OW29482   6.371   0.759   0.362
 9528SOL    HW129483   6.271   0.752   0.357
 9528SOL    HW229484   6.396   0.837   0.419
 9529SOL     OW29485   0.130   3.070   5.262
 9529SOL    HW129486   0.171   2.992   5.309
 9529SOL    HW229487   0.200   3.141   5.247
 9530SOL     OW29488   1.511   3.144   3.554
 9530SOL    HW129489   1.544   3.189   3.638
 9530SOL    HW229490   1.576   3.073   3.528
 9531SOL     OW29491   3.848   5.160   3.240
 9531SOL    HW129492   3.928   5.215   3.214
 9531SOL    HW229493   3.872   5.063   3.232
 9532SOL     OW29494   0.182   6.105   2.121
 9532SOL    HW129495   0.124   6.173   2.077
 9532SOL    HW229496   0.262   6.150   2.161
 9533SOL     OW29497   0.133   0.660   4.840
 9533SOL    HW129498   0.075   0.734   4.874
 9533SOL    HW229499   0.219   0.697   4.804
 9534SOL     OW29500   6.145   2.625   5.566
 9534SOL    HW129501   6.143   2.591   5.472
 9534SOL    HW229502   6.095   2.711   5.571
 9535SOL     OW29503   2.407   1.300   5.833
 9535SOL    HW129504   2.331   1.366   5.826
 9535SOL    HW229505   2.489   1.347   5.866
 9536SOL     OW29506   2.792   5.107   5.343
 9536SOL    HW129507   2.716   5.051   5.310
 9536SOL    HW229508   2.875   5.051   5.344
 9537SOL     OW29509   2.569   0.474   2.231
 9537SOL    HW129510   2.635   0.528   2.178
 9537SOL    HW229511   2.563   0.511   2.323
 9538SOL     OW29512   6.583   1.708   4.501
 9538SOL    HW129513   6.520   1.772   4.456
 9538SOL    HW229514   6.571   1.616   4.463
 9539SOL     OW29515   2.200   4.383   6.315
 9539SOL    HW129516   2.149   4.314   6.263
 9539SOL    HW229517   2.168   4.474   6.289
 9540SOL     OW29518   4.622   4.240   5.180
 9540SOL    HW129519   4.706   4.215   5.132
 9540SOL    HW229520   4.580   4.157   5.218
 9541SOL     OW29521   2.272   2.048   5.908
 9541SOL    HW129522   2.202   2.041   5.837
 9541SOL    HW229523   2.302   1.956   5.934
 9542SOL     OW29524   5.082   3.487   5.072
 9542SOL    HW129525   4.992   3.486   5.029
 9542SOL    HW229526   5.073   3.506   5.170
 9543SOL     OW29527   4.307   0.550   4.283
 9543SOL    HW129528   4.272   0.458   4.268
 9543SOL    HW229529   4.383   0.547   4.348
 9544SOL     OW29530   6.290   0.777   2.231
 9544SOL    HW129531   6.215   0.735   2.179
 9544SOL    HW229532   6.371   0.783   2.173
 9545SOL     OW29533   6.917   5.009   3.142
 9545SOL    HW129534   6.949   4.945   3.211
 9545SOL    HW229535   6.948   4.980   3.052
 9546SOL     OW29536   2.262   3.711   7.012
 9546SOL    HW129537   2.254   3.808   6.986
 9546SOL    HW229538   2.182   3.661   6.978
 9547SOL     OW29539   2.515   6.296   4.177
 9547SOL    HW129540   2.442   6.364   4.183
 9547SOL    HW229541   2.538   6.280   4.081
 9548SOL     OW29542   6.775   5.515   4.878
 9548SOL    HW129543   6.867   5.553   4.885
 9548SOL    HW229544   6.727   5.529   4.965
 9549SOL     OW29545   2.903   4.836   1.116
 9549SOL    HW129546   2.964   4.854   1.039
 9549SOL    HW229547   2.819   4.793   1.084
 9550SOL     OW29548   0.124   1.149   6.370
 9550SOL    HW129549   0.056   1.171   6.440
 9550SOL    HW229550   0.082   1.091   6.300
 9551SOL     OW29551   0.088   6.980   4.549
 9551SOL    HW129552   0.156   0.023   4.578
 9551SOL    HW229553   0.099   6.961   4.452
 9552SOL     OW29554   1.246   6.163   2.449
 9552SOL    HW129555   1.344   6.145   2.457
 9552SOL    HW229556   1.208   6.103   2.378
 9553SOL     OW29557   5.609   4.247   6.597
 9553SOL    HW129558   5.612   4.151   6.625
 9553SOL    HW229559   5.553   4.299   6.661
 9554SOL     OW29560   2.774   1.288   1.365
 9554SOL    HW129561   2.873   1.279   1.372
 9554SOL    HW229562   2.751   1.377   1.325
 9555SOL     OW29563   6.792   2.403   0.979
 9555SOL    HW129564   6.745   2.454   0.907
 9555SOL    HW229565   6.807   2.462   1.058
 9556SOL     OW29566   2.034   1.951   1.294
 9556SOL    HW129567   2.091   1.930   1.214
 9556SOL    HW229568   2.027   2.050   1.305
 9557SOL     OW29569   6.212   0.685   2.730
 9557SOL    HW129570   6.176   0.746   2.801
 9557SOL    HW229571   6.138   0.625   2.698
 9558SOL     OW29572   6.777   5.592   4.028
 9558SOL    HW129573   6.767   5.575   3.930
 9558SOL    HW229574   6.855   5.653   4.043
 9559SOL     OW29575   0.017   4.344   1.962
 9559SOL    HW129576   0.117   4.349   1.968
 9559SOL    HW229577   7.003   4.341   2.054
 9560SOL     OW29578   1.695   1.476   2.939
 9560SOL    HW129579   1.605   1.441   2.966
 9560SOL    HW229580   1.706   1.570   2.970
 9561SOL     OW29581   2.871   0.113   0.820
 9561SOL    HW129582   2.804   0.045   0.789
 9561SOL    HW229583   2.957   0.068   0.841
 9562SOL     OW29584   2.896   6.428   4.747
 9562SOL    HW129585   2.813   6.426   4.691
 9562SOL    HW229586   2.948   6.344   4.732
 9563SOL     OW29587   6.359   5.972   6.711
 9563SOL    HW129588   6.387   6.067   6.728
 9563SOL    HW229589   6.304   5.939   6.788
 9564SOL     OW29590   2.352   0.168   6.833
 9564SOL    HW129591   2.342   0.070   6.851
 9564SOL    HW229592   2.318   0.221   6.911
 9565SOL     OW29593   4.356   5.820   4.851
 9565SOL    HW129594   4.356   5.900   4.791
 9565SOL    HW229595   4.290   5.834   4.925
 9566SOL     OW29596   3.306   4.658   0.292
 9566SOL    HW129597   3.269   4.698   0.376
 9566SOL    HW229598   3.234   4.604   0.247
 9567SOL     OW29599   6.173   5.134   6.422
 9567SOL    HW129600   6.137   5.093   6.339
 9567SOL    HW229601   6.118   5.215   6.446
 9568SOL     OW29602   4.407   3.084   6.442
 9568SOL    HW129603   4.352   3.073   6.524
 9568SOL    HW229604   4.369   3.027   6.369
 9569SOL     OW29605   6.184   1.092   0.621
 9569SOL    HW129606   6.263   1.105   0.680
 9569SOL    HW229607   6.211   1.042   0.538
 9570SOL     OW29608   0.720   1.863   1.892
 9570SOL    HW129609   0.757   1.922   1.964
 9570SOL    HW229610   0.639   1.905   1.852
 9571SOL     OW29611   2.844   3.439   0.382
 9571SOL    HW129612   2.903   3.514   0.411
 9571SOL    HW229613   2.866   3.356   0.433
 9572SOL     OW29614   1.009   5.242   0.957
 9572SOL    HW129615   1.089   5.264   1.013
 9572SOL    HW229616   0.929   5.228   1.015
 9573SOL     OW29617   0.552   0.965   6.776
 9573SOL    HW129618   0.480   0.993   6.712
 9573SOL    HW229619   0.597   0.883   6.741
 9574SOL     OW29620   3.366   3.300   5.115
 9574SOL    HW129621   3.401   3.377   5.169
 9574SOL    HW229622   3.297   3.251   5.168
 9575SOL     OW29623   5.525   0.941   1.097
 9575SOL    HW129624   5.554   0.994   1.177
 9575SOL    HW229625   5.462   0.996   1.043
 9576SOL     OW29626   3.514   1.064   3.229
 9576SOL    HW129627   3.455   0.987   3.254
 9576SOL    HW229628   3.513   1.076   3.130
 9577SOL     OW29629   1.521   0.599   2.119
 9577SOL    HW129630   1.596   0.576   2.181
 9577SOL    HW229631   1.510   0.698   2.116
 9578SOL     OW29632   5.790   3.331   2.940
 9578SOL    HW129633   5.712   3.391   2.923
 9578SOL    HW229634   5.866   3.385   2.976
 9579SOL     OW29635   1.168   6.560   2.625
 9579SOL    HW129636   1.215   6.646   2.605
 9579SOL    HW229637   1.162   6.548   2.724
 9580SOL     OW29638   5.446   3.834   6.978
 9580SOL    HW129639   5.524   3.894   6.991
 9580SOL    HW229640   5.450   3.794   6.886
 9581SOL     OW29641   2.575   4.493   6.248
 9581SOL    HW129642   2.536   4.458   6.333
 9581SOL    HW229643   2.666   4.454   6.235
 9582SOL     OW29644   4.426   4.493   3.957
 9582SOL    HW129645   4.427   4.422   3.886
 9582SOL    HW229646   4.486   4.568   3.929
 9583SOL     OW29647   2.176   3.180   1.833
 9583SOL    HW129648   2.168   3.262   1.890
 9583SOL    HW229649   2.124   3.105   1.875
 9584SOL     OW29650   5.951   5.952   6.772
 9584SOL    HW129651   5.900   5.890   6.831
 9584SOL    HW229652   5.903   5.964   6.686
 9585SOL     OW29653   6.117   0.466   2.375
 9585SOL    HW129654   6.122   0.435   2.470
 9585SOL    HW229655   6.169   0.550   2.364
 9586SOL     OW29656   5.436   3.788   3.370
 9586SOL    HW129657   5.403   3.703   3.329
 9586SOL    HW229658   5.517   3.769   3.426
 9587SOL     OW29659   5.810   0.391   1.803
 9587SOL    HW129660   5.816   0.294   1.826
 9587SOL    HW229661   5.774   0.402   1.710
 9588SOL     OW29662   0.528   1.089   1.432
 9588SOL    HW129663   0.444   1.143   1.442
 9588SOL    HW229664   0.606   1.151   1.422
 9589SOL     OW29665   2.268   6.236   6.576
 9589SOL    HW129666   2.252   6.208   6.481
 9589SOL    HW229667   2.226   6.171   6.638
 9590SOL     OW29668   0.349   3.635   2.213
 9590SOL    HW129669   0.344   3.730   2.185
 9590SOL    HW229670   0.374   3.578   2.134
 9591SOL     OW29671   2.643   6.206   0.490
 9591SOL    HW129672   2.735   6.186   0.458
 9591SOL    HW229673   2.578   6.140   0.453
 9592SOL     OW29674   4.066   5.438   2.817
 9592SOL    HW129675   4.028   5.455   2.908
 9592SOL    HW229676   3.996   5.459   2.748
 9593SOL     OW29677   5.238   2.312   4.472
 9593SOL    HW129678   5.143   2.333   4.449
 9593SOL    HW229679   5.257   2.216   4.453
 9594SOL     OW29680   7.008   6.257   3.215
 9594SOL    HW129681   0.028   6.246   3.304
 9594SOL    HW229682   6.969   6.169   3.186
 9595SOL     OW29683   2.098   5.958   5.227
 9595SOL    HW129684   2.161   5.940   5.303
 9595SOL    HW229685   2.070   6.054   5.229
 9596SOL     OW29686   0.222   4.995   5.787
 9596SOL    HW129687   0.165   5.015   5.866
 9596SOL    HW229688   0.306   4.949   5.817
 9597SOL     OW29689   0.388   4.079   1.946
 9597SOL    HW129690   0.368   4.168   1.987
 9597SOL    HW229691   0.447   4.092   1.866
 9598SOL     OW29692   0.491   3.856   5.724
 9598SOL    HW129693   0.415   3.877   5.785
 9598SOL    HW229694   0.543   3.939   5.705
 9599SOL     OW29695   3.785   0.207   5.320
 9599SOL    HW129696   3.864   0.150   5.340
 9599SOL    HW229697   3.780   0.224   5.222
 9600SOL     OW29698   1.683   0.308   5.611
 9600SOL    HW129699   1.653   0.401   5.635
 9600SOL    HW229700   1.643   0.283   5.522
 9601SOL     OW29701   6.665   4.084   6.237
 9601SOL    HW129702   6.666   4.101   6.138
 9601SOL    HW229703   6.602   4.008   6.256
 9602SOL     OW29704   6.477   5.244   5.950
 9602SOL    HW129705   6.469   5.316   5.881
 9602SOL    HW229706   6.513   5.283   6.035
 9603SOL     OW29707   2.402   0.143   4.855
 9603SOL    HW129708   2.368   0.080   4.785
 9603SOL    HW229709   2.463   0.093   4.917
 9604SOL     OW29710   4.834   1.186   0.886
 9604SOL    HW129711   4.776   1.105   0.892
 9604SOL    HW229712   4.779   1.268   0.903
 9605SOL     OW29713   1.271   4.771   5.803
 9605SOL    HW129714   1.316   4.800   5.719
 9605SOL    HW229715   1.182   4.730   5.782
 9606SOL     OW29716   1.247   6.803   3.458
 9606SOL    HW129717   1.273   6.889   3.415
 9606SOL    HW229718   1.270   6.727   3.397
 9607SOL     OW29719   0.902   1.020   1.800
 9607SOL    HW129720   0.990   1.068   1.793
 9607SOL    HW229721   0.860   1.016   1.709
 9608SOL     OW29722   7.000   6.802   1.984
 9608SOL    HW129723   6.957   6.841   2.065
 9608SOL    HW229724   0.072   6.831   1.980
 9609SOL     OW29725   1.355   4.125   4.767
 9609SOL    HW129726   1.346   4.064   4.689
 9609SOL    HW229727   1.389   4.214   4.736
 9610SOL     OW29728   1.757   2.546   5.965
 9610SOL    HW129729   1.702   2.471   6.001
 9610SOL    HW229730   1.721   2.574   5.876
 9611SOL     OW29731   6.777   0.292   1.469
 9611SOL    HW129732   6.678   0.300   1.483
 9611SOL    HW229733   6.799   0.198   1.442
 9612SOL     OW29734   6.645   2.779   0.832
 9612SOL    HW129735   6.641   2.864   0.885
 9612SOL    HW229736   6.726   2.780   0.774
 9613SOL     OW29737   5.709   0.032   4.243
 9613SOL    HW129738   5.692   0.077   4.156
 9613SOL    HW229739   5.796   0.063   4.281
 9614SOL     OW29740   4.119   3.644   2.127
 9614SOL    HW129741   4.157   3.733   2.154
 9614SOL    HW229742   4.161   3.615   2.041
 9615SOL     OW29743   2.712   5.167   3.252
 9615SOL    HW129744   2.616   5.140   3.261
 9615SOL    HW229745   2.735   5.231   3.326
 9616SOL     OW29746   4.091   3.111   1.344
 9616SOL    HW129747   4.159   3.046   1.310
 9616SOL    HW229748   4.001   3.089   1.306
 9617SOL     OW29749   1.435   3.628   3.706
 9617SOL    HW129750   1.358   3.582   3.663
 9617SOL    HW229751   1.436   3.607   3.804
 9618SOL     OW29752   3.721   6.751   6.162
 9618SOL    HW129753   3.673   6.827   6.204
 9618SOL    HW229754   3.815   6.778   6.138
 9619SOL     OW29755   1.528   6.435   0.594
 9619SOL    HW129756   1.587   6.452   0.673
 9619SOL    HW229757   1.468   6.358   0.614
 9620SOL     OW29758   4.041   0.674   6.416
 9620SOL    HW129759   3.976   0.598   6.420
 9620SOL    HW229760   3.992   0.761   6.410
 9621SOL     OW29761   1.068   0.325   2.077
 9621SOL    HW129762   1.159   0.346   2.115
 9621SOL    HW229763   1.010   0.406   2.084
 9622SOL     OW29764   6.749   1.241   0.032
 9622SOL    HW129765   6.736   1.327   0.082
 9622SOL    HW229766   6.660   1.207   0.002
 9623SOL     OW29767   4.864   5.570   6.533
 9623SOL    HW129768   4.906   5.647   6.581
 9623SOL    HW229769   4.884   5.578   6.435
 9624SOL     OW29770   5.337   5.229   5.241
 9624SOL    HW129771   5.378   5.155   5.188
 9624SOL    HW229772   5.266   5.273   5.185
 9625SOL     OW29773   5.020   4.475   6.771
 9625SOL    HW129774   5.085   4.407   6.737
 9625SOL    HW229775   4.986   4.447   6.861
 9626SOL     OW29776   1.701   4.466   4.593
 9626SOL    HW129777   1.695   4.372   4.624
 9626SOL    HW229778   1.793   4.486   4.561
 9627SOL     OW29779   1.711   4.221   5.330
 9627SOL    HW129780   1.700   4.123   5.315
 9627SOL    HW229781   1.621   4.265   5.331
 9628SOL     OW29782   5.843   4.193   6.819
 9628SOL    HW129783   5.871   4.278   6.775
 9628SOL    HW229784   5.745   4.196   6.838
 9629SOL     OW29785   6.835   6.425   3.320
 9629SOL    HW129786   6.853   6.514   3.278
 9629SOL    HW229787   6.889   6.355   3.274
 9630SOL     OW29788   6.116   6.201   5.671
 9630SOL    HW129789   6.104   6.191   5.572
 9630SOL    HW229790   6.107   6.297   5.696
 9631SOL     OW29791   4.936   1.219   1.609
 9631SOL    HW129792   4.917   1.289   1.678
 9631SOL    HW229793   4.854   1.165   1.593
 9632SOL     OW29794   1.993   5.450   1.903
 9632SOL    HW129795   1.949   5.531   1.943
 9632SOL    HW229796   1.982   5.372   1.965
 9633SOL     OW29797   3.901   2.961   2.283
 9633SOL    HW129798   3.931   2.993   2.193
 9633SOL    HW229799   3.845   2.879   2.272
 9634SOL     OW29800   5.785   4.333   2.883
 9634SOL    HW129801   5.717   4.387   2.933
 9634SOL    HW229802   5.790   4.241   2.922
 9635SOL     OW29803   0.179   4.099   4.502
 9635SOL    HW129804   0.259   4.140   4.545
 9635SOL    HW229805   0.176   4.001   4.525
 9636SOL     OW29806   4.340   1.311   5.467
 9636SOL    HW129807   4.436   1.331   5.449
 9636SOL    HW229808   4.286   1.395   5.455
 9637SOL     OW29809   2.417   3.614   1.424
 9637SOL    HW129810   2.500   3.641   1.375
 9637SOL    HW229811   2.441   3.549   1.496
 9638SOL     OW29812   6.949   4.642   6.405
 9638SOL    HW129813   6.972   4.626   6.309
 9638SOL    HW229814   6.851   4.659   6.413
 9639SOL     OW29815   4.406   2.493   1.775
 9639SOL    HW129816   4.314   2.462   1.752
 9639SOL    HW229817   4.422   2.583   1.736
 9640SOL     OW29818   4.420   1.061   2.139
 9640SOL    HW129819   4.378   1.145   2.104
 9640SOL    HW229820   4.363   0.982   2.116
 9641SOL     OW29821   5.689   5.642   3.227
 9641SOL    HW129822   5.659   5.623   3.320
 9641SOL    HW229823   5.648   5.575   3.165
 9642SOL     OW29824   1.186   0.229   4.329
 9642SOL    HW129825   1.180   0.323   4.362
 9642SOL    HW229826   1.248   0.226   4.251
 9643SOL     OW29827   4.637   4.306   3.762
 9643SOL    HW129828   4.660   4.253   3.681
 9643SOL    HW229829   4.695   4.278   3.838
 9644SOL     OW29830   2.096   6.105   4.935
 9644SOL    HW129831   2.023   6.141   4.992
 9644SOL    HW229832   2.057   6.043   4.866
 9645SOL     OW29833   1.222   4.026   4.991
 9645SOL    HW129834   1.272   4.048   4.907
 9645SOL    HW229835   1.128   4.000   4.967
 9646SOL     OW29836   2.605   6.794   3.482
 9646SOL    HW129837   2.583   6.891   3.477
 9646SOL    HW229838   2.684   6.780   3.542
 9647SOL     OW29839   6.564   6.290   2.997
 9647SOL    HW129840   6.657   6.300   2.961
 9647SOL    HW229841   6.534   6.195   2.986
 9648SOL     OW29842   5.531   3.127   1.345
 9648SOL    HW129843   5.593   3.049   1.340
 9648SOL    HW229844   5.451   3.102   1.400
 9649SOL     OW29845   2.104   3.756   6.489
 9649SOL    HW129846   2.032   3.776   6.555
 9649SOL    HW229847   2.069   3.692   6.420
 9650SOL     OW29848   6.313   5.064   3.388
 9650SOL    HW129849   6.348   5.041   3.297
 9650SOL    HW229850   6.309   4.981   3.444
 9651SOL     OW29851   3.633   1.094   0.639
 9651SOL    HW129852   3.546   1.077   0.591
 9651SOL    HW229853   3.615   1.142   0.724
 9652SOL     OW29854   0.627   4.358   1.402
 9652SOL    HW129855   0.580   4.310   1.328
 9652SOL    HW229856   0.572   4.437   1.431
 9653SOL     OW29857   4.282   4.634   5.611
 9653SOL    HW129858   4.358   4.661   5.670
 9653SOL    HW229859   4.221   4.573   5.662
 9654SOL     OW29860   3.296   2.936   2.934
 9654SOL    HW129861   3.329   3.010   2.876
 9654SOL    HW229862   3.199   2.920   2.918
 9655SOL     OW29863   0.189   1.405   0.846
 9655SOL    HW129864   0.153   1.337   0.910
 9655SOL    HW229865   0.258   1.461   0.891
 9656SOL     OW29866   4.158   2.235   0.054
 9656SOL    HW129867   4.250   2.269   0.035
 9656SOL    HW229868   4.163   2.163   0.123
 9657SOL     OW29869   4.997   4.238   3.534
 9657SOL    HW129870   4.900   4.217   3.549
 9657SOL    HW229871   5.052   4.190   3.602
 9658SOL     OW29872   5.360   1.990   2.511
 9658SOL    HW129873   5.340   2.045   2.430
 9658SOL    HW229874   5.278   1.984   2.568
 9659SOL     OW29875   2.545   1.965   6.817
 9659SOL    HW129876   2.574   2.050   6.773
 9659SOL    HW229877   2.446   1.953   6.805
 9660SOL     OW29878   0.747   0.087   1.353
 9660SOL    HW129879   0.764   0.149   1.430
 9660SOL    HW229880   0.693   0.009   1.385
 9661SOL     OW29881   4.337   5.373   1.206
 9661SOL    HW129882   4.392   5.306   1.255
 9661SOL    HW229883   4.249   5.384   1.252
 9662SOL     OW29884   5.351   4.211   0.140
 9662SOL    HW129885   5.276   4.253   0.090
 9662SOL    HW229886   5.318   4.129   0.187
 9663SOL     OW29887   0.817   4.635   2.596
 9663SOL    HW129888   0.725   4.632   2.635
 9663SOL    HW229889   0.883   4.603   2.664
 9664SOL     OW29890   5.665   4.227   4.148
 9664SOL    HW129891   5.702   4.318   4.132
 9664SOL    HW229892   5.658   4.179   4.061
 9665SOL     OW29893   6.680   6.181   5.724
 9665SOL    HW129894   6.593   6.149   5.762
 9665SOL    HW229895   6.746   6.192   5.799
 9666SOL     OW29896   6.715   4.613   1.544
 9666SOL    HW129897   6.803   4.574   1.570
 9666SOL    HW229898   6.702   4.602   1.445
 9667SOL     OW29899   4.734   4.095   0.992
 9667SOL    HW129900   4.833   4.107   0.981
 9667SOL    HW229901   4.716   4.040   1.073
 9668SOL     OW29902   1.519   0.976   6.282
 9668SOL    HW129903   1.475   0.959   6.193
 9668SOL    HW229904   1.588   0.906   6.299
 9669SOL     OW29905   2.744   0.173   0.475
 9669SOL    HW129906   2.735   0.076   0.453
 9669SOL    HW229907   2.835   0.192   0.511
 9670SOL     OW29908   0.191   6.003   5.413
 9670SOL    HW129909   0.106   5.970   5.372
 9670SOL    HW229910   0.175   6.093   5.454
 9671SOL     OW29911   0.696   4.940   0.267
 9671SOL    HW129912   0.711   4.919   0.363
 9671SOL    HW229913   0.604   4.912   0.240
 9672SOL     OW29914   2.053   4.976   2.855
 9672SOL    HW129915   1.978   4.917   2.825
 9672SOL    HW229916   2.043   4.995   2.953
 9673SOL     OW29917   3.568   3.783   0.914
 9673SOL    HW129918   3.643   3.842   0.882
 9673SOL    HW229919   3.523   3.742   0.835
 9674SOL     OW29920   3.809   6.378   2.618
 9674SOL    HW129921   3.889   6.438   2.625
 9674SOL    HW229922   3.769   6.365   2.709
 9675SOL     OW29923   5.161   3.831   0.041
 9675SOL    HW129924   5.246   3.848   7.016
 9675SOL    HW229925   5.087   3.883   7.024
 9676SOL     OW29926   1.537   3.502   6.008
 9676SOL    HW129927   1.572   3.594   6.030
 9676SOL    HW229928   1.534   3.491   5.909
 9677SOL     OW29929   6.591   5.258   6.726
 9677SOL    HW129930   6.549   5.194   6.790
 9677SOL    HW229931   6.691   5.251   6.733
 9678SOL     OW29932   3.325   3.698   4.494
 9678SOL    HW129933   3.231   3.670   4.511
 9678SOL    HW229934   3.325   3.776   4.431
 9679SOL     OW29935   2.828   1.503   4.425
 9679SOL    HW129936   2.837   1.414   4.471
 9679SOL    HW229937   2.842   1.576   4.492
 9680SOL     OW29938   4.873   6.514   5.362
 9680SOL    HW129939   4.798   6.527   5.426
 9680SOL    HW229940   4.847   6.549   5.272
 9681SOL     OW29941   3.060   1.876   1.334
 9681SOL    HW129942   3.128   1.933   1.381
 9681SOL    HW229943   3.098   1.843   1.248
 9682SOL     OW29944   4.739   4.566   3.409
 9682SOL    HW129945   4.710   4.475   3.378
 9682SOL    HW229946   4.670   4.633   3.385
 9683SOL     OW29947   2.849   6.066   0.389
 9683SOL    HW129948   2.788   5.987   0.390
 9683SOL    HW229949   2.898   6.069   0.302
 9684SOL     OW29950   0.432   3.988   5.304
 9684SOL    HW129951   0.444   3.919   5.375
 9684SOL    HW229952   0.467   4.075   5.336
 9685SOL     OW29953   4.776   3.716   0.421
 9685SOL    HW129954   4.696   3.775   0.422
 9685SOL    HW229955   4.778   3.662   0.337
 9686SOL     OW29956   0.413   2.912   0.503
 9686SOL    HW129957   0.474   2.835   0.524
 9686SOL    HW229958   0.468   2.992   0.481
 9687SOL     OW29959   6.336   0.493   2.106
 9687SOL    HW129960   6.279   0.412   2.087
 9687SOL    HW229961   6.419   0.464   2.153
 9688SOL     OW29962   0.785   3.823   0.765
 9688SOL    HW129963   0.746   3.911   0.793
 9688SOL    HW229964   0.878   3.838   0.730
 9689SOL     OW29965   0.994   4.416   6.257
 9689SOL    HW129966   0.946   4.417   6.169
 9689SOL    HW229967   0.938   4.370   6.325
 9690SOL     OW29968   4.806   5.404   5.608
 9690SOL    HW129969   4.795   5.349   5.691
 9690SOL    HW229970   4.769   5.354   5.530
 9691SOL     OW29971   3.159   3.820   2.332
 9691SOL    HW129972   3.125   3.820   2.239
 9691SOL    HW229973   3.100   3.764   2.390
 9692SOL     OW29974   4.842   5.295   0.915
 9692SOL    HW129975   4.786   5.378   0.913
 9692SOL    HW229976   4.811   5.236   0.990
 9693SOL     OW29977   5.638   4.447   3.411
 9693SOL    HW129978   5.608   4.530   3.458
 9693SOL    HW229979   5.733   4.458   3.381
 9694SOL     OW29980   4.101   0.976   1.499
 9694SOL    HW129981   4.055   1.046   1.445
 9694SOL    HW229982   4.094   0.998   1.596
 9695SOL     OW29983   0.434   2.963   3.294
 9695SOL    HW129984   0.374   3.042   3.280
 9695SOL    HW229985   0.385   2.893   3.346
 9696SOL     OW29986   5.833   1.718   2.192
 9696SOL    HW129987   5.901   1.645   2.193
 9696SOL    HW229988   5.855   1.785   2.122
 9697SOL     OW29989   0.409   6.476   0.781
 9697SOL    HW129990   0.400   6.421   0.864
 9697SOL    HW229991   0.503   6.509   0.773
 9698SOL     OW29992   5.647   2.966   6.431
 9698SOL    HW129993   5.707   3.045   6.446
 9698SOL    HW229994   5.694   2.900   6.372
 9699SOL     OW29995   0.802   5.495   0.143
 9699SOL    HW129996   0.703   5.489   0.160
 9699SOL    HW229997   0.830   5.591   0.146
 9700SOL     OW29998   6.627   5.462   4.417
 9700SOL    HW129999   6.687   5.430   4.344
 9700SOL    HW230000   6.596   5.383   4.471
 9701SOL     OW30001   4.250   3.961   6.008
 9701SOL    HW130002   4.334   3.912   5.985
 9701SOL    HW230003   4.188   3.899   6.058
 9702SOL     OW30004   3.446   2.548   0.092
 9702SOL    HW130005   3.430   2.502   0.004
 9702SOL    HW230006   3.425   2.645   0.083
 9703SOL     OW30007   5.200   3.784   4.337
 9703SOL    HW130008   5.223   3.692   4.304
 9703SOL    HW230009   5.160   3.837   4.262
 9704SOL     OW30010   3.252   5.716   2.313
 9704SOL    HW130011   3.182   5.696   2.382
 9704SOL    HW230012   3.311   5.636   2.301
 9705SOL     OW30013   6.060   4.132   5.807
 9705SOL    HW130014   6.024   4.045   5.841
 9705SOL    HW230015   6.081   4.192   5.883
 9706SOL     OW30016   2.295   2.299   1.526
 9706SOL    HW130017   2.377   2.241   1.524
 9706SOL    HW230018   2.322   2.395   1.525
 9707SOL     OW30019   5.655   4.859   2.441
 9707SOL    HW130020   5.623   4.790   2.375
 9707SOL    HW230021   5.711   4.814   2.510
 9708SOL     OW30022   1.231   1.561   2.881
 9708SOL    HW130023   1.224   1.646   2.829
 9708SOL    HW230024   1.225   1.581   2.979
 9709SOL     OW30025   5.292   4.502   2.104
 9709SOL    HW130026   5.309   4.434   2.176
 9709SOL    HW230027   5.361   4.491   2.032
 9710SOL     OW30028   6.414   0.347   0.712
 9710SOL    HW130029   6.431   0.435   0.666
 9710SOL    HW230030   6.473   0.340   0.793
 9711SOL     OW30031   3.686   5.753   6.372
 9711SOL    HW130032   3.667   5.782   6.278
 9711SOL    HW230033   3.646   5.663   6.388
 9712SOL     OW30034   6.220   3.083   0.343
 9712SOL    HW130035   6.257   3.176   0.336
 9712SOL    HW230036   6.120   3.088   0.352
 9713SOL     OW30037   2.794   5.823   3.611
 9713SOL    HW130038   2.838   5.843   3.699
 9713SOL    HW230039   2.756   5.730   3.614
 9714SOL     OW30040   4.230   6.275   5.638
 9714SOL    HW130041   4.252   6.236   5.548
 9714SOL    HW230042   4.191   6.204   5.696
 9715SOL     OW30043   5.930   5.145   6.850
 9715SOL    HW130044   5.989   5.085   6.796
 9715SOL    HW230045   5.950   5.134   6.947
 9716SOL     OW30046   3.613   4.425   6.656
 9716SOL    HW130047   3.692   4.451   6.711
 9716SOL    HW230048   3.562   4.507   6.631
 9717SOL     OW30049   4.787   6.547   6.862
 9717SOL    HW130050   4.847   6.607   6.916
 9717SOL    HW230051   4.711   6.516   6.919
 9718SOL     OW30052   4.414   3.154   1.087
 9718SOL    HW130053   4.376   3.244   1.108
 9718SOL    HW230054   4.341   3.085   1.090
 9719SOL     OW30055   5.366   6.780   5.788
 9719SOL    HW130056   5.370   6.729   5.874
 9719SOL    HW230057   5.365   6.878   5.807
 9720SOL     OW30058   0.922   3.128   2.866
 9720SOL    HW130059   1.003   3.113   2.809
 9720SOL    HW230060   0.842   3.090   2.820
 9721SOL     OW30061   0.385   1.053   6.585
 9721SOL    HW130062   0.336   1.140   6.590
 9721SOL    HW230063   0.404   1.031   6.489
 9722SOL     OW30064   3.409   1.162   5.198
 9722SOL    HW130065   3.401   1.201   5.107
 9722SOL    HW230066   3.359   1.075   5.202
 9723SOL     OW30067   5.179   6.019   4.119
 9723SOL    HW130068   5.198   5.941   4.180
 9723SOL    HW230069   5.106   6.075   4.159
 9724SOL     OW30070   2.139   4.310   6.965
 9724SOL    HW130071   2.050   4.304   7.012
 9724SOL    HW230072   2.149   4.401   6.925
 9725SOL     OW30073   4.148   6.206   6.218
 9725SOL    HW130074   4.149   6.118   6.265
 9725SOL    HW230075   4.068   6.258   6.247
 9726SOL     OW30076   4.490   2.035   4.638
 9726SOL    HW130077   4.556   2.108   4.618
 9726SOL    HW230078   4.399   2.065   4.611
 9727SOL     OW30079   0.985   2.490   0.144
 9727SOL    HW130080   1.014   2.394   0.145
 9727SOL    HW230081   0.966   2.518   0.050
 9728SOL     OW30082   0.436   2.003   5.417
 9728SOL    HW130083   0.529   2.036   5.403
 9728SOL    HW230084   0.411   2.014   5.514
 9729SOL     OW30085   0.950   4.325   3.838
 9729SOL    HW130086   1.038   4.287   3.812
 9729SOL    HW230087   0.880   4.294   3.774
 9730SOL     OW30088   0.983   4.076   3.206
 9730SOL    HW130089   0.947   4.120   3.288
 9730SOL    HW230090   0.908   4.059   3.142
 9731SOL     OW30091   4.445   5.287   1.609
 9731SOL    HW130092   4.520   5.298   1.673
 9731SOL    HW230093   4.367   5.245   1.656
 9732SOL     OW30094   0.547   3.128   2.225
 9732SOL    HW130095   0.610   3.181   2.169
 9732SOL    HW230096   0.529   3.040   2.181
 9733SOL     OW30097   5.880   5.890   1.139
 9733SOL    HW130098   5.939   5.845   1.207
 9733SOL    HW230099   5.844   5.975   1.178
 9734SOL     OW30100   6.516   0.195   0.179
 9734SOL    HW130101   6.512   0.209   0.278
 9734SOL    HW230102   6.466   0.112   0.155
 9735SOL     OW30103   1.533   3.206   3.289
 9735SOL    HW130104   1.496   3.185   3.380
 9735SOL    HW230105   1.459   3.231   3.227
 9736SOL     OW30106   5.473   1.629   6.356
 9736SOL    HW130107   5.539   1.615   6.282
 9736SOL    HW230108   5.472   1.726   6.381
 9737SOL     OW30109   5.493   1.993   2.765
 9737SOL    HW130110   5.464   2.078   2.807
 9737SOL    HW230111   5.456   1.987   2.672
 9738SOL     OW30112   1.760   0.115   1.048
 9738SOL    HW130113   1.782   0.106   0.951
 9738SOL    HW230114   1.694   0.045   1.074
 9739SOL     OW30115   5.245   6.185   0.263
 9739SOL    HW130116   5.271   6.280   0.244
 9739SOL    HW230117   5.148   6.181   0.288
 9740SOL     OW30118   6.533   1.017   2.910
 9740SOL    HW130119   6.459   1.053   2.967
 9740SOL    HW230120   6.610   1.082   2.912
 9741SOL     OW30121   2.597   0.446   3.805
 9741SOL    HW130122   2.614   0.532   3.757
 9741SOL    HW230123   2.679   0.418   3.854
 9742SOL     OW30124   4.131   0.967   0.055
 9742SOL    HW130125   4.079   0.923   0.128
 9742SOL    HW230126   4.094   1.058   0.037
 9743SOL     OW30127   0.199   4.205   2.961
 9743SOL    HW130128   0.144   4.130   2.999
 9743SOL    HW230129   0.272   4.167   2.904
 9744SOL     OW30130   2.355   0.086   2.508
 9744SOL    HW130131   2.409   0.059   2.428
 9744SOL    HW230132   2.325   0.180   2.498
 9745SOL     OW30133   5.011   2.852   6.162
 9745SOL    HW130134   5.085   2.785   6.157
 9745SOL    HW230135   4.998   2.894   6.072
 9746SOL     OW30136   5.333   6.360   5.685
 9746SOL    HW130137   5.281   6.356   5.770
 9746SOL    HW230138   5.313   6.280   5.630
 9747SOL     OW30139   2.955   2.207   1.809
 9747SOL    HW130140   3.051   2.228   1.789
 9747SOL    HW230141   2.918   2.276   1.872
 9748SOL     OW30142   0.034   6.726   2.800
 9748SOL    HW130143   0.039   6.736   2.701
 9748SOL    HW230144   0.126   6.719   2.838
 9749SOL     OW30145   0.600   0.932   2.973
 9749SOL    HW130146   0.535   0.876   2.921
 9749SOL    HW230147   0.582   0.921   3.071
 9750SOL     OW30148   6.191   5.668   3.936
 9750SOL    HW130149   6.133   5.701   4.010
 9750SOL    HW230150   6.228   5.746   3.885
 9751SOL     OW30151   2.021   0.180   0.608
 9751SOL    HW130152   1.965   0.101   0.583
 9751SOL    HW230153   1.976   0.230   0.683
 9752SOL     OW30154   4.276   1.800   5.344
 9752SOL    HW130155   4.251   1.828   5.251
 9752SOL    HW230156   4.369   1.830   5.365
 9753SOL     OW30157   0.900   5.699   6.284
 9753SOL    HW130158   0.996   5.675   6.297
 9753SOL    HW230159   0.876   5.688   6.187
 9754SOL     OW30160   2.859   0.524   0.706
 9754SOL    HW130161   2.876   0.621   0.726
 9754SOL    HW230162   2.775   0.516   0.654
 9755SOL     OW30163   3.589   4.052   4.910
 9755SOL    HW130164   3.572   3.954   4.905
 9755SOL    HW230165   3.660   4.077   4.845
 9756SOL     OW30166   6.183   2.376   6.432
 9756SOL    HW130167   6.135   2.288   6.431
 9756SOL    HW230168   6.190   2.409   6.526
 9757SOL     OW30169   5.691   4.209   4.845
 9757SOL    HW130170   5.698   4.126   4.789
 9757SOL    HW230171   5.597   4.219   4.878
 9758SOL     OW30172   1.765   0.912   0.199
 9758SOL    HW130173   1.860   0.884   0.183
 9758SOL    HW230174   1.761   0.973   0.278
 9759SOL     OW30175   0.827   1.209   0.408
 9759SOL    HW130176   0.878   1.253   0.482
 9759SOL    HW230177   0.844   1.111   0.408
 9760SOL     OW30178   4.787   3.326   5.804
 9760SOL    HW130179   4.796   3.388   5.726
 9760SOL    HW230180   4.806   3.377   5.888
 9761SOL     OW30181   1.044   2.372   2.350
 9761SOL    HW130182   0.950   2.374   2.317
 9761SOL    HW230183   1.104   2.417   2.284
 9762SOL     OW30184   3.478   1.517   4.607
 9762SOL    HW130185   3.478   1.611   4.571
 9762SOL    HW230186   3.397   1.469   4.572
 9763SOL     OW30187   5.769   0.936   3.356
 9763SOL    HW130188   5.690   0.970   3.409
 9763SOL    HW230189   5.749   0.945   3.259
 9764SOL     OW30190   6.354   2.506   2.093
 9764SOL    HW130191   6.375   2.463   2.006
 9764SOL    HW230192   6.262   2.546   2.089
 9765SOL     OW30193   6.604   6.580   2.733
 9765SOL    HW130194   6.672   6.539   2.795
 9765SOL    HW230195   6.620   6.678   2.726
 9766SOL     OW30196   2.173   6.521   3.067
 9766SOL    HW130197   2.203   6.431   3.037
 9766SOL    HW230198   2.241   6.589   3.039
 9767SOL     OW30199   2.712   2.463   5.966
 9767SOL    HW130200   2.676   2.546   5.924
 9767SOL    HW230201   2.639   2.415   6.014
 9768SOL     OW30202   4.475   1.700   1.517
 9768SOL    HW130203   4.534   1.732   1.591
 9768SOL    HW230204   4.531   1.660   1.445
 9769SOL     OW30205   3.623   1.318   4.478
 9769SOL    HW130206   3.718   1.334   4.452
 9769SOL    HW230207   3.582   1.403   4.509
 9770SOL     OW30208   3.692   1.518   4.978
 9770SOL    HW130209   3.706   1.450   5.050
 9770SOL    HW230210   3.658   1.603   5.018
 9771SOL     OW30211   2.573   5.455   0.919
 9771SOL    HW130212   2.647   5.485   0.857
 9771SOL    HW230213   2.611   5.437   1.009
 9772SOL     OW30214   2.038   6.489   1.788
 9772SOL    HW130215   2.013   6.544   1.709
 9772SOL    HW230216   1.976   6.410   1.796
 9773SOL     OW30217   4.929   5.531   3.632
 9773SOL    HW130218   4.963   5.437   3.636
 9773SOL    HW230219   4.881   5.545   3.546
 9774SOL     OW30220   0.437   5.685   2.891
 9774SOL    HW130221   0.531   5.665   2.918
 9774SOL    HW230222   0.379   5.607   2.915
 9775SOL     OW30223   3.255   0.013   3.537
 9775SOL    HW130224   3.262   0.103   3.496
 9775SOL    HW230225   3.214   0.020   3.628
 9776SOL     OW30226   1.011   4.180   5.762
 9776SOL    HW130227   0.979   4.197   5.669
 9776SOL    HW230228   1.063   4.094   5.765
 9777SOL     OW30229   5.524   5.516   0.590
 9777SOL    HW130230   5.537   5.442   0.656
 9777SOL    HW230231   5.491   5.598   0.638
 9778SOL     OW30232   6.706   1.418   5.133
 9778SOL    HW130233   6.621   1.434   5.183
 9778SOL    HW230234   6.689   1.354   5.058
 9779SOL     OW30235   0.698   2.106   3.768
 9779SOL    HW130236   0.602   2.081   3.762
 9779SOL    HW230237   0.707   2.206   3.765
 9780SOL     OW30238   2.174   1.920   0.782
 9780SOL    HW130239   2.164   2.008   0.828
 9780SOL    HW230240   2.262   1.916   0.736
 9781SOL     OW30241   1.826   3.592   4.395
 9781SOL    HW130242   1.823   3.528   4.318
 9781SOL    HW230243   1.914   3.639   4.396
 9782SOL     OW30244   0.511   1.950   6.974
 9782SOL    HW130245   0.517   1.909   0.041
 9782SOL    HW230246   0.604   1.965   6.939
 9783SOL     OW30247   4.288   2.240   3.311
 9783SOL    HW130248   4.387   2.250   3.302
 9783SOL    HW230249   4.244   2.258   3.223
 9784SOL     OW30250   3.588   0.698   5.939
 9784SOL    HW130251   3.573   0.759   6.017
 9784SOL    HW230252   3.659   0.632   5.960
 9785SOL     OW30253   6.812   1.969   5.522
 9785SOL    HW130254   6.870   1.888   5.527
 9785SOL    HW230255   6.744   1.966   5.595
 9786SOL     OW30256   2.562   3.102   0.467
 9786SOL    HW130257   2.597   3.194   0.487
 9786SOL    HW230258   2.631   3.050   0.418
 9787SOL     OW30259   2.957   3.321   2.861
 9787SOL    HW130260   3.055   3.331   2.875
 9787SOL    HW230261   2.934   3.347   2.767
 9788SOL     OW30262   0.761   7.016   1.710
 9788SOL    HW130263   0.686   6.997   1.773
 9788SOL    HW230264   0.845   6.972   1.744
 9789SOL     OW30265   1.717   6.256   0.384
 9789SOL    HW130266   1.771   6.332   0.348
 9789SOL    HW230267   1.731   6.248   0.482
 9790SOL     OW30268   6.725   4.392   6.116
 9790SOL    HW130269   6.685   4.308   6.080
 9790SOL    HW230270   6.790   4.429   6.048
 9791SOL     OW30271   0.033   0.764   6.715
 9791SOL    HW130272   0.132   0.759   6.706
 9791SOL    HW230273   7.015   0.701   6.650
 9792SOL     OW30274   3.499   5.102   0.946
 9792SOL    HW130275   3.493   5.143   0.855
 9792SOL    HW230276   3.415   5.120   0.996
 9793SOL     OW30277   4.347   0.181   2.438
 9793SOL    HW130278   4.335   0.082   2.437
 9793SOL    HW230279   4.362   0.213   2.344
 9794SOL     OW30280   6.363   4.527   5.686
 9794SOL    HW130281   6.374   4.591   5.610
 9794SOL    HW230282   6.325   4.575   5.765
 9795SOL     OW30283   0.943   3.236   4.627
 9795SOL    HW130284   0.981   3.326   4.642
 9795SOL    HW230285   0.997   3.167   4.676
 9796SOL     OW30286   3.980   3.757   2.867
 9796SOL    HW130287   4.001   3.824   2.796
 9796SOL    HW230288   3.881   3.754   2.883
 9797SOL     OW30289   1.882   5.510   6.936
 9797SOL    HW130290   1.927   5.487   6.851
 9797SOL    HW230291   1.891   5.608   6.953
 9798SOL     OW30292   2.656   1.020   1.914
 9798SOL    HW130293   2.612   0.958   1.848
 9798SOL    HW230294   2.624   1.114   1.897
 9799SOL     OW30295   2.795   4.253   5.885
 9799SOL    HW130296   2.861   4.213   5.821
 9799SOL    HW230297   2.747   4.179   5.933
 9800SOL     OW30298   5.113   4.426   4.633
 9800SOL    HW130299   5.144   4.358   4.567
 9800SOL    HW230300   5.189   4.454   4.691
 9801SOL     OW30301   4.659   4.527   6.964
 9801SOL    HW130302   4.603   4.574   6.896
 9801SOL    HW230303   4.617   4.536   0.030
 9802SOL     OW30304   5.527   4.940   0.696
 9802SOL    HW130305   5.458   4.970   0.762
 9802SOL    HW230306   5.501   4.852   0.657
 9803SOL     OW30307   1.643   2.942   6.451
 9803SOL    HW130308   1.675   2.885   6.375
 9803SOL    HW230309   1.665   3.038   6.431
 9804SOL     OW30310   0.505   6.501   3.163
 9804SOL    HW130311   0.517   6.600   3.169
 9804SOL    HW230312   0.414   6.477   3.196
 9805SOL     OW30313   0.575   6.607   2.871
 9805SOL    HW130314   0.584   6.585   2.969
 9805SOL    HW230315   0.502   6.674   2.859
 9806SOL     OW30316   1.432   1.355   6.851
 9806SOL    HW130317   1.419   1.301   6.767
 9806SOL    HW230318   1.378   1.315   6.925
 9807SOL     OW30319   3.204   3.767   1.120
 9807SOL    HW130320   3.203   3.718   1.033
 9807SOL    HW230321   3.135   3.840   1.117
 9808SOL     OW30322   3.694   6.022   5.150
 9808SOL    HW130323   3.655   5.935   5.179
 9808SOL    HW230324   3.792   6.012   5.137
 9809SOL     OW30325   0.635   3.642   0.035
 9809SOL    HW130326   0.602   3.596   0.117
 9809SOL    HW230327   0.716   3.596   0.001
 9810SOL     OW30328   3.310   2.112   4.426
 9810SOL    HW130329   3.371   2.140   4.500
 9810SOL    HW230330   3.282   2.017   4.439
 9811SOL     OW30331   6.032   4.745   3.445
 9811SOL    HW130332   6.017   4.824   3.504
 9811SOL    HW230333   6.089   4.771   3.367
 9812SOL     OW30334   3.250   1.560   5.532
 9812SOL    HW130335   3.292   1.647   5.505
 9812SOL    HW230336   3.288   1.486   5.477
 9813SOL     OW30337   5.046   1.935   0.887
 9813SOL    HW130338   5.123   1.973   0.938
 9813SOL    HW230339   4.993   2.009   0.846
 9814SOL     OW30340   6.200   0.840   6.884
 9814SOL    HW130341   6.124   0.803   6.937
 9814SOL    HW230342   6.166   0.912   6.823
 9815SOL     OW30343   4.898   3.153   4.526
 9815SOL    HW130344   4.816   3.141   4.582
 9815SOL    HW230345   4.924   3.065   4.484
 9816SOL     OW30346   0.356   1.252   5.953
 9816SOL    HW130347   0.259   1.260   5.973
 9816SOL    HW230348   0.377   1.302   5.869
 9817SOL     OW30349   1.354   0.006   3.333
 9817SOL    HW130350   1.344   0.048   3.243
 9817SOL    HW230351   1.446   0.023   3.368
 9818SOL     OW30352   6.631   1.448   4.093
 9818SOL    HW130353   6.612   1.383   4.166
 9818SOL    HW230354   6.602   1.540   4.121
 9819SOL     OW30355   5.175   3.109   3.574
 9819SOL    HW130356   5.097   3.103   3.637
 9819SOL    HW230357   5.141   3.123   3.481
 9820SOL     OW30358   3.428   3.412   6.596
 9820SOL    HW130359   3.496   3.471   6.551
 9820SOL    HW230360   3.463   3.382   6.685
 9821SOL     OW30361   5.626   1.127   6.459
 9821SOL    HW130362   5.534   1.087   6.453
 9821SOL    HW230363   5.629   1.192   6.535
 9822SOL     OW30364   1.675   6.743   3.518
 9822SOL    HW130365   1.652   6.726   3.422
 9822SOL    HW230366   1.734   6.823   3.524
 9823SOL     OW30367   3.327   6.984   0.610
 9823SOL    HW130368   3.355   0.022   0.683
 9823SOL    HW230369   3.233   7.003   0.583
 9824SOL     OW30370   2.179   4.720   4.780
 9824SOL    HW130371   2.213   4.800   4.829
 9824SOL    HW230372   2.216   4.637   4.822
 9825SOL     OW30373   3.841   5.274   6.025
 9825SOL    HW130374   3.879   5.306   6.111
 9825SOL    HW230375   3.868   5.179   6.009
 9826SOL     OW30376   5.010   5.256   6.191
 9826SOL    HW130377   4.950   5.294   6.261
 9826SOL    HW230378   4.993   5.303   6.104
 9827SOL     OW30379   2.172   3.539   3.821
 9827SOL    HW130380   2.211   3.602   3.754
 9827SOL    HW230381   2.129   3.591   3.895
 9828SOL     OW30382   2.231   3.360   6.275
 9828SOL    HW130383   2.286   3.362   6.358
 9828SOL    HW230384   2.135   3.375   6.298
 9829SOL     OW30385   2.974   5.857   6.736
 9829SOL    HW130386   2.894   5.915   6.717
 9829SOL    HW230387   2.969   5.824   6.830
 9830SOL     OW30388   5.797   2.930   2.139
 9830SOL    HW130389   5.892   2.904   2.154
 9830SOL    HW230390   5.793   3.022   2.101
 9831SOL     OW30391   2.080   5.530   0.838
 9831SOL    HW130392   2.086   5.467   0.915
 9831SOL    HW230393   2.172   5.559   0.811
 9832SOL     OW30394   5.023   5.798   2.516
 9832SOL    HW130395   5.121   5.783   2.507
 9832SOL    HW230396   5.006   5.892   2.545
 9833SOL     OW30397   3.854   2.986   5.200
 9833SOL    HW130398   3.785   2.941   5.143
 9833SOL    HW230399   3.921   2.918   5.231
 9834SOL     OW30400   3.224   4.319   5.433
 9834SOL    HW130401   3.150   4.332   5.367
 9834SOL    HW230402   3.312   4.314   5.386
 9835SOL     OW30403   3.118   2.731   5.644
 9835SOL    HW130404   3.082   2.821   5.616
 9835SOL    HW230405   3.053   2.660   5.618
 9836SOL     OW30406   5.926   4.665   3.894
 9836SOL    HW130407   5.885   4.649   3.804
 9836SOL    HW230408   6.017   4.623   3.897
 9837SOL     OW30409   2.818   0.607   2.748
 9837SOL    HW130410   2.768   0.678   2.698
 9837SOL    HW230411   2.874   0.555   2.684
 9838SOL     OW30412   0.920   6.709   6.393
 9838SOL    HW130413   0.987   6.635   6.399
 9838SOL    HW230414   0.894   6.721   6.297
 9839SOL     OW30415   6.032   1.730   3.656
 9839SOL    HW130416   6.028   1.670   3.577
 9839SOL    HW230417   5.981   1.814   3.637
 9840SOL     OW30418   0.473   1.687   1.236
 9840SOL    HW130419   0.547   1.751   1.257
 9840SOL    HW230420   0.511   1.596   1.222
 9841SOL     OW30421   1.946   4.182   4.868
 9841SOL    HW130422   2.004   4.100   4.861
 9841SOL    HW230423   1.983   4.242   4.940
 9842SOL     OW30424   3.897   3.573   2.665
 9842SOL    HW130425   3.920   3.580   2.762
 9842SOL    HW230426   3.941   3.492   2.626
 9843SOL     OW30427   5.583   0.692   1.019
 9843SOL    HW130428   5.594   0.636   1.101
 9843SOL    HW230429   5.539   0.778   1.042
 9844SOL     OW30430   5.984   1.362   2.056
 9844SOL    HW130431   6.008   1.265   2.049
 9844SOL    HW230432   6.001   1.408   1.970
 9845SOL     OW30433   3.083   1.711   3.480
 9845SOL    HW130434   3.060   1.794   3.429
 9845SOL    HW230435   3.172   1.723   3.524
 9846SOL     OW30436   3.730   3.253   2.098
 9846SOL    HW130437   3.808   3.210   2.052
 9846SOL    HW230438   3.653   3.260   2.033
 9847SOL     OW30439   3.478   2.811   4.911
 9847SOL    HW130440   3.397   2.757   4.887
 9847SOL    HW230441   3.466   2.905   4.879
 9848SOL     OW30442   3.304   2.932   6.129
 9848SOL    HW130443   3.271   2.948   6.036
 9848SOL    HW230444   3.351   2.844   6.133
 9849SOL     OW30445   0.133   0.561   0.044
 9849SOL    HW130446   0.228   0.530   0.040
 9849SOL    HW230447   0.121   0.623   0.122
 9850SOL     OW30448   5.949   0.094   3.885
 9850SOL    HW130449   5.856   0.118   3.910
 9850SOL    HW230450   6.012   0.123   3.957
 9851SOL     OW30451   4.947   1.668   5.401
 9851SOL    HW130452   4.996   1.617   5.473
 9851SOL    HW230453   4.946   1.614   5.317
 9852SOL     OW30454   4.230   2.255   2.697
 9852SOL    HW130455   4.282   2.292   2.774
 9852SOL    HW230456   4.264   2.295   2.612
 9853SOL     OW30457   5.648   4.701   4.335
 9853SOL    HW130458   5.625   4.791   4.297
 9853SOL    HW230459   5.568   4.663   4.382
 9854SOL     OW30460   0.537   5.686   4.840
 9854SOL    HW130461   0.512   5.777   4.809
 9854SOL    HW230462   0.473   5.619   4.802
 9855SOL     OW30463   2.492   2.978   0.705
 9855SOL    HW130464   2.501   3.037   0.625
 9855SOL    HW230465   2.405   2.928   0.699
 9856SOL     OW30466   4.610   3.933   5.776
 9856SOL    HW130467   4.515   3.931   5.745
 9856SOL    HW230468   4.620   3.876   5.858
 9857SOL     OW30469   4.355   2.359   3.583
 9857SOL    HW130470   4.325   2.307   3.503
 9857SOL    HW230471   4.277   2.376   3.642
 9858SOL     OW30472   0.212   0.975   0.654
 9858SOL    HW130473   0.249   1.014   0.738
 9858SOL    HW230474   0.246   0.882   0.642
 9859SOL     OW30475   6.221   6.879   2.040
 9859SOL    HW130476   6.197   6.786   2.069
 9859SOL    HW230477   6.137   6.930   2.021
 9860SOL     OW30478   0.421   1.326   3.534
 9860SOL    HW130479   0.427   1.405   3.595
 9860SOL    HW230480   0.480   1.253   3.568
 9861SOL     OW30481   3.243   0.073   2.988
 9861SOL    HW130482   3.302   0.031   3.057
 9861SOL    HW230483   3.291   0.148   2.943
 9862SOL     OW30484   3.769   4.205   0.378
 9862SOL    HW130485   3.676   4.236   0.359
 9862SOL    HW230486   3.825   4.282   0.408
 9863SOL     OW30487   3.614   6.920   2.990
 9863SOL    HW130488   3.580   6.936   2.897
 9863SOL    HW230489   3.645   6.826   2.998
 9864SOL     OW30490   3.644   6.249   4.426
 9864SOL    HW130491   3.593   6.320   4.377
 9864SOL    HW230492   3.582   6.177   4.455
 9865SOL     OW30493   1.280   0.934   4.166
 9865SOL    HW130494   1.363   0.920   4.112
 9865SOL    HW230495   1.301   0.924   4.263
 9866SOL     OW30496   4.756   4.743   5.805
 9866SOL    HW130497   4.811   4.744   5.888
 9866SOL    HW230498   4.782   4.665   5.749
 9867SOL     OW30499   5.930   1.077   0.602
 9867SOL    HW130500   6.028   1.096   0.595
 9867SOL    HW230501   5.906   1.060   0.698
 9868SOL     OW30502   0.686   4.035   5.718
 9868SOL    HW130503   0.747   3.968   5.760
 9868SOL    HW230504   0.733   4.081   5.643
 9869SOL     OW30505   1.610   3.212   2.661
 9869SOL    HW130506   1.582   3.156   2.739
 9869SOL    HW230507   1.708   3.204   2.646
 9870SOL     OW30508   3.686   5.814   2.857
 9870SOL    HW130509   3.609   5.780   2.912
 9870SOL    HW230510   3.673   5.912   2.839
 9871SOL     OW30511   0.476   6.198   6.449
 9871SOL    HW130512   0.561   6.211   6.501
 9871SOL    HW230513   0.409   6.267   6.478
 9872SOL     OW30514   2.169   4.477   4.077
 9872SOL    HW130515   2.206   4.552   4.132
 9872SOL    HW230516   2.081   4.505   4.037
 9873SOL     OW30517   2.494   2.389   0.141
 9873SOL    HW130518   2.453   2.412   0.053
 9873SOL    HW230519   2.485   2.466   0.204
 9874SOL     OW30520   0.064   3.098   4.704
 9874SOL    HW130521   0.039   3.097   4.801
 9874SOL    HW230522   0.112   3.184   4.684
 9875SOL     OW30523   6.374   6.585   1.680
 9875SOL    HW130524   6.373   6.668   1.735
 9875SOL    HW230525   6.450   6.588   1.616
 9876SOL     OW30526   6.567   0.262   3.344
 9876SOL    HW130527   6.516   0.319   3.409
 9876SOL    HW230528   6.568   0.167   3.377
 9877SOL     OW30529   0.097   6.410   4.090
 9877SOL    HW130530   0.161   6.411   4.013
 9877SOL    HW230531   0.147   6.410   4.176
 9878SOL     OW30532   2.582   4.973   5.206
 9878SOL    HW130533   2.599   5.010   5.115
 9878SOL    HW230534   2.512   5.028   5.252
 9879SOL     OW30535   5.417   5.155   4.813
 9879SOL    HW130536   5.474   5.232   4.786
 9879SOL    HW230537   5.328   5.188   4.843
 9880SOL     OW30538   3.169   1.000   5.775
 9880SOL    HW130539   3.260   0.991   5.734
 9880SOL    HW230540   3.115   0.918   5.756
 9881SOL     OW30541   1.162   1.138   4.899
 9881SOL    HW130542   1.140   1.197   4.822
 9881SOL    HW230543   1.193   1.193   4.976
 9882SOL     OW30544   1.056   3.540   3.866
 9882SOL    HW130545   1.151   3.538   3.896
 9882SOL    HW230546   1.015   3.627   3.891
 9883SOL     OW30547   1.237   6.472   0.223
 9883SOL    HW130548   1.273   6.499   0.313
 9883SOL    HW230549   1.313   6.454   0.161
 9884SOL     OW30550   4.814   2.214   2.052
 9884SOL    HW130551   4.715   2.228   2.052
 9884SOL    HW230552   4.850   2.224   1.959
 9885SOL     OW30553   6.886   2.289   4.863
 9885SOL    HW130554   6.888   2.227   4.942
 9885SOL    HW230555   6.852   2.239   4.783
 9886SOL     OW30556   1.220   4.372   2.293
 9886SOL    HW130557   1.165   4.391   2.374
 9886SOL    HW230558   1.308   4.333   2.320
 9887SOL     OW30559   3.504   0.276   5.608
 9887SOL    HW130560   3.591   0.315   5.577
 9887SOL    HW230561   3.431   0.342   5.590
 9888SOL     OW30562   5.620   4.727   2.910
 9888SOL    HW130563   5.603   4.817   2.949
 9888SOL    HW230564   5.688   4.679   2.966
 9889SOL     OW30565   0.021   5.132   1.638
 9889SOL    HW130566   0.088   5.074   1.591
 9889SOL    HW230567   0.065   5.180   1.713
 9890SOL     OW30568   2.013   2.398   0.975
 9890SOL    HW130569   2.039   2.478   0.920
 9890SOL    HW230570   1.922   2.413   1.013
 9891SOL     OW30571   4.863   3.846   2.071
 9891SOL    HW130572   4.950   3.875   2.030
 9891SOL    HW230573   4.809   3.796   2.003
 9892SOL     OW30574   6.905   4.604   1.138
 9892SOL    HW130575   6.944   4.559   1.058
 9892SOL    HW230576   6.951   4.692   1.153
 9893SOL     OW30577   0.867   0.657   0.913
 9893SOL    HW130578   0.935   0.668   0.985
 9893SOL    HW230579   0.877   0.730   0.845
 9894SOL     OW30580   3.065   2.492   1.077
 9894SOL    HW130581   3.071   2.393   1.085
 9894SOL    HW230582   3.138   2.525   1.016
 9895SOL     OW30583   6.330   5.066   4.405
 9895SOL    HW130584   6.307   5.157   4.371
 9895SOL    HW230585   6.312   4.998   4.334
 9896SOL     OW30586   6.888   0.856   6.318
 9896SOL    HW130587   6.963   0.805   6.361
 9896SOL    HW230588   6.811   0.859   6.382
 9897SOL     OW30589   5.437   6.109   2.426
 9897SOL    HW130590   5.483   6.196   2.443
 9897SOL    HW230591   5.449   6.048   2.505
 9898SOL     OW30592   1.883   6.393   4.677
 9898SOL    HW130593   1.969   6.365   4.719
 9898SOL    HW230594   1.890   6.489   4.648
 9899SOL     OW30595   1.538   5.910   0.671
 9899SOL    HW130596   1.448   5.931   0.709
 9899SOL    HW230597   1.609   5.932   0.738
 9900SOL     OW30598   1.924   3.014   3.037
 9900SOL    HW130599   1.882   3.089   3.087
 9900SOL    HW230600   2.023   3.016   3.050
 9901SOL     OW30601   2.618   0.324   6.856
 9901SOL    HW130602   2.591   0.230   6.835
 9901SOL    HW230603   2.594   0.383   6.779
 9902SOL     OW30604   3.510   4.869   1.243
 9902SOL    HW130605   3.496   4.965   1.264
 9902SOL    HW230606   3.519   4.857   1.144
 9903SOL     OW30607   5.579   2.326   1.142
 9903SOL    HW130608   5.594   2.230   1.118
 9903SOL    HW230609   5.485   2.338   1.174
 9904SOL     OW30610   0.648   3.685   6.482
 9904SOL    HW130611   0.733   3.683   6.430
 9904SOL    HW230612   0.583   3.747   6.438
 9905SOL     OW30613   1.856   0.334   6.483
 9905SOL    HW130614   1.772   0.356   6.533
 9905SOL    HW230615   1.883   0.412   6.427
 9906SOL     OW30616   2.026   3.526   1.457
 9906SOL    HW130617   2.094   3.469   1.410
 9906SOL    HW230618   2.051   3.535   1.553
 9907SOL     OW30619   0.815   0.235   1.578
 9907SOL    HW130620   0.828   0.164   1.646
 9907SOL    HW230621   0.723   0.273   1.586
 9908SOL     OW30622   6.243   1.479   5.066
 9908SOL    HW130623   6.213   1.569   5.036
 9908SOL    HW230624   6.163   1.425   5.094
 9909SOL     OW30625   4.411   1.626   2.955
 9909SOL    HW130626   4.317   1.653   2.976
 9909SOL    HW230627   4.424   1.529   2.977
 9910SOL     OW30628   1.218   5.197   1.523
 9910SOL    HW130629   1.140   5.210   1.462
 9910SOL    HW230630   1.185   5.172   1.614
 9911SOL     OW30631   2.782   6.172   2.177
 9911SOL    HW130632   2.799   6.239   2.104
 9911SOL    HW230633   2.854   6.179   2.246
 9912SOL     OW30634   3.937   0.199   1.426
 9912SOL    HW130635   4.014   0.164   1.372
 9912SOL    HW230636   3.872   0.124   1.443
 9913SOL     OW30637   6.238   4.214   0.601
 9913SOL    HW130638   6.155   4.182   0.646
 9913SOL    HW230639   6.236   4.314   0.596
 9914SOL     OW30640   6.069   1.303   4.857
 9914SOL    HW130641   6.048   1.311   4.955
 9914SOL    HW230642   5.985   1.316   4.804
 9915SOL     OW30643   6.115   1.485   3.810
 9915SOL    HW130644   6.080   1.400   3.772
 9915SOL    HW230645   6.060   1.562   3.778
 9916SOL     OW30646   2.116   2.262   2.623
 9916SOL    HW130647   2.099   2.166   2.602
 9916SOL    HW230648   2.046   2.297   2.685
 9917SOL     OW30649   5.102   4.409   6.187
 9917SOL    HW130650   5.019   4.438   6.138
 9917SOL    HW230651   5.105   4.309   6.190
 9918SOL     OW30652   2.768   2.039   3.358
 9918SOL    HW130653   2.801   2.096   3.283
 9918SOL    HW230654   2.685   2.078   3.396
 9919SOL     OW30655   0.626   5.130   0.703
 9919SOL    HW130656   0.624   5.049   0.644
 9919SOL    HW230657   0.576   5.111   0.788
 9920SOL     OW30658   5.250   1.455   2.573
 9920SOL    HW130659   5.193   1.528   2.535
 9920SOL    HW230660   5.326   1.496   2.624
 9921SOL     OW30661   4.080   6.217   4.678
 9921SOL    HW130662   4.115   6.281   4.610
 9921SOL    HW230663   3.980   6.222   4.681
 9922SOL     OW30664   2.289   3.652   0.610
 9922SOL    HW130665   2.228   3.721   0.569
 9922SOL    HW230666   2.234   3.585   0.660
 9923SOL     OW30667   5.798   4.719   6.838
 9923SOL    HW130668   5.716   4.683   6.881
 9923SOL    HW230669   5.773   4.786   6.768
 9924SOL     OW30670   6.337   1.623   3.283
 9924SOL    HW130671   6.429   1.611   3.321
 9924SOL    HW230672   6.302   1.534   3.254
 9925SOL     OW30673   0.341   4.060   4.236
 9925SOL    HW130674   0.436   4.091   4.240
 9925SOL    HW230675   0.301   4.059   4.327
 9926SOL     OW30676   4.553   3.030   1.482
 9926SOL    HW130677   4.489   3.106   1.493
 9926SOL    HW230678   4.634   3.047   1.538
 9927SOL     OW30679   1.486   0.277   0.639
 9927SOL    HW130680   1.391   0.308   0.633
 9927SOL    HW230681   1.517   0.282   0.734
 9928SOL     OW30682   5.342   5.016   3.214
 9928SOL    HW130683   5.379   4.981   3.300
 9928SOL    HW230684   5.301   5.106   3.230
 9929SOL     OW30685   3.232   4.096   5.221
 9929SOL    HW130686   3.222   4.028   5.294
 9929SOL    HW230687   3.148   4.149   5.214
 9930SOL     OW30688   6.293   6.315   5.225
 9930SOL    HW130689   6.345   6.231   5.240
 9930SOL    HW230690   6.352   6.394   5.242
 9931SOL     OW30691   0.542   5.477   4.518
 9931SOL    HW130692   0.444   5.490   4.532
 9931SOL    HW230693   0.558   5.394   4.465
 9932SOL     OW30694   2.920   3.232   6.174
 9932SOL    HW130695   3.004   3.179   6.181
 9932SOL    HW230696   2.864   3.196   6.100
 9933SOL     OW30697   0.750   6.145   3.936
 9933SOL    HW130698   0.842   6.114   3.962
 9933SOL    HW230699   0.750   6.172   3.840
 9934SOL     OW30700   6.432   2.077   5.734
 9934SOL    HW130701   6.403   2.146   5.668
 9934SOL    HW230702   6.390   1.989   5.711
 9935SOL     OW30703   3.354   6.469   0.392
 9935SOL    HW130704   3.451   6.448   0.385
 9935SOL    HW230705   3.342   6.563   0.422
 9936SOL     OW30706   6.634   4.328   0.087
 9936SOL    HW130707   6.586   4.377   0.160
 9936SOL    HW230708   6.663   4.238   0.121
 9937SOL     OW30709   0.319   1.773   1.744
 9937SOL    HW130710   0.283   1.848   1.800
 9937SOL    HW230711   0.349   1.699   1.804
 9938SOL     OW30712   6.763   5.125   3.359
 9938SOL    HW130713   6.841   5.084   3.407
 9938SOL    HW230714   6.779   5.122   3.261
 9939SOL     OW30715   4.158   2.488   1.384
 9939SOL    HW130716   4.243   2.537   1.405
 9939SOL    HW230717   4.167   2.392   1.414
 9940SOL     OW30718   0.962   0.562   1.160
 9940SOL    HW130719   0.877   0.511   1.170
 9940SOL    HW230720   1.037   0.499   1.140
 9941SOL     OW30721   3.298   2.950   4.730
 9941SOL    HW130722   3.374   2.897   4.693
 9941SOL    HW230723   3.272   3.021   4.664
 9942SOL     OW30724   2.755   5.469   2.894
 9942SOL    HW130725   2.665   5.428   2.882
 9942SOL    HW230726   2.803   5.422   2.967
 9943SOL     OW30727   0.473   4.302   5.680
 9943SOL    HW130728   0.451   4.396   5.657
 9943SOL    HW230729   0.458   4.287   5.778
 9944SOL     OW30730   1.196   4.236   6.501
 9944SOL    HW130731   1.123   4.237   6.432
 9944SOL    HW230732   1.161   4.273   6.587
 9945SOL     OW30733   4.591   5.391   6.535
 9945SOL    HW130734   4.643   5.330   6.596
 9945SOL    HW230735   4.652   5.430   6.467
 9946SOL     OW30736   5.961   0.518   3.576
 9946SOL    HW130737   6.017   0.496   3.656
 9946SOL    HW230738   5.950   0.617   3.570
 9947SOL     OW30739   2.391   2.380   4.708
 9947SOL    HW130740   2.299   2.374   4.669
 9947SOL    HW230741   2.458   2.354   4.639
 9948SOL     OW30742   6.015   4.631   5.997
 9948SOL    HW130743   5.931   4.685   5.999
 9948SOL    HW230744   5.995   4.537   6.022
 9949SOL     OW30745   6.890   5.023   4.115
 9949SOL    HW130746   6.802   5.062   4.086
 9949SOL    HW230747   6.965   5.082   4.085
 9950SOL     OW30748   5.859   6.513   5.500
 9950SOL    HW130749   5.794   6.472   5.436
 9950SOL    HW230750   5.840   6.480   5.592
 9951SOL     OW30751   0.440   1.535   3.706
 9951SOL    HW130752   0.530   1.575   3.691
 9951SOL    HW230753   0.386   1.594   3.766
 9952SOL     OW30754   1.030   4.818   0.408
 9952SOL    HW130755   0.944   4.770   0.423
 9952SOL    HW230756   1.081   4.821   0.494
 9953SOL     OW30757   5.627   2.369   4.857
 9953SOL    HW130758   5.684   2.292   4.886
 9953SOL    HW230759   5.545   2.373   4.914
 9954SOL     OW30760   0.364   0.375   6.395
 9954SOL    HW130761   0.385   0.472   6.382
 9954SOL    HW230762   0.449   0.325   6.412
 9955SOL     OW30763   5.912   3.424   5.889
 9955SOL    HW130764   5.852   3.444   5.966
 9955SOL    HW230765   5.872   3.351   5.834
 9956SOL     OW30766   1.283   5.789   2.158
 9956SOL    HW130767   1.234   5.731   2.223
 9956SOL    HW230768   1.218   5.848   2.110
 9957SOL     OW30769   5.371   6.211   2.160
 9957SOL    HW130770   5.409   6.219   2.252
 9957SOL    HW230771   5.410   6.131   2.114
 9958SOL     OW30772   2.629   5.275   6.990
 9958SOL    HW130773   2.700   5.245   6.926
 9958SOL    HW230774   2.549   5.216   6.980
 9959SOL     OW30775   4.022   3.617   4.608
 9959SOL    HW130776   4.072   3.619   4.522
 9959SOL    HW230777   3.959   3.539   4.609
 9960SOL     OW30778   6.978   0.328   2.101
 9960SOL    HW130779   7.003   0.296   2.010
 9960SOL    HW230780   0.025   0.388   2.136
 9961SOL     OW30781   1.813   5.727   4.537
 9961SOL    HW130782   1.738   5.662   4.536
 9961SOL    HW230783   1.781   5.815   4.572
 9962SOL     OW30784   5.636   5.962   1.462
 9962SOL    HW130785   5.583   5.941   1.544
 9962SOL    HW230786   5.732   5.975   1.487
 9963SOL     OW30787   2.504   3.271   6.814
 9963SOL    HW130788   2.415   3.227   6.827
 9963SOL    HW230789   2.492   3.368   6.794
 9964SOL     OW30790   5.022   4.005   6.479
 9964SOL    HW130791   4.961   4.067   6.431
 9964SOL    HW230792   4.995   3.910   6.461
 9965SOL     OW30793   4.143   5.961   6.331
 9965SOL    HW130794   4.238   5.958   6.362
 9965SOL    HW230795   4.082   5.937   6.406
 9966SOL     OW30796   2.312   5.882   2.574
 9966SOL    HW130797   2.383   5.848   2.512
 9966SOL    HW230798   2.354   5.928   2.652
 9967SOL     OW30799   5.754   6.832   2.016
 9967SOL    HW130800   5.840   6.881   2.005
 9967SOL    HW230801   5.678   6.891   1.989
 9968SOL     OW30802   2.917   3.506   6.539
 9968SOL    HW130803   2.909   3.558   6.453
 9968SOL    HW230804   3.006   3.462   6.543
 9969SOL     OW30805   1.923   3.015   3.367
 9969SOL    HW130806   1.963   3.007   3.276
 9969SOL    HW230807   1.997   3.024   3.435
 9970SOL     OW30808   5.259   4.250   2.827
 9970SOL    HW130809   5.258   4.346   2.853
 9970SOL    HW230810   5.349   4.225   2.792
 9971SOL     OW30811   2.671   5.118   0.526
 9971SOL    HW130812   2.734   5.068   0.467
 9971SOL    HW230813   2.582   5.073   0.526
 9972SOL     OW30814   4.152   4.542   1.287
 9972SOL    HW130815   4.163   4.641   1.279
 9972SOL    HW230816   4.072   4.512   1.235
 9973SOL     OW30817   4.414   2.501   4.585
 9973SOL    HW130818   4.319   2.468   4.584
 9973SOL    HW230819   4.471   2.441   4.529
 9974SOL     OW30820   6.532   3.326   3.747
 9974SOL    HW130821   6.505   3.420   3.768
 9974SOL    HW230822   6.467   3.263   3.789
 9975SOL     OW30823   6.966   4.955   7.017
 9975SOL    HW130824   6.979   4.935   6.920
 9975SOL    HW230825   6.875   4.927   0.021
 9976SOL     OW30826   0.877   5.998   5.640
 9976SOL    HW130827   0.977   5.989   5.633
 9976SOL    HW230828   0.854   6.036   5.730
 9977SOL     OW30829   6.998   5.567   5.410
 9977SOL    HW130830   0.039   5.491   5.419
 9977SOL    HW230831   7.024   5.624   5.332
 9978SOL     OW30832   6.239   3.176   3.176
 9978SOL    HW130833   6.335   3.197   3.195
 9978SOL    HW230834   6.231   3.129   3.088
 9979SOL     OW30835   6.177   4.860   5.502
 9979SOL    HW130836   6.078   4.875   5.503
 9979SOL    HW230837   6.217   4.893   5.588
 9980SOL     OW30838   1.861   1.583   6.052
 9980SOL    HW130839   1.870   1.647   5.976
 9980SOL    HW230840   1.906   1.496   6.028
 9981SOL     OW30841   2.504   1.913   1.930
 9981SOL    HW130842   2.438   1.873   1.867
 9981SOL    HW230843   2.462   1.989   1.979
 9982SOL     OW30844   0.190   0.230   3.514
 9982SOL    HW130845   0.143   0.309   3.474
 9982SOL    HW230846   0.175   0.229   3.613
 9983SOL     OW30847   0.881   2.823   3.870
 9983SOL    HW130848   0.898   2.792   3.776
 9983SOL    HW230849   0.858   2.920   3.869
 9984SOL     OW30850   1.950   0.548   0.149
 9984SOL    HW130851   1.973   0.546   0.246
 9984SOL    HW230852   1.896   0.468   0.125
 9985SOL     OW30853   2.030   1.285   1.519
 9985SOL    HW130854   1.964   1.232   1.465
 9985SOL    HW230855   2.076   1.225   1.583
 9986SOL     OW30856   4.917   4.473   5.983
 9986SOL    HW130857   4.888   4.410   5.910
 9986SOL    HW230858   4.938   4.562   5.942
 9987SOL     OW30859   0.292   2.637   3.828
 9987SOL    HW130860   0.227   2.669   3.760
 9987SOL    HW230861   0.244   2.613   3.912
 9988SOL     OW30862   0.176   5.393   5.461
 9988SOL    HW130863   0.218   5.461   5.522
 9988SOL    HW230864   0.167   5.306   5.509
 9989SOL     OW30865   6.551   4.156   3.313
 9989SOL    HW130866   6.497   4.072   3.322
 9989SOL    HW230867   6.498   4.224   3.262
 9990SOL     OW30868   2.485   6.074   1.907
 9990SOL    HW130869   2.510   6.134   1.831
 9990SOL    HW230870   2.497   5.978   1.880
 9991SOL     OW30871   1.927   2.920   4.012
 9991SOL    HW130872   1.851   2.979   3.985
 9991SOL    HW230873   2.005   2.976   4.040
 9992SOL     OW30874   5.202   4.455   0.196
 9992SOL    HW130875   5.115   4.505   0.202
 9992SOL    HW230876   5.195   4.371   0.249
 9993SOL     OW30877   3.996   0.653   1.236
 9993SOL    HW130878   3.990   0.612   1.144
 9993SOL    HW230879   3.918   0.623   1.290
 9994SOL     OW30880   0.194   4.849   3.321
 9994SOL    HW130881   0.128   4.789   3.275
 9994SOL    HW230882   0.240   4.798   3.394
 9995SOL     OW30883   4.337   1.351   2.961
 9995SOL    HW130884   4.246   1.318   2.934
 9995SOL    HW230885   4.369   1.297   3.039
 9996SOL     OW30886   2.371   2.940   1.763
 9996SOL    HW130887   2.310   3.001   1.814
 9996SOL    HW230888   2.399   2.985   1.678
 9997SOL     OW30889   3.832   1.714   0.606
 9997SOL    HW130890   3.760   1.709   0.676
 9997SOL    HW230891   3.843   1.809   0.576
 9998SOL     OW30892   5.767   4.462   0.419
 9998SOL    HW130893   5.674   4.428   0.407
 9998SOL    HW230894   5.832   4.396   0.383
 9999SOL     OW30895   0.129   2.605   5.342
 9999SOL    HW130896   0.030   2.592   5.341
 9999SOL    HW230897   0.165   2.585   5.433
10000SOL     OW30898   6.694   3.637   6.898
10000SOL    HW130899   6.704   3.685   6.811
10000SOL    HW230900   6.611   3.670   6.944
10001SOL     OW30901   4.765   0.161   2.171
10001SOL    HW130902   4.676   0.115   2.161
10001SOL    HW230903   4.808   0.130   2.256
10002SOL     OW30904   1.760   0.482   2.241
10002SOL    HW130905   1.733   0.402   2.294
10002SOL    HW230906   1.859   0.493   2.245
10003SOL     OW30907   3.603   1.490   3.268
10003SOL    HW130908   3.662   1.564   3.236
10003SOL    HW230909   3.552   1.452   3.191
10004SOL     OW30910   5.438   2.441   3.953
10004SOL    HW130911   5.391   2.395   3.877
10004SOL    HW230912   5.442   2.539   3.934
10005SOL     OW30913   5.063   0.873   4.345
10005SOL    HW130914   4.973   0.882   4.302
10005SOL    HW230915   5.078   0.777   4.370
10006SOL     OW30916   5.506   6.767   4.601
10006SOL    HW130917   5.542   6.688   4.550
10006SOL    HW230918   5.578   6.837   4.609
10007SOL     OW30919   0.485   5.156   5.677
10007SOL    HW130920   0.426   5.129   5.602
10007SOL    HW230921   0.580   5.136   5.654
10008SOL     OW30922   4.543   1.187   4.745
10008SOL    HW130923   4.606   1.197   4.822
10008SOL    HW230924   4.452   1.220   4.771
10009SOL     OW30925   2.104   4.236   1.724
10009SOL    HW130926   2.007   4.243   1.749
10009SOL    HW230927   2.136   4.144   1.742
10010SOL     OW30928   1.653   0.551   5.733
10010SOL    HW130929   1.593   0.511   5.803
10010SOL    HW230930   1.678   0.643   5.761
10011SOL     OW30931   5.667   1.540   5.201
10011SOL    HW130932   5.680   1.636   5.177
10011SOL    HW230933   5.704   1.482   5.129
10012SOL     OW30934   5.505   0.831   3.254
10012SOL    HW130935   5.579   0.859   3.193
10012SOL    HW230936   5.418   0.836   3.206
10013SOL     OW30937   0.653   1.246   3.844
10013SOL    HW130938   0.623   1.182   3.773
10013SOL    HW230939   0.709   1.318   3.802
10014SOL     OW30940   6.590   4.076   0.514
10014SOL    HW130941   6.672   4.026   0.486
10014SOL    HW230942   6.527   4.013   0.561
10015SOL     OW30943   1.867   3.866   0.440
10015SOL    HW130944   1.792   3.932   0.430
10015SOL    HW230945   1.851   3.811   0.522
10016SOL     OW30946   1.421   0.975   6.544
10016SOL    HW130947   1.497   0.944   6.601
10016SOL    HW230948   1.449   0.978   6.449
10017SOL     OW30949   2.933   1.647   2.828
10017SOL    HW130950   2.916   1.634   2.731
10017SOL    HW230951   2.883   1.579   2.881
10018SOL     OW30952   4.440   0.282   5.481
10018SOL    HW130953   4.515   0.215   5.473
10018SOL    HW230954   4.472   0.371   5.449
10019SOL     OW30955   6.958   2.248   2.700
10019SOL    HW130956   6.948   2.170   2.763
10019SOL    HW230957   6.868   2.277   2.668
10020SOL     OW30958   1.571   2.149   1.968
10020SOL    HW130959   1.615   2.082   1.908
10020SOL    HW230960   1.614   2.146   2.058
10021SOL     OW30961   6.976   2.841   1.507
10021SOL    HW130962   6.901   2.795   1.554
10021SOL    HW230963   0.017   2.773   1.474
10022SOL     OW30964   2.740   0.718   5.965
10022SOL    HW130965   2.708   0.625   5.981
10022SOL    HW230966   2.684   0.760   5.893
10023SOL     OW30967   1.459   5.595   6.956
10023SOL    HW130968   1.363   5.600   6.930
10023SOL    HW230969   1.470   5.622   0.027
10024SOL     OW30970   2.050   6.269   2.171
10024SOL    HW130971   2.124   6.273   2.239
10024SOL    HW230972   2.087   6.237   2.084
10025SOL     OW30973   1.433   1.625   1.390
10025SOL    HW130974   1.334   1.633   1.402
10025SOL    HW230975   1.464   1.536   1.423
10026SOL     OW30976   5.800   6.614   3.932
10026SOL    HW130977   5.865   6.561   3.879
10026SOL    HW230978   5.777   6.565   4.016
10027SOL     OW30979   6.471   4.044   4.983
10027SOL    HW130980   6.508   4.128   5.023
10027SOL    HW230981   6.395   4.068   4.922
10028SOL     OW30982   1.496   1.209   2.022
10028SOL    HW130983   1.496   1.199   1.923
10028SOL    HW230984   1.453   1.296   2.047
10029SOL     OW30985   4.875   1.450   4.489
10029SOL    HW130986   4.843   1.359   4.515
10029SOL    HW230987   4.804   1.497   4.437
10030SOL     OW30988   2.370   6.719   3.271
10030SOL    HW130989   2.469   6.713   3.287
10030SOL    HW230990   2.351   6.707   3.173
10031SOL     OW30991   5.785   5.215   4.798
10031SOL    HW130992   5.715   5.282   4.824
10031SOL    HW230993   5.811   5.228   4.703
10032SOL     OW30994   2.155   1.541   5.235
10032SOL    HW130995   2.164   1.458   5.180
10032SOL    HW230996   2.206   1.615   5.192
10033SOL     OW30997   6.165   2.714   4.190
10033SOL    HW130998   6.126   2.790   4.138
10033SOL    HW230999   6.251   2.744   4.232
10034SOL     OW31000   3.437   0.182   4.095
10034SOL    HW131001   3.526   0.140   4.116
10034SOL    HW231002   3.450   0.279   4.075
10035SOL     OW31003   6.065   4.558   1.566
10035SOL    HW131004   6.112   4.646   1.563
10035SOL    HW231005   5.966   4.572   1.564
10036SOL     OW31006   6.067   2.229   1.283
10036SOL    HW131007   6.072   2.248   1.381
10036SOL    HW231008   6.085   2.132   1.267
10037SOL     OW31009   0.188   1.610   0.127
10037SOL    HW131010   0.274   1.582   0.083
10037SOL    HW231011   0.169   1.549   0.204
10038SOL     OW31012   5.652   0.578   0.071
10038SOL    HW131013   5.610   0.526   7.021
10038SOL    HW231014   5.587   0.644   0.108
10039SOL     OW31015   3.644   0.487   3.581
10039SOL    HW131016   3.610   0.542   3.657
10039SOL    HW231017   3.628   0.535   3.495
10040SOL     OW31018   5.326   5.023   6.378
10040SOL    HW131019   5.263   5.090   6.417
10040SOL    HW231020   5.363   5.058   6.292
10041SOL     OW31021   4.208   5.758   6.891
10041SOL    HW131022   4.263   5.839   6.911
10041SOL    HW231023   4.112   5.775   6.915
10042SOL     OW31024   0.742   1.803   4.181
10042SOL    HW131025   0.776   1.880   4.127
10042SOL    HW231026   0.715   1.729   4.121
10043SOL     OW31027   6.817   1.117   4.554
10043SOL    HW131028   6.770   1.109   4.466
10043SOL    HW231029   6.798   1.036   4.609
10044SOL     OW31030   2.475   2.612   4.804
10044SOL    HW131031   2.441   2.523   4.774
10044SOL    HW231032   2.570   2.604   4.834
10045SOL     OW31033   3.870   0.791   1.643
10045SOL    HW131034   3.835   0.711   1.690
10045SOL    HW231035   3.858   0.781   1.545
10046SOL     OW31036   1.713   3.559   0.852
10046SOL    HW131037   1.660   3.492   0.798
10046SOL    HW231038   1.763   3.511   0.924
10047SOL     OW31039   0.697   3.482   4.990
10047SOL    HW131040   0.774   3.498   5.053
10047SOL    HW231041   0.684   3.384   4.979
10048SOL     OW31042   0.424   6.695   2.314
10048SOL    HW131043   0.362   6.617   2.327
10048SOL    HW231044   0.504   6.684   2.374
10049SOL     OW31045   1.781   1.161   5.630
10049SOL    HW131046   1.797   1.259   5.631
10049SOL    HW231047   1.753   1.133   5.538
10050SOL     OW31048   5.695   3.535   5.187
10050SOL    HW131049   5.598   3.529   5.211
10050SOL    HW231050   5.737   3.609   5.240
10051SOL     OW31051   0.411   4.364   4.884
10051SOL    HW131052   0.311   4.364   4.882
10051SOL    HW231053   0.442   4.347   4.978
10052SOL     OW31054   2.278   1.264   3.198
10052SOL    HW131055   2.252   1.352   3.158
10052SOL    HW231056   2.244   1.259   3.292
10053SOL     OW31057   4.273   5.889   4.373
10053SOL    HW131058   4.247   5.836   4.454
10053SOL    HW231059   4.205   5.959   4.356
10054SOL     OW31060   5.716   4.618   5.169
10054SOL    HW131061   5.775   4.669   5.232
10054SOL    HW231062   5.759   4.530   5.147
10055SOL     OW31063   6.379   2.524   5.635
10055SOL    HW131064   6.388   2.468   5.718
10055SOL    HW231065   6.289   2.568   5.634
10056SOL     OW31066   5.275   4.526   3.691
10056SOL    HW131067   5.217   4.505   3.612
10056SOL    HW231068   5.354   4.580   3.661
10057SOL     OW31069   5.377   3.899   5.490
10057SOL    HW131070   5.424   3.811   5.490
10057SOL    HW231071   5.307   3.900   5.562
10058SOL     OW31072   6.492   3.755   4.976
10058SOL    HW131073   6.442   3.716   5.054
10058SOL    HW231074   6.490   3.855   4.982
10059SOL     OW31075   0.149   2.365   0.122
10059SOL    HW131076   0.128   2.400   0.214
10059SOL    HW231077   0.109   2.274   0.112
10060SOL     OW31078   2.351   2.327   2.468
10060SOL    HW131079   2.268   2.309   2.521
10060SOL    HW231080   2.427   2.274   2.506
10061SOL     OW31081   4.452   1.048   3.672
10061SOL    HW131082   4.465   0.956   3.635
10061SOL    HW231083   4.371   1.050   3.731
10062SOL     OW31084   6.347   6.787   4.539
10062SOL    HW131085   6.440   6.780   4.573
10062SOL    HW231086   6.297   6.854   4.594
10063SOL     OW31087   3.045   1.640   4.326
10063SOL    HW131088   3.102   1.615   4.248
10063SOL    HW231089   2.951   1.610   4.311
10064SOL     OW31090   4.247   5.682   6.465
10064SOL    HW131091   4.277   5.684   6.369
10064SOL    HW231092   4.280   5.764   6.512
10065SOL     OW31093   1.823   1.083   1.476
10065SOL    HW131094   1.892   1.023   1.514
10065SOL    HW231095   1.813   1.064   1.378
10066SOL     OW31096   0.172   2.823   4.876
10066SOL    HW131097   0.201   2.809   4.781
10066SOL    HW231098   0.211   2.751   4.933
10067SOL     OW31099   0.405   3.115   6.422
10067SOL    HW131100   0.388   3.184   6.492
10067SOL    HW231101   0.466   3.152   6.352
10068SOL     OW31102   1.042   3.909   3.483
10068SOL    HW131103   0.956   3.884   3.438
10068SOL    HW231104   1.115   3.850   3.449
10069SOL     OW31105   3.444   4.950   1.687
10069SOL    HW131106   3.376   4.919   1.621
10069SOL    HW231107   3.536   4.932   1.650
10070SOL     OW31108   0.529   5.177   5.303
10070SOL    HW131109   0.557   5.272   5.316
10070SOL    HW231110   0.498   5.164   5.209
10071SOL     OW31111   1.288   0.257   3.904
10071SOL    HW131112   1.304   0.354   3.886
10071SOL    HW231113   1.190   0.239   3.902
10072SOL     OW31114   0.410   1.291   2.881
10072SOL    HW131115   0.434   1.197   2.856
10072SOL    HW231116   0.490   1.349   2.871
10073SOL     OW31117   6.513   3.845   3.680
10073SOL    HW131118   6.557   3.930   3.651
10073SOL    HW231119   6.424   3.865   3.720
10074SOL     OW31120   1.840   6.026   0.620
10074SOL    HW131121   1.754   6.016   0.571
10074SOL    HW231122   1.916   6.025   0.556
10075SOL     OW31123   2.075   0.653   2.566
10075SOL    HW131124   1.976   0.642   2.552
10075SOL    HW231125   2.103   0.596   2.643
10076SOL     OW31126   4.988   5.405   3.062
10076SOL    HW131127   4.996   5.505   3.066
10076SOL    HW231128   5.076   5.365   3.035
10077SOL     OW31129   5.299   2.350   0.297
10077SOL    HW131130   5.326   2.414   0.369
10077SOL    HW231131   5.220   2.387   0.248
10078SOL     OW31132   0.944   6.537   5.052
10078SOL    HW131133   0.860   6.487   5.072
10078SOL    HW231134   0.922   6.622   5.004
10079SOL     OW31135   5.370   2.268   3.477
10079SOL    HW131136   5.424   2.214   3.413
10079SOL    HW231137   5.379   2.365   3.455
10080SOL     OW31138   5.359   0.946   6.267
10080SOL    HW131139   5.458   0.960   6.275
10080SOL    HW231140   5.342   0.855   6.229
10081SOL     OW31141   0.742   1.884   0.151
10081SOL    HW131142   0.764   1.808   0.090
10081SOL    HW231143   0.648   1.875   0.183
10082SOL     OW31144   1.457   5.228   3.806
10082SOL    HW131145   1.429   5.135   3.782
10082SOL    HW231146   1.452   5.240   3.905
10083SOL     OW31147   3.553   6.689   3.551
10083SOL    HW131148   3.606   6.729   3.476
10083SOL    HW231149   3.596   6.711   3.638
10084SOL     OW31150   6.869   6.820   5.228
10084SOL    HW131151   6.906   6.820   5.136
10084SOL    HW231152   6.849   6.913   5.256
10085SOL     OW31153   4.530   6.608   0.496
10085SOL    HW131154   4.509   6.700   0.530
10085SOL    HW231155   4.547   6.612   0.398
10086SOL     OW31156   5.851   6.259   2.579
10086SOL    HW131157   5.775   6.257   2.645
10086SOL    HW231158   5.905   6.342   2.593
10087SOL     OW31159   0.472   6.676   4.228
10087SOL    HW131160   0.531   6.755   4.209
10087SOL    HW231161   0.442   6.635   4.142
10088SOL     OW31162   6.517   0.897   0.180
10088SOL    HW131163   6.588   0.932   0.241
10088SOL    HW231164   6.450   0.846   0.233
10089SOL     OW31165   3.421   1.297   2.648
10089SOL    HW131166   3.424   1.344   2.736
10089SOL    HW231167   3.511   1.258   2.629
10090SOL     OW31168   0.989   4.876   2.114
10090SOL    HW131169   1.022   4.853   2.206
10090SOL    HW231170   0.890   4.887   2.116
10091SOL     OW31171   6.702   5.832   6.873
10091SOL    HW131172   6.655   5.753   6.833
10091SOL    HW231173   6.641   5.881   6.934
10092SOL     OW31174   1.588   3.290   5.495
10092SOL    HW131175   1.571   3.194   5.517
10092SOL    HW231176   1.503   3.331   5.461
10093SOL     OW31177   4.906   3.462   4.810
10093SOL    HW131178   4.898   3.372   4.853
10093SOL    HW231179   4.893   3.533   4.880
10094SOL     OW31180   2.542   6.763   1.162
10094SOL    HW131181   2.516   6.775   1.066
10094SOL    HW231182   2.558   6.853   1.204
10095SOL     OW31183   5.387   1.948   4.705
10095SOL    HW131184   5.375   2.038   4.748
10095SOL    HW231185   5.445   1.957   4.625
10096SOL     OW31186   4.875   0.875   2.407
10096SOL    HW131187   4.858   0.964   2.365
10096SOL    HW231188   4.967   0.844   2.384
10097SOL     OW31189   1.909   2.230   6.664
10097SOL    HW131190   1.847   2.184   6.600
10097SOL    HW231191   1.970   2.162   6.705
10098SOL     OW31192   2.861   5.774   4.568
10098SOL    HW131193   2.935   5.708   4.576
10098SOL    HW231194   2.858   5.832   4.649
10099SOL     OW31195   6.540   4.604   1.744
10099SOL    HW131196   6.606   4.623   1.671
10099SOL    HW231197   6.453   4.575   1.704
10100SOL     OW31198   5.512   4.997   5.167
10100SOL    HW131199   5.570   4.932   5.216
10100SOL    HW231200   5.553   5.018   5.078
10101SOL     OW31201   6.825   3.048   1.980
10101SOL    HW131202   6.766   3.038   1.900
10101SOL    HW231203   6.841   3.145   1.998
10102SOL     OW31204   5.851   0.298   0.568
10102SOL    HW131205   5.803   0.343   0.644
10102SOL    HW231206   5.948   0.323   0.571
10103SOL     OW31207   0.939   0.186   5.626
10103SOL    HW131208   0.921   0.241   5.708
10103SOL    HW231209   0.929   0.089   5.648
10104SOL     OW31210   2.427   0.800   6.074
10104SOL    HW131211   2.466   0.712   6.048
10104SOL    HW231212   2.350   0.821   6.013
10105SOL     OW31213   2.671   1.059   5.961
10105SOL    HW131214   2.654   1.000   6.039
10105SOL    HW231215   2.671   1.004   5.877
10106SOL     OW31216   4.676   5.698   1.623
10106SOL    HW131217   4.592   5.659   1.586
10106SOL    HW231218   4.667   5.708   1.722
10107SOL     OW31219   4.897   3.871   6.748
10107SOL    HW131220   4.994   3.849   6.746
10107SOL    HW231221   4.845   3.790   6.718
10108SOL     OW31222   1.413   2.703   0.799
10108SOL    HW131223   1.350   2.776   0.825
10108SOL    HW231224   1.487   2.698   0.866
10109SOL     OW31225   0.690   1.018   0.247
10109SOL    HW131226   0.701   1.113   0.277
10109SOL    HW231227   0.600   1.007   0.205
10110SOL     OW31228   4.626   5.188   2.755
10110SOL    HW131229   4.590   5.240   2.678
10110SOL    HW231230   4.555   5.128   2.792
10111SOL     OW31231   1.179   2.926   2.075
10111SOL    HW131232   1.110   2.949   2.007
10111SOL    HW231233   1.208   3.009   2.123
10112SOL     OW31234   6.578   3.502   3.111
10112SOL    HW131235   6.556   3.599   3.126
10112SOL    HW231236   6.498   3.455   3.074
10113SOL     OW31237   4.360   1.210   6.356
10113SOL    HW131238   4.307   1.293   6.342
10113SOL    HW231239   4.299   1.136   6.384
10114SOL     OW31240   3.889   2.164   3.183
10114SOL    HW131241   3.961   2.136   3.246
10114SOL    HW231242   3.926   2.228   3.116
10115SOL     OW31243   3.910   1.449   4.190
10115SOL    HW131244   3.958   1.371   4.150
10115SOL    HW231245   3.910   1.441   4.290
10116SOL     OW31246   5.450   0.277   5.549
10116SOL    HW131247   5.479   0.184   5.574
10116SOL    HW231248   5.470   0.293   5.453
10117SOL     OW31249   6.668   5.404   5.339
10117SOL    HW131250   6.715   5.320   5.365
10117SOL    HW231251   6.719   5.483   5.373
10118SOL     OW31252   2.732   5.063   4.377
10118SOL    HW131253   2.785   5.119   4.440
10118SOL    HW231254   2.716   4.973   4.419
10119SOL     OW31255   6.960   5.197   3.792
10119SOL    HW131256   6.993   5.161   3.879
10119SOL    HW231257   6.905   5.128   3.746
10120SOL     OW31258   1.582   3.077   2.891
10120SOL    HW131259   1.620   3.165   2.918
10120SOL    HW231260   1.577   3.016   2.971
10121SOL     OW31261   5.420   4.705   0.589
10121SOL    HW131262   5.442   4.608   0.594
10121SOL    HW231263   5.399   4.730   0.495
10122SOL     OW31264   6.371   1.827   3.016
10122SOL    HW131265   6.356   1.780   3.104
10122SOL    HW231266   6.416   1.765   2.952
10123SOL     OW31267   5.955   6.369   0.861
10123SOL    HW131268   5.968   6.288   0.917
10123SOL    HW231269   6.034   6.430   0.872
10124SOL     OW31270   1.263   5.206   2.683
10124SOL    HW131271   1.258   5.305   2.695
10124SOL    HW231272   1.180   5.163   2.718
10125SOL     OW31273   1.961   1.354   1.855
10125SOL    HW131274   1.869   1.390   1.862
10125SOL    HW231275   2.026   1.430   1.849
10126SOL     OW31276   6.267   0.034   6.171
10126SOL    HW131277   6.179   0.011   6.130
10126SOL    HW231278   6.260   0.029   6.271
10127SOL     OW31279   1.215   4.561   6.303
10127SOL    HW131280   1.247   4.588   6.212
10127SOL    HW231281   1.130   4.510   6.295
10128SOL     OW31282   2.931   0.748   7.010
10128SOL    HW131283   2.907   0.837   6.972
10128SOL    HW231284   2.858   0.683   6.992
10129SOL     OW31285   6.811   1.944   2.468
10129SOL    HW131286   6.711   1.946   2.476
10129SOL    HW231287   6.850   1.908   2.553
10130SOL     OW31288   1.128   2.294   1.990
10130SOL    HW131289   1.209   2.269   1.936
10130SOL    HW231290   1.154   2.359   2.062
10131SOL     OW31291   2.134   0.841   4.173
10131SOL    HW131292   2.116   0.889   4.087
10131SOL    HW231293   2.048   0.829   4.222
10132SOL     OW31294   0.043   6.546   2.255
10132SOL    HW131295   0.095   6.488   2.318
10132SOL    HW231296   0.084   6.637   2.252
10133SOL     OW31297   4.468   5.561   1.489
10133SOL    HW131298   4.432   5.468   1.503
10133SOL    HW231299   4.519   5.564   1.403
10134SOL     OW31300   6.626   0.788   2.804
10134SOL    HW131301   6.561   0.846   2.853
10134SOL    HW231302   6.716   0.833   2.802
10135SOL     OW31303   5.833   0.969   3.938
10135SOL    HW131304   5.797   0.879   3.960
10135SOL    HW231305   5.758   1.032   3.921
10136SOL     OW31306   4.818   2.513   2.773
10136SOL    HW131307   4.849   2.420   2.793
10136SOL    HW231308   4.742   2.536   2.834
10137SOL     OW31309   0.579   5.438   5.708
10137SOL    HW131310   0.541   5.525   5.740
10137SOL    HW231311   0.505   5.371   5.702
10138SOL     OW31312   5.985   1.694   6.876
10138SOL    HW131313   5.972   1.792   6.865
10138SOL    HW231314   6.006   1.674   6.972
10139SOL     OW31315   3.345   3.546   5.580
10139SOL    HW131316   3.287   3.563   5.500
10139SOL    HW231317   3.302   3.477   5.638
10140SOL     OW31318   6.657   6.149   6.108
10140SOL    HW131319   6.575   6.102   6.076
10140SOL    HW231320   6.733   6.128   6.046
10141SOL     OW31321   3.663   1.245   3.671
10141SOL    HW131322   3.652   1.168   3.608
10141SOL    HW231323   3.630   1.219   3.762
10142SOL     OW31324   5.925   6.096   4.820
10142SOL    HW131325   6.011   6.051   4.843
10142SOL    HW231326   5.916   6.180   4.874
10143SOL     OW31327   5.546   2.963   0.206
10143SOL    HW131328   5.595   2.986   0.121
10143SOL    HW231329   5.597   2.892   0.255
10144SOL     OW31330   3.922   6.688   5.020
10144SOL    HW131331   3.992   6.656   4.955
10144SOL    HW231332   3.845   6.727   4.969
10145SOL     OW31333   4.602   6.248   1.598
10145SOL    HW131334   4.532   6.250   1.670
10145SOL    HW231335   4.649   6.336   1.594
10146SOL     OW31336   6.980   3.982   4.123
10146SOL    HW131337   0.007   4.022   4.198
10146SOL    HW231338   7.002   3.885   4.116
10147SOL     OW31339   4.289   5.131   6.808
10147SOL    HW131340   4.197   5.154   6.839
10147SOL    HW231341   4.330   5.210   6.764
10148SOL     OW31342   0.344   4.655   0.693
10148SOL    HW131343   0.295   4.718   0.633
10148SOL    HW231344   0.439   4.685   0.702
10149SOL     OW31345   4.807   4.790   1.802
10149SOL    HW131346   4.835   4.734   1.724
10149SOL    HW231347   4.878   4.858   1.822
10150SOL     OW31348   5.005   3.431   1.063
10150SOL    HW131349   4.978   3.463   1.154
10150SOL    HW231350   4.990   3.504   0.996
10151SOL     OW31351   0.065   6.982   5.901
10151SOL    HW131352   0.079   6.883   5.900
10151SOL    HW231353   0.033   7.011   5.991
10152SOL     OW31354   6.090   5.921   3.035
10152SOL    HW131355   6.182   5.896   3.066
10152SOL    HW231356   6.081   5.901   2.937
10153SOL     OW31357   4.655   5.809   4.146
10153SOL    HW131358   4.676   5.906   4.156
10153SOL    HW231359   4.674   5.781   4.052
10154SOL     OW31360   4.424   4.898   5.512
10154SOL    HW131361   4.324   4.894   5.511
10154SOL    HW231362   4.461   4.806   5.498
10155SOL     OW31363   4.846   1.955   5.724
10155SOL    HW131364   4.767   2.016   5.725
10155SOL    HW231365   4.929   2.006   5.747
10156SOL     OW31366   4.588   0.231   1.374
10156SOL    HW131367   4.608   0.199   1.466
10156SOL    HW231368   4.664   0.288   1.342
10157SOL     OW31369   0.333   2.585   0.317
10157SOL    HW131370   0.380   2.627   0.395
10157SOL    HW231371   0.401   2.543   0.257
10158SOL     OW31372   5.186   6.766   2.657
10158SOL    HW131373   5.119   6.721   2.715
10158SOL    HW231374   5.139   6.812   2.581
10159SOL     OW31375   3.411   3.214   3.055
10159SOL    HW131376   3.417   3.120   3.088
10159SOL    HW231377   3.457   3.275   3.120
10160SOL     OW31378   1.994   4.219   2.838
10160SOL    HW131379   1.975   4.173   2.925
10160SOL    HW231380   2.088   4.198   2.809
10161SOL     OW31381   3.575   4.947   5.967
10161SOL    HW131382   3.548   4.853   5.990
10161SOL    HW231383   3.496   5.007   5.973
10162SOL     OW31384   1.626   4.620   1.468
10162SOL    HW131385   1.586   4.673   1.543
10162SOL    HW231386   1.687   4.678   1.415
10163SOL     OW31387   1.547   5.988   5.590
10163SOL    HW131388   1.558   5.954   5.683
10163SOL    HW231389   1.509   6.081   5.593
10164SOL     OW31390   6.325   3.512   3.532
10164SOL    HW131391   6.425   3.506   3.521
10164SOL    HW231392   6.304   3.556   3.619
10165SOL     OW31393   5.743   2.637   3.765
10165SOL    HW131394   5.675   2.698   3.806
10165SOL    HW231395   5.804   2.690   3.706
10166SOL     OW31396   1.237   2.671   1.403
10166SOL    HW131397   1.152   2.648   1.449
10166SOL    HW231398   1.290   2.588   1.386
10167SOL     OW31399   0.284   4.869   6.536
10167SOL    HW131400   0.206   4.929   6.518
10167SOL    HW231401   0.369   4.919   6.519
10168SOL     OW31402   6.077   1.599   6.625
10168SOL    HW131403   6.125   1.680   6.591
10168SOL    HW231404   6.068   1.606   6.724
10169SOL     OW31405   0.010   3.546   3.094
10169SOL    HW131406   6.985   3.518   3.176
10169SOL    HW231407   7.009   3.640   3.071
10170SOL     OW31408   6.325   5.983   0.210
10170SOL    HW131409   6.288   5.952   0.298
10170SOL    HW231410   6.412   6.030   0.225
10171SOL     OW31411   1.513   2.660   5.815
10171SOL    HW131412   1.506   2.588   5.746
10171SOL    HW231413   1.453   2.639   5.892
10172SOL     OW31414   6.995   6.879   3.418
10172SOL    HW131415   6.981   6.978   3.412
10172SOL    HW231416   6.924   6.832   3.365
10173SOL     OW31417   3.736   4.765   0.156
10173SOL    HW131418   3.649   4.813   0.143
10173SOL    HW231419   3.790   4.813   0.225
10174SOL     OW31420   5.288   7.000   3.276
10174SOL    HW131421   5.196   0.012   3.261
10174SOL    HW231422   5.288   6.901   3.260
10175SOL     OW31423   0.035   1.962   3.308
10175SOL    HW131424   0.064   2.049   3.347
10175SOL    HW231425   0.028   1.971   3.209
10176SOL     OW31426   6.185   3.007   5.721
10176SOL    HW131427   6.163   3.104   5.733
10176SOL    HW231428   6.186   2.962   5.811
10177SOL     OW31429   2.589   0.382   1.475
10177SOL    HW131430   2.685   0.403   1.453
10177SOL    HW231431   2.543   0.347   1.393
10178SOL     OW31432   1.813   1.201   0.645
10178SOL    HW131433   1.774   1.188   0.737
10178SOL    HW231434   1.910   1.178   0.647
10179SOL     OW31435   0.011   4.162   0.300
10179SOL    HW131436   0.019   4.079   0.244
10179SOL    HW231437   6.998   4.236   0.245
10180SOL     OW31438   4.613   0.244   6.956
10180SOL    HW131439   4.588   0.319   7.018
10180SOL    HW231440   4.694   0.197   6.991
10181SOL     OW31441   6.278   3.654   1.407
10181SOL    HW131442   6.288   3.555   1.394
10181SOL    HW231443   6.369   3.695   1.415
10182SOL     OW31444   5.417   1.252   0.489
10182SOL    HW131445   5.340   1.265   0.552
10182SOL    HW231446   5.468   1.170   0.516
10183SOL     OW31447   6.279   2.763   6.394
10183SOL    HW131448   6.227   2.716   6.323
10183SOL    HW231449   6.368   2.718   6.405
10184SOL     OW31450   5.468   2.590   6.623
10184SOL    HW131451   5.475   2.503   6.672
10184SOL    HW231452   5.499   2.578   6.529
10185SOL     OW31453   4.295   6.099   2.481
10185SOL    HW131454   4.353   6.019   2.467
10185SOL    HW231455   4.202   6.077   2.451
10186SOL     OW31456   4.476   3.578   5.867
10186SOL    HW131457   4.425   3.625   5.794
10186SOL    HW231458   4.527   3.501   5.827
10187SOL     OW31459   2.365   4.155   5.986
10187SOL    HW131460   2.419   4.228   5.944
10187SOL    HW231461   2.301   4.118   5.919
10188SOL     OW31462   2.316   6.684   0.210
10188SOL    HW131463   2.287   6.773   0.174
10188SOL    HW231464   2.383   6.698   0.283
10189SOL     OW31465   1.271   1.268   0.043
10189SOL    HW131466   1.295   1.218   0.126
10189SOL    HW231467   1.173   1.286   0.042
10190SOL     OW31468   3.078   4.048   1.456
10190SOL    HW131469   3.090   4.087   1.547
10190SOL    HW231470   2.989   4.003   1.450
10191SOL     OW31471   6.096   5.341   1.219
10191SOL    HW131472   6.043   5.400   1.159
10191SOL    HW231473   6.157   5.283   1.165
10192SOL     OW31474   2.146   1.741   4.913
10192SOL    HW131475   2.218   1.752   4.844
10192SOL    HW231476   2.188   1.728   5.003
10193SOL     OW31477   3.556   3.465   2.183
10193SOL    HW131478   3.597   3.546   2.141
10193SOL    HW231479   3.621   3.388   2.178
10194SOL     OW31480   3.574   0.180   4.397
10194SOL    HW131481   3.502   0.248   4.411
10194SOL    HW231482   3.534   0.088   4.397
10195SOL     OW31483   5.541   6.999   1.910
10195SOL    HW131484   5.551   0.014   1.819
10195SOL    HW231485   5.536   0.048   1.978
10196SOL     OW31486   5.314   2.299   3.757
10196SOL    HW131487   5.341   2.302   3.661
10196SOL    HW231488   5.232   2.243   3.768
10197SOL     OW31489   5.655   0.117   2.992
10197SOL    HW131490   5.748   0.086   2.971
10197SOL    HW231491   5.637   0.103   3.089
10198SOL     OW31492   3.769   6.165   1.266
10198SOL    HW131493   3.858   6.120   1.277
10198SOL    HW231494   3.712   6.111   1.204
10199SOL     OW31495   0.743   1.660   7.012
10199SOL    HW131496   0.652   1.644   6.974
10199SOL    HW231497   0.807   1.593   6.975
10200SOL     OW31498   5.146   3.270   6.074
10200SOL    HW131499   5.180   3.207   6.004
10200SOL    HW231500   5.131   3.221   6.159
10201SOL     OW31501   0.296   5.869   1.898
10201SOL    HW131502   0.198   5.890   1.902
10201SOL    HW231503   0.313   5.801   1.827
10202SOL     OW31504   0.622   3.766   1.138
10202SOL    HW131505   0.687   3.841   1.123
10202SOL    HW231506   0.658   3.683   1.095
10203SOL     OW31507   1.901   2.380   2.741
10203SOL    HW131508   1.913   2.439   2.662
10203SOL    HW231509   1.896   2.435   2.824
10204SOL     OW31510   3.125   4.379   6.241
10204SOL    HW131511   3.166   4.469   6.256
10204SOL    HW231512   3.033   4.391   6.204
10205SOL     OW31513   4.428   1.241   3.224
10205SOL    HW131514   4.398   1.204   3.312
10205SOL    HW231515   4.426   1.341   3.227
10206SOL     OW31516   5.329   5.748   5.877
10206SOL    HW131517   5.410   5.767   5.821
10206SOL    HW231518   5.326   5.814   5.953
10207SOL     OW31519   2.168   0.327   1.269
10207SOL    HW131520   2.207   0.410   1.229
10207SOL    HW231521   2.089   0.298   1.214
10208SOL     OW31522   6.128   5.788   5.460
10208SOL    HW131523   6.139   5.799   5.361
10208SOL    HW231524   6.180   5.708   5.490
10209SOL     OW31525   6.819   1.066   5.976
10209SOL    HW131526   6.746   1.105   6.033
10209SOL    HW231527   6.825   1.117   5.891
10210SOL     OW31528   5.171   7.003   1.819
10210SOL    HW131529   5.079   7.018   1.856
10210SOL    HW231530   5.178   6.909   1.785
10211SOL     OW31531   3.767   6.435   5.644
10211SOL    HW131532   3.848   6.445   5.586
10211SOL    HW231533   3.734   6.341   5.637
10212SOL     OW31534   0.732   1.476   4.287
10212SOL    HW131535   0.749   1.553   4.348
10212SOL    HW231536   0.808   1.411   4.293
10213SOL     OW31537   5.583   1.522   2.571
10213SOL    HW131538   5.522   1.579   2.627
10213SOL    HW231539   5.675   1.561   2.574
10214SOL     OW31540   6.919   0.831   2.540
10214SOL    HW131541   6.930   0.927   2.514
10214SOL    HW231542   6.844   0.822   2.605
10215SOL     OW31543   3.019   2.952   5.545
10215SOL    HW131544   3.055   2.931   5.454
10215SOL    HW231545   2.947   3.021   5.538
10216SOL     OW31546   6.856   0.248   1.110
10216SOL    HW131547   6.878   0.342   1.138
10216SOL    HW231548   6.928   0.213   1.051
10217SOL     OW31549   2.538   1.207   4.247
10217SOL    HW131550   2.539   1.303   4.220
10217SOL    HW231551   2.503   1.199   4.340
10218SOL     OW31552   1.088   1.288   1.520
10218SOL    HW131553   1.135   1.221   1.463
10218SOL    HW231554   0.992   1.261   1.531
10219SOL     OW31555   0.330   2.487   2.531
10219SOL    HW131556   0.282   2.425   2.593
10219SOL    HW231557   0.274   2.569   2.517
10220SOL     OW31558   4.090   1.931   1.602
10220SOL    HW131559   4.131   1.888   1.521
10220SOL    HW231560   3.992   1.945   1.587
10221SOL     OW31561   1.536   1.993   4.280
10221SOL    HW131562   1.441   1.962   4.271
10221SOL    HW231563   1.569   2.023   4.191
10222SOL     OW31564   1.490   3.811   5.538
10222SOL    HW131565   1.459   3.882   5.475
10222SOL    HW231566   1.555   3.751   5.491
10223SOL     OW31567   1.855   5.436   6.316
10223SOL    HW131568   1.896   5.353   6.354
10223SOL    HW231569   1.760   5.443   6.346
10224SOL     OW31570   0.812   0.993   4.473
10224SOL    HW131571   0.886   0.980   4.540
10224SOL    HW231572   0.843   0.963   4.383
10225SOL     OW31573   1.099   6.076   5.298
10225SOL    HW131574   1.095   6.169   5.333
10225SOL    HW231575   1.028   6.062   5.229
10226SOL     OW31576   3.071   0.697   6.694
10226SOL    HW131577   3.052   0.774   6.754
10226SOL    HW231578   2.995   0.685   6.630
10227SOL     OW31579   4.754   4.748   0.862
10227SOL    HW131580   4.701   4.827   0.832
10227SOL    HW231581   4.694   4.669   0.873
10228SOL     OW31582   0.814   5.144   2.325
10228SOL    HW131583   0.903   5.128   2.367
10228SOL    HW231584   0.754   5.066   2.346
10229SOL     OW31585   1.076   1.140   3.668
10229SOL    HW131586   1.068   1.129   3.767
10229SOL    HW231587   1.142   1.212   3.648
10230SOL     OW31588   0.125   0.418   3.327
10230SOL    HW131589   0.218   0.420   3.290
10230SOL    HW231590   0.069   0.485   3.280
10231SOL     OW31591   6.729   6.772   5.621
10231SOL    HW131592   6.643   6.745   5.579
10231SOL    HW231593   6.780   6.690   5.650
10232SOL     OW31594   4.261   0.904   4.313
10232SOL    HW131595   4.207   0.882   4.232
10232SOL    HW231596   4.287   0.819   4.360
10233SOL     OW31597   4.808   2.734   5.543
10233SOL    HW131598   4.857   2.815   5.574
10233SOL    HW231599   4.710   2.745   5.559
10234SOL     OW31600   5.061   0.331   0.827
10234SOL    HW131601   5.075   0.241   0.787
10234SOL    HW231602   5.146   0.384   0.822
10235SOL     OW31603   4.485   1.367   0.234
10235SOL    HW131604   4.500   1.274   0.199
10235SOL    HW231605   4.413   1.365   0.303
10236SOL     OW31606   1.827   6.300   1.803
10236SOL    HW131607   1.854   6.207   1.830
10236SOL    HW231608   1.765   6.338   1.871
10237SOL     OW31609   6.121   4.299   0.985
10237SOL    HW131610   6.028   4.300   0.949
10237SOL    HW231611   6.148   4.204   1.004
10238SOL     OW31612   3.631   3.402   5.023
10238SOL    HW131613   3.582   3.322   5.061
10238SOL    HW231614   3.658   3.462   5.098
10239SOL     OW31615   1.041   4.544   5.484
10239SOL    HW131616   1.091   4.458   5.473
10239SOL    HW231617   1.101   4.621   5.464
10240SOL     OW31618   1.285   4.790   2.295
10240SOL    HW131619   1.213   4.806   2.362
10240SOL    HW231620   1.370   4.767   2.343
10241SOL     OW31621   0.128   0.818   1.368
10241SOL    HW131622   0.035   0.796   1.337
10241SOL    HW231623   0.193   0.752   1.330
10242SOL     OW31624   0.556   2.333   6.475
10242SOL    HW131625   0.609   2.322   6.559
10242SOL    HW231626   0.598   2.403   6.418
10243SOL     OW31627   0.090   5.619   1.226
10243SOL    HW131628   0.053   5.530   1.255
10243SOL    HW231629   0.077   5.629   1.128
10244SOL     OW31630   1.946   4.344   0.123
10244SOL    HW131631   1.869   4.395   0.159
10244SOL    HW231632   2.015   4.331   0.194
10245SOL     OW31633   2.352   3.786   0.252
10245SOL    HW131634   2.340   3.741   0.163
10245SOL    HW231635   2.286   3.861   0.260
10246SOL     OW31636   3.058   3.667   4.538
10246SOL    HW131637   3.018   3.759   4.536
10246SOL    HW231638   3.026   3.619   4.619
10247SOL     OW31639   0.787   5.025   5.243
10247SOL    HW131640   0.705   5.038   5.298
10247SOL    HW231641   0.845   5.106   5.248
10248SOL     OW31642   3.086   0.473   1.852
10248SOL    HW131643   3.088   0.560   1.900
10248SOL    HW231644   2.995   0.458   1.814
10249SOL     OW31645   2.560   0.963   6.290
10249SOL    HW131646   2.519   0.907   6.219
10249SOL    HW231647   2.500   1.041   6.310
10250SOL     OW31648   0.193   2.244   0.715
10250SOL    HW131649   0.215   2.172   0.780
10250SOL    HW231650   0.095   2.244   0.697
10251SOL     OW31651   1.663   2.909   5.746
10251SOL    HW131652   1.612   2.824   5.756
10251SOL    HW231653   1.656   2.941   5.651
10252SOL     OW31654   6.606   6.447   0.505
10252SOL    HW131655   6.508   6.463   0.491
10252SOL    HW231656   6.645   6.406   0.422
10253SOL     OW31657   4.798   5.442   6.974
10253SOL    HW131658   4.734   5.517   6.954
10253SOL    HW231659   4.856   5.425   6.894
10254SOL     OW31660   3.422   2.099   4.678
10254SOL    HW131661   3.360   2.152   4.734
10254SOL    HW231662   3.383   2.009   4.660
10255SOL     OW31663   2.178   5.773   1.501
10255SOL    HW131664   2.270   5.779   1.463
10255SOL    HW231665   2.173   5.695   1.563
10256SOL     OW31666   5.702   6.953   1.280
10256SOL    HW131667   5.647   6.916   1.355
10256SOL    HW231668   5.667   0.019   1.254
10257SOL     OW31669   1.071   4.528   5.050
10257SOL    HW131670   1.074   4.627   5.035
10257SOL    HW231671   1.108   4.506   5.140
10258SOL     OW31672   4.942   0.264   3.695
10258SOL    HW131673   5.009   0.195   3.667
10258SOL    HW231674   4.982   0.355   3.686
10259SOL     OW31675   0.982   5.144   3.327
10259SOL    HW131676   1.012   5.230   3.368
10259SOL    HW231677   1.060   5.083   3.315
10260SOL     OW31678   6.928   0.085   2.956
10260SOL    HW131679   7.003   0.026   2.986
10260SOL    HW231680   6.959   0.180   2.953
10261SOL     OW31681   6.955   6.192   1.923
10261SOL    HW131682   7.011   6.264   1.963
10261SOL    HW231683   7.014   6.126   1.877
10262SOL     OW31684   2.660   5.760   4.829
10262SOL    HW131685   2.626   5.812   4.750
10262SOL    HW231686   2.760   5.752   4.822
10263SOL     OW31687   4.859   1.146   6.047
10263SOL    HW131688   4.917   1.205   6.103
10263SOL    HW231689   4.764   1.172   6.059
10264SOL     OW31690   6.353   1.396   6.775
10264SOL    HW131691   6.267   1.400   6.825
10264SOL    HW231692   6.362   1.478   6.719
10265SOL     OW31693   3.505   2.048   2.840
10265SOL    HW131694   3.469   1.955   2.833
10265SOL    HW231695   3.576   2.062   2.771
10266SOL     OW31696   3.348   3.057   5.554
10266SOL    HW131697   3.305   3.146   5.566
10266SOL    HW231698   3.343   3.030   5.458
10267SOL     OW31699   6.432   1.628   6.700
10267SOL    HW131700   6.471   1.691   6.767
10267SOL    HW231701   6.479   1.640   6.612
10268SOL     OW31702   4.728   6.490   1.599
10268SOL    HW131703   4.710   6.553   1.675
10268SOL    HW231704   4.824   6.462   1.601
10269SOL     OW31705   1.891   1.553   5.342
10269SOL    HW131706   1.974   1.506   5.314
10269SOL    HW231707   1.853   1.604   5.264
10270SOL     OW31708   2.017   5.767   2.331
10270SOL    HW131709   2.107   5.804   2.308
10270SOL    HW231710   1.952   5.841   2.346
10271SOL     OW31711   3.107   3.549   0.474
10271SOL    HW131712   3.153   3.474   0.522
10271SOL    HW231713   3.144   3.558   0.382
10272SOL     OW31714   1.091   1.018   4.609
10272SOL    HW131715   1.129   0.926   4.613
10272SOL    HW231716   1.165   1.085   4.615
10273SOL     OW31717   4.238   5.980   3.857
10273SOL    HW131718   4.273   5.886   3.858
10273SOL    HW231719   4.139   5.978   3.846
10274SOL     OW31720   1.386   4.475   5.814
10274SOL    HW131721   1.371   4.563   5.769
10274SOL    HW231722   1.481   4.448   5.804
10275SOL     OW31723   1.397   0.126   2.100
10275SOL    HW131724   1.379   0.223   2.117
10275SOL    HW231725   1.495   0.112   2.091
10276SOL     OW31726   6.849   5.447   6.372
10276SOL    HW131727   6.763   5.471   6.417
10276SOL    HW231728   6.876   5.355   6.399
10277SOL     OW31729   2.554   6.619   3.844
10277SOL    HW131730   2.517   6.595   3.754
10277SOL    HW231731   2.584   6.536   3.891
10278SOL     OW31732   5.813   0.900   5.229
10278SOL    HW131733   5.910   0.880   5.245
10278SOL    HW231734   5.757   0.842   5.288
10279SOL     OW31735   3.117   0.407   3.862
10279SOL    HW131736   3.174   0.415   3.780
10279SOL    HW231737   3.148   0.473   3.931
10280SOL     OW31738   2.553   4.390   1.018
10280SOL    HW131739   2.619   4.465   1.020
10280SOL    HW231740   2.537   4.358   1.111
10281SOL     OW31741   5.552   2.481   2.751
10281SOL    HW131742   5.627   2.508   2.812
10281SOL    HW231743   5.474   2.541   2.766
10282SOL     OW31744   6.441   3.615   4.115
10282SOL    HW131745   6.408   3.521   4.114
10282SOL    HW231746   6.521   3.623   4.054
10283SOL     OW31747   0.944   2.780   1.040
10283SOL    HW131748   0.901   2.869   1.026
10283SOL    HW231749   0.915   2.718   0.968
10284SOL     OW31750   5.252   4.732   5.925
10284SOL    HW131751   5.268   4.739   5.826
10284SOL    HW231752   5.273   4.640   5.956
10285SOL     OW31753   4.966   0.059   1.596
10285SOL    HW131754   5.050   0.113   1.598
10285SOL    HW231755   4.909   0.085   1.674
10286SOL     OW31756   3.248   1.842   3.767
10286SOL    HW131757   3.161   1.795   3.752
10286SOL    HW231758   3.270   1.842   3.864
10287SOL     OW31759   1.740   6.924   2.276
10287SOL    HW131760   1.717   7.002   2.218
10287SOL    HW231761   1.747   6.841   2.221
10288SOL     OW31762   4.732   6.081   2.226
10288SOL    HW131763   4.792   6.034   2.163
10288SOL    HW231764   4.637   6.057   2.207
10289SOL     OW31765   3.491   0.866   1.202
10289SOL    HW131766   3.426   0.930   1.241
10289SOL    HW231767   3.525   0.902   1.115
10290SOL     OW31768   3.679   3.943   2.775
10290SOL    HW131769   3.713   4.017   2.833
10290SOL    HW231770   3.586   3.920   2.802
10291SOL     OW31771   4.063   0.236   3.837
10291SOL    HW131772   4.088   0.140   3.848
10291SOL    HW231773   3.981   0.256   3.892
10292SOL     OW31774   0.880   1.977   4.599
10292SOL    HW131775   0.790   1.960   4.639
10292SOL    HW231776   0.887   1.928   4.512
10293SOL     OW31777   1.799   5.844   2.876
10293SOL    HW131778   1.774   5.934   2.910
10293SOL    HW231779   1.850   5.795   2.946
10294SOL     OW31780   4.836   3.097   3.559
10294SOL    HW131781   4.867   3.192   3.555
10294SOL    HW231782   4.816   3.071   3.653
10295SOL     OW31783   5.875   4.703   5.384
10295SOL    HW131784   5.840   4.640   5.453
10295SOL    HW231785   5.839   4.794   5.401
10296SOL     OW31786   5.272   4.461   6.392
10296SOL    HW131787   5.311   4.380   6.436
10296SOL    HW231788   5.215   4.432   6.315
10297SOL     OW31789   2.458   6.515   4.535
10297SOL    HW131790   2.412   6.570   4.606
10297SOL    HW231791   2.391   6.453   4.494
10298SOL     OW31792   4.302   4.718   3.351
10298SOL    HW131793   4.389   4.767   3.355
10298SOL    HW231794   4.232   4.777   3.313
10299SOL     OW31795   4.196   4.968   3.247
10299SOL    HW131796   4.242   5.040   3.299
10299SOL    HW231797   4.249   4.948   3.165
10300SOL     OW31798   1.558   4.305   2.128
10300SOL    HW131799   1.626   4.377   2.136
10300SOL    HW231800   1.484   4.321   2.193
10301SOL     OW31801   5.683   2.294   2.501
10301SOL    HW131802   5.620   2.268   2.574
10301SOL    HW231803   5.643   2.369   2.448
10302SOL     OW31804   1.389   5.994   3.256
10302SOL    HW131805   1.408   6.080   3.302
10302SOL    HW231806   1.422   6.000   3.161
10303SOL     OW31807   4.134   4.424   0.950
10303SOL    HW131808   4.045   4.423   0.995
10303SOL    HW231809   4.173   4.331   0.953
10304SOL     OW31810   5.934   0.787   3.708
10304SOL    HW131811   5.857   0.777   3.644
10304SOL    HW231812   5.916   0.864   3.769
10305SOL     OW31813   1.147   6.037   6.860
10305SOL    HW131814   1.048   6.042   6.854
10305SOL    HW231815   1.176   6.056   6.954
10306SOL     OW31816   4.567   5.750   6.626
10306SOL    HW131817   4.635   5.693   6.579
10306SOL    HW231818   4.493   5.691   6.660
10307SOL     OW31819   2.002   1.823   5.468
10307SOL    HW131820   1.925   1.767   5.496
10307SOL    HW231821   1.995   1.843   5.370
10308SOL     OW31822   3.169   5.077   4.515
10308SOL    HW131823   3.182   5.116   4.606
10308SOL    HW231824   3.096   5.008   4.519
10309SOL     OW31825   6.288   0.197   3.599
10309SOL    HW131826   6.386   0.189   3.618
10309SOL    HW231827   6.241   0.116   3.634
10310SOL     OW31828   3.138   3.724   1.368
10310SOL    HW131829   3.149   3.744   1.270
10310SOL    HW231830   3.142   3.809   1.420
10311SOL     OW31831   0.414   5.655   1.330
10311SOL    HW131832   0.409   5.661   1.230
10311SOL    HW231833   0.406   5.559   1.357
10312SOL     OW31834   3.661   5.331   1.157
10312SOL    HW131835   3.688   5.377   1.242
10312SOL    HW231836   3.739   5.277   1.123
10313SOL     OW31837   3.831   6.914   2.237
10313SOL    HW131838   3.796   6.820   2.244
10313SOL    HW231839   3.803   6.965   2.318
10314SOL     OW31840   6.340   0.861   1.192
10314SOL    HW131841   6.264   0.844   1.254
10314SOL    HW231842   6.305   0.895   1.104
10315SOL     OW31843   6.772   6.415   4.852
10315SOL    HW131844   6.846   6.416   4.785
10315SOL    HW231845   6.744   6.509   4.873
10316SOL     OW31846   6.822   3.005   4.359
10316SOL    HW131847   6.874   3.029   4.277
10316SOL    HW231848   6.806   3.086   4.414
10317SOL     OW31849   3.933   4.662   6.275
10317SOL    HW131850   3.911   4.751   6.235
10317SOL    HW231851   3.864   4.595   6.246
10318SOL     OW31852   6.175   5.654   1.655
10318SOL    HW131853   6.260   5.695   1.623
10318SOL    HW231854   6.155   5.572   1.602
10319SOL     OW31855   0.589   4.917   4.760
10319SOL    HW131856   0.639   4.944   4.842
10319SOL    HW231857   0.648   4.926   4.680
10320SOL     OW31858   0.827   0.845   0.703
10320SOL    HW131859   0.871   0.935   0.709
10320SOL    HW231860   0.731   0.854   0.730
10321SOL     OW31861   4.198   6.362   4.462
10321SOL    HW131862   4.216   6.276   4.413
10321SOL    HW231863   4.139   6.420   4.405
10322SOL     OW31864   6.745   5.924   0.393
10322SOL    HW131865   6.822   5.882   0.344
10322SOL    HW231866   6.706   5.997   0.336
10323SOL     OW31867   6.542   3.063   6.518
10323SOL    HW131868   6.504   3.052   6.610
10323SOL    HW231869   6.468   3.078   6.453
10324SOL     OW31870   3.169   3.269   3.570
10324SOL    HW131871   3.152   3.184   3.520
10324SOL    HW231872   3.086   3.323   3.573
10325SOL     OW31873   6.752   4.526   4.210
10325SOL    HW131874   6.816   4.568   4.274
10325SOL    HW231875   6.663   4.571   4.217
10326SOL     OW31876   4.800   2.569   6.797
10326SOL    HW131877   4.790   2.665   6.771
10326SOL    HW231878   4.886   2.556   6.846
10327SOL     OW31879   2.224   1.540   3.123
10327SOL    HW131880   2.187   1.603   3.191
10327SOL    HW231881   2.309   1.577   3.087
10328SOL     OW31882   5.700   3.921   1.981
10328SOL    HW131883   5.784   3.878   2.012
10328SOL    HW231884   5.628   3.907   2.049
10329SOL     OW31885   2.336   0.505   3.859
10329SOL    HW131886   2.342   0.604   3.876
10329SOL    HW231887   2.426   0.471   3.831
10330SOL     OW31888   3.402   5.131   3.357
10330SOL    HW131889   3.432   5.159   3.266
10330SOL    HW231890   3.400   5.211   3.417
10331SOL     OW31891   5.837   0.933   2.854
10331SOL    HW131892   5.859   0.835   2.858
10331SOL    HW231893   5.808   0.957   2.762
10332SOL     OW31894   6.922   2.267   0.693
10332SOL    HW131895   6.902   2.183   0.744
10332SOL    HW231896   6.850   2.283   0.626
10333SOL     OW31897   5.845   4.414   4.011
10333SOL    HW131898   5.860   4.458   3.922
10333SOL    HW231899   5.929   4.367   4.039
10334SOL     OW31900   2.279   5.590   3.804
10334SOL    HW131901   2.372   5.556   3.789
10334SOL    HW231902   2.249   5.641   3.723
10335SOL     OW31903   1.846   4.459   6.788
10335SOL    HW131904   1.941   4.439   6.813
10335SOL    HW231905   1.822   4.550   6.822
10336SOL     OW31906   4.715   6.378   2.805
10336SOL    HW131907   4.790   6.363   2.740
10336SOL    HW231908   4.729   6.323   2.886
10337SOL     OW31909   6.887   5.177   5.333
10337SOL    HW131910   6.977   5.199   5.296
10337SOL    HW231911   6.823   5.158   5.258
10338SOL     OW31912   3.285   6.784   0.838
10338SOL    HW131913   3.310   6.849   0.767
10338SOL    HW231914   3.292   6.827   0.927
10339SOL     OW31915   3.935   5.141   0.655
10339SOL    HW131916   3.953   5.044   0.672
10339SOL    HW231917   3.885   5.180   0.733
10340SOL     OW31918   1.771   5.921   6.743
10340SOL    HW131919   1.716   6.003   6.725
10340SOL    HW231920   1.711   5.843   6.760
10341SOL     OW31921   2.268   2.710   1.924
10341SOL    HW131922   2.331   2.727   1.848
10341SOL    HW231923   2.225   2.620   1.913
10342SOL     OW31924   2.002   6.357   6.237
10342SOL    HW131925   1.974   6.323   6.147
10342SOL    HW231926   2.073   6.297   6.274
10343SOL     OW31927   2.007   3.957   0.035
10343SOL    HW131928   2.069   3.940   6.982
10343SOL    HW231929   1.943   4.030   0.011
10344SOL     OW31930   4.089   3.664   4.082
10344SOL    HW131931   4.061   3.731   4.014
10344SOL    HW231932   4.094   3.573   4.040
10345SOL     OW31933   1.933   1.530   6.602
10345SOL    HW131934   1.880   1.560   6.682
10345SOL    HW231935   1.971   1.439   6.619
10346SOL     OW31936   5.774   0.176   0.923
10346SOL    HW131937   5.854   0.175   0.863
10346SOL    HW231938   5.797   0.220   1.009
10347SOL     OW31939   4.923   1.453   0.732
10347SOL    HW131940   4.898   1.411   0.819
10347SOL    HW231941   4.845   1.449   0.669
10348SOL     OW31942   6.604   0.293   6.212
10348SOL    HW131943   6.698   0.258   6.213
10348SOL    HW231944   6.574   0.312   6.305
10349SOL     OW31945   5.829   0.320   1.136
10349SOL    HW131946   5.846   0.419   1.136
10349SOL    HW231947   5.907   0.273   1.177
10350SOL     OW31948   3.308   5.894   4.809
10350SOL    HW131949   3.339   5.824   4.874
10350SOL    HW231950   3.363   5.977   4.820
10351SOL     OW31951   6.319   4.689   5.356
10351SOL    HW131952   6.415   4.716   5.349
10351SOL    HW231953   6.272   4.749   5.421
10352SOL     OW31954   5.349   2.343   6.417
10352SOL    HW131955   5.321   2.379   6.505
10352SOL    HW231956   5.277   2.359   6.349
10353SOL     OW31957   0.474   2.853   3.704
10353SOL    HW131958   0.423   2.783   3.755
10353SOL    HW231959   0.409   2.911   3.654
10354SOL     OW31960   0.766   4.325   1.033
10354SOL    HW131961   0.704   4.248   1.016
10354SOL    HW231962   0.765   4.346   1.131
10355SOL     OW31963   1.154   1.556   1.444
10355SOL    HW131964   1.125   1.461   1.461
10355SOL    HW231965   1.164   1.603   1.531
10356SOL     OW31966   0.269   3.117   0.055
10356SOL    HW131967   0.257   3.054   0.131
10356SOL    HW231968   0.205   3.193   0.064
10357SOL     OW31969   1.754   2.333   6.329
10357SOL    HW131970   1.738   2.274   6.408
10357SOL    HW231971   1.852   2.354   6.323
10358SOL     OW31972   1.983   2.793   2.573
10358SOL    HW131973   1.915   2.779   2.646
10358SOL    HW231974   2.054   2.722   2.580
10359SOL     OW31975   4.762   2.626   2.062
10359SOL    HW131976   4.744   2.610   1.965
10359SOL    HW231977   4.793   2.721   2.075
10360SOL     OW31978   5.471   4.957   2.951
10360SOL    HW131979   5.455   4.899   2.870
10360SOL    HW231980   5.423   4.917   3.029
10361SOL     OW31981   2.275   1.110   1.596
10361SOL    HW131982   2.292   1.205   1.622
10361SOL    HW231983   2.255   1.056   1.677
10362SOL     OW31984   0.166   4.925   2.315
10362SOL    HW131985   0.213   5.009   2.340
10362SOL    HW231986   0.087   4.947   2.258
10363SOL     OW31987   4.250   2.886   0.015
10363SOL    HW131988   4.349   2.881   0.006
10363SOL    HW231989   4.208   2.810   6.989
10364SOL     OW31990   5.545   5.405   0.838
10364SOL    HW131991   5.500   5.469   0.900
10364SOL    HW231992   5.564   5.319   0.886
10365SOL     OW31993   5.961   5.098   0.105
10365SOL    HW131994   6.004   5.168   0.162
10365SOL    HW231995   5.950   5.014   0.159
10366SOL     OW31996   4.444   0.145   3.662
10366SOL    HW131997   4.430   0.092   3.578
10366SOL    HW231998   4.520   0.210   3.648
10367SOL     OW31999   6.598   2.194   2.190
10367SOL    HW132000   6.622   2.114   2.246
10367SOL    HW232001   6.562   2.266   2.250
10368SOL     OW32002   2.847   0.924   2.078
10368SOL    HW132003   2.774   0.953   2.016
10368SOL    HW232004   2.885   1.005   2.124
10369SOL     OW32005   2.605   6.632   5.830
10369SOL    HW132006   2.574   6.722   5.798
10369SOL    HW232007   2.530   6.567   5.825
10370SOL     OW32008   6.179   1.513   4.505
10370SOL    HW132009   6.212   1.508   4.411
10370SOL    HW232010   6.169   1.609   4.532
10371SOL     OW32011   3.290   6.612   3.510
10371SOL    HW132012   3.378   6.652   3.535
10371SOL    HW232013   3.305   6.520   3.473
10372SOL     OW32014   2.879   0.964   1.430
10372SOL    HW132015   2.788   0.964   1.389
10372SOL    HW232016   2.874   0.927   1.523
10373SOL     OW32017   0.434   6.913   4.732
10373SOL    HW132018   0.391   6.919   4.642
10373SOL    HW232019   0.482   6.999   4.751
10374SOL     OW32020   2.497   6.902   4.555
10374SOL    HW132021   2.403   6.907   4.523
10374SOL    HW232022   2.559   6.905   4.476
10375SOL     OW32023   3.052   1.580   6.402
10375SOL    HW132024   2.963   1.605   6.439
10375SOL    HW232025   3.065   1.624   6.313
10376SOL     OW32026   1.788   6.354   3.551
10376SOL    HW132027   1.703   6.367   3.602
10376SOL    HW232028   1.860   6.412   3.590
10377SOL     OW32029   0.531   2.032   1.788
10377SOL    HW132030   0.594   2.073   1.722
10377SOL    HW232031   0.442   2.016   1.744
10378SOL     OW32032   0.171   5.707   5.928
10378SOL    HW132033   0.139   5.760   6.007
10378SOL    HW232034   0.194   5.770   5.853
10379SOL     OW32035   3.008   6.077   4.148
10379SOL    HW132036   3.058   5.991   4.153
10379SOL    HW232037   2.978   6.094   4.054
10380SOL     OW32038   1.127   1.703   4.915
10380SOL    HW132039   1.087   1.763   4.984
10380SOL    HW232040   1.155   1.758   4.836
10381SOL     OW32041   3.772   4.340   0.775
10381SOL    HW132042   3.842   4.277   0.741
10381SOL    HW232043   3.682   4.311   0.743
10382SOL     OW32044   3.248   6.033   1.731
10382SOL    HW132045   3.328   5.989   1.771
10382SOL    HW232046   3.165   5.997   1.773
10383SOL     OW32047   1.895   3.892   0.861
10383SOL    HW132048   1.992   3.909   0.840
10383SOL    HW232049   1.869   3.802   0.826
10384SOL     OW32050   6.353   6.277   1.140
10384SOL    HW132051   6.281   6.207   1.145
10384SOL    HW232052   6.440   6.237   1.167
10385SOL     OW32053   3.809   5.527   5.778
10385SOL    HW132054   3.764   5.583   5.708
10385SOL    HW232055   3.754   5.525   5.861
10386SOL     OW32056   0.383   0.717   5.686
10386SOL    HW132057   0.371   0.625   5.724
10386SOL    HW232058   0.303   0.773   5.709
10387SOL     OW32059   5.305   2.800   3.217
10387SOL    HW132060   5.323   2.727   3.151
10387SOL    HW232061   5.207   2.814   3.225
10388SOL     OW32062   2.740   6.896   0.725
10388SOL    HW132063   2.729   6.874   0.628
10388SOL    HW232064   2.769   6.814   0.775
10389SOL     OW32065   5.442   3.549   0.002
10389SOL    HW132066   5.357   3.501   0.024
10389SOL    HW232067   5.422   3.646   7.010
10390SOL     OW32068   1.496   2.440   0.530
10390SOL    HW132069   1.534   2.352   0.501
10390SOL    HW232070   1.523   2.459   0.624
10391SOL     OW32071   1.727   6.225   4.009
10391SOL    HW132072   1.721   6.145   3.950
10391SOL    HW232073   1.788   6.293   3.967
10392SOL     OW32074   5.920   4.978   5.540
10392SOL    HW132075   5.866   4.949   5.619
10392SOL    HW232076   5.887   5.067   5.509
10393SOL     OW32077   1.720   3.838   3.772
10393SOL    HW132078   1.650   3.786   3.821
10393SOL    HW232079   1.751   3.914   3.829
10394SOL     OW32080   2.612   6.015   4.362
10394SOL    HW132081   2.526   6.058   4.335
10394SOL    HW232082   2.656   5.974   4.282
10395SOL     OW32083   0.295   6.376   1.466
10395SOL    HW132084   0.243   6.428   1.533
10395SOL    HW232085   0.302   6.428   1.381
10396SOL     OW32086   3.889   1.846   3.686
10396SOL    HW132087   3.904   1.848   3.587
10396SOL    HW232088   3.834   1.765   3.710
10397SOL     OW32089   3.426   1.466   3.741
10397SOL    HW132090   3.442   1.556   3.780
10397SOL    HW232091   3.486   1.399   3.785
10398SOL     OW32092   5.701   2.252   0.851
10398SOL    HW132093   5.777   2.309   0.883
10398SOL    HW232094   5.669   2.194   0.927
10399SOL     OW32095   5.132   2.129   3.501
10399SOL    HW132096   5.042   2.173   3.512
10399SOL    HW232097   5.199   2.197   3.475
10400SOL     OW32098   4.597   6.263   0.245
10400SOL    HW132099   4.514   6.291   0.294
10400SOL    HW232100   4.649   6.200   0.303
10401SOL     OW32101   6.367   6.661   2.675
10401SOL    HW132102   6.455   6.624   2.703
10401SOL    HW232103   6.379   6.722   2.598
10402SOL     OW32104   6.501   2.414   5.290
10402SOL    HW132105   6.472   2.397   5.196
10402SOL    HW232106   6.497   2.513   5.308
10403SOL     OW32107   5.074   1.357   3.478
10403SOL    HW132108   5.123   1.429   3.529
10403SOL    HW232109   4.983   1.390   3.454
10404SOL     OW32110   6.191   6.270   4.660
10404SOL    HW132111   6.163   6.356   4.702
10404SOL    HW232112   6.281   6.280   4.619
10405SOL     OW32113   0.902   0.190   5.319
10405SOL    HW132114   0.841   0.245   5.262
10405SOL    HW232115   0.962   0.251   5.371
10406SOL     OW32116   2.537   4.657   3.417
10406SOL    HW132117   2.540   4.736   3.356
10406SOL    HW232118   2.600   4.670   3.494
10407SOL     OW32119   2.585   6.417   6.170
10407SOL    HW132120   2.534   6.489   6.125
10407SOL    HW232121   2.553   6.407   6.264
10408SOL     OW32122   4.403   0.355   1.848
10408SOL    HW132123   4.353   0.362   1.934
10408SOL    HW232124   4.494   0.317   1.865
10409SOL     OW32125   0.451   4.457   1.138
10409SOL    HW132126   0.471   4.361   1.155
10409SOL    HW232127   0.392   4.466   1.058
10410SOL     OW32128   5.266   2.117   1.450
10410SOL    HW132129   5.345   2.097   1.392
10410SOL    HW232130   5.291   2.188   1.517
10411SOL     OW32131   3.381   6.390   3.298
10411SOL    HW132132   3.347   6.297   3.308
10411SOL    HW232133   3.473   6.396   3.336
10412SOL     OW32134   0.282   0.941   0.148
10412SOL    HW132135   0.193   0.980   0.127
10412SOL    HW232136   0.311   0.883   0.071
10413SOL     OW32137   7.022   3.161   0.632
10413SOL    HW132138   6.957   3.163   0.556
10413SOL    HW232139   6.983   3.107   0.707
10414SOL     OW32140   3.774   4.550   5.865
10414SOL    HW132141   3.825   4.616   5.920
10414SOL    HW232142   3.743   4.475   5.922
10415SOL     OW32143   1.682   3.598   4.648
10415SOL    HW132144   1.725   3.611   4.558
10415SOL    HW232145   1.753   3.581   4.716
10416SOL     OW32146   6.086   0.452   4.959
10416SOL    HW132147   6.093   0.454   4.859
10416SOL    HW232148   6.054   0.541   4.991
10417SOL     OW32149   3.041   5.546   4.624
10417SOL    HW132150   3.047   5.459   4.673
10417SOL    HW232151   3.075   5.534   4.531
10418SOL     OW32152   0.171   4.235   6.779
10418SOL    HW132153   0.220   4.283   6.852
10418SOL    HW232154   0.097   4.293   6.745
10419SOL     OW32155   2.195   0.039   6.304
10419SOL    HW132156   2.139   7.013   6.239
10419SOL    HW232157   2.292   0.021   6.284
10420SOL     OW32158   0.261   3.751   3.630
10420SOL    HW132159   0.221   3.733   3.541
10420SOL    HW232160   0.198   3.807   3.685
10421SOL     OW32161   0.422   2.010   3.708
10421SOL    HW132162   0.418   1.969   3.617
10421SOL    HW232163   0.330   2.018   3.745
10422SOL     OW32164   6.619   3.263   5.283
10422SOL    HW132165   6.586   3.169   5.269
10422SOL    HW232166   6.627   3.309   5.195
10423SOL     OW32167   6.525   5.804   5.074
10423SOL    HW132168   6.604   5.744   5.083
10423SOL    HW232169   6.503   5.816   4.977
10424SOL     OW32170   4.919   3.146   0.526
10424SOL    HW132171   4.842   3.083   0.541
10424SOL    HW232172   4.920   3.174   0.430
10425SOL     OW32173   0.847   0.576   1.801
10425SOL    HW132174   0.866   0.665   1.843
10425SOL    HW232175   0.773   0.531   1.851
10426SOL     OW32176   6.100   4.841   0.646
10426SOL    HW132177   6.185   4.789   0.641
10426SOL    HW232178   6.091   4.882   0.737
10427SOL     OW32179   3.835   0.499   6.427
10427SOL    HW132180   3.839   0.435   6.351
10427SOL    HW232181   3.751   0.483   6.480
10428SOL     OW32182   3.711   0.865   3.631
10428SOL    HW132183   3.713   0.771   3.665
10428SOL    HW232184   3.638   0.915   3.677
10429SOL     OW32185   6.937   4.997   0.881
10429SOL    HW132186   6.916   4.964   0.973
10429SOL    HW232187   7.017   5.057   0.883
10430SOL     OW32188   5.218   0.081   4.335
10430SOL    HW132189   5.248   0.052   4.426
10430SOL    HW232190   5.294   0.073   4.270
10431SOL     OW32191   3.488   6.170   4.089
10431SOL    HW132192   3.409   6.130   4.043
10431SOL    HW232193   3.570   6.116   4.068
10432SOL     OW32194   5.589   6.838   4.915
10432SOL    HW132195   5.631   6.929   4.911
10432SOL    HW232196   5.553   6.813   4.825
10433SOL     OW32197   1.556   6.456   1.453
10433SOL    HW132198   1.470   6.491   1.416
10433SOL    HW232199   1.587   6.515   1.527
10434SOL     OW32200   4.128   6.748   3.280
10434SOL    HW132201   4.200   6.801   3.235
10434SOL    HW232202   4.151   6.737   3.377
10435SOL     OW32203   6.718   0.261   4.833
10435SOL    HW132204   6.787   0.192   4.853
10435SOL    HW232205   6.761   0.352   4.833
10436SOL     OW32206   0.849   5.182   5.792
10436SOL    HW132207   0.918   5.134   5.846
10436SOL    HW232208   0.804   5.118   5.730
10437SOL     OW32209   5.455   5.034   5.675
10437SOL    HW132210   5.527   5.071   5.617
10437SOL    HW232211   5.399   5.109   5.711
10438SOL     OW32212   6.306   6.764   0.506
10438SOL    HW132213   6.271   6.772   0.599
10438SOL    HW232214   6.398   6.805   0.501
10439SOL     OW32215   4.582   1.019   6.004
10439SOL    HW132216   4.618   1.011   6.097
10439SOL    HW232217   4.497   1.072   6.005
10440SOL     OW32218   1.158   6.837   0.747
10440SOL    HW132219   1.207   6.816   0.662
10440SOL    HW232220   1.163   6.936   0.764
10441SOL     OW32221   3.899   0.367   0.898
10441SOL    HW132222   3.963   0.325   0.834
10441SOL    HW232223   3.810   0.321   0.890
10442SOL     OW32224   2.976   6.275   5.985
10442SOL    HW132225   2.935   6.264   6.076
10442SOL    HW232226   3.075   6.281   5.993
10443SOL     OW32227   5.141   3.836   4.611
10443SOL    HW132228   5.052   3.880   4.600
10443SOL    HW232229   5.181   3.818   4.521
10444SOL     OW32230   3.539   5.894   4.956
10444SOL    HW132231   3.532   5.967   5.024
10444SOL    HW232232   3.599   5.923   4.882
10445SOL     OW32233   0.656   5.351   4.805
10445SOL    HW132234   0.747   5.328   4.772
10445SOL    HW232235   0.621   5.431   4.758
10446SOL     OW32236   1.359   3.002   5.061
10446SOL    HW132237   1.263   2.997   5.089
10446SOL    HW232238   1.397   3.090   5.089
10447SOL     OW32239   6.963   1.250   1.958
10447SOL    HW132240   7.023   1.301   1.897
10447SOL    HW232241   6.976   1.282   2.052
10448SOL     OW32242   3.608   1.241   2.064
10448SOL    HW132243   3.613   1.148   2.101
10448SOL    HW232244   3.517   1.279   2.079
10449SOL     OW32245   2.051   5.674   4.801
10449SOL    HW132246   1.978   5.612   4.772
10449SOL    HW232247   2.037   5.700   4.897
10450SOL     OW32248   0.565   2.283   0.402
10450SOL    HW132249   0.633   2.309   0.333
10450SOL    HW232250   0.491   2.233   0.358
10451SOL     OW32251   1.857   5.208   2.645
10451SOL    HW132252   1.929   5.239   2.583
10451SOL    HW232253   1.789   5.281   2.656
10452SOL     OW32254   6.364   4.077   2.682
10452SOL    HW132255   6.426   4.093   2.759
10452SOL    HW232256   6.299   4.005   2.706
10453SOL     OW32257   4.040   5.520   1.612
10453SOL    HW132258   4.128   5.554   1.646
10453SOL    HW232259   3.979   5.597   1.595
10454SOL     OW32260   4.629   3.314   0.750
10454SOL    HW132261   4.650   3.239   0.813
10454SOL    HW232262   4.530   3.324   0.743
10455SOL     OW32263   6.859   5.339   2.642
10455SOL    HW132264   6.807   5.256   2.663
10455SOL    HW232265   6.798   5.408   2.603
10456SOL     OW32266   3.186   6.079   0.905
10456SOL    HW132267   3.271   6.079   0.958
10456SOL    HW232268   3.108   6.077   0.966
10457SOL     OW32269   3.310   3.717   1.952
10457SOL    HW132270   3.317   3.714   1.852
10457SOL    HW232271   3.215   3.737   1.977
10458SOL     OW32272   0.209   0.903   5.766
10458SOL    HW132273   0.132   0.946   5.718
10458SOL    HW232274   0.199   0.918   5.864
10459SOL     OW32275   4.625   5.639   2.447
10459SOL    HW132276   4.718   5.601   2.442
10459SOL    HW232277   4.558   5.567   2.433
10460SOL     OW32278   1.506   5.127   1.263
10460SOL    HW132279   1.579   5.189   1.293
10460SOL    HW232280   1.476   5.152   1.171
10461SOL     OW32281   1.437   5.207   5.365
10461SOL    HW132282   1.503   5.277   5.391
10461SOL    HW232283   1.351   5.223   5.412
10462SOL     OW32284   6.155   1.396   3.311
10462SOL    HW132285   6.188   1.308   3.344
10462SOL    HW232286   6.117   1.448   3.388
10463SOL     OW32287   3.632   3.197   5.610
10463SOL    HW132288   3.575   3.195   5.528
10463SOL    HW232289   3.726   3.218   5.584
10464SOL     OW32290   5.832   6.382   1.250
10464SOL    HW132291   5.829   6.465   1.195
10464SOL    HW232292   5.927   6.353   1.262
10465SOL     OW32293   6.566   6.396   1.585
10465SOL    HW132294   6.562   6.374   1.683
10465SOL    HW232295   6.483   6.365   1.540
10466SOL     OW32296   4.842   4.778   5.368
10466SOL    HW132297   4.855   4.854   5.305
10466SOL    HW232298   4.899   4.792   5.449
10467SOL     OW32299   1.175   2.074   5.382
10467SOL    HW132300   1.238   2.115   5.448
10467SOL    HW232301   1.206   1.981   5.360
10468SOL     OW32302   3.855   4.981   3.011
10468SOL    HW132303   3.936   4.955   2.958
10468SOL    HW232304   3.861   4.939   3.102
10469SOL     OW32305   3.693   2.587   6.255
10469SOL    HW132306   3.612   2.638   6.226
10469SOL    HW232307   3.751   2.646   6.312
10470SOL     OW32308   2.987   1.849   3.007
10470SOL    HW132309   3.079   1.886   3.011
10470SOL    HW232310   2.984   1.773   2.943
10471SOL     OW32311   2.328   2.826   0.993
10471SOL    HW132312   2.415   2.812   0.945
10471SOL    HW232313   2.268   2.748   0.977
10472SOL     OW32314   2.754   5.421   1.154
10472SOL    HW132315   2.821   5.352   1.126
10472SOL    HW232316   2.801   5.508   1.171
10473SOL     OW32317   5.745   0.880   0.216
10473SOL    HW132318   5.660   0.830   0.198
10473SOL    HW232319   5.820   0.839   0.164
10474SOL     OW32320   4.743   1.520   4.990
10474SOL    HW132321   4.733   1.619   4.995
10474SOL    HW232322   4.800   1.488   5.066
10475SOL     OW32323   4.551   6.603   2.807
10475SOL    HW132324   4.485   6.639   2.741
10475SOL    HW232325   4.588   6.517   2.774
10476SOL     OW32326   6.879   5.997   6.726
10476SOL    HW132327   6.805   5.937   6.754
10476SOL    HW232328   6.883   6.076   6.787
10477SOL     OW32329   6.390   1.892   4.424
10477SOL    HW132330   6.377   1.928   4.517
10477SOL    HW232331   6.339   1.949   4.359
10478SOL     OW32332   0.318   0.671   1.178
10478SOL    HW132333   0.294   0.579   1.146
10478SOL    HW232334   0.377   0.664   1.258
10479SOL     OW32335   0.442   3.008   1.828
10479SOL    HW132336   0.540   2.995   1.813
10479SOL    HW232337   0.418   2.978   1.920
10480SOL     OW32338   5.725   0.432   1.547
10480SOL    HW132339   5.691   0.526   1.549
10480SOL    HW232340   5.695   0.388   1.462
10481SOL     OW32341   2.479   0.578   4.441
10481SOL    HW132342   2.538   0.641   4.491
10481SOL    HW232343   2.456   0.617   4.352
10482SOL     OW32344   0.736   5.644   5.030
10482SOL    HW132345   0.773   5.556   5.061
10482SOL    HW232346   0.661   5.629   4.966
10483SOL     OW32347   7.008   5.876   0.628
10483SOL    HW132348   6.928   5.819   0.610
10483SOL    HW232349   7.018   5.944   0.555
10484SOL     OW32350   5.888   0.801   1.358
10484SOL    HW132351   5.966   0.782   1.417
10484SOL    HW232352   5.892   0.896   1.326
10485SOL     OW32353   3.591   3.068   2.319
10485SOL    HW132354   3.530   2.992   2.295
10485SOL    HW232355   3.676   3.060   2.268
10486SOL     OW32356   6.495   0.564   5.907
10486SOL    HW132357   6.540   0.510   5.978
10486SOL    HW232358   6.415   0.610   5.945
10487SOL     OW32359   4.670   2.117   0.865
10487SOL    HW132360   4.664   2.040   0.929
10487SOL    HW232361   4.601   2.186   0.890
10488SOL     OW32362   1.814   2.008   6.190
10488SOL    HW132363   1.731   1.955   6.206
10488SOL    HW232364   1.811   2.049   6.099
10489SOL     OW32365   6.355   6.416   4.335
10489SOL    HW132366   6.452   6.430   4.359
10489SOL    HW232367   6.332   6.320   4.345
10490SOL     OW32368   5.689   1.457   0.543
10490SOL    HW132369   5.643   1.373   0.574
10490SOL    HW232370   5.738   1.499   0.619
10491SOL     OW32371   2.183   2.254   6.073
10491SOL    HW132372   2.165   2.174   6.017
10491SOL    HW232373   2.190   2.335   6.014
10492SOL     OW32374   4.532   5.566   1.181
10492SOL    HW132375   4.486   5.654   1.194
10492SOL    HW232376   4.465   5.492   1.185
10493SOL     OW32377   2.872   6.168   1.353
10493SOL    HW132378   2.847   6.238   1.420
10493SOL    HW232379   2.801   6.097   1.350
10494SOL     OW32380   6.362   4.262   5.726
10494SOL    HW132381   6.392   4.357   5.716
10494SOL    HW232382   6.287   4.243   5.663
10495SOL     OW32383   6.786   0.356   0.456
10495SOL    HW132384   6.717   0.288   0.432
10495SOL    HW232385   6.743   0.446   0.460
10496SOL     OW32386   6.520   4.613   4.958
10496SOL    HW132387   6.594   4.597   4.892
10496SOL    HW232388   6.528   4.546   5.033
10497SOL     OW32389   1.117   6.760   2.192
10497SOL    HW132390   1.117   6.675   2.246
10497SOL    HW232391   1.142   6.837   2.251
10498SOL     OW32392   5.992   6.153   1.010
10498SOL    HW132393   5.904   6.157   1.057
10498SOL    HW232394   6.064   6.127   1.074
10499SOL     OW32395   4.784   6.458   1.307
10499SOL    HW132396   4.881   6.475   1.290
10499SOL    HW232397   4.767   6.459   1.406
10500SOL     OW32398   5.715   2.280   5.808
10500SOL    HW132399   5.625   2.295   5.768
10500SOL    HW232400   5.765   2.212   5.755
10501SOL     OW32401   2.086   6.029   2.853
10501SOL    HW132402   2.049   6.108   2.805
10501SOL    HW232403   2.065   5.946   2.802
10502SOL     OW32404   2.935   3.918   0.843
10502SOL    HW132405   3.013   3.916   0.906
10502SOL    HW232406   2.966   3.896   0.751
10503SOL     OW32407   5.576   4.308   0.306
10503SOL    HW132408   5.606   4.213   0.293
10503SOL    HW232409   5.478   4.315   0.291
10504SOL     OW32410   0.273   2.336   5.225
10504SOL    HW132411   0.237   2.400   5.158
10504SOL    HW232412   0.367   2.361   5.248
10505SOL     OW32413   5.435   6.589   1.618
10505SOL    HW132414   5.481   6.639   1.691
10505SOL    HW232415   5.502   6.555   1.553
10506SOL     OW32416   0.397   3.528   0.428
10506SOL    HW132417   0.433   3.561   0.515
10506SOL    HW232418   0.306   3.489   0.442
10507SOL     OW32419   2.221   5.383   6.869
10507SOL    HW132420   2.158   5.403   6.794
10507SOL    HW232421   2.308   5.429   6.853
10508SOL     OW32422   0.984   5.365   4.207
10508SOL    HW132423   0.907   5.419   4.241
10508SOL    HW232424   0.974   5.351   4.108
10509SOL     OW32425   6.129   4.581   4.722
10509SOL    HW132426   6.112   4.484   4.703
10509SOL    HW232427   6.164   4.591   4.815
10510SOL     OW32428   4.770   6.486   0.476
10510SOL    HW132429   4.680   6.528   0.486
10510SOL    HW232430   4.760   6.387   0.466
10511SOL     OW32431   3.090   1.845   1.744
10511SOL    HW132432   3.003   1.888   1.768
10511SOL    HW232433   3.078   1.789   1.662
10512SOL     OW32434   4.065   6.927   5.788
10512SOL    HW132435   4.066   6.889   5.695
10512SOL    HW232436   4.047   6.853   5.853
10513SOL     OW32437   6.403   2.871   3.127
10513SOL    HW132438   6.350   2.941   3.081
10513SOL    HW232439   6.393   2.881   3.226
10514SOL     OW32440   1.311   1.880   1.855
10514SOL    HW132441   1.322   1.938   1.774
10514SOL    HW232442   1.395   1.881   1.909
10515SOL     OW32443   2.112   3.084   4.123
10515SOL    HW132444   2.098   3.176   4.087
10515SOL    HW232445   2.173   3.088   4.202
10516SOL     OW32446   2.580   1.786   0.272
10516SOL    HW132447   2.658   1.847   0.255
10516SOL    HW232448   2.528   1.774   0.188
10517SOL     OW32449   1.412   4.482   1.293
10517SOL    HW132450   1.464   4.495   1.378
10517SOL    HW232451   1.419   4.387   1.264
10518SOL     OW32452   0.026   5.935   1.807
10518SOL    HW132453   0.070   5.874   1.741
10518SOL    HW232454   6.956   5.904   1.823
10519SOL     OW32455   2.967   4.779   0.389
10519SOL    HW132456   2.883   4.725   0.386
10519SOL    HW232457   3.006   4.786   0.297
10520SOL     OW32458   0.169   1.973   5.898
10520SOL    HW132459   0.141   2.067   5.922
10520SOL    HW232460   0.196   1.925   5.981
10521SOL     OW32461   6.430   5.244   1.416
10521SOL    HW132462   6.391   5.192   1.340
10521SOL    HW232463   6.450   5.338   1.386
10522SOL     OW32464   0.363   2.801   3.020
10522SOL    HW132465   0.416   2.759   3.094
10522SOL    HW232466   0.273   2.826   3.054
10523SOL     OW32467   0.542   4.121   2.996
10523SOL    HW132468   0.513   4.208   3.036
10523SOL    HW232469   0.628   4.133   2.947
10524SOL     OW32470   0.625   5.985   4.117
10524SOL    HW132471   0.576   6.013   4.200
10524SOL    HW232472   0.668   6.065   4.075
10525SOL     OW32473   3.956   6.955   5.122
10525SOL    HW132474   3.962   0.014   5.067
10525SOL    HW232475   4.003   6.880   5.075
10526SOL     OW32476   0.646   6.885   1.464
10526SOL    HW132477   0.581   6.810   1.451
10526SOL    HW232478   0.654   6.905   1.562
10527SOL     OW32479   0.698   0.344   6.246
10527SOL    HW132480   0.629   0.402   6.204
10527SOL    HW232481   0.789   0.378   6.222
10528SOL     OW32482   0.890   4.259   6.457
10528SOL    HW132483   0.830   4.184   6.429
10528SOL    HW232484   0.883   4.271   6.556
10529SOL     OW32485   1.976   5.762   5.075
10529SOL    HW132486   1.898   5.724   5.125
10529SOL    HW232487   2.021   5.832   5.131
10530SOL     OW32488   1.042   5.936   6.085
10530SOL    HW132489   0.952   5.949   6.042
10530SOL    HW232490   1.100   5.882   6.025
10531SOL     OW32491   2.556   2.267   4.516
10531SOL    HW132492   2.650   2.274   4.482
10531SOL    HW232493   2.503   2.208   4.455
10532SOL     OW32494   6.865   6.542   6.601
10532SOL    HW132495   6.864   6.641   6.617
10532SOL    HW232496   6.808   6.497   6.670
10533SOL     OW32497   3.234   6.460   4.265
10533SOL    HW132498   3.320   6.426   4.304
10533SOL    HW232499   3.164   6.389   4.270
10534SOL     OW32500   6.821   5.327   1.823
10534SOL    HW132501   6.833   5.287   1.732
10534SOL    HW232502   6.807   5.425   1.814
10535SOL     OW32503   1.318   1.518   2.509
10535SOL    HW132504   1.415   1.494   2.517
10535SOL    HW232505   1.268   1.478   2.586
10536SOL     OW32506   4.763   0.103   3.914
10536SOL    HW132507   4.726   0.124   4.005
10536SOL    HW232508   4.836   0.169   3.892
10537SOL     OW32509   4.904   6.595   4.093
10537SOL    HW132510   4.974   6.667   4.090
10537SOL    HW232511   4.911   6.539   4.011
10538SOL     OW32512   6.469   4.029   2.031
10538SOL    HW132513   6.430   3.970   1.961
10538SOL    HW232514   6.438   3.999   2.121
10539SOL     OW32515   6.122   5.439   1.510
10539SOL    HW132516   6.111   5.434   1.411
10539SOL    HW232517   6.130   5.347   1.548
10540SOL     OW32518   2.501   3.648   5.603
10540SOL    HW132519   2.463   3.578   5.663
10540SOL    HW232520   2.466   3.738   5.630
10541SOL     OW32521   3.864   3.194   3.941
10541SOL    HW132522   3.870   3.107   3.893
10541SOL    HW232523   3.803   3.185   4.020
10542SOL     OW32524   6.589   0.201   5.195
10542SOL    HW132525   6.686   0.220   5.183
10542SOL    HW232526   6.562   0.224   5.288
10543SOL     OW32527   1.603   1.855   4.508
10543SOL    HW132528   1.610   1.913   4.426
10543SOL    HW232529   1.674   1.882   4.573
10544SOL     OW32530   2.262   6.266   3.295
10544SOL    HW132531   2.215   6.223   3.218
10544SOL    HW232532   2.198   6.278   3.371
10545SOL     OW32533   1.040   2.085   1.670
10545SOL    HW132534   0.984   2.113   1.592
10545SOL    HW232535   1.129   2.053   1.637
10546SOL     OW32536   3.601   6.241   0.899
10546SOL    HW132537   3.610   6.214   0.803
10546SOL    HW232538   3.627   6.337   0.909
10547SOL     OW32539   4.829   1.611   4.176
10547SOL    HW132540   4.919   1.653   4.168
10547SOL    HW232541   4.838   1.512   4.183
10548SOL     OW32542   0.011   3.673   4.115
10548SOL    HW132543   6.976   3.664   4.195
10548SOL    HW232544   0.098   3.626   4.132
10549SOL     OW32545   0.451   1.614   0.723
10549SOL    HW132546   0.469   1.528   0.674
10549SOL    HW232547   0.413   1.593   0.813
10550SOL     OW32548   4.253   6.760   3.536
10550SOL    HW132549   4.340   6.802   3.508
10550SOL    HW232550   4.272   6.683   3.596
10551SOL     OW32551   2.208   2.076   6.281
10551SOL    HW132552   2.168   1.990   6.251
10551SOL    HW232553   2.201   2.143   6.207
10552SOL     OW32554   2.354   0.790   4.732
10552SOL    HW132555   2.380   0.872   4.783
10552SOL    HW232556   2.267   0.806   4.686
10553SOL     OW32557   0.073   4.065   0.847
10553SOL    HW132558   0.084   3.989   0.911
10553SOL    HW232559   7.023   4.044   0.783
10554SOL     OW32560   5.563   5.308   2.665
10554SOL    HW132561   5.547   5.257   2.581
10554SOL    HW232562   5.621   5.387   2.645
10555SOL     OW32563   2.424   2.266   0.790
10555SOL    HW132564   2.462   2.268   0.698
10555SOL    HW232565   2.405   2.360   0.820
10556SOL     OW32566   2.913   1.003   3.758
10556SOL    HW132567   2.945   1.008   3.852
10556SOL    HW232568   2.976   1.052   3.698
10557SOL     OW32569   1.839   3.474   3.863
10557SOL    HW132570   1.855   3.571   3.883
10557SOL    HW232571   1.894   3.446   3.785
10558SOL     OW32572   4.026   5.902   5.880
10558SOL    HW132573   4.086   5.885   5.958
10558SOL    HW232574   4.029   5.823   5.818
10559SOL     OW32575   4.186   0.713   1.455
10559SOL    HW132576   4.151   0.806   1.467
10559SOL    HW232577   4.114   0.655   1.417
10560SOL     OW32578   4.262   6.592   2.359
10560SOL    HW132579   4.184   6.587   2.296
10560SOL    HW232580   4.260   6.514   2.421
10561SOL     OW32581   3.773   4.533   1.620
10561SOL    HW132582   3.715   4.467   1.572
10561SOL    HW232583   3.718   4.582   1.688
10562SOL     OW32584   4.456   5.819   0.394
10562SOL    HW132585   4.385   5.843   0.328
10562SOL    HW232586   4.442   5.725   0.426
10563SOL     OW32587   0.896   0.556   1.521
10563SOL    HW132588   0.903   0.457   1.537
10563SOL    HW232589   0.925   0.605   1.603
10564SOL     OW32590   6.002   6.811   3.931
10564SOL    HW132591   5.926   6.749   3.909
10564SOL    HW232592   5.969   6.905   3.937
10565SOL     OW32593   6.991   6.287   5.546
10565SOL    HW132594   6.938   6.206   5.521
10565SOL    HW232595   0.061   6.274   5.516
10566SOL     OW32596   3.185   1.739   6.631
10566SOL    HW132597   3.146   1.695   6.550
10566SOL    HW232598   3.247   1.675   6.677
10567SOL     OW32599   2.375   2.702   6.167
10567SOL    HW132600   2.299   2.755   6.203
10567SOL    HW232601   2.431   2.668   6.243
10568SOL     OW32602   5.907   2.471   0.331
10568SOL    HW132603   5.839   2.483   0.403
10568SOL    HW232604   5.900   2.378   0.295
10569SOL     OW32605   5.446   0.864   2.125
10569SOL    HW132606   5.445   0.934   2.053
10569SOL    HW232607   5.496   0.900   2.204
10570SOL     OW32608   1.848   4.768   3.498
10570SOL    HW132609   1.940   4.741   3.527
10570SOL    HW232610   1.798   4.804   3.576
10571SOL     OW32611   0.274   4.107   5.562
10571SOL    HW132612   0.350   4.163   5.595
10571SOL    HW232613   0.217   4.160   5.501
10572SOL     OW32614   0.282   5.161   2.369
10572SOL    HW132615   0.330   5.157   2.456
10572SOL    HW232616   0.210   5.230   2.373
10573SOL     OW32617   5.132   0.242   4.973
10573SOL    HW132618   5.049   0.206   5.014
10573SOL    HW232619   5.109   0.294   4.890
10574SOL     OW32620   6.874   1.604   3.677
10574SOL    HW132621   6.821   1.543   3.736
10574SOL    HW232622   6.971   1.585   3.687
10575SOL     OW32623   6.176   1.161   3.860
10575SOL    HW132624   6.093   1.183   3.808
10575SOL    HW232625   6.182   1.222   3.939
10576SOL     OW32626   1.209   5.370   3.020
10576SOL    HW132627   1.219   5.405   2.927
10576SOL    HW232628   1.112   5.359   3.041
10577SOL     OW32629   2.211   4.556   0.287
10577SOL    HW132630   2.234   4.634   0.228
10577SOL    HW232631   2.294   4.503   0.305
10578SOL     OW32632   4.710   1.111   3.450
10578SOL    HW132633   4.769   1.063   3.385
10578SOL    HW232634   4.645   1.047   3.490
10579SOL     OW32635   3.590   3.121   1.248
10579SOL    HW132636   3.532   3.040   1.263
10579SOL    HW232637   3.535   3.194   1.208
10580SOL     OW32638   6.746   6.197   6.349
10580SOL    HW132639   6.689   6.199   6.267
10580SOL    HW232640   6.837   6.232   6.328
10581SOL     OW32641   5.541   0.181   2.440
10581SOL    HW132642   5.565   0.114   2.370
10581SOL    HW232643   5.592   0.161   2.524
10582SOL     OW32644   4.790   4.568   6.222
10582SOL    HW132645   4.837   4.627   6.288
10582SOL    HW232646   4.844   4.563   6.138
10583SOL     OW32647   4.641   0.139   4.175
10583SOL    HW132648   4.613   0.052   4.215
10583SOL    HW232649   4.659   0.205   4.248
10584SOL     OW32650   6.641   6.855   6.698
10584SOL    HW132651   6.576   6.866   6.774
10584SOL    HW232652   6.734   6.848   6.735
10585SOL     OW32653   1.945   2.004   5.774
10585SOL    HW132654   1.959   2.022   5.677
10585SOL    HW232655   1.918   2.089   5.820
10586SOL     OW32656   5.012   4.794   5.588
10586SOL    HW132657   5.067   4.858   5.642
10586SOL    HW232658   4.938   4.759   5.644
10587SOL     OW32659   6.557   5.539   0.135
10587SOL    HW132660   6.619   5.524   0.058
10587SOL    HW232661   6.484   5.601   0.107
10588SOL     OW32662   2.007   2.128   4.937
10588SOL    HW132663   2.071   2.194   4.978
10588SOL    HW232664   1.915   2.167   4.937
10589SOL     OW32665   5.117   0.387   4.262
10589SOL    HW132666   5.130   0.288   4.268
10589SOL    HW232667   5.053   0.407   4.188
10590SOL     OW32668   0.153   6.543   1.643
10590SOL    HW132669   0.113   6.628   1.608
10590SOL    HW232670   0.108   6.518   1.729
10591SOL     OW32671   2.210   1.923   1.104
10591SOL    HW132672   2.272   1.988   1.062
10591SOL    HW232673   2.255   1.834   1.112
10592SOL     OW32674   5.705   3.110   4.906
10592SOL    HW132675   5.678   3.054   4.828
10592SOL    HW232676   5.647   3.191   4.911
10593SOL     OW32677   2.008   6.094   0.434
10593SOL    HW132678   2.001   6.149   0.351
10593SOL    HW232679   2.045   6.150   0.508
10594SOL     OW32680   4.355   2.005   2.765
10594SOL    HW132681   4.281   1.954   2.808
10594SOL    HW232682   4.323   2.098   2.743
10595SOL     OW32683   6.204   7.004   6.980
10595SOL    HW132684   6.185   0.049   0.026
10595SOL    HW232685   6.184   0.018   6.890
10596SOL     OW32686   4.828   0.542   0.002
10596SOL    HW132687   4.817   0.637   6.998
10596SOL    HW232688   4.788   0.529   0.093
10597SOL     OW32689   2.101   0.967   5.636
10597SOL    HW132690   2.058   0.963   5.726
10597SOL    HW232691   2.146   1.056   5.625
10598SOL     OW32692   2.936   1.914   6.517
10598SOL    HW132693   2.928   1.893   6.419
10598SOL    HW232694   3.000   1.989   6.530
10599SOL     OW32695   6.392   3.287   6.779
10599SOL    HW132696   6.343   3.374   6.772
10599SOL    HW232697   6.328   3.212   6.761
10600SOL     OW32698   3.846   2.099   1.087
10600SOL    HW132699   3.926   2.118   1.144
10600SOL    HW232700   3.771   2.067   1.146
10601SOL     OW32701   1.359   4.904   5.552
10601SOL    HW132702   1.347   4.988   5.605
10601SOL    HW232703   1.444   4.910   5.499
10602SOL     OW32704   1.185   1.138   0.890
10602SOL    HW132705   1.190   1.186   0.977
10602SOL    HW232706   1.276   1.131   0.850
10603SOL     OW32707   4.946   0.020   3.311
10603SOL    HW132708   4.952   6.946   3.292
10603SOL    HW232709   4.864   0.039   3.365
10604SOL     OW32710   0.070   5.931   4.772
10604SOL    HW132711   0.120   5.873   4.708
10604SOL    HW232712   0.084   5.897   4.865
10605SOL     OW32713   1.616   6.959   0.022
10605SOL    HW132714   1.616   6.865   7.011
10605SOL    HW232715   1.581   7.021   6.976
10606SOL     OW32716   6.655   1.255   1.462
10606SOL    HW132717   6.621   1.191   1.393
10606SOL    HW232718   6.753   1.238   1.476
10607SOL     OW32719   3.959   4.417   0.420
10607SOL    HW132720   3.889   4.484   0.445
10607SOL    HW232721   4.022   4.458   0.354
10608SOL     OW32722   7.001   3.352   3.586
10608SOL    HW132723   0.057   3.342   3.645
10608SOL    HW232724   7.006   3.286   3.512
10609SOL     OW32725   2.618   0.002   6.900
10609SOL    HW132726   2.637   0.068   6.972
10609SOL    HW232727   2.655   6.937   6.927
10610SOL     OW32728   0.387   1.666   4.131
10610SOL    HW132729   0.429   1.742   4.082
10610SOL    HW232730   0.290   1.661   4.107
10611SOL     OW32731   2.769   4.923   6.208
10611SOL    HW132732   2.812   4.999   6.257
10611SOL    HW232733   2.691   4.889   6.261
10612SOL     OW32734   4.881   2.212   4.181
10612SOL    HW132735   4.787   2.187   4.161
10612SOL    HW232736   4.942   2.166   4.115
10613SOL     OW32737   6.440   5.901   4.784
10613SOL    HW132738   6.429   5.839   4.706
10613SOL    HW232739   6.495   5.980   4.755
10614SOL     OW32740   5.080   1.131   4.503
10614SOL    HW132741   5.061   1.058   4.438
10614SOL    HW232742   5.177   1.155   4.500
10615SOL     OW32743   3.451   0.902   5.673
10615SOL    HW132744   3.464   0.926   5.769
10615SOL    HW232745   3.491   0.812   5.656
10616SOL     OW32746   3.182   6.114   6.634
10616SOL    HW132747   3.258   6.152   6.687
10616SOL    HW232748   3.098   6.162   6.659
10617SOL     OW32749   2.761   4.538   1.354
10617SOL    HW132750   2.694   4.464   1.355
10617SOL    HW232751   2.777   4.567   1.260
10618SOL     OW32752   1.205   5.295   5.506
10618SOL    HW132753   1.118   5.334   5.536
10618SOL    HW232754   1.235   5.227   5.572
10619SOL     OW32755   0.384   2.593   3.221
10619SOL    HW132756   0.483   2.578   3.219
10619SOL    HW232757   0.337   2.507   3.202
10620SOL     OW32758   1.099   6.879   5.611
10620SOL    HW132759   1.181   6.839   5.570
10620SOL    HW232760   1.124   6.964   5.659
10621SOL     OW32761   0.352   4.373   1.966
10621SOL    HW132762   0.314   4.456   2.005
10621SOL    HW232763   0.406   4.395   1.885
10622SOL     OW32764   4.578   2.451   1.519
10622SOL    HW132765   4.513   2.523   1.495
10622SOL    HW232766   4.532   2.380   1.571
10623SOL     OW32767   6.811   5.703   5.924
10623SOL    HW132768   6.801   5.635   5.998
10623SOL    HW232769   6.832   5.656   5.839
10624SOL     OW32770   0.455   2.661   5.604
10624SOL    HW132771   0.454   2.746   5.552
10624SOL    HW232772   0.364   2.619   5.599
10625SOL     OW32773   0.362   4.053   1.498
10625SOL    HW132774   0.311   4.136   1.475
10625SOL    HW232775   0.306   3.973   1.477
10626SOL     OW32776   3.089   2.742   0.879
10626SOL    HW132777   3.089   2.811   0.807
10626SOL    HW232778   3.132   2.780   0.961
10627SOL     OW32779   6.239   0.717   6.610
10627SOL    HW132780   6.195   0.759   6.690
10627SOL    HW232781   6.252   0.787   6.539
10628SOL     OW32782   4.634   6.896   1.321
10628SOL    HW132783   4.616   6.944   1.235
10628SOL    HW232784   4.564   6.826   1.336
10629SOL     OW32785   3.078   4.863   4.864
10629SOL    HW132786   2.993   4.893   4.907
10629SOL    HW232787   3.091   4.765   4.879
10630SOL     OW32788   5.777   1.376   2.380
10630SOL    HW132789   5.842   1.446   2.351
10630SOL    HW232790   5.712   1.414   2.445
10631SOL     OW32791   3.801   4.475   5.593
10631SOL    HW132792   3.726   4.515   5.540
10631SOL    HW232793   3.800   4.513   5.685
10632SOL     OW32794   5.448   6.608   3.561
10632SOL    HW132795   5.474   6.657   3.644
10632SOL    HW232796   5.360   6.562   3.576
10633SOL     OW32797   2.367   2.765   1.338
10633SOL    HW132798   2.440   2.825   1.371
10633SOL    HW232799   2.334   2.709   1.413
10634SOL     OW32800   1.916   5.255   0.672
10634SOL    HW132801   1.888   5.350   0.656
10634SOL    HW232802   1.840   5.205   0.714
10635SOL     OW32803   2.042   3.573   6.893
10635SOL    HW132804   2.083   3.508   6.828
10635SOL    HW232805   1.975   3.630   6.845
10636SOL     OW32806   7.023   2.447   1.449
10636SOL    HW132807   6.988   2.353   1.451
10636SOL    HW232808   0.061   2.460   1.527
10637SOL     OW32809   1.404   5.372   6.021
10637SOL    HW132810   1.461   5.316   5.960
10637SOL    HW232811   1.320   5.322   6.043
10638SOL     OW32812   5.290   6.356   3.013
10638SOL    HW132813   5.368   6.347   3.076
10638SOL    HW232814   5.231   6.431   3.044
10639SOL     OW32815   1.715   3.569   2.071
10639SOL    HW132816   1.775   3.488   2.062
10639SOL    HW232817   1.683   3.596   1.980
10640SOL     OW32818   4.985   0.786   3.751
10640SOL    HW132819   4.930   0.856   3.798
10640SOL    HW232820   5.079   0.818   3.743
10641SOL     OW32821   2.281   1.648   3.397
10641SOL    HW132822   2.325   1.729   3.358
10641SOL    HW232823   2.347   1.596   3.450
10642SOL     OW32824   6.312   1.603   0.812
10642SOL    HW132825   6.396   1.556   0.840
10642SOL    HW232826   6.273   1.556   0.732
10643SOL     OW32827   2.373   6.513   5.505
10643SOL    HW132828   2.298   6.450   5.483
10643SOL    HW232829   2.456   6.460   5.522
10644SOL     OW32830   5.453   3.206   0.924
10644SOL    HW132831   5.460   3.242   1.017
10644SOL    HW232832   5.472   3.279   0.859
10645SOL     OW32833   2.137   3.003   4.425
10645SOL    HW132834   2.137   2.907   4.396
10645SOL    HW232835   2.050   3.046   4.398
10646SOL     OW32836   6.818   0.303   6.489
10646SOL    HW132837   6.884   0.353   6.433
10646SOL    HW232838   6.741   0.363   6.511
10647SOL     OW32839   3.339   5.750   5.101
10647SOL    HW132840   3.420   5.797   5.064
10647SOL    HW232841   3.280   5.817   5.146
10648SOL     OW32842   5.598   5.388   6.334
10648SOL    HW132843   5.550   5.443   6.403
10648SOL    HW232844   5.622   5.446   6.256
10649SOL     OW32845   0.506   3.400   3.073
10649SOL    HW132846   0.414   3.413   3.035
10649SOL    HW232847   0.543   3.312   3.043
10650SOL     OW32848   0.351   0.847   4.043
10650SOL    HW132849   0.287   0.788   4.092
10650SOL    HW232850   0.422   0.791   4.000
10651SOL     OW32851   6.188   5.802   6.044
10651SOL    HW132852   6.274   5.783   6.092
10651SOL    HW232853   6.197   5.887   5.993
10652SOL     OW32854   2.000   0.037   6.732
10652SOL    HW132855   2.096   0.061   6.746
10652SOL    HW232856   1.975   0.052   6.636
10653SOL     OW32857   3.959   5.937   5.075
10653SOL    HW132858   4.043   5.981   5.045
10653SOL    HW232859   3.923   5.880   5.001
10654SOL     OW32860   4.903   0.453   6.519
10654SOL    HW132861   4.844   0.534   6.519
10654SOL    HW232862   4.929   0.431   6.614
10655SOL     OW32863   1.351   5.128   0.135
10655SOL    HW132864   1.448   5.146   0.117
10655SOL    HW232865   1.310   5.206   0.181
10656SOL     OW32866   6.964   1.337   2.556
10656SOL    HW132867   6.956   1.430   2.595
10656SOL    HW232868   7.017   1.280   2.618
10657SOL     OW32869   5.543   0.739   4.410
10657SOL    HW132870   5.623   0.681   4.394
10657SOL    HW232871   5.518   0.737   4.507
10658SOL     OW32872   6.004   4.332   4.678
10658SOL    HW132873   6.059   4.250   4.664
10658SOL    HW232874   5.915   4.320   4.634
10659SOL     OW32875   1.297   5.194   0.502
10659SOL    HW132876   1.291   5.266   0.433
10659SOL    HW232877   1.331   5.110   0.460
10660SOL     OW32878   5.826   3.476   6.150
10660SOL    HW132879   5.877   3.537   6.210
10660SOL    HW232880   5.732   3.509   6.141
10661SOL     OW32881   1.644   6.418   0.895
10661SOL    HW132882   1.630   6.336   0.950
10661SOL    HW232883   1.732   6.411   0.847
10662SOL     OW32884   4.580   0.366   2.390
10662SOL    HW132885   4.671   0.404   2.376
10662SOL    HW232886   4.540   0.342   2.302
10663SOL     OW32887   0.816   1.013   2.825
10663SOL    HW132888   0.825   0.938   2.759
10663SOL    HW232889   0.742   0.993   2.889
10664SOL     OW32890   6.177   4.318   5.514
10664SOL    HW132891   6.082   4.310   5.546
10664SOL    HW232892   6.177   4.366   5.426
10665SOL     OW32893   1.374   1.753   0.279
10665SOL    HW132894   1.330   1.801   0.354
10665SOL    HW232895   1.331   1.778   0.192
10666SOL     OW32896   3.174   3.973   1.897
10666SOL    HW132897   3.227   3.922   1.830
10666SOL    HW232898   3.132   4.053   1.853
10667SOL     OW32899   4.588   2.204   3.295
10667SOL    HW132900   4.585   2.153   3.209
10667SOL    HW232901   4.651   2.160   3.358
10668SOL     OW32902   2.762   1.545   4.880
10668SOL    HW132903   2.765   1.459   4.829
10668SOL    HW232904   2.783   1.621   4.818
10669SOL     OW32905   5.658   0.706   1.494
10669SOL    HW132906   5.729   0.743   1.434
10669SOL    HW232907   5.632   0.775   1.562
10670SOL     OW32908   5.890   4.663   4.612
10670SOL    HW132909   5.917   4.662   4.515
10670SOL    HW232910   5.971   4.649   4.669
10671SOL     OW32911   2.149   1.712   4.152
10671SOL    HW132912   2.068   1.765   4.126
10671SOL    HW232913   2.156   1.631   4.093
10672SOL     OW32914   6.972   4.516   1.606
10672SOL    HW132915   6.995   4.421   1.628
10672SOL    HW232916   0.027   4.574   1.623
10673SOL     OW32917   0.235   1.303   0.074
10673SOL    HW132918   0.179   1.283   7.018
10673SOL    HW232919   0.176   1.323   0.152
10674SOL     OW32920   4.056   3.718   3.800
10674SOL    HW132921   3.985   3.788   3.792
10674SOL    HW232922   4.146   3.762   3.795
10675SOL     OW32923   1.930   0.443   6.858
10675SOL    HW132924   1.858   0.506   6.887
10675SOL    HW232925   1.894   0.349   6.857
10676SOL     OW32926   0.150   5.934   5.034
10676SOL    HW132927   0.151   6.034   5.043
10676SOL    HW232928   0.243   5.899   5.046
10677SOL     OW32929   1.661   0.204   1.753
10677SOL    HW132930   1.715   0.233   1.832
10677SOL    HW232931   1.597   0.132   1.781
10678SOL     OW32932   5.158   5.684   4.074
10678SOL    HW132933   5.206   5.653   3.991
10678SOL    HW232934   5.077   5.628   4.088
10679SOL     OW32935   3.946   5.736   6.966
10679SOL    HW132936   3.852   5.762   6.946
10679SOL    HW232937   3.948   5.674   0.020
10680SOL     OW32938   4.028   2.042   4.165
10680SOL    HW132939   3.963   2.100   4.116
10680SOL    HW232940   3.995   1.947   4.164
10681SOL     OW32941   0.364   3.767   0.880
10681SOL    HW132942   0.284   3.795   0.934
10681SOL    HW232943   0.336   3.697   0.814
10682SOL     OW32944   0.011   1.742   5.494
10682SOL    HW132945   0.021   1.832   5.451
10682SOL    HW232946   0.098   1.715   5.534
10683SOL     OW32947   4.806   1.441   3.845
10683SOL    HW132948   4.876   1.482   3.788
10683SOL    HW232949   4.725   1.420   3.789
10684SOL     OW32950   4.851   5.145   2.609
10684SOL    HW132951   4.775   5.128   2.671
10684SOL    HW232952   4.890   5.058   2.580
10685SOL     OW32953   0.916   5.825   1.795
10685SOL    HW132954   0.875   5.828   1.704
10685SOL    HW232955   0.860   5.879   1.859
10686SOL     OW32956   1.117   3.811   5.663
10686SOL    HW132957   1.160   3.755   5.734
10686SOL    HW232958   1.173   3.892   5.646
10687SOL     OW32959   5.783   5.676   3.937
10687SOL    HW132960   5.692   5.716   3.926
10687SOL    HW232961   5.781   5.580   3.908
10688SOL     OW32962   6.122   3.704   2.725
10688SOL    HW132963   6.118   3.679   2.628
10688SOL    HW232964   6.098   3.801   2.735
10689SOL     OW32965   6.965   0.166   3.300
10689SOL    HW132966   6.895   0.225   3.259
10689SOL    HW232967   0.030   0.190   3.264
10690SOL     OW32968   0.195   5.549   4.081
10690SOL    HW132969   0.130   5.503   4.141
10690SOL    HW232970   0.281   5.565   4.131
10691SOL     OW32971   1.157   1.864   2.900
10691SOL    HW132972   1.227   1.863   2.970
10691SOL    HW232973   1.188   1.920   2.823
10692SOL     OW32974   2.588   6.858   4.008
10692SOL    HW132975   2.552   6.791   3.943
10692SOL    HW232976   2.657   6.914   3.964
10693SOL     OW32977   1.927   6.074   1.187
10693SOL    HW132978   1.946   6.145   1.256
10693SOL    HW232979   1.828   6.068   1.172
10694SOL     OW32980   5.579   6.640   0.155
10694SOL    HW132981   5.480   6.628   0.157
10694SOL    HW232982   5.607   6.675   0.065
10695SOL     OW32983   0.557   2.323   3.011
10695SOL    HW132984   0.600   2.259   3.074
10695SOL    HW232985   0.616   2.337   2.931
10696SOL     OW32986   6.961   4.439   3.424
10696SOL    HW132987   6.937   4.471   3.516
10696SOL    HW232988   6.878   4.417   3.373
10697SOL     OW32989   0.231   6.298   5.442
10697SOL    HW132990   0.199   6.380   5.394
10697SOL    HW232991   0.324   6.275   5.412
10698SOL     OW32992   5.393   4.108   6.723
10698SOL    HW132993   5.447   4.161   6.789
10698SOL    HW232994   5.447   4.030   6.693
10699SOL     OW32995   3.918   4.306   1.691
10699SOL    HW132996   3.848   4.250   1.645
10699SOL    HW232997   3.899   4.402   1.675
10700SOL     OW32998   5.675   6.713   0.726
10700SOL    HW132999   5.749   6.780   0.721
10700SOL    HW233000   5.627   6.710   0.639
10701SOL     OW33001   2.544   6.225   6.630
10701SOL    HW133002   2.446   6.207   6.638
10701SOL    HW233003   2.576   6.267   6.715
10702SOL     OW33004   4.987   2.812   1.250
10702SOL    HW133005   5.043   2.816   1.167
10702SOL    HW233006   5.017   2.735   1.306
10703SOL     OW33007   2.693   2.960   5.357
10703SOL    HW133008   2.603   2.984   5.322
10703SOL    HW233009   2.763   2.987   5.290
10704SOL     OW33010   5.738   5.609   1.958
10704SOL    HW133011   5.731   5.705   1.933
10704SOL    HW233012   5.791   5.599   2.042
10705SOL     OW33013   5.985   4.965   1.739
10705SOL    HW133014   5.895   4.929   1.714
10705SOL    HW233015   5.989   4.978   1.838
10706SOL     OW33016   4.866   0.494   2.350
10706SOL    HW133017   4.940   0.537   2.401
10706SOL    HW233018   4.903   0.447   2.270
10707SOL     OW33019   0.153   6.836   4.314
10707SOL    HW133020   0.213   6.873   4.243
10707SOL    HW233021   0.070   6.800   4.272
10708SOL     OW33022   4.334   1.192   1.638
10708SOL    HW133023   4.268   1.168   1.708
10708SOL    HW233024   4.371   1.284   1.657
10709SOL     OW33025   5.637   5.173   5.507
10709SOL    HW133026   5.592   5.241   5.450
10709SOL    HW233027   5.649   5.210   5.599
10710SOL     OW33028   6.975   0.247   4.231
10710SOL    HW133029   6.962   0.288   4.321
10710SOL    HW233030   6.962   0.148   4.237
10711SOL     OW33031   1.741   0.033   4.600
10711SOL    HW133032   1.682   6.991   4.646
10711SOL    HW233033   1.685   0.108   4.565
10712SOL     OW33034   2.977   1.019   1.773
10712SOL    HW133035   3.010   1.043   1.865
10712SOL    HW233036   2.886   1.059   1.759
10713SOL     OW33037   0.384   3.493   2.498
10713SOL    HW133038   0.386   3.395   2.476
10713SOL    HW233039   0.368   3.546   2.415
10714SOL     OW33040   5.679   3.669   4.946
10714SOL    HW133041   5.683   3.620   5.033
10714SOL    HW233042   5.749   3.633   4.884
10715SOL     OW33043   5.400   0.914   2.867
10715SOL    HW133044   5.441   0.830   2.830
10715SOL    HW233045   5.345   0.891   2.947
10716SOL     OW33046   6.361   1.934   3.665
10716SOL    HW133047   6.318   1.867   3.605
10716SOL    HW233048   6.382   2.017   3.613
10717SOL     OW33049   1.316   2.028   1.610
10717SOL    HW133050   1.329   1.969   1.531
10717SOL    HW233051   1.366   2.114   1.596
10718SOL     OW33052   1.226   3.223   6.739
10718SOL    HW133053   1.311   3.180   6.711
10718SOL    HW233054   1.157   3.152   6.754
10719SOL     OW33055   6.687   5.951   2.920
10719SOL    HW133056   6.679   6.028   2.856
10719SOL    HW233057   6.598   5.932   2.960
10720SOL     OW33058   0.542   4.500   4.689
10720SOL    HW133059   0.515   4.439   4.763
10720SOL    HW233060   0.466   4.508   4.624
10721SOL     OW33061   5.447   3.900   5.161
10721SOL    HW133062   5.541   3.911   5.127
10721SOL    HW233063   5.442   3.929   5.256
10722SOL     OW33064   0.909   5.052   0.111
10722SOL    HW133065   0.838   5.004   0.162
10722SOL    HW233066   0.940   5.131   0.163
10723SOL     OW33067   0.229   3.597   6.192
10723SOL    HW133068   0.264   3.538   6.119
10723SOL    HW233069   0.183   3.676   6.152
10724SOL     OW33070   5.824   1.211   6.985
10724SOL    HW133071   5.861   1.194   0.052
10724SOL    HW233072   5.781   1.301   6.983
10725SOL     OW33073   1.045   5.746   4.530
10725SOL    HW133074   1.116   5.698   4.478
10725SOL    HW233075   0.957   5.701   4.515
10726SOL     OW33076   5.455   6.962   5.362
10726SOL    HW133077   5.521   6.891   5.387
10726SOL    HW233078   5.435   6.955   5.264
10727SOL     OW33079   0.192   4.870   5.135
10727SOL    HW133080   0.256   4.829   5.070
10727SOL    HW233081   0.212   4.836   5.227
10728SOL     OW33082   0.262   5.936   6.983
10728SOL    HW133083   0.299   5.896   6.899
10728SOL    HW233084   0.238   5.863   0.023
10729SOL     OW33085   5.374   1.340   1.287
10729SOL    HW133086   5.290   1.330   1.340
10729SOL    HW233087   5.380   1.434   1.251
10730SOL     OW33088   2.223   0.698   1.453
10730SOL    HW133089   2.145   0.728   1.508
10730SOL    HW233090   2.275   0.630   1.503
10731SOL     OW33091   3.248   5.957   0.676
10731SOL    HW133092   3.246   5.994   0.769
10731SOL    HW233093   3.161   5.976   0.632
10732SOL     OW33094   5.738   5.410   3.882
10732SOL    HW133095   5.785   5.363   3.956
10732SOL    HW233096   5.756   5.363   3.795
10733SOL     OW33097   6.561   1.632   1.038
10733SOL    HW133098   6.525   1.723   1.016
10733SOL    HW233099   6.599   1.633   1.130
10734SOL     OW33100   1.125   0.733   0.374
10734SOL    HW133101   1.080   0.711   0.287
10734SOL    HW233102   1.088   0.675   0.446
10735SOL     OW33103   1.039   3.135   3.376
10735SOL    HW133104   1.097   3.190   3.437
10735SOL    HW233105   1.089   3.053   3.349
10736SOL     OW33106   1.347   0.465   2.929
10736SOL    HW133107   1.432   0.494   2.973
10736SOL    HW233108   1.295   0.545   2.899
10737SOL     OW33109   2.013   1.687   0.893
10737SOL    HW133110   1.998   1.688   0.991
10737SOL    HW233111   2.069   1.765   0.866
10738SOL     OW33112   2.542   0.328   3.444
10738SOL    HW133113   2.448   0.318   3.413
10738SOL    HW233114   2.602   0.343   3.365
10739SOL     OW33115   0.923   1.498   0.673
10739SOL    HW133116   0.903   1.596   0.669
10739SOL    HW233117   0.994   1.475   0.607
10740SOL     OW33118   0.131   4.273   5.389
10740SOL    HW133119   0.062   4.332   5.432
10740SOL    HW233120   0.114   4.268   5.291
10741SOL     OW33121   6.042   0.184   1.219
10741SOL    HW133122   6.095   0.172   1.136
10741SOL    HW233123   6.025   0.095   1.261
10742SOL     OW33124   5.349   1.090   0.955
10742SOL    HW133125   5.363   1.061   0.860
10742SOL    HW233126   5.262   1.138   0.963
10743SOL     OW33127   2.499   1.635   4.955
10743SOL    HW133128   2.467   1.551   4.999
10743SOL    HW233129   2.594   1.622   4.925
10744SOL     OW33130   3.922   1.217   0.718
10744SOL    HW133131   3.884   1.126   0.703
10744SOL    HW233132   4.005   1.210   0.774
10745SOL     OW33133   0.096   5.228   6.677
10745SOL    HW133134   0.115   5.212   6.773
10745SOL    HW233135   0.176   5.206   6.622
10746SOL     OW33136   1.964   4.195   1.452
10746SOL    HW133137   1.971   4.162   1.546
10746SOL    HW233138   1.917   4.127   1.396
10747SOL     OW33139   4.575   0.860   3.493
10747SOL    HW133140   4.586   0.805   3.576
10747SOL    HW233141   4.515   0.812   3.429
10748SOL     OW33142   4.573   1.362   1.297
10748SOL    HW133143   4.591   1.326   1.389
10748SOL    HW233144   4.522   1.295   1.244
10749SOL     OW33145   0.635   6.141   3.221
10749SOL    HW133146   0.590   6.160   3.134
10749SOL    HW233147   0.567   6.141   3.295
10750SOL     OW33148   4.317   5.931   5.091
10750SOL    HW133149   4.299   5.852   5.150
10750SOL    HW233150   4.414   5.931   5.065
10751SOL     OW33151   1.685   4.367   4.277
10751SOL    HW133152   1.719   4.286   4.228
10751SOL    HW233153   1.644   4.339   4.364
10752SOL     OW33154   5.780   3.862   6.255
10752SOL    HW133155   5.869   3.907   6.266
10752SOL    HW233156   5.773   3.785   6.318
10753SOL     OW33157   4.757   6.498   4.314
10753SOL    HW133158   4.789   6.559   4.241
10753SOL    HW233159   4.754   6.404   4.280
10754SOL     OW33160   0.818   1.212   3.209
10754SOL    HW133161   0.718   1.205   3.220
10754SOL    HW233162   0.861   1.206   3.299
10755SOL     OW33163   6.690   0.875   6.492
10755SOL    HW133164   6.693   0.906   6.587
10755SOL    HW233165   6.626   0.798   6.483
10756SOL     OW33166   6.892   4.549   0.393
10756SOL    HW133167   6.846   4.477   0.340
10756SOL    HW233168   6.985   4.519   0.416
10757SOL     OW33169   1.103   2.887   0.632
10757SOL    HW133170   1.054   2.822   0.690
10757SOL    HW233171   1.040   2.924   0.563
10758SOL     OW33172   0.352   6.942   4.017
10758SOL    HW133173   0.322   7.016   4.077
10758SOL    HW233174   0.446   6.916   4.042
10759SOL     OW33175   1.742   2.983   1.103
10759SOL    HW133176   1.654   3.002   1.060
10759SOL    HW233177   1.817   3.006   1.040
10760SOL     OW33178   6.655   1.902   2.034
10760SOL    HW133179   6.730   1.940   1.980
10760SOL    HW233180   6.591   1.975   2.057
10761SOL     OW33181   1.002   0.923   6.192
10761SOL    HW133182   1.073   0.910   6.261
10761SOL    HW233183   0.928   0.857   6.206
10762SOL     OW33184   4.370   1.853   4.911
10762SOL    HW133185   4.288   1.831   4.964
10762SOL    HW233186   4.346   1.865   4.815
10763SOL     OW33187   5.057   6.482   2.428
10763SOL    HW133188   5.003   6.431   2.360
10763SOL    HW233189   5.011   6.568   2.449
10764SOL     OW33190   5.387   2.503   5.886
10764SOL    HW133191   5.434   2.510   5.799
10764SOL    HW233192   5.390   2.408   5.918
10765SOL     OW33193   5.020   2.166   0.256
10765SOL    HW133194   5.092   2.198   0.317
10765SOL    HW233195   5.056   2.098   0.193
10766SOL     OW33196   5.043   3.594   0.821
10766SOL    HW133197   5.002   3.658   0.755
10766SOL    HW233198   5.002   3.504   0.810
10767SOL     OW33199   1.395   0.675   0.330
10767SOL    HW133200   1.455   0.715   0.399
10767SOL    HW233201   1.303   0.713   0.339
10768SOL     OW33202   4.758   4.460   1.788
10768SOL    HW133203   4.736   4.366   1.761
10768SOL    HW233204   4.761   4.466   1.887
10769SOL     OW33205   2.599   4.743   4.969
10769SOL    HW133206   2.615   4.841   4.980
10769SOL    HW233207   2.669   4.692   5.019
10770SOL     OW33208   5.269   0.721   5.055
10770SOL    HW133209   5.329   0.801   5.059
10770SOL    HW233210   5.212   0.726   4.973
10771SOL     OW33211   6.009   0.797   3.436
10771SOL    HW133212   6.039   0.834   3.524
10771SOL    HW233213   5.932   0.850   3.402
10772SOL     OW33214   6.663   6.740   4.412
10772SOL    HW133215   6.638   6.692   4.496
10772SOL    HW233216   6.739   6.693   4.367
10773SOL     OW33217   6.433   5.295   0.143
10773SOL    HW133218   6.475   5.386   0.143
10773SOL    HW233219   6.382   5.282   0.228
10774SOL     OW33220   2.039   1.671   0.019
10774SOL    HW133221   1.960   1.618   0.050
10774SOL    HW233222   2.053   1.657   6.946
10775SOL     OW33223   0.023   4.872   1.189
10775SOL    HW133224   0.064   4.955   1.151
10775SOL    HW233225   6.949   4.887   1.200
10776SOL     OW33226   0.289   0.747   6.562
10776SOL    HW133227   0.309   0.842   6.583
10776SOL    HW233228   0.306   0.691   6.643
10777SOL     OW33229   3.474   5.705   2.988
10777SOL    HW133230   3.388   5.690   2.939
10777SOL    HW233231   3.455   5.726   3.084
10778SOL     OW33232   5.945   0.372   4.285
10778SOL    HW133233   5.997   0.420   4.214
10778SOL    HW233234   6.008   0.320   4.343
10779SOL     OW33235   6.267   4.104   3.584
10779SOL    HW133236   6.298   4.130   3.675
10779SOL    HW233237   6.184   4.155   3.561
10780SOL     OW33238   1.896   0.705   3.910
10780SOL    HW133239   1.845   0.767   3.970
10780SOL    HW233240   1.897   0.741   3.817
10781SOL     OW33241   4.304   1.092   3.428
10781SOL    HW133242   4.339   1.086   3.521
10781SOL    HW233243   4.285   1.001   3.393
10782SOL     OW33244   5.410   2.001   1.740
10782SOL    HW133245   5.351   2.040   1.810
10782SOL    HW233246   5.417   2.065   1.663
10783SOL     OW33247   0.703   3.327   3.674
10783SOL    HW133248   0.693   3.247   3.616
10783SOL    HW233249   0.666   3.407   3.626
10784SOL     OW33250   3.872   6.726   4.221
10784SOL    HW133251   3.934   6.662   4.266
10784SOL    HW233252   3.856   6.805   4.280
10785SOL     OW33253   0.173   4.636   1.382
10785SOL    HW133254   0.143   4.552   1.338
10785SOL    HW233255   0.100   4.704   1.376
10786SOL     OW33256   5.798   4.660   3.086
10786SOL    HW133257   5.824   4.754   3.107
10786SOL    HW233258   5.829   4.599   3.159
10787SOL     OW33259   1.618   1.466   4.732
10787SOL    HW133260   1.586   1.554   4.696
10787SOL    HW233261   1.716   1.472   4.753
10788SOL     OW33262   2.151   4.618   6.180
10788SOL    HW133263   2.074   4.563   6.146
10788SOL    HW233264   2.237   4.580   6.146
10789SOL     OW33265   0.140   2.994   6.779
10789SOL    HW133266   0.222   3.019   6.831
10789SOL    HW233267   0.162   2.995   6.681
10790SOL     OW33268   1.235   0.653   1.784
10790SOL    HW133269   1.204   0.673   1.877
10790SOL    HW233270   1.320   0.600   1.788
10791SOL     OW33271   0.294   6.976   0.994
10791SOL    HW133272   0.344   7.003   0.912
10791SOL    HW233273   0.343   7.009   1.075
10792SOL     OW33274   3.236   4.127   3.901
10792SOL    HW133275   3.199   4.102   3.990
10792SOL    HW233276   3.323   4.176   3.914
10793SOL     OW33277   5.432   3.359   4.709
10793SOL    HW133278   5.426   3.398   4.617
10793SOL    HW233279   5.374   3.278   4.715
10794SOL     OW33280   3.023   3.852   3.502
10794SOL    HW133281   2.977   3.772   3.463
10794SOL    HW233282   3.055   3.911   3.428
10795SOL     OW33283   6.596   4.781   2.413
10795SOL    HW133284   6.557   4.869   2.386
10795SOL    HW233285   6.681   4.797   2.464
10796SOL     OW33286   5.351   0.194   6.617
10796SOL    HW133287   5.370   0.196   6.715
10796SOL    HW233288   5.437   0.198   6.566
10797SOL     OW33289   4.239   2.982   1.573
10797SOL    HW133290   4.197   2.893   1.592
10797SOL    HW233291   4.175   3.040   1.524
10798SOL     OW33292   3.064   6.737   0.406
10798SOL    HW133293   3.162   6.721   0.407
10798SOL    HW233294   3.021   6.689   0.482
10799SOL     OW33295   3.917   1.214   1.435
10799SOL    HW133296   3.922   1.183   1.530
10799SOL    HW233297   3.972   1.297   1.425
10800SOL     OW33298   0.628   6.907   6.605
10800SOL    HW133299   0.579   6.898   6.691
10800SOL    HW233300   0.678   6.822   6.586
10801SOL     OW33301   0.790   5.944   5.962
10801SOL    HW133302   0.728   5.981   6.031
10801SOL    HW233303   0.791   5.844   5.969
10802SOL     OW33304   0.859   0.940   3.182
10802SOL    HW133305   0.848   1.032   3.219
10802SOL    HW233306   0.772   0.910   3.143
10803SOL     OW33307   2.664   4.030   6.006
10803SOL    HW133308   2.646   3.940   5.965
10803SOL    HW233309   2.599   4.046   6.080
10804SOL     OW33310   5.707   3.164   1.979
10804SOL    HW133311   5.658   3.247   2.005
10804SOL    HW233312   5.651   3.112   1.914
10805SOL     OW33313   4.334   6.417   6.850
10805SOL    HW133314   4.300   6.342   6.793
10805SOL    HW233315   4.386   6.481   6.793
10806SOL     OW33316   4.140   3.606   5.811
10806SOL    HW133317   4.205   3.680   5.794
10806SOL    HW233318   4.116   3.605   5.908
10807SOL     OW33319   1.283   6.948   2.366
10807SOL    HW133320   1.190   6.986   2.363
10807SOL    HW233321   1.339   6.991   2.295
10808SOL     OW33322   0.480   2.931   5.617
10808SOL    HW133323   0.453   3.017   5.573
10808SOL    HW233324   0.550   2.950   5.686
10809SOL     OW33325   2.942   4.799   3.667
10809SOL    HW133326   3.038   4.776   3.680
10809SOL    HW233327   2.929   4.830   3.572
10810SOL     OW33328   1.389   0.168   4.133
10810SOL    HW133329   1.478   0.196   4.170
10810SOL    HW233330   1.382   0.194   4.037
10811SOL     OW33331   3.993   4.018   6.549
10811SOL    HW133332   3.913   4.008   6.491
10811SOL    HW233333   4.001   4.114   6.578
10812SOL     OW33334   0.316   3.802   0.327
10812SOL    HW133335   0.396   3.853   0.360
10812SOL    HW233336   0.341   3.706   0.314
10813SOL     OW33337   2.247   4.776   6.369
10813SOL    HW133338   2.240   4.735   6.459
10813SOL    HW233339   2.187   4.728   6.305
10814SOL     OW33340   1.473   6.709   6.695
10814SOL    HW133341   1.546   6.774   6.675
10814SOL    HW233342   1.482   6.676   6.789
10815SOL     OW33343   4.456   4.523   3.468
10815SOL    HW133344   4.371   4.544   3.420
10815SOL    HW233345   4.492   4.435   3.436
10816SOL     OW33346   3.214   2.937   2.318
10816SOL    HW133347   3.312   2.940   2.295
10816SOL    HW233348   3.169   2.868   2.262
10817SOL     OW33349   4.611   0.657   3.092
10817SOL    HW133350   4.550   0.676   3.169
10817SOL    HW233351   4.580   0.707   3.011
10818SOL     OW33352   4.455   4.447   5.422
10818SOL    HW133353   4.421   4.403   5.506
10818SOL    HW233354   4.500   4.534   5.446
10819SOL     OW33355   6.435   4.784   6.419
10819SOL    HW133356   6.371   4.769   6.343
10819SOL    HW233357   6.465   4.879   6.419
10820SOL     OW33358   0.156   5.274   3.664
10820SOL    HW133359   0.228   5.207   3.647
10820SOL    HW233360   0.084   5.232   3.719
10821SOL     OW33361   5.246   7.012   2.990
10821SOL    HW133362   5.323   7.006   2.926
10821SOL    HW233363   5.187   0.064   2.964
10822SOL     OW33364   6.703   3.017   3.215
10822SOL    HW133365   6.695   2.921   3.189
10822SOL    HW233366   6.734   3.025   3.309
10823SOL     OW33367   1.533   6.988   1.779
10823SOL    HW133368   1.620   6.941   1.794
10823SOL    HW233369   1.458   6.922   1.789
10824SOL     OW33370   6.402   1.734   2.691
10824SOL    HW133371   6.426   1.663   2.758
10824SOL    HW233372   6.395   1.693   2.600
10825SOL     OW33373   2.410   1.194   6.250
10825SOL    HW133374   2.448   1.239   6.331
10825SOL    HW233375   2.313   1.216   6.243
10826SOL     OW33376   1.581   2.834   3.762
10826SOL    HW133377   1.636   2.875   3.690
10826SOL    HW233378   1.485   2.834   3.734
10827SOL     OW33379   6.974   3.041   4.123
10827SOL    HW133380   0.026   3.004   4.071
10827SOL    HW233381   6.970   3.140   4.112
10828SOL     OW33382   1.364   4.550   0.704
10828SOL    HW133383   1.434   4.600   0.755
10828SOL    HW233384   1.407   4.480   0.647
10829SOL     OW33385   3.938   2.551   7.001
10829SOL    HW133386   3.920   2.531   0.073
10829SOL    HW233387   4.030   2.590   6.992
10830SOL     OW33388   5.113   1.871   3.135
10830SOL    HW133389   5.165   1.936   3.080
10830SOL    HW233390   5.170   1.791   3.154
10831SOL     OW33391   2.939   6.171   3.358
10831SOL    HW133392   2.919   6.074   3.375
10831SOL    HW233393   2.914   6.224   3.439
10832SOL     OW33394   1.034   3.067   6.219
10832SOL    HW133395   1.095   3.122   6.276
10832SOL    HW233396   0.996   3.123   6.146
10833SOL     OW33397   0.561   0.466   2.407
10833SOL    HW133398   0.643   0.439   2.358
10833SOL    HW233399   0.507   0.529   2.351
10834SOL     OW33400   0.610   2.109   0.638
10834SOL    HW133401   0.593   2.169   0.559
10834SOL    HW233402   0.620   2.015   0.607
10835SOL     OW33403   5.334   2.492   0.534
10835SOL    HW133404   5.351   2.445   0.620
10835SOL    HW233405   5.236   2.493   0.515
10836SOL     OW33406   6.462   1.298   4.540
10836SOL    HW133407   6.387   1.323   4.600
10836SOL    HW233408   6.524   1.236   4.588
10837SOL     OW33409   6.303   5.553   1.196
10837SOL    HW133410   6.383   5.535   1.139
10837SOL    HW233411   6.254   5.467   1.213
10838SOL     OW33412   6.519   5.665   4.014
10838SOL    HW133413   6.481   5.666   4.107
10838SOL    HW233414   6.616   5.641   4.018
10839SOL     OW33415   4.395   3.152   1.711
10839SOL    HW133416   4.370   3.078   1.649
10839SOL    HW233417   4.480   3.129   1.759
10840SOL     OW33418   2.757   5.823   3.014
10840SOL    HW133419   2.760   5.921   3.035
10840SOL    HW233420   2.722   5.810   2.921
10841SOL     OW33421   6.282   5.366   5.617
10841SOL    HW133422   6.257   5.437   5.551
10841SOL    HW233423   6.324   5.409   5.698
10842SOL     OW33424   4.942   2.700   1.609
10842SOL    HW133425   4.943   2.794   1.577
10842SOL    HW233426   5.036   2.665   1.613
10843SOL     OW33427   0.894   1.730   1.682
10843SOL    HW133428   0.989   1.707   1.705
10843SOL    HW233429   0.842   1.745   1.766
10844SOL     OW33430   0.828   6.617   3.658
10844SOL    HW133431   0.919   6.652   3.640
10844SOL    HW233432   0.799   6.645   3.750
10845SOL     OW33433   3.393   6.788   5.345
10845SOL    HW133434   3.457   6.853   5.385
10845SOL    HW233435   3.441   6.702   5.325
10846SOL     OW33436   5.235   1.085   0.299
10846SOL    HW133437   5.275   1.002   0.341
10846SOL    HW233438   5.151   1.109   0.348
10847SOL     OW33439   3.730   2.883   6.602
10847SOL    HW133440   3.776   2.960   6.559
10847SOL    HW233441   3.747   2.884   6.701
10848SOL     OW33442   2.815   3.726   0.047
10848SOL    HW133443   2.723   3.691   0.026
10848SOL    HW233444   2.865   3.742   6.986
10849SOL     OW33445   1.940   4.944   4.121
10849SOL    HW133446   1.923   4.883   4.043
10849SOL    HW233447   1.915   4.896   4.205
10850SOL     OW33448   2.269   5.953   6.704
10850SOL    HW133449   2.268   5.913   6.612
10850SOL    HW233450   2.363   5.954   6.739
10851SOL     OW33451   1.890   3.521   0.147
10851SOL    HW133452   1.874   3.620   0.140
10851SOL    HW233453   1.831   3.483   0.218
10852SOL     OW33454   1.018   0.245   6.827
10852SOL    HW133455   1.044   0.287   6.914
10852SOL    HW233456   1.096   0.194   6.790
10853SOL     OW33457   1.895   2.248   5.288
10853SOL    HW133458   1.813   2.297   5.261
10853SOL    HW233459   1.969   2.270   5.225
10854SOL     OW33460   4.580   4.677   5.474
10854SOL    HW133461   4.664   4.708   5.428
10854SOL    HW233462   4.603   4.608   5.543
10855SOL     OW33463   4.252   0.232   1.062
10855SOL    HW133464   4.162   0.259   1.096
10855SOL    HW233465   4.286   0.155   1.116
10856SOL     OW33466   5.186   1.438   0.546
10856SOL    HW133467   5.128   1.368   0.503
10856SOL    HW233468   5.130   1.492   0.611
10857SOL     OW33469   6.659   2.160   3.192
10857SOL    HW133470   6.661   2.190   3.097
10857SOL    HW233471   6.702   2.229   3.250
10858SOL     OW33472   0.657   1.667   6.516
10858SOL    HW133473   0.747   1.639   6.550
10858SOL    HW233474   0.637   1.760   6.548
10859SOL     OW33475   1.124   4.340   4.565
10859SOL    HW133476   1.158   4.415   4.509
10859SOL    HW233477   1.091   4.374   4.652
10860SOL     OW33478   0.238   1.661   5.630
10860SOL    HW133479   0.286   1.586   5.585
10860SOL    HW233480   0.269   1.670   5.724
10861SOL     OW33481   3.706   3.383   3.195
10861SOL    HW133482   3.615   3.384   3.238
10861SOL    HW233483   3.712   3.306   3.132
10862SOL     OW33484   2.053   1.687   6.434
10862SOL    HW133485   2.093   1.760   6.490
10862SOL    HW233486   2.006   1.622   6.494
10863SOL     OW33487   3.834   0.918   3.980
10863SOL    HW133488   3.867   0.988   3.916
10863SOL    HW233489   3.753   0.951   4.028
10864SOL     OW33490   2.599   6.061   1.212
10864SOL    HW133491   2.662   6.056   1.135
10864SOL    HW233492   2.515   6.011   1.190
10865SOL     OW33493   0.080   1.389   2.209
10865SOL    HW133494   0.056   1.485   2.198
10865SOL    HW233495   0.003   1.340   2.252
10866SOL     OW33496   5.162   4.364   0.985
10866SOL    HW133497   5.081   4.401   0.938
10866SOL    HW233498   5.242   4.373   0.926
10867SOL     OW33499   3.431   4.149   0.072
10867SOL    HW133500   3.425   4.201   7.011
10867SOL    HW233501   3.524   4.116   0.085
10868SOL     OW33502   4.346   1.855   4.357
10868SOL    HW133503   4.389   1.825   4.442
10868SOL    HW233504   4.285   1.784   4.323
10869NA      NA33505   6.900   2.077   5.322
10870NA      NA33506   4.509   4.437   5.210
10871NA      NA33507   1.994   3.050   2.220
10872NA      NA33508   5.124   3.843   4.851
10873NA      NA33509   4.328   2.640   5.323
10874NA      NA33510   3.234   4.660   1.723
10875NA      NA33511   6.786   4.609   0.600
10876NA      NA33512   3.364   3.740   3.806
10877NA      NA33513   5.333   5.948   0.338
10878NA      NA33514   3.134   6.928   5.562
10879NA      NA33515   5.719   5.463   1.524
10880NA      NA33516   2.205   0.446   4.226
10881NA      NA33517   3.580   5.252   2.879
10882NA      NA33518   3.903   3.624   2.188
   7.02436   7.02436   7.02436
