Generated by trjconv : CNT in water t= 290.00000
33518
    1C        C    1   2.849   2.771   4.746
    1C        C    2   2.904   2.721   4.866
    1C        C    3   2.845   2.772   4.982
    1C        C    4   2.850   2.771   4.261
    1C        C    5   2.898   2.725   4.386
    1C        C    6   2.842   2.770   4.507
    1C        C    7   3.014   2.638   4.627
    1C        C    8   2.895   2.714   4.625
    1C        C    9   3.080   2.600   4.746
    1C        C   10   3.013   2.631   4.866
    1C        C   11   3.186   2.493   4.980
    1C        C   12   3.062   2.558   4.975
    1C        C   13   2.854   2.774   3.776
    1C        C   14   2.899   2.718   3.898
    1C        C   15   2.846   2.768   4.020
    1C        C   16   3.015   2.635   4.142
    1C        C   17   2.899   2.717   4.140
    1C        C   18   3.076   2.602   4.265
    1C        C   19   3.009   2.637   4.384
    1C        C   20   3.207   2.556   4.505
    1C        C   21   3.073   2.600   4.505
    1C        C   22   3.278   2.534   4.625
    1C        C   23   3.212   2.547   4.749
    1C        C   24   3.416   2.476   4.866
    1C        C   25   3.274   2.498   4.868
    1C        C   26   3.488   2.478   4.986
    1C        C   27   2.855   2.771   3.284
    1C        C   28   2.907   2.725   3.407
    1C        C   29   2.856   2.774   3.530
    1C        C   30   3.019   2.642   3.652
    1C        C   31   2.908   2.729   3.653
    1C        C   32   3.076   2.600   3.774
    1C        C   33   3.012   2.633   3.896
    1C        C   34   3.208   2.555   4.019
    1C        C   35   3.076   2.604   4.018
    1C        C   36   3.279   2.538   4.140
    1C        C   37   3.209   2.556   4.262
    1C        C   38   3.416   2.510   4.384
    1C        C   39   3.277   2.534   4.384
    1C        C   40   3.487   2.506   4.506
    1C        C   41   3.417   2.512   4.628
    1C        C   42   3.633   2.488   4.745
    1C        C   43   3.491   2.487   4.746
    1C        C   44   3.705   2.490   4.867
    1C        C   45   3.627   2.480   4.983
    1C        C   46   2.842   2.760   2.795
    1C        C   47   2.896   2.713   2.918
    1C        C   48   2.848   2.766   3.040
    1C        C   49   3.016   2.635   3.163
    1C        C   50   2.904   2.722   3.162
    1C        C   51   3.080   2.607   3.285
    1C        C   52   3.022   2.643   3.409
    1C        C   53   3.212   2.549   3.529
    1C        C   54   3.082   2.605   3.531
    1C        C   55   3.279   2.530   3.652
    1C        C   56   3.208   2.551   3.773
    1C        C   57   3.415   2.513   3.895
    1C        C   58   3.275   2.534   3.896
    1C        C   59   3.485   2.505   4.017
    1C        C   60   3.416   2.506   4.141
    1C        C   61   3.628   2.503   4.260
    1C        C   62   3.487   2.497   4.263
    1C        C   63   3.700   2.513   4.381
    1C        C   64   3.629   2.504   4.502
    1C        C   65   3.836   2.547   4.625
    1C        C   66   3.702   2.503   4.623
    1C        C   67   3.908   2.564   4.745
    1C        C   68   3.841   2.529   4.865
    1C        C   69   4.055   2.588   4.980
    1C        C   70   3.924   2.537   4.977
    1C        C   71   2.822   2.735   2.311
    1C        C   72   2.887   2.697   2.431
    1C        C   73   2.838   2.753   2.551
    1C        C   74   3.009   2.629   2.675
    1C        C   75   2.892   2.708   2.674
    1C        C   76   3.072   2.593   2.797
    1C        C   77   3.010   2.629   2.918
    1C        C   78   3.209   2.553   3.040
    1C        C   79   3.076   2.601   3.040
    1C        C   80   3.278   2.536   3.162
    1C        C   81   3.212   2.555   3.286
    1C        C   82   3.417   2.497   3.406
    1C        C   83   3.279   2.528   3.407
    1C        C   84   3.486   2.495   3.529
    1C        C   85   3.418   2.504   3.652
    1C        C   86   3.628   2.505   3.772
    1C        C   87   3.487   2.497   3.775
    1C        C   88   3.697   2.512   3.895
    1C        C   89   3.627   2.510   4.018
    1C        C   90   3.836   2.555   4.140
    1C        C   91   3.700   2.518   4.139
    1C        C   92   3.903   2.581   4.261
    1C        C   93   3.836   2.551   4.382
    1C        C   94   4.027   2.642   4.502
    1C        C   95   3.906   2.569   4.504
    1C        C   96   4.093   2.675   4.622
    1C        C   97   4.031   2.635   4.742
    1C        C   98   4.194   2.767   4.867
    1C        C   99   4.099   2.660   4.864
    1C        C  100   4.218   2.846   4.980
    1C        C  101   2.825   2.729   2.075
    1C        C  102   2.995   2.595   2.193
    1C        C  103   2.877   2.676   2.194
    1C        C  104   3.066   2.575   2.314
    1C        C  105   3.003   2.617   2.434
    1C        C  106   3.198   2.528   2.556
    1C        C  107   3.071   2.589   2.554
    1C        C  108   3.270   2.511   2.676
    1C        C  109   3.201   2.537   2.797
    1C        C  110   3.412   2.499   2.920
    1C        C  111   3.272   2.519   2.918
    1C        C  112   3.486   2.495   3.040
    1C        C  113   3.415   2.503   3.162
    1C        C  114   3.628   2.499   3.283
    1C        C  115   3.487   2.494   3.283
    1C        C  116   3.697   2.513   3.406
    1C        C  117   3.628   2.504   3.528
    1C        C  118   3.836   2.545   3.650
    1C        C  119   3.699   2.512   3.650
    1C        C  120   3.901   2.572   3.773
    1C        C  121   3.834   2.546   3.895
    1C        C  122   4.025   2.642   4.015
    1C        C  123   3.900   2.576   4.016
    1C        C  124   4.088   2.679   4.136
    1C        C  125   4.032   2.640   4.259
    1C        C  126   4.201   2.768   4.380
    1C        C  127   4.088   2.683   4.382
    1C        C  128   4.252   2.816   4.502
    1C        C  129   4.199   2.768   4.624
    1C        C  130   4.336   2.931   4.744
    1C        C  131   4.252   2.816   4.746
    1C        C  132   4.367   3.000   4.863
    1C        C  133   4.291   2.964   4.975
    1C        C  134   3.174   2.467   2.083
    1C        C  135   3.039   2.507   2.090
    1C        C  136   3.261   2.478   2.192
    1C        C  137   3.197   2.520   2.311
    1C        C  138   3.405   2.485   2.430
    1C        C  139   3.266   2.507   2.433
    1C        C  140   3.480   2.487   2.550
    1C        C  141   3.410   2.496   2.673
    1C        C  142   3.621   2.496   2.795
    1C        C  143   3.480   2.491   2.796
    1C        C  144   3.693   2.514   2.915
    1C        C  145   3.627   2.501   3.039
    1C        C  146   3.834   2.542   3.159
    1C        C  147   3.699   2.502   3.161
    1C        C  148   3.901   2.567   3.280
    1C        C  149   3.834   2.549   3.403
    1C        C  150   4.028   2.630   3.526
    1C        C  151   3.900   2.569   3.527
    1C        C  152   4.086   2.671   3.648
    1C        C  153   4.025   2.640   3.771
    1C        C  154   4.196   2.767   3.891
    1C        C  155   4.085   2.679   3.893
    1C        C  156   4.249   2.816   4.012
    1C        C  157   4.200   2.766   4.134
    1C        C  158   4.340   2.925   4.255
    1C        C  159   4.251   2.815   4.256
    1C        C  160   4.379   2.984   4.377
    1C        C  161   4.336   2.930   4.500
    1C        C  162   4.450   3.109   4.617
    1C        C  163   4.376   2.989   4.622
    1C        C  164   4.474   3.180   4.737
    1C        C  165   4.439   3.121   4.860
    1C        C  166   4.516   3.319   4.974
    1C        C  167   4.485   3.184   4.977
    1C        C  168   3.477   2.430   2.078
    1C        C  169   3.401   2.458   2.192
    1C        C  170   3.620   2.471   2.309
    1C        C  171   3.478   2.469   2.310
    1C        C  172   3.694   2.485   2.428
    1C        C  173   3.621   2.485   2.549
    1C        C  174   3.826   2.542   2.669
    1C        C  175   3.689   2.504   2.671
    1C        C  176   3.895   2.567   2.789
    1C        C  177   3.831   2.546   2.913
    1C        C  178   4.024   2.632   3.036
    1C        C  179   3.899   2.566   3.035
    1C        C  180   4.089   2.667   3.156
    1C        C  181   4.027   2.633   3.279
    1C        C  182   4.195   2.757   3.398
    1C        C  183   4.085   2.668   3.402
    1C        C  184   4.246   2.804   3.521
    1C        C  185   4.197   2.758   3.646
    1C        C  186   4.338   2.919   3.766
    1C        C  187   4.249   2.809   3.767
    1C        C  188   4.378   2.981   3.887
    1C        C  189   4.340   2.925   4.010
    1C        C  190   4.452   3.103   4.128
    1C        C  191   4.386   2.979   4.132
    1C        C  192   4.471   3.172   4.250
    1C        C  193   4.441   3.111   4.374
    1C        C  194   4.505   3.313   4.494
    1C        C  195   4.474   3.175   4.495
    1C        C  196   4.516   3.387   4.614
    1C        C  197   4.509   3.318   4.737
    1C        C  198   4.552   3.535   4.853
    1C        C  199   4.533   3.393   4.856
    1C        C  200   4.580   3.622   4.963
    1C        C  201   3.616   2.422   2.073
    1C        C  202   3.826   2.516   2.185
    1C        C  203   3.692   2.466   2.186
    1C        C  204   3.899   2.545   2.304
    1C        C  205   3.830   2.522   2.425
    1C        C  206   4.016   2.628   2.545
    1C        C  207   3.895   2.554   2.546
    1C        C  208   4.078   2.667   2.666
    1C        C  209   4.022   2.630   2.790
    1C        C  210   4.193   2.756   2.910
    1C        C  211   4.080   2.671   2.912
    1C        C  212   4.250   2.802   3.031
    1C        C  213   4.200   2.753   3.154
    1C        C  214   4.337   2.913   3.274
    1C        C  215   4.251   2.801   3.276
    1C        C  216   4.365   2.977   3.397
    1C        C  217   4.335   2.914   3.520
    1C        C  218   4.436   3.100   3.642
    1C        C  219   4.377   2.972   3.641
    1C        C  220   4.468   3.168   3.762
    1C        C  221   4.447   3.105   3.886
    1C        C  222   4.514   3.307   4.005
    1C        C  223   4.480   3.170   4.007
    1C        C  224   4.519   3.377   4.128
    1C        C  225   4.501   3.310   4.251
    1C        C  226   4.521   3.524   4.369
    1C        C  227   4.516   3.382   4.371
    1C        C  228   4.517   3.598   4.489
    1C        C  229   4.528   3.528   4.611
    1C        C  230   4.504   3.743   4.728
    1C        C  231   4.530   3.603   4.730
    1C        C  232   4.496   3.821   4.846
    1C        C  233   4.549   3.758   4.959
    1C        C  234   4.018   2.608   2.068
    1C        C  235   3.896   2.542   2.067
    1C        C  236   4.086   2.654   2.182
    1C        C  237   4.025   2.611   2.302
    1C        C  238   4.199   2.736   2.420
    1C        C  239   4.083   2.654   2.423
    1C        C  240   4.247   2.790   2.541
    1C        C  241   4.192   2.751   2.665
    1C        C  242   4.342   2.903   2.784
    1C        C  243   4.243   2.802   2.786
    1C        C  244   4.384   2.962   2.905
    1C        C  245   4.344   2.907   3.030
    1C        C  246   4.442   3.095   3.153
    1C        C  247   4.382   2.967   3.152
    1C        C  248   4.464   3.164   3.275
    1C        C  249   4.430   3.103   3.397
    1C        C  250   4.501   3.302   3.514
    1C        C  251   4.459   3.167   3.520
    1C        C  252   4.513   3.372   3.636
    1C        C  253   4.507   3.304   3.760
    1C        C  254   4.522   3.516   3.878
    1C        C  255   4.523   3.375   3.882
    1C        C  256   4.518   3.586   4.000
    1C        C  257   4.519   3.519   4.124
    1C        C  258   4.484   3.730   4.243
    1C        C  259   4.513   3.592   4.245
    1C        C  260   4.471   3.803   4.363
    1C        C  261   4.491   3.737   4.486
    1C        C  262   4.427   3.940   4.602
    1C        C  263   4.481   3.810   4.606
    1C        C  264   4.398   4.009   4.721
    1C        C  265   4.439   3.950   4.843
    1C        C  266   4.321   4.134   4.960
    1C        C  267   4.389   4.013   4.958
    1C        C  268   4.260   2.784   2.061
    1C        C  269   4.200   2.737   2.179
    1C        C  270   4.341   2.896   2.301
    1C        C  271   4.256   2.783   2.300
    1C        C  272   4.382   2.959   2.421
    1C        C  273   4.339   2.898   2.541
    1C        C  274   4.449   3.083   2.663
    1C        C  275   4.382   2.959   2.661
    1C        C  276   4.474   3.154   2.783
    1C        C  277   4.443   3.090   2.905
    1C        C  278   4.503   3.293   3.027
    1C        C  279   4.467   3.156   3.028
    1C        C  280   4.510   3.367   3.147
    1C        C  281   4.498   3.301   3.271
    1C        C  282   4.521   3.513   3.393
    1C        C  283   4.517   3.372   3.392
    1C        C  284   4.513   3.584   3.515
    1C        C  285   4.517   3.513   3.637
    1C        C  286   4.488   3.727   3.755
    1C        C  287   4.514   3.589   3.757
    1C        C  288   4.476   3.795   3.879
    1C        C  289   4.494   3.725   4.000
    1C        C  290   4.424   3.930   4.116
    1C        C  291   4.470   3.797   4.120
    1C        C  292   4.393   3.997   4.237
    1C        C  293   4.423   3.936   4.361
    1C        C  294   4.327   4.129   4.481
    1C        C  295   4.395   4.005   4.480
    1C        C  296   4.289   4.194   4.601
    1C        C  297   4.327   4.132   4.722
    1C        C  298   4.197   4.312   4.838
    1C        C  299   4.282   4.197   4.841
    1C        C  300   4.172   4.402   4.947
    1C        C  301   4.355   2.886   2.062
    1C        C  302   4.473   3.068   2.181
    1C        C  303   4.400   2.945   2.181
    1C        C  304   4.488   3.144   2.301
    1C        C  305   4.459   3.077   2.422
    1C        C  306   4.511   3.286   2.538
    1C        C  307   4.478   3.149   2.542
    1C        C  308   4.525   3.358   2.659
    1C        C  309   4.509   3.291   2.782
    1C        C  310   4.527   3.502   2.901
    1C        C  311   4.522   3.361   2.904
    1C        C  312   4.518   3.575   3.021
    1C        C  313   4.515   3.508   3.146
    1C        C  314   4.488   3.718   3.262
    1C        C  315   4.513   3.579   3.268
    1C        C  316   4.475   3.788   3.384
    1C        C  317   4.488   3.723   3.509
    1C        C  318   4.421   3.925   3.627
    1C        C  319   4.468   3.792   3.631
    1C        C  320   4.397   3.989   3.751
    1C        C  321   4.426   3.927   3.874
    1C        C  322   4.318   4.114   3.990
    1C        C  323   4.392   3.994   3.994
    1C        C  324   4.282   4.174   4.113
    1C        C  325   4.327   4.122   4.236
    1C        C  326   4.191   4.287   4.352
    1C        C  327   4.287   4.183   4.357
    1C        C  328   4.136   4.337   4.472
    1C        C  329   4.195   4.299   4.595
    1C        C  330   4.027   4.438   4.714
    1C        C  331   4.140   4.352   4.714
    1C        C  332   3.973   4.492   4.832
    1C        C  333   4.057   4.480   4.944
    1C        C  334   4.553   3.266   2.065
    1C        C  335   4.539   3.126   2.068
    1C        C  336   4.539   3.351   2.175
    1C        C  337   4.524   3.282   2.297
    1C        C  338   4.524   3.497   2.412
    1C        C  339   4.528   3.356   2.417
    1C        C  340   4.528   3.569   2.533
    1C        C  341   4.532   3.499   2.656
    1C        C  342   4.499   3.710   2.773
    1C        C  343   4.522   3.571   2.777
    1C        C  344   4.483   3.781   2.894
    1C        C  345   4.493   3.714   3.018
    1C        C  346   4.423   3.917   3.138
    1C        C  347   4.468   3.783   3.139
    1C        C  348   4.392   3.982   3.260
    1C        C  349   4.424   3.919   3.383
    1C        C  350   4.321   4.109   3.503
    1C        C  351   4.391   3.985   3.503
    1C        C  352   4.277   4.167   3.624
    1C        C  353   4.321   4.107   3.744
    1C        C  354   4.178   4.267   3.868
    1C        C  355   4.276   4.165   3.865
    1C        C  356   4.127   4.320   3.989
    1C        C  357   4.183   4.275   4.110
    1C        C  358   4.013   4.404   4.231
    1C        C  359   4.133   4.329   4.231
    1C        C  360   3.955   4.450   4.351
    1C        C  361   4.021   4.419   4.472
    1C        C  362   3.831   4.519   4.594
    1C        C  363   3.963   4.467   4.591
    1C        C  364   3.766   4.558   4.713
    1C        C  365   3.843   4.549   4.831
    1C        C  366   3.633   4.589   4.951
    1C        C  367   3.772   4.578   4.947
    1C        C  368   4.509   3.564   2.052
    1C        C  369   4.526   3.492   2.171
    1C        C  370   4.508   3.707   2.285
    1C        C  371   4.531   3.568   2.290
    1C        C  372   4.482   3.775   2.406
    1C        C  373   4.504   3.708   2.528
    1C        C  374   4.428   3.908   2.648
    1C        C  375   4.481   3.777   2.649
    1C        C  376   4.395   3.972   2.770
    1C        C  377   4.432   3.912   2.892
    1C        C  378   4.314   4.092   3.013
    1C        C  379   4.394   3.975   3.013
    1C        C  380   4.274   4.154   3.134
    1C        C  381   4.311   4.098   3.258
    1C        C  382   4.182   4.264   3.376
    1C        C  383   4.279   4.162   3.380
    1C        C  384   4.131   4.316   3.497
    1C        C  385   4.184   4.273   3.621
    1C        C  386   4.014   4.398   3.742
    1C        C  387   4.130   4.316   3.745
    1C        C  388   3.949   4.432   3.863
    1C        C  389   4.008   4.395   3.986
    1C        C  390   3.822   4.496   4.106
    1C        C  391   3.948   4.432   4.108
    1C        C  392   3.754   4.519   4.228
    1C        C  393   3.825   4.505   4.349
    1C        C  394   3.622   4.552   4.474
    1C        C  395   3.762   4.534   4.472
    1C        C  396   3.551   4.565   4.595
    1C        C  397   3.625   4.567   4.715
    1C        C  398   3.414   4.547   4.840
    1C        C  399   3.553   4.573   4.837
    1C        C  400   3.350   4.510   4.958
    1C        C  401   4.501   3.702   2.049
    1C        C  402   4.459   3.917   2.165
    1C        C  403   4.496   3.781   2.165
    1C        C  404   4.416   3.977   2.286
    1C        C  405   4.433   3.908   2.408
    1C        C  406   4.325   4.096   2.525
    1C        C  407   4.398   3.975   2.527
    1C        C  408   4.276   4.147   2.647
    1C        C  409   4.321   4.092   2.770
    1C        C  410   4.175   4.250   2.889
    1C        C  411   4.273   4.149   2.890
    1C        C  412   4.120   4.296   3.010
    1C        C  413   4.175   4.254   3.133
    1C        C  414   4.008   4.386   3.253
    1C        C  415   4.126   4.309   3.254
    1C        C  416   3.945   4.420   3.376
    1C        C  417   4.010   4.390   3.497
    1C        C  418   3.819   4.478   3.619
    1C        C  419   3.951   4.427   3.620
    1C        C  420   3.752   4.504   3.740
    1C        C  421   3.820   4.489   3.863
    1C        C  422   3.612   4.536   3.988
    1C        C  423   3.752   4.515   3.984
    1C        C  424   3.544   4.546   4.111
    1C        C  425   3.616   4.548   4.232
    1C        C  426   3.405   4.547   4.358
    1C        C  427   3.546   4.554   4.354
    1C        C  428   3.334   4.549   4.480
    1C        C  429   3.410   4.551   4.599
    1C        C  430   3.199   4.512   4.724
    1C        C  431   3.339   4.539   4.721
    1C        C  432   3.131   4.492   4.847
    1C        C  433   3.212   4.495   4.962
    1C        C  434   4.387   4.124   2.051
    1C        C  435   4.450   4.000   2.052
    1C        C  436   4.307   4.162   2.164
    1C        C  437   4.332   4.092   2.284
    1C        C  438   4.182   4.251   2.403
    1C        C  439   4.281   4.150   2.402
    1C        C  440   4.124   4.296   2.524
    1C        C  441   4.176   4.246   2.646
    1C        C  442   4.008   4.380   2.763
    1C        C  443   4.123   4.297   2.766
    1C        C  444   3.945   4.413   2.885
    1C        C  445   4.007   4.381   3.008
    1C        C  446   3.818   4.478   3.131
    1C        C  447   3.946   4.419   3.130
    1C        C  448   3.751   4.501   3.253
    1C        C  449   3.816   4.477   3.377
    1C        C  450   3.609   4.523   3.499
    1C        C  451   3.748   4.499   3.498
    1C        C  452   3.541   4.538   3.623
    1C        C  453   3.615   4.537   3.743
    1C        C  454   3.402   4.538   3.865
    1C        C  455   3.543   4.546   3.865
    1C        C  456   3.334   4.526   3.989
    1C        C  457   3.403   4.535   4.112
    1C        C  458   3.198   4.498   4.238
    1C        C  459   3.335   4.534   4.236
    1C        C  460   3.131   4.482   4.362
    1C        C  461   3.198   4.514   4.482
    1C        C  462   3.000   4.433   4.605
    1C        C  463   3.130   4.488   4.603
    1C        C  464   2.934   4.404   4.727
    1C        C  465   2.995   4.447   4.848
    1C        C  466   2.806   4.342   4.960
    1C        C  467   2.913   4.432   4.964
    1C        C  468   4.128   4.285   2.044
    1C        C  469   4.190   4.245   2.163
    1C        C  470   4.009   4.375   2.279
    1C        C  471   4.128   4.297   2.281
    1C        C  472   3.945   4.414   2.399
    1C        C  473   4.010   4.378   2.519
    1C        C  474   3.817   4.469   2.644
    1C        C  475   3.947   4.414   2.641
    1C        C  476   3.749   4.496   2.765
    1C        C  477   3.817   4.472   2.887
    1C        C  478   3.609   4.515   3.011
    1C        C  479   3.749   4.496   3.009
    1C        C  480   3.540   4.523   3.133
    1C        C  481   3.612   4.521   3.255
    1C        C  482   3.398   4.531   3.379
    1C        C  483   3.539   4.528   3.376
    1C        C  484   3.329   4.525   3.502
    1C        C  485   3.400   4.538   3.624
    1C        C  486   3.190   4.500   3.750
    1C        C  487   3.328   4.528   3.745
    1C        C  488   3.125   4.473   3.873
    1C        C  489   3.196   4.496   3.993
    1C        C  490   3.005   4.411   4.117
    1C        C  491   3.132   4.473   4.116
    1C        C  492   2.949   4.379   4.242
    1C        C  493   3.005   4.419   4.366
    1C        C  494   2.825   4.303   4.484
    1C        C  495   2.937   4.389   4.486
    1C        C  496   2.775   4.260   4.609
    1C        C  497   2.821   4.318   4.729
    1C        C  498   2.670   4.163   4.849
    1C        C  499   2.757   4.275   4.847
    1C        C  500   2.603   4.114   4.962
    1C        C  501   4.006   4.352   2.041
    1C        C  502   3.819   4.466   2.155
    1C        C  503   3.944   4.401   2.157
    1C        C  504   3.747   4.487   2.275
    1C        C  505   3.812   4.462   2.397
    1C        C  506   3.612   4.515   2.524
    1C        C  507   3.751   4.492   2.521
    1C        C  508   3.538   4.527   2.644
    1C        C  509   3.609   4.517   2.766
    1C        C  510   3.398   4.530   2.887
    1C        C  511   3.540   4.528   2.888
    1C        C  512   3.328   4.524   3.009
    1C        C  513   3.399   4.525   3.132
    1C        C  514   3.191   4.499   3.257
    1C        C  515   3.330   4.527   3.255
    1C        C  516   3.126   4.468   3.379
    1C        C  517   3.193   4.490   3.502
    1C        C  518   3.000   4.413   3.623
    1C        C  519   3.126   4.478   3.626
    1C        C  520   2.941   4.374   3.746
    1C        C  521   3.002   4.404   3.870
    1C        C  522   2.831   4.289   3.994
    1C        C  523   2.945   4.372   3.995
    1C        C  524   2.782   4.245   4.119
    1C        C  525   2.836   4.293   4.240
    1C        C  526   2.694   4.137   4.366
    1C        C  527   2.781   4.247   4.362
    1C        C  528   2.652   4.081   4.489
    1C        C  529   2.687   4.149   4.607
    1C        C  530   2.579   3.966   4.731
    1C        C  531   2.643   4.093   4.729
    1C        C  532   2.545   3.903   4.853
    1C        C  533   2.526   3.997   4.960
    1C        C  534   3.619   4.562   2.044
    1C        C  535   3.748   4.508   2.041
    1C        C  536   3.538   4.538   2.159
    1C        C  537   3.608   4.517   2.281
    1C        C  538   3.397   4.523   2.401
    1C        C  539   3.538   4.515   2.404
    1C        C  540   3.325   4.516   2.523
    1C        C  541   3.397   4.520   2.644
    1C        C  542   3.189   4.486   2.768
    1C        C  543   3.326   4.519   2.766
    1C        C  544   3.125   4.460   2.891
    1C        C  545   3.191   4.491   3.013
    1C        C  546   3.001   4.403   3.135
    1C        C  547   3.124   4.474   3.136
    1C        C  548   2.941   4.366   3.257
    1C        C  549   2.999   4.406   3.379
    1C        C  550   2.826   4.287   3.505
    1C        C  551   2.939   4.372   3.503
    1C        C  552   2.777   4.237   3.628
    1C        C  553   2.828   4.290   3.748
    1C        C  554   2.695   4.127   3.876
    1C        C  555   2.781   4.240   3.872
    1C        C  556   2.663   4.070   4.001
    1C        C  557   2.694   4.135   4.122
    1C        C  558   2.600   3.945   4.247
    1C        C  559   2.658   4.074   4.244
    1C        C  560   2.568   3.884   4.371
    1C        C  561   2.586   3.956   4.491
    1C        C  562   2.532   3.752   4.617
    1C        C  563   2.556   3.891   4.613
    1C        C  564   2.522   3.684   4.740
    1C        C  565   2.527   3.761   4.860
    1C        C  566   2.533   3.547   4.978
    1C        C  567   2.540   3.686   4.977
    1C        C  568   3.330   4.479   2.042
    1C        C  569   3.397   4.519   2.159
    1C        C  570   3.187   4.472   2.281
    1C        C  571   3.324   4.511   2.280
    1C        C  572   3.120   4.456   2.405
    1C        C  573   3.187   4.487   2.525
    1C        C  574   2.992   4.403   2.650
    1C        C  575   3.118   4.469   2.647
    1C        C  576   2.936   4.360   2.773
    1C        C  577   2.999   4.397   2.894
    1C        C  578   2.824   4.279   3.018
    1C        C  579   2.935   4.366   3.016
    1C        C  580   2.778   4.224   3.139
    1C        C  581   2.830   4.279   3.259
    1C        C  582   2.700   4.116   3.387
    1C        C  583   2.781   4.231   3.383
    1C        C  584   2.662   4.059   3.511
    1C        C  585   2.695   4.122   3.633
    1C        C  586   2.593   3.938   3.757
    1C        C  587   2.653   4.066   3.755
    1C        C  588   2.571   3.875   3.881
    1C        C  589   2.603   3.942   4.002
    1C        C  590   2.546   3.741   4.130
    1C        C  591   2.575   3.879   4.125
    1C        C  592   2.532   3.673   4.254
    1C        C  593   2.538   3.746   4.375
    1C        C  594   2.513   3.537   4.499
    1C        C  595   2.522   3.678   4.497
    1C        C  596   2.524   3.468   4.623
    1C        C  597   2.520   3.542   4.743
    1C        C  598   2.528   3.327   4.863
    1C        C  599   2.523   3.468   4.863
    1C        C  600   2.537   3.251   4.981
    1C        C  601   3.199   4.438   2.043
    1C        C  602   2.986   4.393   2.160
    1C        C  603   3.121   4.441   2.160
    1C        C  604   2.932   4.354   2.285
    1C        C  605   2.996   4.389   2.407
    1C        C  606   2.825   4.269   2.531
    1C        C  607   2.934   4.358   2.530
    1C        C  608   2.770   4.222   2.653
    1C        C  609   2.822   4.277   2.772
    1C        C  610   2.689   4.115   2.898
    1C        C  611   2.774   4.227   2.896
    1C        C  612   2.651   4.055   3.021
    1C        C  613   2.692   4.112   3.143
    1C        C  614   2.587   3.933   3.265
    1C        C  615   2.651   4.059   3.268
    1C        C  616   2.564   3.870   3.390
    1C        C  617   2.594   3.935   3.512
    1C        C  618   2.538   3.733   3.639
    1C        C  619   2.566   3.872   3.635
    1C        C  620   2.521   3.668   3.763
    1C        C  621   2.532   3.740   3.885
    1C        C  622   2.516   3.531   4.011
    1C        C  623   2.530   3.671   4.008
    1C        C  624   2.521   3.462   4.134
    1C        C  625   2.516   3.533   4.256
    1C        C  626   2.544   3.325   4.381
    1C        C  627   2.518   3.464   4.379
    1C        C  628   2.566   3.257   4.502
    1C        C  629   2.550   3.330   4.622
    1C        C  630   2.604   3.124   4.745
    1C        C  631   2.553   3.257   4.743
    1C        C  632   2.622   3.050   4.866
    1C        C  633   2.565   3.114   4.980
    1C        C  634   2.786   4.306   2.058
    1C        C  635   2.892   4.397   2.052
    1C        C  636   2.751   4.232   2.171
    1C        C  637   2.816   4.272   2.290
    1C        C  638   2.681   4.108   2.414
    1C        C  639   2.769   4.218   2.412
    1C        C  640   2.640   4.051   2.537
    1C        C  641   2.683   4.111   2.657
    1C        C  642   2.584   3.924   2.779
    1C        C  643   2.647   4.050   2.780
    1C        C  644   2.563   3.858   2.903
    1C        C  645   2.587   3.929   3.023
    1C        C  646   2.522   3.728   3.151
    1C        C  647   2.562   3.863   3.145
    1C        C  648   2.516   3.660   3.275
    1C        C  649   2.531   3.733   3.395
    1C        C  650   2.516   3.522   3.519
    1C        C  651   2.519   3.664   3.518
    1C        C  652   2.521   3.456   3.644
    1C        C  653   2.513   3.527   3.766
    1C        C  654   2.545   3.320   3.892
    1C        C  655   2.514   3.458   3.889
    1C        C  656   2.565   3.252   4.014
    1C        C  657   2.550   3.323   4.135
    1C        C  658   2.612   3.123   4.259
    1C        C  659   2.567   3.257   4.259
    1C        C  660   2.642   3.058   4.381
    1C        C  661   2.609   3.122   4.502
    1C        C  662   2.711   2.939   4.627
    1C        C  663   2.633   3.056   4.625
    1C        C  664   2.753   2.876   4.747
    1C        C  665   2.701   2.931   4.867
    1C        C  666   2.746   2.869   4.985
    1C        C  667   2.688   4.026   2.058
    1C        C  668   2.685   4.107   2.172
    1C        C  669   2.594   3.912   2.292
    1C        C  670   2.646   4.044   2.293
    1C        C  671   2.566   3.849   2.416
    1C        C  672   2.587   3.920   2.536
    1C        C  673   2.523   3.718   2.660
    1C        C  674   2.561   3.854   2.659
    1C        C  675   2.513   3.652   2.784
    1C        C  676   2.524   3.722   2.907
    1C        C  677   2.501   3.514   3.033
    1C        C  678   2.511   3.655   3.030
    1C        C  679   2.507   3.444   3.155
    1C        C  680   2.509   3.519   3.275
    1C        C  681   2.536   3.310   3.403
    1C        C  682   2.512   3.450   3.398
    1C        C  683   2.558   3.247   3.528
    1C        C  684   2.547   3.317   3.650
    1C        C  685   2.611   3.115   3.772
    1C        C  686   2.562   3.248   3.772
    1C        C  687   2.643   3.054   3.895
    1C        C  688   2.610   3.118   4.017
    1C        C  689   2.715   2.935   4.139
    1C        C  690   2.640   3.054   4.139
    1C        C  691   2.756   2.877   4.261
    1C        C  692   2.715   2.937   4.382
    1C        C  693   2.753   2.879   4.506
    1C        C  694   2.633   3.897   2.058
    1C        C  695   2.531   3.705   2.176
    1C        C  696   2.579   3.838   2.173
    1C        C  697   2.508   3.640   2.299
    1C        C  698   2.523   3.715   2.418
    1C        C  699   2.489   3.505   2.544
    1C        C  700   2.505   3.646   2.540
    1C        C  701   2.500   3.439   2.668
    1C        C  702   2.504   3.511   2.789
    1C        C  703   2.522   3.301   2.915
    1C        C  704   2.503   3.441   2.912
    1C        C  705   2.539   3.232   3.038
    1C        C  706   2.522   3.303   3.159
    1C        C  707   2.585   3.102   3.282
    1C        C  708   2.544   3.238   3.282
    1C        C  709   2.628   3.045   3.404
    1C        C  710   2.605   3.114   3.526
    1C        C  711   2.717   2.935   3.648
    1C        C  712   2.638   3.052   3.648
    1C        C  713   2.763   2.881   3.771
    1C        C  714   2.723   2.937   3.894
    1C        C  715   2.760   2.880   4.017
    1C        C  716   2.450   3.501   2.067
    1C        C  717   2.495   3.634   2.061
    1C        C  718   2.466   3.423   2.185
    1C        C  719   2.485   3.500   2.303
    1C        C  720   2.518   3.291   2.428
    1C        C  721   2.488   3.429   2.425
    1C        C  722   2.542   3.225   2.551
    1C        C  723   2.526   3.300   2.670
    1C        C  724   2.601   3.104   2.796
    1C        C  725   2.543   3.233   2.793
    1C        C  726   2.632   3.041   2.918
    1C        C  727   2.594   3.102   3.040
    1C        C  728   2.709   2.924   3.162
    1C        C  729   2.624   3.038   3.163
    1C        C  730   2.758   2.874   3.284
    1C        C  731   2.712   2.932   3.405
    1C        C  732   2.762   2.879   3.526
    1C        C  733   2.488   3.197   2.075
    1C        C  734   2.487   3.281   2.187
    1C        C  735   2.587   3.088   2.306
    1C        C  736   2.525   3.217   2.308
    1C        C  737   2.619   3.025   2.429
    1C        C  738   2.595   3.095   2.549
    1C        C  739   2.694   2.913   2.672
    1C        C  740   2.623   3.035   2.674
    1C        C  741   2.744   2.861   2.793
    1C        C  742   2.706   2.921   2.916
    1C        C  743   2.751   2.869   3.039
    1C        C  744   2.547   3.071   2.074
    1C        C  745   2.678   2.893   2.186
    1C        C  746   2.610   3.017   2.187
    1C        C  747   2.729   2.842   2.308
    1C        C  748   2.692   2.905   2.429
    1C        C  749   2.735   2.850   2.552
    1C        C  750   2.734   2.834   2.072
    1C        C  751   3.665   2.301   2.002
    1C        O  752   3.630   2.184   2.033
    1C        O  753   3.711   2.300   1.870
    1C        C  754   4.635   3.056   1.981
    1C        O  755   4.612   3.066   1.857
    1C        O  756   4.771   3.049   2.015
    1C        C  757   4.421   4.200   1.929
    1C        O  758   4.520   4.278   1.924
    1C        O  759   4.348   4.182   1.811
    1C        C  760   3.587   4.688   1.972
    1C        O  761   3.637   4.801   1.999
    1C        O  762   3.544   4.687   1.839
    1C        C  763   2.874   4.514   1.963
    1C        O  764   2.919   4.530   1.846
    1C        O  765   2.795   4.622   2.004
    1C        C  766   2.326   3.480   1.989
    1C        O  767   2.327   3.425   1.876
    1C        O  768   2.210   3.558   1.995
    1C        C  769   4.671   3.590   5.075
    1C        O  770   4.632   3.569   5.193
    1C        O  771   4.809   3.594   5.053
    1C        C  772   4.278   4.448   5.040
    1C        O  773   4.262   4.435   5.164
    1C        O  774   4.367   4.555   5.027
    1C        C  775   4.153   2.519   5.066
    1C        O  776   4.127   2.397   5.084
    1C        O  777   4.207   2.579   5.181
    1C        C  778   2.907   4.535   5.070
    1C        O  779   2.858   4.650   5.052
    1C        O  780   2.932   4.510   5.206
    1C        C  781   2.461   3.041   5.055
    1C        O  782   2.345   3.028   5.007
    1C        O  783   2.461   3.058   5.193
    1C        C  784   2.420   4.005   5.062
    1C        O  785   2.304   4.032   5.021
    1C        O  786   2.444   4.069   5.184
    1C        C  787   2.956   2.413   2.011
    1C        O  788   2.963   2.409   1.885
    1C        O  789   2.913   2.295   2.070
    1C        C  790   3.169   2.372   5.064
    1C        O  791   3.147   2.261   5.008
    1C        O  792   3.211   2.369   5.197
    1C        H  793   4.228   3.045   5.005
    1C        H  794   4.175   2.816   5.073
    1C        H  795   4.523   3.120   5.054
    1C        H  796   4.560   3.360   5.063
    1C        H  797   4.614   3.821   5.017
    1C        H  798   4.453   4.008   5.044
    1C        H  799   4.303   4.172   5.058
    1C        H  800   4.016   4.509   5.039
    1C        H  801   3.820   4.558   5.041
    1C        H  802   3.590   4.586   5.048
    1C        H  803   3.400   4.455   5.035
    1C        H  804   3.179   4.462   5.058
    1C        H  805   3.898   2.480   5.064
    1C        H  806   3.677   2.447   5.072
    1C        H  807   3.021   2.591   5.068
    1C        H  808   3.437   2.465   5.079
    1C        H  809   2.902   2.754   5.071
    1C        H  810   2.685   2.875   5.073
    1C        H  811   2.472   3.284   5.059
    1C        H  812   2.596   3.504   5.054
    1C        H  813   2.536   3.733   5.073
    1C        H  814   2.650   4.130   5.056
    1C        H  815   2.747   4.334   5.049
    1C        H  816   2.690   2.870   1.981
    1C        H  817   2.874   2.703   1.984
    1C        H  818   3.213   2.411   2.001
    1C        H  819   3.432   2.474   1.991
    1C        H  820   3.880   2.472   1.988
    1C        H  821   4.085   2.574   1.991
    1C        H  822   4.244   2.734   1.968
    1C        H  823   4.420   2.887   1.977
    1C        H  824   4.598   3.308   1.978
    1C        H  825   4.501   3.509   1.960
    1C        H  826   4.564   3.751   1.977
    1C        H  827   3.807   4.540   1.958
    1C        H  828   3.956   4.363   1.947
    1C        H  829   4.146   4.222   1.960
    1C        H  830   4.518   3.974   1.973
    1C        H  831   2.617   3.863   1.958
    1C        H  832   2.754   4.044   1.975
    1C        H  833   2.738   4.290   1.964
    1C        H  834   3.378   4.497   1.948
    1C        H  835   3.146   4.443   1.950
    1C        H  836   2.523   3.010   1.990
    1C        H  837   2.413   3.217   2.001
    1C        H  838   2.511   3.675   1.964
    2V3OU   H29  839   2.810   3.555   2.815
    2V3OU   C27  840   2.794   3.506   2.914
    2V3OU   H27  841   2.744   3.572   2.990
    2V3OU   H28  842   2.740   3.409   2.900
    2V3OU   O11  843   2.916   3.477   2.983
    2V3OU   C15  844   2.931   3.408   3.102
    2V3OU   C13  845   3.058   3.379   3.155
    2V3OU   C14  846   3.085   3.271   3.240
    2V3OU   C16  847   2.981   3.188   3.281
    2V3OU    H6  848   2.994   3.105   3.352
    2V3OU   C12  849   3.215   3.226   3.292
    2V3OU    O2  850   3.241   3.122   3.357
    2V3OU   C10  851   3.326   3.308   3.242
    2V3OU    C8  852   3.457   3.269   3.268
    2V3OU   O10  853   3.486   3.150   3.326
    2V3OU   H26  854   3.399   3.110   3.341
    2V3OU    C6  855   3.568   3.348   3.224
    2V3OU    C5  856   3.540   3.467   3.157
    2V3OU    C4  857   3.707   3.295   3.236
    2V3OU    H4  858   3.720   3.229   3.326
    2V3OU    H5  859   3.722   3.222   3.151
    2V3OU    C2  860   3.818   3.400   3.227
    2V3OU    O6  861   3.808   3.473   3.350
    2V3OU   H21  862   3.762   3.554   3.323
    2V3OU    C3  863   3.785   3.501   3.117
    2V3OU    H2  864   3.865   3.578   3.106
    2V3OU    H3  865   3.791   3.443   3.022
    2V3OU   C25  866   3.950   3.324   3.213
    2V3OU    O7  867   3.999   3.286   3.107
    2V3OU   C26  868   4.026   3.293   3.341
    2V3OU   H22  869   4.066   3.387   3.388
    2V3OU   H23  870   4.118   3.234   3.317
    2V3OU    O8  871   3.968   3.210   3.439
    2V3OU   H24  872   3.929   3.266   3.508
    2V3OU    C1  873   3.647   3.566   3.124
    2V3OU    H1  874   3.627   3.618   3.026
    2V3OU    O3  875   3.663   3.657   3.234
    2V3OU   C19  876   3.620   3.793   3.232
    2V3OU    H9  877   3.518   3.802   3.186
    2V3OU    O4  878   3.709   3.860   3.144
    2V3OU   C20  879   3.842   3.878   3.193
    2V3OU   H10  880   3.895   3.780   3.212
    2V3OU   C24  881   3.613   3.855   3.372
    2V3OU   H16  882   3.548   3.791   3.436
    2V3OU   H17  883   3.562   3.951   3.344
    2V3OU   C23  884   3.752   3.882   3.430
    2V3OU   H15  885   3.793   3.780   3.461
    2V3OU    N1  886   3.740   3.966   3.547
    2V3OU   H19  887   3.809   3.928   3.608
    2V3OU   H20  888   3.657   3.939   3.595
    2V3OU   C21  889   3.848   3.950   3.328
    2V3OU   H11  890   3.949   3.925   3.372
    2V3OU    O5  891   3.823   4.090   3.334
    2V3OU   H18  892   3.773   4.110   3.414
    2V3OU   C22  893   3.912   3.953   3.081
    2V3OU   H12  894   3.865   4.054   3.074
    2V3OU   H13  895   3.905   3.896   2.985
    2V3OU   H14  896   4.022   3.958   3.106
    2V3OU   C11  897   3.168   3.469   3.116
    2V3OU    O1  898   3.143   3.583   3.073
    2V3OU    C9  899   3.300   3.427   3.169
    2V3OU    C7  900   3.406   3.508   3.128
    2V3OU    O9  901   3.391   3.628   3.062
    2V3OU   H25  902   3.295   3.633   3.050
    2V3OU   C17  903   2.829   3.323   3.150
    2V3OU    H7  904   2.734   3.354   3.107
    2V3OU   C18  905   2.853   3.217   3.237
    2V3OU    H8  906   2.787   3.174   3.314
    3SOL     OW  907   2.775   5.170   6.264
    3SOL    HW1  908   2.801   5.095   6.323
    3SOL    HW2  909   2.697   5.143   6.207
    4SOL     OW  910   6.801   0.493   1.220
    4SOL    HW1  911   6.841   0.584   1.228
    4SOL    HW2  912   6.730   0.482   1.290
    5SOL     OW  913   4.422   2.460   2.013
    5SOL    HW1  914   4.349   2.512   2.057
    5SOL    HW2  915   4.443   2.379   2.067
    6SOL     OW  916   4.243   1.460   1.628
    6SOL    HW1  917   4.150   1.436   1.655
    6SOL    HW2  918   4.249   1.461   1.528
    7SOL     OW  919   0.600   4.015   3.540
    7SOL    HW1  920   0.569   4.001   3.446
    7SOL    HW2  921   0.677   4.079   3.540
    8SOL     OW  922   2.903   1.972   5.702
    8SOL    HW1  923   2.884   1.874   5.714
    8SOL    HW2  924   2.954   1.986   5.618
    9SOL     OW  925   5.201   1.686   5.801
    9SOL    HW1  926   5.281   1.631   5.782
    9SOL    HW2  927   5.155   1.652   5.883
   10SOL     OW  928   2.326   5.402   4.927
   10SOL    HW1  929   2.377   5.472   4.978
   10SOL    HW2  930   2.279   5.342   4.992
   11SOL     OW  931   2.398   1.090   5.485
   11SOL    HW1  932   2.386   1.178   5.531
   11SOL    HW2  933   2.316   1.068   5.433
   12SOL     OW  934   2.931   5.126   3.578
   12SOL    HW1  935   2.843   5.146   3.536
   12SOL    HW2  936   2.967   5.209   3.621
   13SOL     OW  937   3.424   6.501   4.443
   13SOL    HW1  938   3.377   6.500   4.355
   13SOL    HW2  939   3.444   6.596   4.469
   14SOL     OW  940   4.003   5.115   6.167
   14SOL    HW1  941   3.935   5.184   6.192
   14SOL    HW2  942   3.989   5.087   6.071
   15SOL     OW  943   0.655   6.779   1.037
   15SOL    HW1  944   0.560   6.781   1.070
   15SOL    HW2  945   0.661   6.827   0.950
   16SOL     OW  946   5.609   3.287   6.311
   16SOL    HW1  947   5.540   3.227   6.352
   16SOL    HW2  948   5.673   3.231   6.258
   17SOL     OW  949   6.203   6.220   6.855
   17SOL    HW1  950   6.187   6.318   6.844
   17SOL    HW2  951   6.126   6.169   6.816
   18SOL     OW  952   3.100   1.242   5.779
   18SOL    HW1  953   3.025   1.180   5.760
   18SOL    HW2  954   3.113   1.303   5.701
   19SOL     OW  955   0.472   2.115   2.915
   19SOL    HW1  956   0.567   2.084   2.919
   19SOL    HW2  957   0.455   2.160   2.828
   20SOL     OW  958   4.923   1.171   4.694
   20SOL    HW1  959   4.826   1.195   4.696
   20SOL    HW2  960   4.962   1.183   4.786
   21SOL     OW  961   2.881   1.394   2.214
   21SOL    HW1  962   2.955   1.457   2.238
   21SOL    HW2  963   2.846   1.351   2.298
   22SOL     OW  964   1.078   6.222   0.144
   22SOL    HW1  965   1.108   6.297   0.085
   22SOL    HW2  966   1.107   6.240   0.238
   23SOL     OW  967   4.495   5.520   2.545
   23SOL    HW1  968   4.470   5.438   2.596
   23SOL    HW2  969   4.582   5.555   2.579
   24SOL     OW  970   3.190   0.350   2.567
   24SOL    HW1  971   3.113   0.301   2.527
   24SOL    HW2  972   3.257   0.283   2.601
   25SOL     OW  973   3.292   0.197   3.415
   25SOL    HW1  974   3.366   0.232   3.357
   25SOL    HW2  975   3.285   0.098   3.403
   26SOL     OW  976   6.429   1.746   0.589
   26SOL    HW1  977   6.359   1.786   0.647
   26SOL    HW2  978   6.516   1.794   0.604
   27SOL     OW  979   1.713   1.198   2.390
   27SOL    HW1  980   1.718   1.297   2.408
   27SOL    HW2  981   1.637   1.180   2.327
   28SOL     OW  982   1.868   6.943   4.917
   28SOL    HW1  983   1.940   6.957   4.986
   28SOL    HW2  984   1.881   6.853   4.874
   29SOL     OW  985   6.101   1.942   1.555
   29SOL    HW1  986   6.097   1.910   1.461
   29SOL    HW2  987   6.040   1.888   1.612
   30SOL     OW  988   4.420   0.558   3.518
   30SOL    HW1  989   4.374   0.576   3.606
   30SOL    HW2  990   4.497   0.497   3.532
   31SOL     OW  991   0.554   2.583   6.486
   31SOL    HW1  992   0.459   2.613   6.496
   31SOL    HW2  993   0.615   2.661   6.498
   32SOL     OW  994   0.713   1.950   2.904
   32SOL    HW1  995   0.731   1.890   2.826
   32SOL    HW2  996   0.709   1.895   2.988
   33SOL     OW  997   1.413   4.321   5.052
   33SOL    HW1  998   1.452   4.285   5.137
   33SOL    HW2  999   1.317   4.294   5.045
   34SOL     OW 1000   2.552   6.856   5.008
   34SOL    HW1 1001   2.636   6.886   5.053
   34SOL    HW2 1002   2.496   6.935   4.984
   35SOL     OW 1003   4.899   2.737   6.002
   35SOL    HW1 1004   4.810   2.715   5.962
   35SOL    HW2 1005   4.898   2.713   6.099
   36SOL     OW 1006   5.070   2.024   4.465
   36SOL    HW1 1007   5.071   1.925   4.471
   36SOL    HW2 1008   5.046   2.063   4.554
   37SOL     OW 1009   1.792   1.495   5.740
   37SOL    HW1 1010   1.716   1.484   5.804
   37SOL    HW2 1011   1.821   1.590   5.738
   38SOL     OW 1012   0.986   5.300   2.276
   38SOL    HW1 1013   1.075   5.268   2.244
   38SOL    HW2 1014   0.987   5.307   2.375
   39SOL     OW 1015   6.244   4.311   6.460
   39SOL    HW1 1016   6.178   4.246   6.422
   39SOL    HW2 1017   6.209   4.404   6.452
   40SOL     OW 1018   4.645   1.837   0.541
   40SOL    HW1 1019   4.636   1.847   0.640
   40SOL    HW2 1020   4.667   1.742   0.519
   41SOL     OW 1021   6.386   3.626   3.697
   41SOL    HW1 1022   6.449   3.627   3.620
   41SOL    HW2 1023   6.389   3.715   3.744
   42SOL     OW 1024   3.539   5.792   4.350
   42SOL    HW1 1025   3.571   5.726   4.418
   42SOL    HW2 1026   3.479   5.859   4.395
   43SOL     OW 1027   4.548   0.005   5.228
   43SOL    HW1 1028   4.577   0.015   5.323
   43SOL    HW2 1029   4.448   0.006   5.224
   44SOL     OW 1030   4.745   2.188   5.591
   44SOL    HW1 1031   4.685   2.184   5.671
   44SOL    HW2 1032   4.730   2.106   5.534
   45SOL     OW 1033   4.561   4.540   1.320
   45SOL    HW1 1034   4.576   4.508   1.226
   45SOL    HW2 1035   4.648   4.548   1.367
   46SOL     OW 1036   0.706   2.907   3.927
   46SOL    HW1 1037   0.624   2.850   3.921
   46SOL    HW2 1038   0.688   2.987   3.984
   47SOL     OW 1039   4.303   3.923   0.494
   47SOL    HW1 1040   4.329   4.006   0.543
   47SOL    HW2 1041   4.287   3.849   0.558
   48SOL     OW 1042   6.361   2.754   6.058
   48SOL    HW1 1043   6.461   2.757   6.053
   48SOL    HW2 1044   6.330   2.659   6.059
   49SOL     OW 1045   5.943   3.172   2.017
   49SOL    HW1 1046   6.012   3.131   2.076
   49SOL    HW2 1047   5.858   3.120   2.025
   50SOL     OW 1048   5.941   0.966   4.991
   50SOL    HW1 1049   5.982   1.057   4.995
   50SOL    HW2 1050   5.847   0.970   5.025
   51SOL     OW 1051   2.468   6.659   3.022
   51SOL    HW1 1052   2.415   6.599   2.962
   51SOL    HW2 1053   2.548   6.693   2.972
   52SOL     OW 1054   5.637   3.075   1.895
   52SOL    HW1 1055   5.675   3.016   1.824
   52SOL    HW2 1056   5.595   3.019   1.966
   53SOL     OW 1057   5.007   1.574   3.746
   53SOL    HW1 1058   4.966   1.604   3.832
   53SOL    HW2 1059   5.013   1.474   3.746
   54SOL     OW 1060   5.609   6.114   1.068
   54SOL    HW1 1061   5.707   6.126   1.058
   54SOL    HW2 1062   5.562   6.155   0.990
   55SOL     OW 1063   2.474   2.578   5.093
   55SOL    HW1 1064   2.538   2.516   5.138
   55SOL    HW2 1065   2.496   2.584   4.995
   56SOL     OW 1066   0.375   0.638   1.327
   56SOL    HW1 1067   0.469   0.634   1.292
   56SOL    HW2 1068   0.374   0.686   1.414
   57SOL     OW 1069   4.166   1.051   1.509
   57SOL    HW1 1070   4.112   1.114   1.564
   57SOL    HW2 1071   4.189   1.094   1.422
   58SOL     OW 1072   0.666   6.850   5.398
   58SOL    HW1 1073   0.738   6.843   5.468
   58SOL    HW2 1074   0.667   6.941   5.358
   59SOL     OW 1075   6.890   3.017   6.702
   59SOL    HW1 1076   6.962   3.030   6.771
   59SOL    HW2 1077   6.908   3.076   6.624
   60SOL     OW 1078   5.187   2.664   4.503
   60SOL    HW1 1079   5.205   2.710   4.591
   60SOL    HW2 1080   5.268   2.613   4.475
   61SOL     OW 1081   6.403   1.607   4.132
   61SOL    HW1 1082   6.359   1.530   4.086
   61SOL    HW2 1083   6.492   1.578   4.168
   62SOL     OW 1084   2.062   1.058   1.970
   62SOL    HW1 1085   2.010   0.978   2.001
   62SOL    HW2 1086   1.999   1.123   1.926
   63SOL     OW 1087   4.062   0.593   4.181
   63SOL    HW1 1088   4.037   0.527   4.251
   63SOL    HW2 1089   4.043   0.686   4.214
   64SOL     OW 1090   6.839   2.712   6.396
   64SOL    HW1 1091   6.813   2.782   6.462
   64SOL    HW2 1092   6.839   2.751   6.304
   65SOL     OW 1093   0.558   4.665   6.616
   65SOL    HW1 1094   0.480   4.708   6.661
   65SOL    HW2 1095   0.617   4.622   6.685
   66SOL     OW 1096   3.169   0.676   3.629
   66SOL    HW1 1097   3.180   0.608   3.556
   66SOL    HW2 1098   3.110   0.750   3.596
   67SOL     OW 1099   6.626   2.710   6.046
   67SOL    HW1 1100   6.658   2.776   5.978
   67SOL    HW2 1101   6.705   2.671   6.094
   68SOL     OW 1102   0.339   1.634   6.953
   68SOL    HW1 1103   0.386   1.548   6.934
   68SOL    HW2 1104   0.240   1.620   6.944
   69SOL     OW 1105   1.448   2.724   5.390
   69SOL    HW1 1106   1.536   2.740   5.437
   69SOL    HW2 1107   1.436   2.792   5.318
   70SOL     OW 1108   5.213   4.820   3.898
   70SOL    HW1 1109   5.148   4.868   3.840
   70SOL    HW2 1110   5.230   4.729   3.861
   71SOL     OW 1111   4.232   2.299   3.667
   71SOL    HW1 1112   4.263   2.348   3.586
   71SOL    HW2 1113   4.261   2.203   3.662
   72SOL     OW 1114   1.217   1.537   3.437
   72SOL    HW1 1115   1.213   1.620   3.382
   72SOL    HW2 1116   1.297   1.539   3.496
   73SOL     OW 1117   3.254   0.162   0.879
   73SOL    HW1 1118   3.243   0.159   0.779
   73SOL    HW2 1119   3.324   0.230   0.902
   74SOL     OW 1120   4.263   0.457   0.186
   74SOL    HW1 1121   4.223   0.372   0.219
   74SOL    HW2 1122   4.335   0.486   0.249
   75SOL     OW 1123   4.114   0.538   1.199
   75SOL    HW1 1124   4.197   0.487   1.175
   75SOL    HW2 1125   4.113   0.626   1.152
   76SOL     OW 1126   3.179   3.654   6.983
   76SOL    HW1 1127   3.127   3.712   0.017
   76SOL    HW2 1128   3.123   3.577   6.954
   77SOL     OW 1129   1.033   0.230   3.451
   77SOL    HW1 1130   1.130   0.219   3.427
   77SOL    HW2 1131   1.014   0.181   3.536
   78SOL     OW 1132   5.121   1.510   0.567
   78SOL    HW1 1133   5.171   1.567   0.501
   78SOL    HW2 1134   5.187   1.463   0.626
   79SOL     OW 1135   3.043   5.682   1.561
   79SOL    HW1 1136   3.038   5.763   1.502
   79SOL    HW2 1137   2.967   5.685   1.626
   80SOL     OW 1138   4.307   1.272   4.167
   80SOL    HW1 1139   4.274   1.199   4.107
   80SOL    HW2 1140   4.301   1.360   4.119
   81SOL     OW 1141   1.624   0.366   2.331
   81SOL    HW1 1142   1.536   0.412   2.334
   81SOL    HW2 1143   1.614   0.273   2.366
   82SOL     OW 1144   5.613   5.065   0.988
   82SOL    HW1 1145   5.607   4.971   0.954
   82SOL    HW2 1146   5.675   5.068   1.066
   83SOL     OW 1147   0.377   0.851   0.065
   83SOL    HW1 1148   0.307   0.845   7.021
   83SOL    HW2 1149   0.354   0.789   0.140
   84SOL     OW 1150   6.291   3.634   2.982
   84SOL    HW1 1151   6.309   3.730   3.003
   84SOL    HW2 1152   6.208   3.605   3.030
   85SOL     OW 1153   1.838   1.488   2.740
   85SOL    HW1 1154   1.856   1.392   2.759
   85SOL    HW2 1155   1.794   1.531   2.819
   86SOL     OW 1156   6.844   1.475   6.753
   86SOL    HW1 1157   6.860   1.379   6.730
   86SOL    HW2 1158   6.776   1.481   6.825
   87SOL     OW 1159   4.589   4.242   1.366
   87SOL    HW1 1160   4.634   4.323   1.402
   87SOL    HW2 1161   4.629   4.216   1.279
   88SOL     OW 1162   3.123   2.298   6.115
   88SOL    HW1 1163   3.125   2.213   6.063
   88SOL    HW2 1164   3.065   2.365   6.068
   89SOL     OW 1165   3.129   2.816   0.018
   89SOL    HW1 1166   3.085   2.891   6.997
   89SOL    HW2 1167   3.225   2.838   0.032
   90SOL     OW 1168   4.124   5.255   2.268
   90SOL    HW1 1169   4.098   5.291   2.358
   90SOL    HW2 1170   4.042   5.239   2.213
   91SOL     OW 1171   6.686   4.301   6.276
   91SOL    HW1 1172   6.615   4.256   6.330
   91SOL    HW2 1173   6.644   4.345   6.197
   92SOL     OW 1174   4.304   4.274   1.284
   92SOL    HW1 1175   4.302   4.229   1.194
   92SOL    HW2 1176   4.395   4.263   1.324
   93SOL     OW 1177   3.076   3.436   6.844
   93SOL    HW1 1178   3.017   3.355   6.847
   93SOL    HW2 1179   3.098   3.458   6.749
   94SOL     OW 1180   3.077   5.652   6.536
   94SOL    HW1 1181   3.043   5.738   6.572
   94SOL    HW2 1182   3.013   5.578   6.558
   95SOL     OW 1183   1.870   1.246   2.872
   95SOL    HW1 1184   1.788   1.223   2.924
   95SOL    HW2 1185   1.944   1.183   2.896
   96SOL     OW 1186   4.208   5.709   5.220
   96SOL    HW1 1187   4.137   5.777   5.233
   96SOL    HW2 1188   4.261   5.699   5.304
   97SOL     OW 1189   2.298   3.839   6.116
   97SOL    HW1 1190   2.199   3.829   6.106
   97SOL    HW2 1191   2.323   3.936   6.108
   98SOL     OW 1192   1.357   2.307   0.239
   98SOL    HW1 1193   1.456   2.299   0.252
   98SOL    HW2 1194   1.333   2.280   0.146
   99SOL     OW 1195   4.321   3.537   1.549
   99SOL    HW1 1196   4.242   3.598   1.540
   99SOL    HW2 1197   4.393   3.568   1.488
  100SOL     OW 1198   0.627   6.869   4.234
  100SOL    HW1 1199   0.701   6.804   4.215
  100SOL    HW2 1200   0.613   6.927   4.154
  101SOL     OW 1201   0.828   4.619   2.428
  101SOL    HW1 1202   0.813   4.533   2.476
  101SOL    HW2 1203   0.822   4.695   2.492
  102SOL     OW 1204   3.756   5.385   2.287
  102SOL    HW1 1205   3.683   5.422   2.230
  102SOL    HW2 1206   3.791   5.301   2.246
  103SOL     OW 1207   2.428   2.132   1.832
  103SOL    HW1 1208   2.482   2.137   1.748
  103SOL    HW2 1209   2.347   2.190   1.823
  104SOL     OW 1210   1.086   6.474   2.635
  104SOL    HW1 1211   1.167   6.526   2.607
  104SOL    HW2 1212   1.057   6.414   2.560
  105SOL     OW 1213   5.965   1.280   6.202
  105SOL    HW1 1214   5.999   1.360   6.152
  105SOL    HW2 1215   5.865   1.286   6.211
  106SOL     OW 1216   3.524   6.306   3.478
  106SOL    HW1 1217   3.603   6.325   3.419
  106SOL    HW2 1218   3.555   6.298   3.573
  107SOL     OW 1219   0.420   1.100   0.208
  107SOL    HW1 1220   0.457   1.078   0.299
  107SOL    HW2 1221   0.433   1.022   0.147
  108SOL     OW 1222   3.762   6.440   6.525
  108SOL    HW1 1223   3.756   6.493   6.609
  108SOL    HW2 1224   3.802   6.350   6.545
  109SOL     OW 1225   2.817   1.718   2.602
  109SOL    HW1 1226   2.813   1.733   2.503
  109SOL    HW2 1227   2.837   1.622   2.621
  110SOL     OW 1228   3.342   5.300   4.419
  110SOL    HW1 1229   3.250   5.318   4.454
  110SOL    HW2 1230   3.342   5.212   4.371
  111SOL     OW 1231   2.325   1.791   4.416
  111SOL    HW1 1232   2.323   1.873   4.359
  111SOL    HW2 1233   2.404   1.735   4.391
  112SOL     OW 1234   3.705   6.111   0.235
  112SOL    HW1 1235   3.761   6.051   0.293
  112SOL    HW2 1236   3.763   6.154   0.166
  113SOL     OW 1237   0.600   6.544   3.104
  113SOL    HW1 1238   0.657   6.478   3.056
  113SOL    HW2 1239   0.588   6.516   3.199
  114SOL     OW 1240   1.025   5.915   1.771
  114SOL    HW1 1241   1.016   5.967   1.686
  114SOL    HW2 1242   1.122   5.906   1.794
  115SOL     OW 1243   5.264   0.586   2.763
  115SOL    HW1 1244   5.210   0.517   2.715
  115SOL    HW2 1245   5.348   0.603   2.712
  116SOL     OW 1246   6.665   5.955   1.440
  116SOL    HW1 1247   6.624   5.995   1.522
  116SOL    HW2 1248   6.694   6.027   1.377
  117SOL     OW 1249   0.262   1.087   0.820
  117SOL    HW1 1250   0.169   1.117   0.839
  117SOL    HW2 1251   0.274   1.075   0.722
  118SOL     OW 1252   1.148   1.445   2.296
  118SOL    HW1 1253   1.223   1.426   2.358
  118SOL    HW2 1254   1.122   1.361   2.248
  119SOL     OW 1255   0.615   0.253   0.356
  119SOL    HW1 1256   0.566   0.268   0.270
  119SOL    HW2 1257   0.608   0.335   0.413
  120SOL     OW 1258   5.173   0.936   5.136
  120SOL    HW1 1259   5.086   0.938   5.087
  120SOL    HW2 1260   5.207   0.842   5.139
  121SOL     OW 1261   0.801   3.290   0.564
  121SOL    HW1 1262   0.835   3.230   0.637
  121SOL    HW2 1263   0.824   3.252   0.475
  122SOL     OW 1264   1.630   3.589   0.345
  122SOL    HW1 1265   1.615   3.594   0.246
  122SOL    HW2 1266   1.548   3.619   0.393
  123SOL     OW 1267   1.349   1.358   2.459
  123SOL    HW1 1268   1.311   1.354   2.551
  123SOL    HW2 1269   1.412   1.436   2.452
  124SOL     OW 1270   3.480   2.985   1.017
  124SOL    HW1 1271   3.457   2.925   0.940
  124SOL    HW2 1272   3.408   2.977   1.087
  125SOL     OW 1273   4.291   2.580   0.575
  125SOL    HW1 1274   4.372   2.638   0.583
  125SOL    HW2 1275   4.310   2.490   0.614
  126SOL     OW 1276   3.448   3.540   2.346
  126SOL    HW1 1277   3.530   3.502   2.388
  126SOL    HW2 1278   3.422   3.484   2.268
  127SOL     OW 1279   0.599   4.934   6.517
  127SOL    HW1 1280   0.607   4.835   6.525
  127SOL    HW2 1281   0.525   4.967   6.576
  128SOL     OW 1282   5.076   3.164   1.457
  128SOL    HW1 1283   5.108   3.202   1.544
  128SOL    HW2 1284   4.995   3.214   1.427
  129SOL     OW 1285   2.825   3.237   6.884
  129SOL    HW1 1286   2.740   3.289   6.877
  129SOL    HW2 1287   2.850   3.200   6.794
  130SOL     OW 1288   0.228   0.476   4.651
  130SOL    HW1 1289   0.166   0.444   4.579
  130SOL    HW2 1290   0.320   0.443   4.633
  131SOL     OW 1291   5.074   0.545   3.859
  131SOL    HW1 1292   5.168   0.536   3.828
  131SOL    HW2 1293   5.069   0.532   3.958
  132SOL     OW 1294   3.121   2.547   1.723
  132SOL    HW1 1295   3.157   2.459   1.692
  132SOL    HW2 1296   3.057   2.532   1.798
  133SOL     OW 1297   5.289   0.589   4.317
  133SOL    HW1 1298   5.322   0.643   4.394
  133SOL    HW2 1299   5.335   0.500   4.316
  134SOL     OW 1300   0.415   0.678   2.563
  134SOL    HW1 1301   0.324   0.704   2.531
  134SOL    HW2 1302   0.428   0.712   2.657
  135SOL     OW 1303   5.671   3.531   4.502
  135SOL    HW1 1304   5.747   3.597   4.510
  135SOL    HW2 1305   5.612   3.539   4.582
  136SOL     OW 1306   1.603   5.017   5.067
  136SOL    HW1 1307   1.626   4.959   5.145
  136SOL    HW2 1308   1.680   5.076   5.045
  137SOL     OW 1309   4.539   1.518   3.883
  137SOL    HW1 1310   4.574   1.606   3.852
  137SOL    HW2 1311   4.439   1.518   3.879
  138SOL     OW 1312   1.283   3.679   2.977
  138SOL    HW1 1313   1.375   3.713   2.956
  138SOL    HW2 1314   1.273   3.670   3.076
  139SOL     OW 1315   2.089   6.135   5.171
  139SOL    HW1 1316   2.136   6.070   5.110
  139SOL    HW2 1317   2.150   6.212   5.191
  140SOL     OW 1318   1.554   6.481   3.545
  140SOL    HW1 1319   1.568   6.393   3.591
  140SOL    HW2 1320   1.618   6.488   3.468
  141SOL     OW 1321   0.373   2.615   5.368
  141SOL    HW1 1322   0.324   2.702   5.358
  141SOL    HW2 1323   0.469   2.628   5.343
  142SOL     OW 1324   2.046   3.496   2.238
  142SOL    HW1 1325   2.117   3.519   2.171
  142SOL    HW2 1326   2.061   3.403   2.272
  143SOL     OW 1327   5.298   4.850   0.735
  143SOL    HW1 1328   5.250   4.938   0.741
  143SOL    HW2 1329   5.288   4.801   0.822
  144SOL     OW 1330   2.193   4.749   5.532
  144SOL    HW1 1331   2.161   4.715   5.620
  144SOL    HW2 1332   2.286   4.785   5.542
  145SOL     OW 1333   2.550   5.276   1.243
  145SOL    HW1 1334   2.495   5.333   1.182
  145SOL    HW2 1335   2.523   5.180   1.233
  146SOL     OW 1336   5.297   0.293   6.290
  146SOL    HW1 1337   5.350   0.375   6.311
  146SOL    HW2 1338   5.313   0.267   6.194
  147SOL     OW 1339   5.370   1.333   5.718
  147SOL    HW1 1340   5.289   1.321   5.774
  147SOL    HW2 1341   5.434   1.258   5.736
  148SOL     OW 1342   0.050   5.281   1.430
  148SOL    HW1 1343   7.005   5.212   1.419
  148SOL    HW2 1344   0.125   5.243   1.484
  149SOL     OW 1345   3.677   2.136   5.208
  149SOL    HW1 1346   3.714   2.215   5.256
  149SOL    HW2 1347   3.708   2.136   5.113
  150SOL     OW 1348   5.578   0.154   6.404
  150SOL    HW1 1349   5.485   0.190   6.400
  150SOL    HW2 1350   5.632   0.207   6.469
  151SOL     OW 1351   3.574   0.689   1.586
  151SOL    HW1 1352   3.587   0.787   1.602
  151SOL    HW2 1353   3.662   0.645   1.570
  152SOL     OW 1354   0.288   1.733   0.764
  152SOL    HW1 1355   0.257   1.747   0.671
  152SOL    HW2 1356   0.242   1.797   0.825
  153SOL     OW 1357   2.530   0.029   3.097
  153SOL    HW1 1358   2.622   7.015   3.098
  153SOL    HW2 1359   2.524   0.095   3.023
  154SOL     OW 1360   0.255   3.106   0.754
  154SOL    HW1 1361   0.352   3.127   0.738
  154SOL    HW2 1362   0.205   3.117   0.668
  155SOL     OW 1363   0.852   1.233   3.714
  155SOL    HW1 1364   0.938   1.241   3.766
  155SOL    HW2 1365   0.832   1.321   3.670
  156SOL     OW 1366   6.686   0.590   6.977
  156SOL    HW1 1367   6.620   0.525   7.015
  156SOL    HW2 1368   6.760   0.540   6.932
  157SOL     OW 1369   5.577   3.706   0.256
  157SOL    HW1 1370   5.637   3.785   0.267
  157SOL    HW2 1371   5.618   3.641   0.191
  158SOL     OW 1372   1.878   2.701   1.534
  158SOL    HW1 1373   1.866   2.643   1.454
  158SOL    HW2 1374   1.790   2.745   1.557
  159SOL     OW 1375   3.965   4.913   1.593
  159SOL    HW1 1376   3.877   4.868   1.603
  159SOL    HW2 1377   3.954   4.999   1.543
  160SOL     OW 1378   5.837   0.145   0.539
  160SOL    HW1 1379   5.835   0.112   0.633
  160SOL    HW2 1380   5.743   0.154   0.505
  161SOL     OW 1381   1.143   0.775   3.090
  161SOL    HW1 1382   1.183   0.746   3.003
  161SOL    HW2 1383   1.112   0.695   3.141
  162SOL     OW 1384   3.827   6.181   6.587
  162SOL    HW1 1385   3.760   6.108   6.574
  162SOL    HW2 1386   3.824   6.214   6.681
  163SOL     OW 1387   6.936   6.132   2.219
  163SOL    HW1 1388   6.913   6.045   2.263
  163SOL    HW2 1389   6.974   6.114   2.128
  164SOL     OW 1390   0.761   3.446   2.843
  164SOL    HW1 1391   0.682   3.505   2.860
  164SOL    HW2 1392   0.742   3.354   2.877
  165SOL     OW 1393   4.826   4.753   6.525
  165SOL    HW1 1394   4.824   4.822   6.452
  165SOL    HW2 1395   4.883   4.676   6.496
  166SOL     OW 1396   0.166   3.299   2.202
  166SOL    HW1 1397   0.162   3.213   2.152
  166SOL    HW2 1398   0.239   3.356   2.165
  167SOL     OW 1399   6.108   1.741   6.731
  167SOL    HW1 1400   6.174   1.696   6.672
  167SOL    HW2 1401   6.046   1.673   6.770
  168SOL     OW 1402   4.091   1.759   0.610
  168SOL    HW1 1403   4.168   1.817   0.638
  168SOL    HW2 1404   4.011   1.817   0.594
  169SOL     OW 1405   6.071   2.870   0.623
  169SOL    HW1 1406   5.985   2.820   0.623
  169SOL    HW2 1407   6.135   2.827   0.687
  170SOL     OW 1408   6.840   5.888   2.287
  170SOL    HW1 1409   6.792   5.836   2.357
  170SOL    HW2 1410   6.803   5.864   2.197
  171SOL     OW 1411   2.164   4.837   0.270
  171SOL    HW1 1412   2.069   4.804   0.268
  171SOL    HW2 1413   2.176   4.899   0.347
  172SOL     OW 1414   6.317   1.968   3.276
  172SOL    HW1 1415   6.398   1.964   3.334
  172SOL    HW2 1416   6.253   2.035   3.313
  173SOL     OW 1417   5.333   0.960   4.454
  173SOL    HW1 1418   5.384   0.986   4.372
  173SOL    HW2 1419   5.338   1.033   4.522
  174SOL     OW 1420   4.787   5.452   3.873
  174SOL    HW1 1421   4.770   5.356   3.891
  174SOL    HW2 1422   4.838   5.492   3.950
  175SOL     OW 1423   3.854   0.773   0.932
  175SOL    HW1 1424   3.764   0.750   0.969
  175SOL    HW2 1425   3.924   0.763   1.003
  176SOL     OW 1426   5.746   4.993   2.032
  176SOL    HW1 1427   5.822   4.928   2.032
  176SOL    HW2 1428   5.712   5.005   2.125
  177SOL     OW 1429   5.543   3.275   4.747
  177SOL    HW1 1430   5.476   3.250   4.816
  177SOL    HW2 1431   5.513   3.240   4.658
  178SOL     OW 1432   3.135   4.460   5.660
  178SOL    HW1 1433   3.071   4.466   5.584
  178SOL    HW2 1434   3.193   4.379   5.648
  179SOL     OW 1435   3.496   0.344   6.708
  179SOL    HW1 1436   3.547   0.409   6.765
  179SOL    HW2 1437   3.424   0.302   6.762
  180SOL     OW 1438   2.331   0.796   0.998
  180SOL    HW1 1439   2.288   0.803   1.088
  180SOL    HW2 1440   2.335   0.886   0.956
  181SOL     OW 1441   2.970   3.628   5.720
  181SOL    HW1 1442   2.957   3.725   5.703
  181SOL    HW2 1443   3.067   3.608   5.731
  182SOL     OW 1444   4.441   1.967   5.955
  182SOL    HW1 1445   4.467   1.919   5.871
  182SOL    HW2 1446   4.342   1.959   5.968
  183SOL     OW 1447   3.593   1.997   4.057
  183SOL    HW1 1448   3.671   2.045   4.097
  183SOL    HW2 1449   3.615   1.971   3.963
  184SOL     OW 1450   0.217   6.826   3.496
  184SOL    HW1 1451   0.232   6.755   3.427
  184SOL    HW2 1452   0.256   6.913   3.464
  185SOL     OW 1453   1.164   1.645   4.826
  185SOL    HW1 1454   1.135   1.613   4.736
  185SOL    HW2 1455   1.263   1.629   4.836
  186SOL     OW 1456   6.796   1.433   3.984
  186SOL    HW1 1457   6.723   1.466   4.044
  186SOL    HW2 1458   6.874   1.403   4.039
  187SOL     OW 1459   5.327   0.087   2.513
  187SOL    HW1 1460   5.399   0.078   2.444
  187SOL    HW2 1461   5.316   0.183   2.538
  188SOL     OW 1462   0.986   3.413   3.845
  188SOL    HW1 1463   0.930   3.410   3.929
  188SOL    HW2 1464   0.951   3.344   3.781
  189SOL     OW 1465   1.478   5.493   0.146
  189SOL    HW1 1466   1.408   5.448   0.091
  189SOL    HW2 1467   1.523   5.563   0.092
  190SOL     OW 1468   6.103   4.296   6.004
  190SOL    HW1 1469   6.039   4.272   5.932
  190SOL    HW2 1470   6.122   4.215   6.061
  191SOL     OW 1471   6.129   1.488   0.037
  191SOL    HW1 1472   6.168   1.433   6.991
  191SOL    HW2 1473   6.203   1.534   0.087
  192SOL     OW 1474   0.222   5.102   1.823
  192SOL    HW1 1475   0.264   5.187   1.791
  192SOL    HW2 1476   0.274   5.068   1.901
  193SOL     OW 1477   5.024   3.658   5.174
  193SOL    HW1 1478   5.091   3.584   5.166
  193SOL    HW2 1479   4.940   3.632   5.126
  194SOL     OW 1480   3.916   6.667   3.646
  194SOL    HW1 1481   3.959   6.754   3.670
  194SOL    HW2 1482   3.817   6.679   3.642
  195SOL     OW 1483   1.566   0.925   4.410
  195SOL    HW1 1484   1.545   1.019   4.436
  195SOL    HW2 1485   1.664   0.916   4.394
  196SOL     OW 1486   2.799   6.744   6.666
  196SOL    HW1 1487   2.720   6.795   6.699
  196SOL    HW2 1488   2.852   6.801   6.603
  197SOL     OW 1489   2.429   0.491   1.389
  197SOL    HW1 1490   2.476   0.577   1.371
  197SOL    HW2 1491   2.421   0.439   1.304
  198SOL     OW 1492   4.328   6.902   2.467
  198SOL    HW1 1493   4.290   6.918   2.376
  198SOL    HW2 1494   4.298   6.975   2.529
  199SOL     OW 1495   0.024   0.978   3.839
  199SOL    HW1 1496   7.001   1.062   3.815
  199SOL    HW2 1497   0.073   0.991   3.925
  200SOL     OW 1498   1.046   3.964   1.864
  200SOL    HW1 1499   1.048   4.060   1.834
  200SOL    HW2 1500   1.003   3.908   1.794
  201SOL     OW 1501   5.600   6.686   6.085
  201SOL    HW1 1502   5.581   6.604   6.139
  201SOL    HW2 1503   5.695   6.714   6.099
  202SOL     OW 1504   4.996   0.358   5.723
  202SOL    HW1 1505   4.907   0.395   5.699
  202SOL    HW2 1506   5.064   0.387   5.656
  203SOL     OW 1507   4.872   2.140   5.196
  203SOL    HW1 1508   4.928   2.207   5.147
  203SOL    HW2 1509   4.901   2.136   5.292
  204SOL     OW 1510   6.288   0.762   6.317
  204SOL    HW1 1511   6.350   0.762   6.396
  204SOL    HW2 1512   6.262   0.856   6.296
  205SOL     OW 1513   0.687   1.001   2.655
  205SOL    HW1 1514   0.610   1.013   2.717
  205SOL    HW2 1515   0.754   0.939   2.695
  206SOL     OW 1516   0.594   4.796   2.486
  206SOL    HW1 1517   0.588   4.754   2.396
  206SOL    HW2 1518   0.586   4.726   2.557
  207SOL     OW 1519   4.923   0.340   3.713
  207SOL    HW1 1520   4.980   0.413   3.752
  207SOL    HW2 1521   4.929   0.259   3.772
  208SOL     OW 1522   5.110   3.968   5.459
  208SOL    HW1 1523   5.197   3.920   5.463
  208SOL    HW2 1524   5.086   4.002   5.550
  209SOL     OW 1525   1.117   5.162   4.268
  209SOL    HW1 1526   1.029   5.209   4.269
  209SOL    HW2 1527   1.189   5.228   4.245
  210SOL     OW 1528   4.355   2.071   1.571
  210SOL    HW1 1529   4.381   2.127   1.650
  210SOL    HW2 1530   4.400   2.107   1.489
  211SOL     OW 1531   1.313   6.580   3.538
  211SOL    HW1 1532   1.404   6.541   3.551
  211SOL    HW2 1533   1.295   6.590   3.441
  212SOL     OW 1534   1.913   5.043   1.956
  212SOL    HW1 1535   1.936   5.010   1.865
  212SOL    HW2 1536   1.844   4.983   1.997
  213SOL     OW 1537   3.290   0.583   5.877
  213SOL    HW1 1538   3.329   0.674   5.864
  213SOL    HW2 1539   3.215   0.569   5.813
  214SOL     OW 1540   4.136   5.626   2.016
  214SOL    HW1 1541   4.193   5.574   2.080
  214SOL    HW2 1542   4.174   5.718   2.005
  215SOL     OW 1543   2.535   3.709   1.631
  215SOL    HW1 1544   2.451   3.688   1.680
  215SOL    HW2 1545   2.610   3.654   1.669
  216SOL     OW 1546   1.596   5.823   4.744
  216SOL    HW1 1547   1.605   5.766   4.826
  216SOL    HW2 1548   1.501   5.822   4.713
  217SOL     OW 1549   2.301   2.655   3.568
  217SOL    HW1 1550   2.349   2.640   3.481
  217SOL    HW2 1551   2.222   2.715   3.553
  218SOL     OW 1552   0.710   2.994   4.425
  218SOL    HW1 1553   0.663   3.038   4.502
  218SOL    HW2 1554   0.643   2.944   4.369
  219SOL     OW 1555   3.666   6.178   5.985
  219SOL    HW1 1556   3.720   6.095   5.971
  219SOL    HW2 1557   3.572   6.152   6.008
  220SOL     OW 1558   3.393   6.674   6.941
  220SOL    HW1 1559   3.437   6.763   6.953
  220SOL    HW2 1560   3.392   6.650   6.844
  221SOL     OW 1561   6.818   4.187   2.631
  221SOL    HW1 1562   6.748   4.156   2.695
  221SOL    HW2 1563   6.833   4.118   2.561
  222SOL     OW 1564   2.480   4.838   5.574
  222SOL    HW1 1565   2.571   4.797   5.569
  222SOL    HW2 1566   2.478   4.922   5.521
  223SOL     OW 1567   5.519   3.408   1.067
  223SOL    HW1 1568   5.607   3.374   1.033
  223SOL    HW2 1569   5.454   3.412   0.992
  224SOL     OW 1570   2.810   1.703   4.131
  224SOL    HW1 1571   2.838   1.798   4.115
  224SOL    HW2 1572   2.882   1.641   4.099
  225SOL     OW 1573   5.797   1.674   5.250
  225SOL    HW1 1574   5.884   1.707   5.285
  225SOL    HW2 1575   5.743   1.751   5.216
  226SOL     OW 1576   1.337   0.223   6.191
  226SOL    HW1 1577   1.300   0.308   6.152
  226SOL    HW2 1578   1.299   0.210   6.283
  227SOL     OW 1579   1.838   3.930   2.204
  227SOL    HW1 1580   1.829   3.911   2.106
  227SOL    HW2 1581   1.873   3.849   2.251
  228SOL     OW 1582   3.369   6.323   4.091
  228SOL    HW1 1583   3.333   6.258   4.158
  228SOL    HW2 1584   3.305   6.331   4.015
  229SOL     OW 1585   4.952   6.677   0.384
  229SOL    HW1 1586   4.893   6.750   0.348
  229SOL    HW2 1587   5.035   6.718   0.422
  230SOL     OW 1588   2.719   4.740   2.770
  230SOL    HW1 1589   2.711   4.770   2.675
  230SOL    HW2 1590   2.630   4.708   2.803
  231SOL     OW 1591   6.422   1.835   6.893
  231SOL    HW1 1592   6.446   1.756   6.837
  231SOL    HW2 1593   6.332   1.820   6.935
  232SOL     OW 1594   1.429   3.912   6.147
  232SOL    HW1 1595   1.349   3.971   6.160
  232SOL    HW2 1596   1.414   3.852   6.069
  233SOL     OW 1597   2.556   1.357   4.369
  233SOL    HW1 1598   2.644   1.388   4.334
  233SOL    HW2 1599   2.497   1.331   4.292
  234SOL     OW 1600   3.549   6.141   5.685
  234SOL    HW1 1601   3.561   6.225   5.631
  234SOL    HW2 1602   3.631   6.125   5.740
  235SOL     OW 1603   3.147   3.245   1.989
  235SOL    HW1 1604   3.157   3.235   1.890
  235SOL    HW2 1605   3.050   3.255   2.012
  236SOL     OW 1606   5.909   3.002   6.254
  236SOL    HW1 1607   5.914   3.037   6.347
  236SOL    HW2 1608   5.870   3.071   6.194
  237SOL     OW 1609   6.246   6.003   1.343
  237SOL    HW1 1610   6.198   5.934   1.397
  237SOL    HW2 1611   6.344   6.001   1.364
  238SOL     OW 1612   6.088   2.069   0.219
  238SOL    HW1 1613   6.130   2.094   0.131
  238SOL    HW2 1614   6.159   2.037   0.282
  239SOL     OW 1615   0.285   5.706   6.641
  239SOL    HW1 1616   0.367   5.653   6.620
  239SOL    HW2 1617   0.246   5.743   6.557
  240SOL     OW 1618   0.168   2.638   6.130
  240SOL    HW1 1619   0.137   2.561   6.074
  240SOL    HW2 1620   0.193   2.605   6.221
  241SOL     OW 1621   1.943   6.600   4.304
  241SOL    HW1 1622   2.029   6.625   4.261
  241SOL    HW2 1623   1.943   6.502   4.324
  242SOL     OW 1624   2.674   2.955   5.982
  242SOL    HW1 1625   2.718   3.028   5.929
  242SOL    HW2 1626   2.622   2.896   5.921
  243SOL     OW 1627   5.363   0.332   6.015
  243SOL    HW1 1628   5.343   0.357   5.920
  243SOL    HW2 1629   5.428   0.398   6.053
  244SOL     OW 1630   5.226   2.899   4.935
  244SOL    HW1 1631   5.185   2.927   5.022
  244SOL    HW2 1632   5.153   2.875   4.871
  245SOL     OW 1633   0.057   2.496   5.600
  245SOL    HW1 1634   6.997   2.503   5.649
  245SOL    HW2 1635   0.056   2.559   5.522
  246SOL     OW 1636   4.832   2.944   2.543
  246SOL    HW1 1637   4.802   2.958   2.449
  246SOL    HW2 1638   4.807   3.024   2.598
  247SOL     OW 1639   2.852   1.103   1.820
  247SOL    HW1 1640   2.868   1.074   1.726
  247SOL    HW2 1641   2.754   1.111   1.837
  248SOL     OW 1642   4.553   1.947   4.601
  248SOL    HW1 1643   4.578   1.917   4.509
  248SOL    HW2 1644   4.543   1.867   4.660
  249SOL     OW 1645   5.106   6.926   5.652
  249SOL    HW1 1646   5.042   6.853   5.630
  249SOL    HW2 1647   5.067   6.984   5.724
  250SOL     OW 1648   4.929   1.723   6.395
  250SOL    HW1 1649   4.846   1.752   6.443
  250SOL    HW2 1650   4.928   1.623   6.384
  251SOL     OW 1651   4.187   4.641   6.593
  251SOL    HW1 1652   4.207   4.659   6.496
  251SOL    HW2 1653   4.259   4.681   6.649
  252SOL     OW 1654   6.450   0.742   6.544
  252SOL    HW1 1655   6.393   0.814   6.584
  252SOL    HW2 1656   6.540   0.742   6.587
  253SOL     OW 1657   1.730   4.135   6.915
  253SOL    HW1 1658   1.733   4.233   6.894
  253SOL    HW2 1659   1.753   4.083   6.833
  254SOL     OW 1660   5.900   3.127   3.502
  254SOL    HW1 1661   5.924   3.149   3.596
  254SOL    HW2 1662   5.961   3.175   3.439
  255SOL     OW 1663   1.493   3.369   4.291
  255SOL    HW1 1664   1.474   3.466   4.300
  255SOL    HW2 1665   1.471   3.322   4.377
  256SOL     OW 1666   6.249   4.187   6.823
  256SOL    HW1 1667   6.254   4.137   6.909
  256SOL    HW2 1668   6.155   4.220   6.808
  257SOL     OW 1669   4.196   6.306   4.457
  257SOL    HW1 1670   4.248   6.351   4.529
  257SOL    HW2 1671   4.105   6.281   4.492
  258SOL     OW 1672   5.657   4.652   4.571
  258SOL    HW1 1673   5.619   4.561   4.589
  258SOL    HW2 1674   5.630   4.714   4.643
  259SOL     OW 1675   1.993   2.938   2.246
  259SOL    HW1 1676   1.975   2.999   2.168
  259SOL    HW2 1677   2.086   2.952   2.278
  260SOL     OW 1678   4.494   1.044   1.191
  260SOL    HW1 1679   4.515   1.091   1.106
  260SOL    HW2 1680   4.406   1.077   1.227
  261SOL     OW 1681   6.250   3.833   1.267
  261SOL    HW1 1682   6.295   3.842   1.178
  261SOL    HW2 1683   6.199   3.917   1.288
  262SOL     OW 1684   0.572   3.589   1.535
  262SOL    HW1 1685   0.573   3.684   1.566
  262SOL    HW2 1686   0.510   3.535   1.592
  263SOL     OW 1687   0.611   1.465   4.005
  263SOL    HW1 1688   0.579   1.499   3.917
  263SOL    HW2 1689   0.621   1.366   4.001
  264SOL     OW 1690   4.898   3.872   5.302
  264SOL    HW1 1691   4.934   3.789   5.259
  264SOL    HW2 1692   4.972   3.919   5.350
  265SOL     OW 1693   4.203   4.719   3.136
  265SOL    HW1 1694   4.153   4.746   3.054
  265SOL    HW2 1695   4.283   4.666   3.111
  266SOL     OW 1696   3.535   3.687   6.005
  266SOL    HW1 1697   3.625   3.668   5.966
  266SOL    HW2 1698   3.501   3.775   5.971
  267SOL     OW 1699   6.233   2.938   5.888
  267SOL    HW1 1700   6.294   2.889   5.951
  267SOL    HW2 1701   6.274   3.026   5.864
  268SOL     OW 1702   4.889   5.926   5.548
  268SOL    HW1 1703   4.888   6.014   5.500
  268SOL    HW2 1704   4.851   5.938   5.640
  269SOL     OW 1705   2.030   2.903   0.685
  269SOL    HW1 1706   1.969   2.825   0.699
  269SOL    HW2 1707   1.977   2.987   0.681
  270SOL     OW 1708   6.898   0.102   2.040
  270SOL    HW1 1709   6.877   0.004   2.049
  270SOL    HW2 1710   6.817   0.156   2.060
  271SOL     OW 1711   2.791   2.628   0.925
  271SOL    HW1 1712   2.759   2.651   0.833
  271SOL    HW2 1713   2.743   2.546   0.958
  272SOL     OW 1714   3.554   5.516   4.153
  272SOL    HW1 1715   3.582   5.497   4.247
  272SOL    HW2 1716   3.480   5.454   4.127
  273SOL     OW 1717   1.889   4.914   4.917
  273SOL    HW1 1718   1.875   5.013   4.917
  273SOL    HW2 1719   1.828   4.871   4.851
  274SOL     OW 1720   4.704   2.252   3.708
  274SOL    HW1 1721   4.792   2.250   3.662
  274SOL    HW2 1722   4.638   2.303   3.653
  275SOL     OW 1723   6.602   5.879   6.547
  275SOL    HW1 1724   6.649   5.898   6.461
  275SOL    HW2 1725   6.506   5.858   6.528
  276SOL     OW 1726   0.151   5.416   3.395
  276SOL    HW1 1727   0.170   5.318   3.404
  276SOL    HW2 1728   0.177   5.446   3.303
  277SOL     OW 1729   2.752   2.369   0.403
  277SOL    HW1 1730   2.690   2.447   0.415
  277SOL    HW2 1731   2.698   2.286   0.389
  278SOL     OW 1732   6.456   3.828   1.822
  278SOL    HW1 1733   6.468   3.800   1.726
  278SOL    HW2 1734   6.365   3.867   1.834
  279SOL     OW 1735   6.469   2.700   4.620
  279SOL    HW1 1736   6.370   2.693   4.625
  279SOL    HW2 1737   6.508   2.686   4.712
  280SOL     OW 1738   3.558   6.766   2.674
  280SOL    HW1 1739   3.491   6.705   2.632
  280SOL    HW2 1740   3.625   6.712   2.725
  281SOL     OW 1741   2.811   4.956   2.372
  281SOL    HW1 1742   2.770   4.892   2.436
  281SOL    HW2 1743   2.867   4.906   2.305
  282SOL     OW 1744   4.300   2.295   5.388
  282SOL    HW1 1745   4.320   2.265   5.482
  282SOL    HW2 1746   4.205   2.326   5.382
  283SOL     OW 1747   6.824   1.398   5.638
  283SOL    HW1 1748   6.906   1.341   5.633
  283SOL    HW2 1749   6.780   1.384   5.727
  284SOL     OW 1750   0.474   4.360   5.274
  284SOL    HW1 1751   0.415   4.433   5.240
  284SOL    HW2 1752   0.570   4.386   5.262
  285SOL     OW 1753   5.273   5.597   7.023
  285SOL    HW1 1754   5.268   5.499   0.015
  285SOL    HW2 1755   5.184   5.630   6.991
  286SOL     OW 1756   3.766   4.940   5.147
  286SOL    HW1 1757   3.765   5.031   5.105
  286SOL    HW2 1758   3.678   4.923   5.192
  287SOL     OW 1759   0.821   5.083   6.582
  287SOL    HW1 1760   0.739   5.027   6.569
  287SOL    HW2 1761   0.806   5.173   6.542
  288SOL     OW 1762   3.830   1.396   0.448
  288SOL    HW1 1763   3.806   1.492   0.430
  288SOL    HW2 1764   3.770   1.336   0.395
  289SOL     OW 1765   0.519   5.156   4.897
  289SOL    HW1 1766   0.473   5.245   4.898
  289SOL    HW2 1767   0.456   5.085   4.930
  290SOL     OW 1768   5.124   2.363   3.403
  290SOL    HW1 1769   5.203   2.413   3.441
  290SOL    HW2 1770   5.106   2.396   3.310
  291SOL     OW 1771   4.046   0.821   4.336
  291SOL    HW1 1772   4.071   0.914   4.308
  291SOL    HW2 1773   4.111   0.789   4.405
  292SOL     OW 1774   4.128   1.616   3.204
  292SOL    HW1 1775   4.188   1.695   3.197
  292SOL    HW2 1776   4.122   1.586   3.299
  293SOL     OW 1777   3.911   5.616   2.252
  293SOL    HW1 1778   3.868   5.526   2.246
  293SOL    HW2 1779   3.924   5.653   2.160
  294SOL     OW 1780   6.834   5.493   6.853
  294SOL    HW1 1781   6.770   5.455   6.919
  294SOL    HW2 1782   6.794   5.572   6.808
  295SOL     OW 1783   3.174   1.627   4.766
  295SOL    HW1 1784   3.092   1.681   4.745
  295SOL    HW2 1785   3.253   1.688   4.771
  296SOL     OW 1786   6.573   2.368   1.802
  296SOL    HW1 1787   6.663   2.350   1.839
  296SOL    HW2 1788   6.568   2.336   1.707
  297SOL     OW 1789   2.963   4.785   2.910
  297SOL    HW1 1790   2.931   4.806   3.002
  297SOL    HW2 1791   2.887   4.753   2.854
  298SOL     OW 1792   3.814   0.108   6.985
  298SOL    HW1 1793   3.739   0.087   6.922
  298SOL    HW2 1794   3.854   0.023   7.018
  299SOL     OW 1795   5.214   1.958   6.731
  299SOL    HW1 1796   5.215   2.058   6.734
  299SOL    HW2 1797   5.175   1.927   6.644
  300SOL     OW 1798   4.553   0.956   1.904
  300SOL    HW1 1799   4.547   0.876   1.963
  300SOL    HW2 1800   4.502   1.032   1.944
  301SOL     OW 1801   4.812   2.274   7.009
  301SOL    HW1 1802   4.828   2.317   6.920
  301SOL    HW2 1803   4.825   2.342   0.054
  302SOL     OW 1804   6.651   0.818   3.290
  302SOL    HW1 1805   6.571   0.802   3.231
  302SOL    HW2 1806   6.690   0.908   3.269
  303SOL     OW 1807   5.895   6.663   2.291
  303SOL    HW1 1808   5.886   6.731   2.364
  303SOL    HW2 1809   5.957   6.591   2.321
  304SOL     OW 1810   1.858   6.324   5.912
  304SOL    HW1 1811   1.939   6.383   5.924
  304SOL    HW2 1812   1.876   6.235   5.953
  305SOL     OW 1813   1.372   2.813   0.261
  305SOL    HW1 1814   1.465   2.846   0.244
  305SOL    HW2 1815   1.352   2.737   0.200
  306SOL     OW 1816   1.179   1.068   3.392
  306SOL    HW1 1817   1.138   0.991   3.442
  306SOL    HW2 1818   1.200   1.040   3.298
  307SOL     OW 1819   4.966   4.290   0.674
  307SOL    HW1 1820   4.919   4.288   0.587
  307SOL    HW2 1821   4.967   4.198   0.714
  308SOL     OW 1822   6.198   3.816   5.036
  308SOL    HW1 1823   6.127   3.749   5.058
  308SOL    HW2 1824   6.280   3.796   5.088
  309SOL     OW 1825   1.878   5.602   0.275
  309SOL    HW1 1826   1.849   5.653   0.194
  309SOL    HW2 1827   1.797   5.564   0.320
  310SOL     OW 1828   4.986   5.757   5.765
  310SOL    HW1 1829   4.957   5.763   5.670
  310SOL    HW2 1830   4.919   5.803   5.824
  311SOL     OW 1831   3.188   5.054   2.906
  311SOL    HW1 1832   3.095   5.072   2.939
  311SOL    HW2 1833   3.187   4.975   2.844
  312SOL     OW 1834   4.221   1.524   4.080
  312SOL    HW1 1835   4.144   1.581   4.109
  312SOL    HW2 1836   4.307   1.573   4.098
  313SOL     OW 1837   3.372   3.582   1.751
  313SOL    HW1 1838   3.390   3.488   1.722
  313SOL    HW2 1839   3.457   3.624   1.782
  314SOL     OW 1840   2.936   4.649   0.028
  314SOL    HW1 1841   2.933   4.741   7.016
  314SOL    HW2 1842   2.844   4.619   0.050
  315SOL     OW 1843   1.253   3.332   3.876
  315SOL    HW1 1844   1.290   3.419   3.908
  315SOL    HW2 1845   1.154   3.339   3.866
  316SOL     OW 1846   3.293   0.973   4.521
  316SOL    HW1 1847   3.197   0.959   4.545
  316SOL    HW2 1848   3.301   1.045   4.452
  317SOL     OW 1849   0.676   1.754   1.525
  317SOL    HW1 1850   0.712   1.778   1.434
  317SOL    HW2 1851   0.649   1.837   1.573
  318SOL     OW 1852   6.950   5.746   0.025
  318SOL    HW1 1853   6.872   5.802   7.022
  318SOL    HW2 1854   6.978   5.685   6.978
  319SOL     OW 1855   6.460   1.216   3.911
  319SOL    HW1 1856   6.505   1.129   3.891
  319SOL    HW2 1857   6.499   1.255   3.994
  320SOL     OW 1858   5.574   2.608   6.912
  320SOL    HW1 1859   5.665   2.569   6.918
  320SOL    HW2 1860   5.561   2.674   6.987
  321SOL     OW 1861   3.459   1.704   6.588
  321SOL    HW1 1862   3.451   1.722   6.489
  321SOL    HW2 1863   3.501   1.783   6.632
  322SOL     OW 1864   3.239   3.669   3.596
  322SOL    HW1 1865   3.318   3.611   3.577
  322SOL    HW2 1866   3.243   3.702   3.691
  323SOL     OW 1867   1.282   3.023   6.165
  323SOL    HW1 1868   1.227   3.030   6.082
  323SOL    HW2 1869   1.377   3.008   6.140
  324SOL     OW 1870   3.124   0.942   3.083
  324SOL    HW1 1871   3.119   0.882   3.003
  324SOL    HW2 1872   3.126   0.886   3.166
  325SOL     OW 1873   0.304   2.661   2.439
  325SOL    HW1 1874   0.295   2.563   2.456
  325SOL    HW2 1875   0.392   2.694   2.475
  326SOL     OW 1876   1.815   4.907   6.610
  326SOL    HW1 1877   1.842   4.919   6.705
  326SOL    HW2 1878   1.818   4.810   6.585
  327SOL     OW 1879   1.802   4.639   2.181
  327SOL    HW1 1880   1.887   4.596   2.149
  327SOL    HW2 1881   1.726   4.574   2.172
  328SOL     OW 1882   1.301   5.920   1.833
  328SOL    HW1 1883   1.332   5.826   1.844
  328SOL    HW2 1884   1.327   5.954   1.743
  329SOL     OW 1885   2.989   3.152   4.656
  329SOL    HW1 1886   3.021   3.168   4.562
  329SOL    HW2 1887   3.058   3.101   4.706
  330SOL     OW 1888   3.395   6.290   1.433
  330SOL    HW1 1889   3.425   6.221   1.499
  330SOL    HW2 1890   3.368   6.246   1.348
  331SOL     OW 1891   3.931   5.630   0.776
  331SOL    HW1 1892   3.905   5.726   0.764
  331SOL    HW2 1893   3.900   5.578   0.696
  332SOL     OW 1894   5.004   1.923   5.819
  332SOL    HW1 1895   5.047   1.909   5.730
  332SOL    HW2 1896   5.023   1.845   5.878
  333SOL     OW 1897   4.389   0.366   6.088
  333SOL    HW1 1898   4.461   0.317   6.135
  333SOL    HW2 1899   4.423   0.456   6.059
  334SOL     OW 1900   3.333   1.239   0.273
  334SOL    HW1 1901   3.343   1.147   0.310
  334SOL    HW2 1902   3.236   1.260   0.261
  335SOL     OW 1903   4.592   6.543   5.935
  335SOL    HW1 1904   4.536   6.606   5.880
  335SOL    HW2 1905   4.580   6.564   6.032
  336SOL     OW 1906   2.610   1.182   3.468
  336SOL    HW1 1907   2.609   1.105   3.404
  336SOL    HW2 1908   2.666   1.256   3.430
  337SOL     OW 1909   7.020   3.027   6.262
  337SOL    HW1 1910   0.042   3.104   6.222
  337SOL    HW2 1911   6.997   2.961   6.190
  338SOL     OW 1912   3.118   2.540   1.331
  338SOL    HW1 1913   3.033   2.523   1.381
  338SOL    HW2 1914   3.152   2.455   1.292
  339SOL     OW 1915   4.565   5.842   4.811
  339SOL    HW1 1916   4.590   5.908   4.741
  339SOL    HW2 1917   4.482   5.793   4.782
  340SOL     OW 1918   4.732   4.085   5.200
  340SOL    HW1 1919   4.810   4.028   5.222
  340SOL    HW2 1920   4.739   4.116   5.105
  341SOL     OW 1921   6.280   6.741   4.137
  341SOL    HW1 1922   6.348   6.669   4.153
  341SOL    HW2 1923   6.326   6.830   4.133
  342SOL     OW 1924   5.723   3.570   0.458
  342SOL    HW1 1925   5.819   3.584   0.434
  342SOL    HW2 1926   5.665   3.627   0.399
  343SOL     OW 1927   1.563   6.351   1.537
  343SOL    HW1 1928   1.561   6.281   1.609
  343SOL    HW2 1929   1.619   6.318   1.461
  344SOL     OW 1930   1.340   2.949   1.973
  344SOL    HW1 1931   1.358   3.025   2.035
  344SOL    HW2 1932   1.293   2.876   2.022
  345SOL     OW 1933   4.934   2.285   3.903
  345SOL    HW1 1934   5.033   2.270   3.900
  345SOL    HW2 1935   4.890   2.227   3.835
  346SOL     OW 1936   1.884   1.011   3.168
  346SOL    HW1 1937   1.923   0.940   3.110
  346SOL    HW2 1938   1.798   1.044   3.128
  347SOL     OW 1939   2.595   5.369   6.622
  347SOL    HW1 1940   2.501   5.345   6.597
  347SOL    HW2 1941   2.611   5.343   6.717
  348SOL     OW 1942   5.008   4.062   2.488
  348SOL    HW1 1943   4.968   4.023   2.405
  348SOL    HW2 1944   5.052   4.149   2.467
  349SOL     OW 1945   6.684   5.488   1.080
  349SOL    HW1 1946   6.659   5.423   1.008
  349SOL    HW2 1947   6.743   5.559   1.042
  350SOL     OW 1948   3.163   2.959   1.087
  350SOL    HW1 1949   3.121   3.005   1.165
  350SOL    HW2 1950   3.173   2.862   1.106
  351SOL     OW 1951   2.463   3.660   0.944
  351SOL    HW1 1952   2.395   3.697   0.880
  351SOL    HW2 1953   2.555   3.681   0.911
  352SOL     OW 1954   3.346   6.608   4.209
  352SOL    HW1 1955   3.284   6.616   4.131
  352SOL    HW2 1956   3.431   6.656   4.189
  353SOL     OW 1957   2.994   0.087   0.139
  353SOL    HW1 1958   2.945   0.130   0.214
  353SOL    HW2 1959   2.961   7.021   0.126
  354SOL     OW 1960   3.994   2.818   0.698
  354SOL    HW1 1961   3.911   2.795   0.749
  354SOL    HW2 1962   4.002   2.756   0.619
  355SOL     OW 1963   1.272   3.420   2.824
  355SOL    HW1 1964   1.281   3.431   2.725
  355SOL    HW2 1965   1.280   3.509   2.868
  356SOL     OW 1966   2.316   0.024   5.805
  356SOL    HW1 1967   2.409   0.004   5.776
  356SOL    HW2 1968   2.252   7.004   5.744
  357SOL     OW 1969   6.963   5.880   5.369
  357SOL    HW1 1970   0.009   5.911   5.309
  357SOL    HW2 1971   6.956   5.941   5.448
  358SOL     OW 1972   4.942   6.141   0.805
  358SOL    HW1 1973   4.845   6.163   0.792
  358SOL    HW2 1974   4.951   6.045   0.831
  359SOL     OW 1975   3.054   2.155   1.850
  359SOL    HW1 1976   3.068   2.111   1.939
  359SOL    HW2 1977   2.993   2.233   1.861
  360SOL     OW 1978   1.287   4.715   5.975
  360SOL    HW1 1979   1.267   4.812   5.962
  360SOL    HW2 1980   1.386   4.701   5.978
  361SOL     OW 1981   6.208   6.826   2.518
  361SOL    HW1 1982   6.206   6.865   2.426
  361SOL    HW2 1983   6.274   6.751   2.521
  362SOL     OW 1984   3.952   3.080   1.165
  362SOL    HW1 1985   3.934   3.111   1.258
  362SOL    HW2 1986   4.024   3.010   1.167
  363SOL     OW 1987   5.711   4.209   2.938
  363SOL    HW1 1988   5.618   4.182   2.910
  363SOL    HW2 1989   5.773   4.132   2.924
  364SOL     OW 1990   6.298   5.098   6.845
  364SOL    HW1 1991   6.279   5.012   6.797
  364SOL    HW2 1992   6.295   5.174   6.780
  365SOL     OW 1993   5.601   6.502   1.689
  365SOL    HW1 1994   5.670   6.553   1.636
  365SOL    HW2 1995   5.640   6.474   1.776
  366SOL     OW 1996   5.628   0.541   6.311
  366SOL    HW1 1997   5.608   0.555   6.214
  366SOL    HW2 1998   5.723   0.512   6.321
  367SOL     OW 1999   5.313   3.045   1.964
  367SOL    HW1 2000   5.213   3.049   1.975
  367SOL    HW2 2001   5.344   3.127   1.916
  368SOL     OW 2002   0.656   2.943   5.433
  368SOL    HW1 2003   0.641   2.848   5.405
  368SOL    HW2 2004   0.699   2.945   5.523
  369SOL     OW 2005   6.086   5.068   2.255
  369SOL    HW1 2006   6.009   5.061   2.319
  369SOL    HW2 2007   6.141   4.984   2.259
  370SOL     OW 2008   2.125   1.265   5.070
  370SOL    HW1 2009   2.152   1.348   5.118
  370SOL    HW2 2010   2.058   1.216   5.125
  371SOL     OW 2011   1.756   4.363   5.874
  371SOL    HW1 2012   1.669   4.335   5.833
  371SOL    HW2 2013   1.820   4.387   5.801
  372SOL     OW 2014   1.101   6.488   6.523
  372SOL    HW1 2015   1.134   6.582   6.507
  372SOL    HW2 2016   1.032   6.465   6.455
  373SOL     OW 2017   6.026   6.406   4.231
  373SOL    HW1 2018   6.008   6.326   4.287
  373SOL    HW2 2019   6.083   6.380   4.153
  374SOL     OW 2020   2.938   1.942   4.017
  374SOL    HW1 2021   2.971   2.031   4.049
  374SOL    HW2 2022   3.015   1.880   4.004
  375SOL     OW 2023   1.105   4.874   4.004
  375SOL    HW1 2024   1.132   4.868   4.100
  375SOL    HW2 2025   1.182   4.906   3.949
  376SOL     OW 2026   2.528   1.038   5.154
  376SOL    HW1 2027   2.548   1.083   5.241
  376SOL    HW2 2028   2.460   1.090   5.104
  377SOL     OW 2029   1.024   1.967   1.143
  377SOL    HW1 2030   1.108   1.993   1.191
  377SOL    HW2 2031   0.983   2.048   1.101
  378SOL     OW 2032   4.874   2.668   6.282
  378SOL    HW1 2033   4.781   2.700   6.264
  378SOL    HW2 2034   4.877   2.621   6.370
  379SOL     OW 2035   5.733   2.894   1.705
  379SOL    HW1 2036   5.827   2.872   1.729
  379SOL    HW2 2037   5.722   2.890   1.606
  380SOL     OW 2038   2.207   1.365   0.711
  380SOL    HW1 2039   2.278   1.435   0.710
  380SOL    HW2 2040   2.244   1.279   0.676
  381SOL     OW 2041   0.994   3.815   2.480
  381SOL    HW1 2042   1.088   3.782   2.479
  381SOL    HW2 2043   0.933   3.740   2.508
  382SOL     OW 2044   5.505   0.294   6.778
  382SOL    HW1 2045   5.502   0.384   6.821
  382SOL    HW2 2046   5.528   0.304   6.681
  383SOL     OW 2047   4.126   3.796   6.289
  383SOL    HW1 2048   4.173   3.759   6.369
  383SOL    HW2 2049   4.134   3.896   6.289
  384SOL     OW 2050   0.327   5.864   3.957
  384SOL    HW1 2051   0.240   5.894   3.997
  384SOL    HW2 2052   0.315   5.774   3.915
  385SOL     OW 2053   3.332   4.707   5.390
  385SOL    HW1 2054   3.243   4.705   5.343
  385SOL    HW2 2055   3.350   4.619   5.432
  386SOL     OW 2056   2.362   0.170   5.226
  386SOL    HW1 2057   2.427   0.246   5.217
  386SOL    HW2 2058   2.331   0.163   5.321
  387SOL     OW 2059   1.256   0.032   2.469
  387SOL    HW1 2060   1.216   0.068   2.554
  387SOL    HW2 2061   1.194   6.992   2.430
  388SOL     OW 2062   1.701   1.460   4.888
  388SOL    HW1 2063   1.773   1.477   4.955
  388SOL    HW2 2064   1.733   1.486   4.797
  389SOL     OW 2065   3.665   3.797   1.154
  389SOL    HW1 2066   3.740   3.864   1.146
  389SOL    HW2 2067   3.695   3.720   1.209
  390SOL     OW 2068   3.471   1.733   1.078
  390SOL    HW1 2069   3.548   1.792   1.099
  390SOL    HW2 2070   3.482   1.645   1.124
  391SOL     OW 2071   2.022   3.142   6.800
  391SOL    HW1 2072   1.951   3.100   6.856
  391SOL    HW2 2073   2.097   3.077   6.788
  392SOL     OW 2074   1.222   4.320   0.958
  392SOL    HW1 2075   1.250   4.230   0.925
  392SOL    HW2 2076   1.152   4.358   0.898
  393SOL     OW 2077   1.590   4.192   6.456
  393SOL    HW1 2078   1.666   4.130   6.476
  393SOL    HW2 2079   1.569   4.246   6.537
  394SOL     OW 2080   6.931   1.973   0.284
  394SOL    HW1 2081   6.971   2.058   0.251
  394SOL    HW2 2082   6.960   1.957   0.379
  395SOL     OW 2083   5.131   4.047   3.139
  395SOL    HW1 2084   5.043   4.089   3.118
  395SOL    HW2 2085   5.164   3.998   3.059
  396SOL     OW 2086   3.283   3.706   1.237
  396SOL    HW1 2087   3.346   3.711   1.314
  396SOL    HW2 2088   3.191   3.684   1.271
  397SOL     OW 2089   6.249   1.300   5.196
  397SOL    HW1 2090   6.333   1.248   5.212
  397SOL    HW2 2091   6.228   1.354   5.277
  398SOL     OW 2092   1.109   0.208   2.293
  398SOL    HW1 2093   1.186   0.161   2.335
  398SOL    HW2 2094   1.120   0.210   2.194
  399SOL     OW 2095   5.765   5.906   2.550
  399SOL    HW1 2096   5.809   5.817   2.538
  399SOL    HW2 2097   5.668   5.892   2.573
  400SOL     OW 2098   6.812   6.173   5.442
  400SOL    HW1 2099   6.777   6.265   5.457
  400SOL    HW2 2100   6.862   6.143   5.522
  401SOL     OW 2101   5.912   0.467   6.383
  401SOL    HW1 2102   5.904   0.547   6.324
  401SOL    HW2 2103   6.001   0.425   6.371
  402SOL     OW 2104   6.077   0.241   3.562
  402SOL    HW1 2105   5.980   0.242   3.584
  402SOL    HW2 2106   6.128   0.290   3.632
  403SOL     OW 2107   4.039   1.778   4.379
  403SOL    HW1 2108   4.058   1.680   4.368
  403SOL    HW2 2109   4.011   1.797   4.473
  404SOL     OW 2110   1.687   5.137   3.845
  404SOL    HW1 2111   1.702   5.056   3.902
  404SOL    HW2 2112   1.757   5.140   3.774
  405SOL     OW 2113   1.930   3.131   2.567
  405SOL    HW1 2114   1.899   3.041   2.537
  405SOL    HW2 2115   1.928   3.136   2.667
  406SOL     OW 2116   0.902   4.048   4.689
  406SOL    HW1 2117   0.964   3.987   4.739
  406SOL    HW2 2118   0.946   4.079   4.605
  407SOL     OW 2119   1.209   0.964   4.540
  407SOL    HW1 2120   1.185   1.037   4.476
  407SOL    HW2 2121   1.259   0.892   4.492
  408SOL     OW 2122   1.545   2.492   2.884
  408SOL    HW1 2123   1.568   2.398   2.910
  408SOL    HW2 2124   1.585   2.556   2.951
  409SOL     OW 2125   6.724   2.866   2.547
  409SOL    HW1 2126   6.817   2.890   2.574
  409SOL    HW2 2127   6.723   2.774   2.508
  410SOL     OW 2128   1.752   1.784   0.864
  410SOL    HW1 2129   1.691   1.836   0.925
  410SOL    HW2 2130   1.846   1.790   0.898
  411SOL     OW 2131   6.401   0.632   1.690
  411SOL    HW1 2132   6.325   0.577   1.722
  411SOL    HW2 2133   6.442   0.590   1.609
  412SOL     OW 2134   2.839   5.942   3.618
  412SOL    HW1 2135   2.931   5.979   3.635
  412SOL    HW2 2136   2.846   5.845   3.596
  413SOL     OW 2137   5.430   3.718   1.630
  413SOL    HW1 2138   5.364   3.766   1.688
  413SOL    HW2 2139   5.430   3.759   1.539
  414SOL     OW 2140   3.260   5.149   3.605
  414SOL    HW1 2141   3.218   5.237   3.624
  414SOL    HW2 2142   3.211   5.104   3.531
  415SOL     OW 2143   0.916   6.298   6.781
  415SOL    HW1 2144   0.956   6.253   6.702
  415SOL    HW2 2145   0.989   6.342   6.835
  416SOL     OW 2146   4.756   6.398   5.077
  416SOL    HW1 2147   4.811   6.444   5.145
  416SOL    HW2 2148   4.696   6.464   5.032
  417SOL     OW 2149   1.898   6.097   6.030
  417SOL    HW1 2150   1.962   6.053   6.093
  417SOL    HW2 2151   1.804   6.073   6.056
  418SOL     OW 2152   3.987   6.821   6.706
  418SOL    HW1 2153   4.068   6.783   6.661
  418SOL    HW2 2154   3.939   6.748   6.755
  419SOL     OW 2155   2.045   6.534   1.504
  419SOL    HW1 2156   2.049   6.441   1.540
  419SOL    HW2 2157   1.977   6.539   1.432
  420SOL     OW 2158   6.084   1.205   0.196
  420SOL    HW1 2159   6.139   1.220   0.278
  420SOL    HW2 2160   6.017   1.279   0.186
  421SOL     OW 2161   0.153   4.215   5.166
  421SOL    HW1 2162   0.241   4.179   5.136
  421SOL    HW2 2163   0.084   4.142   5.166
  422SOL     OW 2164   5.214   3.527   1.326
  422SOL    HW1 2165   5.184   3.515   1.421
  422SOL    HW2 2166   5.234   3.437   1.287
  423SOL     OW 2167   0.458   2.111   5.847
  423SOL    HW1 2168   0.557   2.111   5.862
  423SOL    HW2 2169   0.432   2.032   5.793
  424SOL     OW 2170   1.435   5.677   0.829
  424SOL    HW1 2171   1.418   5.746   0.759
  424SOL    HW2 2172   1.503   5.711   0.893
  425SOL     OW 2173   4.789   1.863   3.526
  425SOL    HW1 2174   4.863   1.795   3.532
  425SOL    HW2 2175   4.730   1.840   3.449
  426SOL     OW 2176   3.611   1.889   4.474
  426SOL    HW1 2177   3.546   1.957   4.438
  426SOL    HW2 2178   3.691   1.936   4.511
  427SOL     OW 2179   5.582   6.166   3.866
  427SOL    HW1 2180   5.533   6.247   3.897
  427SOL    HW2 2181   5.528   6.119   3.796
  428SOL     OW 2182   4.387   0.229   3.571
  428SOL    HW1 2183   4.434   0.311   3.603
  428SOL    HW2 2184   4.310   0.256   3.513
  429SOL     OW 2185   1.407   4.820   1.842
  429SOL    HW1 2186   1.401   4.761   1.762
  429SOL    HW2 2187   1.351   4.902   1.828
  430SOL     OW 2188   0.593   0.180   4.596
  430SOL    HW1 2189   0.646   0.142   4.520
  430SOL    HW2 2190   0.630   0.146   4.682
  431SOL     OW 2191   2.934   0.798   1.337
  431SOL    HW1 2192   2.925   0.876   1.274
  431SOL    HW2 2193   3.028   0.791   1.369
  432SOL     OW 2194   6.323   1.646   0.874
  432SOL    HW1 2195   6.391   1.588   0.920
  432SOL    HW2 2196   6.289   1.599   0.793
  433SOL     OW 2197   1.968   6.721   4.820
  433SOL    HW1 2198   1.978   6.662   4.900
  433SOL    HW2 2199   2.013   6.678   4.741
  434SOL     OW 2200   3.814   5.551   3.599
  434SOL    HW1 2201   3.902   5.511   3.627
  434SOL    HW2 2202   3.743   5.481   3.606
  435SOL     OW 2203   4.566   2.415   6.850
  435SOL    HW1 2204   4.619   2.406   6.935
  435SOL    HW2 2205   4.487   2.354   6.853
  436SOL     OW 2206   3.221   5.593   2.165
  436SOL    HW1 2207   3.231   5.676   2.110
  436SOL    HW2 2208   3.309   5.567   2.204
  437SOL     OW 2209   0.707   1.363   6.732
  437SOL    HW1 2210   0.649   1.299   6.784
  437SOL    HW2 2211   0.785   1.313   6.694
  438SOL     OW 2212   2.213   4.014   3.636
  438SOL    HW1 2213   2.204   3.916   3.651
  438SOL    HW2 2214   2.182   4.037   3.543
  439SOL     OW 2215   5.987   5.362   2.287
  439SOL    HW1 2216   6.029   5.422   2.218
  439SOL    HW2 2217   5.933   5.292   2.241
  440SOL     OW 2218   2.579   1.768   5.140
  440SOL    HW1 2219   2.503   1.773   5.205
  440SOL    HW2 2220   2.624   1.857   5.134
  441SOL     OW 2221   0.790   3.399   4.025
  441SOL    HW1 2222   0.801   3.353   4.113
  441SOL    HW2 2223   0.715   3.357   3.974
  442SOL     OW 2224   3.999   5.922   5.557
  442SOL    HW1 2225   4.047   5.948   5.473
  442SOL    HW2 2226   3.929   5.854   5.536
  443SOL     OW 2227   6.024   4.301   3.668
  443SOL    HW1 2228   6.074   4.237   3.609
  443SOL    HW2 2229   5.975   4.367   3.611
  444SOL     OW 2230   5.233   0.595   6.596
  444SOL    HW1 2231   5.165   0.664   6.623
  444SOL    HW2 2232   5.185   0.515   6.559
  445SOL     OW 2233   1.089   5.985   3.019
  445SOL    HW1 2234   1.118   5.997   3.115
  445SOL    HW2 2235   1.108   5.891   2.990
  446SOL     OW 2236   3.421   4.895   3.620
  446SOL    HW1 2237   3.373   4.979   3.593
  446SOL    HW2 2238   3.355   4.819   3.623
  447SOL     OW 2239   0.451   2.905   6.534
  447SOL    HW1 2240   0.387   2.841   6.578
  447SOL    HW2 2241   0.407   2.946   6.454
  448SOL     OW 2242   2.357   0.947   3.177
  448SOL    HW1 2243   2.346   1.041   3.208
  448SOL    HW2 2244   2.318   0.937   3.085
  449SOL     OW 2245   2.770   1.414   3.974
  449SOL    HW1 2246   2.867   1.410   3.997
  449SOL    HW2 2247   2.718   1.441   4.054
  450SOL     OW 2248   1.360   4.916   3.124
  450SOL    HW1 2249   1.373   4.948   3.218
  450SOL    HW2 2250   1.336   4.994   3.066
  451SOL     OW 2251   1.268   2.316   4.447
  451SOL    HW1 2252   1.246   2.412   4.466
  451SOL    HW2 2253   1.308   2.308   4.356
  452SOL     OW 2254   5.280   6.215   0.608
  452SOL    HW1 2255   5.267   6.298   0.662
  452SOL    HW2 2256   5.213   6.213   0.533
  453SOL     OW 2257   3.998   0.252   6.481
  453SOL    HW1 2258   3.965   0.247   6.386
  453SOL    HW2 2259   3.952   0.326   6.529
  454SOL     OW 2260   0.311   4.212   6.648
  454SOL    HW1 2261   0.324   4.267   6.565
  454SOL    HW2 2262   0.380   4.140   6.651
  455SOL     OW 2263   5.392   2.286   4.822
  455SOL    HW1 2264   5.304   2.318   4.787
  455SOL    HW2 2265   5.404   2.319   4.916
  456SOL     OW 2266   0.679   7.014   3.978
  456SOL    HW1 2267   0.706   0.064   4.034
  456SOL    HW2 2268   0.746   6.940   3.989
  457SOL     OW 2269   1.740   3.191   4.825
  457SOL    HW1 2270   1.787   3.154   4.746
  457SOL    HW2 2271   1.807   3.221   4.893
  458SOL     OW 2272   3.208   6.101   2.523
  458SOL    HW1 2273   3.156   6.085   2.607
  458SOL    HW2 2274   3.287   6.041   2.521
  459SOL     OW 2275   1.896   0.055   5.926
  459SOL    HW1 2276   1.903   0.074   6.024
  459SOL    HW2 2277   1.972   0.100   5.879
  460SOL     OW 2278   2.313   6.810   4.681
  460SOL    HW1 2279   2.269   6.837   4.596
  460SOL    HW2 2280   2.249   6.826   4.757
  461SOL     OW 2281   6.870   5.328   5.523
  461SOL    HW1 2282   6.915   5.239   5.508
  461SOL    HW2 2283   6.914   5.397   5.466
  462SOL     OW 2284   3.684   3.241   6.998
  462SOL    HW1 2285   3.776   3.265   0.003
  462SOL    HW2 2286   3.688   3.154   6.949
  463SOL     OW 2287   5.821   6.265   3.968
  463SOL    HW1 2288   5.741   6.223   3.925
  463SOL    HW2 2289   5.904   6.226   3.929
  464SOL     OW 2290   3.128   1.203   5.469
  464SOL    HW1 2291   3.166   1.289   5.503
  464SOL    HW2 2292   3.201   1.150   5.425
  465SOL     OW 2293   0.908   2.269   0.123
  465SOL    HW1 2294   0.819   2.283   0.167
  465SOL    HW2 2295   0.981   2.285   0.189
  466SOL     OW 2296   1.844   6.440   3.876
  466SOL    HW1 2297   1.804   6.367   3.930
  466SOL    HW2 2298   1.926   6.475   3.922
  467SOL     OW 2299   1.936   1.170   1.213
  467SOL    HW1 2300   1.926   1.260   1.255
  467SOL    HW2 2301   1.882   1.165   1.130
  468SOL     OW 2302   3.853   6.104   5.733
  468SOL    HW1 2303   3.874   6.057   5.819
  468SOL    HW2 2304   3.884   6.048   5.656
  469SOL     OW 2305   2.865   3.494   6.043
  469SOL    HW1 2306   2.781   3.446   6.069
  469SOL    HW2 2307   2.899   3.547   6.120
  470SOL     OW 2308   5.073   6.491   1.155
  470SOL    HW1 2309   5.135   6.553   1.107
  470SOL    HW2 2310   5.032   6.539   1.233
  471SOL     OW 2311   2.478   2.642   4.145
  471SOL    HW1 2312   2.486   2.646   4.045
  471SOL    HW2 2313   2.418   2.566   4.170
  472SOL     OW 2314   4.841   4.409   6.198
  472SOL    HW1 2315   4.771   4.410   6.269
  472SOL    HW2 2316   4.798   4.392   6.109
  473SOL     OW 2317   1.457   2.498   2.392
  473SOL    HW1 2318   1.454   2.460   2.484
  473SOL    HW2 2319   1.441   2.597   2.397
  474SOL     OW 2320   5.339   6.092   4.596
  474SOL    HW1 2321   5.244   6.061   4.593
  474SOL    HW2 2322   5.343   6.189   4.572
  475SOL     OW 2323   5.981   2.205   6.856
  475SOL    HW1 2324   5.986   2.140   6.780
  475SOL    HW2 2325   5.903   2.183   6.914
  476SOL     OW 2326   0.052   3.581   2.316
  476SOL    HW1 2327   0.003   3.559   2.232
  476SOL    HW2 2328   0.114   3.506   2.339
  477SOL     OW 2329   2.620   6.312   3.098
  477SOL    HW1 2330   2.645   6.240   3.164
  477SOL    HW2 2331   2.602   6.397   3.147
  478SOL     OW 2332   3.282   6.275   2.133
  478SOL    HW1 2333   3.252   6.309   2.223
  478SOL    HW2 2334   3.240   6.330   2.061
  479SOL     OW 2335   3.643   2.966   5.538
  479SOL    HW1 2336   3.718   2.992   5.599
  479SOL    HW2 2337   3.556   2.980   5.584
  480SOL     OW 2338   2.307   1.050   0.682
  480SOL    HW1 2339   2.230   1.031   0.743
  480SOL    HW2 2340   2.290   1.008   0.593
  481SOL     OW 2341   1.495   6.553   1.024
  481SOL    HW1 2342   1.424   6.607   0.979
  481SOL    HW2 2343   1.453   6.498   1.097
  482SOL     OW 2344   4.098   4.749   2.128
  482SOL    HW1 2345   4.187   4.791   2.114
  482SOL    HW2 2346   4.035   4.780   2.057
  483SOL     OW 2347   6.490   2.234   3.255
  483SOL    HW1 2348   6.402   2.248   3.299
  483SOL    HW2 2349   6.558   2.295   3.296
  484SOL     OW 2350   2.086   3.201   5.428
  484SOL    HW1 2351   2.180   3.175   5.404
  484SOL    HW2 2352   2.058   3.280   5.374
  485SOL     OW 2353   3.948   4.868   2.648
  485SOL    HW1 2354   3.872   4.926   2.619
  485SOL    HW2 2355   3.978   4.812   2.571
  486SOL     OW 2356   6.666   0.836   0.301
  486SOL    HW1 2357   6.650   0.933   0.287
  486SOL    HW2 2358   6.580   0.791   0.325
  487SOL     OW 2359   0.754   0.602   3.543
  487SOL    HW1 2360   0.679   0.599   3.610
  487SOL    HW2 2361   0.822   0.533   3.567
  488SOL     OW 2362   1.131   0.914   2.735
  488SOL    HW1 2363   1.151   0.951   2.826
  488SOL    HW2 2364   1.209   0.930   2.675
  489SOL     OW 2365   5.374   5.757   5.498
  489SOL    HW1 2366   5.274   5.749   5.502
  489SOL    HW2 2367   5.415   5.688   5.558
  490SOL     OW 2368   0.931   6.593   3.201
  490SOL    HW1 2369   0.865   6.654   3.157
  490SOL    HW2 2370   0.943   6.512   3.144
  491SOL     OW 2371   1.287   3.456   1.951
  491SOL    HW1 2372   1.201   3.424   1.911
  491SOL    HW2 2373   1.269   3.501   2.038
  492SOL     OW 2374   1.509   0.323   5.784
  492SOL    HW1 2375   1.498   0.403   5.844
  492SOL    HW2 2376   1.473   0.345   5.694
  493SOL     OW 2377   3.946   6.343   5.631
  493SOL    HW1 2378   4.036   6.346   5.675
  493SOL    HW2 2379   3.888   6.277   5.678
  494SOL     OW 2380   0.834   6.799   6.578
  494SOL    HW1 2381   0.873   6.722   6.629
  494SOL    HW2 2382   0.894   6.823   6.502
  495SOL     OW 2383   4.094   5.879   3.573
  495SOL    HW1 2384   4.023   5.944   3.545
  495SOL    HW2 2385   4.184   5.918   3.555
  496SOL     OW 2386   5.430   3.048   1.561
  496SOL    HW1 2387   5.425   3.111   1.638
  496SOL    HW2 2388   5.497   3.082   1.494
  497SOL     OW 2389   3.438   1.696   4.572
  497SOL    HW1 2390   3.496   1.767   4.532
  497SOL    HW2 2391   3.424   1.714   4.669
  498SOL     OW 2392   0.954   4.909   1.858
  498SOL    HW1 2393   0.950   5.005   1.831
  498SOL    HW2 2394   0.940   4.901   1.956
  499SOL     OW 2395   1.600   5.459   4.480
  499SOL    HW1 2396   1.609   5.558   4.465
  499SOL    HW2 2397   1.635   5.410   4.401
  500SOL     OW 2398   0.022   2.239   6.196
  500SOL    HW1 2399   6.966   2.282   6.160
  500SOL    HW2 2400   0.011   2.140   6.197
  501SOL     OW 2401   3.863   0.330   1.031
  501SOL    HW1 2402   3.824   0.324   1.123
  501SOL    HW2 2403   3.936   0.263   1.021
  502SOL     OW 2404   0.669   4.117   5.778
  502SOL    HW1 2405   0.670   4.019   5.757
  502SOL    HW2 2406   0.623   4.167   5.705
  503SOL     OW 2407   0.082   4.795   6.587
  503SOL    HW1 2408   0.004   4.858   6.594
  503SOL    HW2 2409   0.076   4.744   6.501
  504SOL     OW 2410   0.712   5.303   2.243
  504SOL    HW1 2411   0.689   5.214   2.283
  504SOL    HW2 2412   0.811   5.307   2.227
  505SOL     OW 2413   3.189   6.164   4.551
  505SOL    HW1 2414   3.224   6.163   4.644
  505SOL    HW2 2415   3.160   6.257   4.527
  506SOL     OW 2416   2.968   5.455   3.366
  506SOL    HW1 2417   3.067   5.441   3.354
  506SOL    HW2 2418   2.929   5.486   3.280
  507SOL     OW 2419   3.499   0.298   3.258
  507SOL    HW1 2420   3.576   0.336   3.307
  507SOL    HW2 2421   3.445   0.372   3.218
  508SOL     OW 2422   6.885   3.551   2.863
  508SOL    HW1 2423   6.930   3.632   2.827
  508SOL    HW2 2424   6.786   3.559   2.851
  509SOL     OW 2425   3.040   1.496   1.269
  509SOL    HW1 2426   3.114   1.523   1.331
  509SOL    HW2 2427   3.016   1.401   1.285
  510SOL     OW 2428   6.455   4.235   0.068
  510SOL    HW1 2429   6.513   4.270   7.022
  510SOL    HW2 2430   6.379   4.183   0.029
  511SOL     OW 2431   0.996   2.406   6.114
  511SOL    HW1 2432   0.974   2.481   6.051
  511SOL    HW2 2433   1.084   2.366   6.088
  512SOL     OW 2434   0.001   2.309   6.678
  512SOL    HW1 2435   0.096   2.319   6.707
  512SOL    HW2 2436   7.007   2.377   6.608
  513SOL     OW 2437   5.769   6.749   3.275
  513SOL    HW1 2438   5.776   6.734   3.374
  513SOL    HW2 2439   5.733   6.840   3.258
  514SOL     OW 2440   6.197   0.346   4.326
  514SOL    HW1 2441   6.148   0.260   4.313
  514SOL    HW2 2442   6.217   0.359   4.423
  515SOL     OW 2443   1.113   6.960   1.205
  515SOL    HW1 2444   1.137   6.876   1.253
  515SOL    HW2 2445   1.068   7.023   1.269
  516SOL     OW 2446   2.918   4.856   1.945
  516SOL    HW1 2447   2.867   4.771   1.949
  516SOL    HW2 2448   2.945   4.876   1.851
  517SOL     OW 2449   3.748   5.217   1.721
  517SOL    HW1 2450   3.749   5.180   1.628
  517SOL    HW2 2451   3.734   5.316   1.718
  518SOL     OW 2452   2.129   2.155   4.134
  518SOL    HW1 2453   2.139   2.209   4.050
  518SOL    HW2 2454   2.050   2.094   4.125
  519SOL     OW 2455   0.762   6.246   3.931
  519SOL    HW1 2456   0.833   6.307   3.895
  519SOL    HW2 2457   0.693   6.300   3.979
  520SOL     OW 2458   5.910   3.808   0.087
  520SOL    HW1 2459   5.981   3.739   0.072
  520SOL    HW2 2460   5.838   3.797   0.020
  521SOL     OW 2461   6.208   5.989   5.183
  521SOL    HW1 2462   6.243   6.052   5.252
  521SOL    HW2 2463   6.242   6.016   5.093
  522SOL     OW 2464   3.534   3.253   3.581
  522SOL    HW1 2465   3.597   3.197   3.635
  522SOL    HW2 2466   3.529   3.217   3.488
  523SOL     OW 2467   0.468   6.227   1.834
  523SOL    HW1 2468   0.377   6.258   1.808
  523SOL    HW2 2469   0.525   6.215   1.753
  524SOL     OW 2470   0.724   1.911   2.547
  524SOL    HW1 2471   0.746   1.847   2.619
  524SOL    HW2 2472   0.756   1.876   2.459
  525SOL     OW 2473   1.953   4.532   5.998
  525SOL    HW1 2474   1.914   4.457   5.946
  525SOL    HW2 2475   2.051   4.515   6.013
  526SOL     OW 2476   3.276   6.152   4.290
  526SOL    HW1 2477   3.253   6.067   4.243
  526SOL    HW2 2478   3.242   6.148   4.384
  527SOL     OW 2479   6.771   3.036   0.767
  527SOL    HW1 2480   6.837   3.103   0.731
  527SOL    HW2 2481   6.733   3.071   0.852
  528SOL     OW 2482   1.528   2.596   3.962
  528SOL    HW1 2483   1.612   2.579   4.014
  528SOL    HW2 2484   1.506   2.694   3.967
  529SOL     OW 2485   1.424   5.415   5.159
  529SOL    HW1 2486   1.378   5.503   5.147
  529SOL    HW2 2487   1.384   5.368   5.238
  530SOL     OW 2488   4.136   3.352   3.748
  530SOL    HW1 2489   4.152   3.401   3.834
  530SOL    HW2 2490   4.110   3.418   3.677
  531SOL     OW 2491   0.945   1.982   2.688
  531SOL    HW1 2492   0.869   1.993   2.623
  531SOL    HW2 2493   0.921   1.912   2.755
  532SOL     OW 2494   0.869   3.141   0.334
  532SOL    HW1 2495   0.892   3.072   0.403
  532SOL    HW2 2496   0.852   3.097   0.246
  533SOL     OW 2497   4.097   0.155   3.801
  533SOL    HW1 2498   4.012   0.145   3.750
  533SOL    HW2 2499   4.163   0.086   3.771
  534SOL     OW 2500   5.166   6.302   2.675
  534SOL    HW1 2501   5.137   6.223   2.729
  534SOL    HW2 2502   5.126   6.385   2.714
  535SOL     OW 2503   6.855   3.655   4.441
  535SOL    HW1 2504   6.895   3.591   4.375
  535SOL    HW2 2505   6.759   3.632   4.456
  536SOL     OW 2506   5.957   5.164   2.703
  536SOL    HW1 2507   6.005   5.163   2.791
  536SOL    HW2 2508   6.007   5.220   2.638
  537SOL     OW 2509   2.346   6.372   4.601
  537SOL    HW1 2510   2.389   6.319   4.528
  537SOL    HW2 2511   2.403   6.452   4.621
  538SOL     OW 2512   1.056   4.313   3.810
  538SOL    HW1 2513   1.116   4.352   3.740
  538SOL    HW2 2514   1.065   4.365   3.895
  539SOL     OW 2515   1.648   5.168   1.362
  539SOL    HW1 2516   1.677   5.164   1.458
  539SOL    HW2 2517   1.713   5.223   1.310
  540SOL     OW 2518   1.247   1.606   2.758
  540SOL    HW1 2519   1.334   1.592   2.711
  540SOL    HW2 2520   1.252   1.567   2.850
  541SOL     OW 2521   5.184   5.437   3.501
  541SOL    HW1 2522   5.271   5.465   3.544
  541SOL    HW2 2523   5.151   5.354   3.546
  542SOL     OW 2524   5.663   6.568   6.592
  542SOL    HW1 2525   5.706   6.640   6.647
  542SOL    HW2 2526   5.688   6.479   6.628
  543SOL     OW 2527   0.427   3.266   4.847
  543SOL    HW1 2528   0.485   3.275   4.928
  543SOL    HW2 2529   0.482   3.283   4.765
  544SOL     OW 2530   1.555   4.876   0.137
  544SOL    HW1 2531   1.514   4.868   0.047
  544SOL    HW2 2532   1.649   4.909   0.128
  545SOL     OW 2533   3.187   1.658   1.024
  545SOL    HW1 2534   3.255   1.602   0.978
  545SOL    HW2 2535   3.148   1.608   1.101
  546SOL     OW 2536   2.305   3.362   0.535
  546SOL    HW1 2537   2.239   3.437   0.543
  546SOL    HW2 2538   2.266   3.279   0.574
  547SOL     OW 2539   3.653   1.562   0.144
  547SOL    HW1 2540   3.564   1.539   0.183
  547SOL    HW2 2541   3.640   1.611   0.058
  548SOL     OW 2542   3.369   3.384   2.133
  548SOL    HW1 2543   3.293   3.319   2.135
  548SOL    HW2 2544   3.431   3.360   2.058
  549SOL     OW 2545   6.046   2.974   0.997
  549SOL    HW1 2546   6.034   3.019   1.085
  549SOL    HW2 2547   6.102   3.031   0.937
  550SOL     OW 2548   1.305   5.831   3.859
  550SOL    HW1 2549   1.229   5.883   3.898
  550SOL    HW2 2550   1.278   5.735   3.849
  551SOL     OW 2551   1.157   0.188   2.026
  551SOL    HW1 2552   1.084   0.123   2.004
  551SOL    HW2 2553   1.222   0.193   1.950
  552SOL     OW 2554   6.784   4.489   6.936
  552SOL    HW1 2555   6.691   4.521   6.953
  552SOL    HW2 2556   6.841   4.567   6.908
  553SOL     OW 2557   2.726   6.159   3.310
  553SOL    HW1 2558   2.722   6.182   3.407
  553SOL    HW2 2559   2.822   6.160   3.280
  554SOL     OW 2560   6.573   6.511   6.520
  554SOL    HW1 2561   6.475   6.525   6.530
  554SOL    HW2 2562   6.618   6.522   6.609
  555SOL     OW 2563   2.387   4.382   4.603
  555SOL    HW1 2564   2.321   4.316   4.569
  555SOL    HW2 2565   2.427   4.350   4.688
  556SOL     OW 2566   4.223   2.071   3.931
  556SOL    HW1 2567   4.282   2.003   3.974
  556SOL    HW2 2568   4.277   2.123   3.864
  557SOL     OW 2569   0.293   5.544   1.038
  557SOL    HW1 2570   0.248   5.611   1.098
  557SOL    HW2 2571   0.291   5.577   0.944
  558SOL     OW 2572   3.047   3.449   3.539
  558SOL    HW1 2573   2.993   3.527   3.509
  558SOL    HW2 2574   3.135   3.481   3.576
  559SOL     OW 2575   0.162   5.412   7.003
  559SOL    HW1 2576   0.113   5.385   6.920
  559SOL    HW2 2577   0.193   5.507   6.994
  560SOL     OW 2578   5.377   4.865   5.366
  560SOL    HW1 2579   5.329   4.920   5.298
  560SOL    HW2 2580   5.357   4.901   5.457
  561SOL     OW 2581   0.941   2.054   1.510
  561SOL    HW1 2582   0.931   1.962   1.546
  561SOL    HW2 2583   1.016   2.057   1.444
  562SOL     OW 2584   4.551   7.019   6.025
  562SOL    HW1 2585   4.551   0.080   6.071
  562SOL    HW2 2586   4.601   6.952   6.080
  563SOL     OW 2587   2.813   0.303   3.514
  563SOL    HW1 2588   2.802   0.227   3.450
  563SOL    HW2 2589   2.867   0.376   3.471
  564SOL     OW 2590   1.455   2.487   6.695
  564SOL    HW1 2591   1.371   2.497   6.642
  564SOL    HW2 2592   1.530   2.532   6.646
  565SOL     OW 2593   3.297   3.098   4.989
  565SOL    HW1 2594   3.352   3.023   5.027
  565SOL    HW2 2595   3.305   3.179   5.048
  566SOL     OW 2596   0.071   4.863   3.459
  566SOL    HW1 2597   7.013   4.844   3.410
  566SOL    HW2 2598   0.148   4.858   3.395
  567SOL     OW 2599   3.067   3.013   1.395
  567SOL    HW1 2600   3.062   2.924   1.440
  567SOL    HW2 2601   2.985   3.026   1.339
  568SOL     OW 2602   5.149   0.597   7.025
  568SOL    HW1 2603   5.136   0.498   7.013
  568SOL    HW2 2604   5.065   0.645   7.001
  569SOL     OW 2605   1.790   3.144   6.624
  569SOL    HW1 2606   1.766   3.093   6.707
  569SOL    HW2 2607   1.888   3.162   6.624
  570SOL     OW 2608   3.852   5.691   6.836
  570SOL    HW1 2609   3.821   5.740   6.755
  570SOL    HW2 2610   3.892   5.603   6.809
  571SOL     OW 2611   3.467   6.876   2.177
  571SOL    HW1 2612   3.379   6.878   2.130
  571SOL    HW2 2613   3.515   6.791   2.155
  572SOL     OW 2614   2.765   4.731   5.592
  572SOL    HW1 2615   2.704   4.653   5.578
  572SOL    HW2 2616   2.844   4.723   5.531
  573SOL     OW 2617   5.370   1.139   5.233
  573SOL    HW1 2618   5.390   1.189   5.316
  573SOL    HW2 2619   5.308   1.063   5.254
  574SOL     OW 2620   4.103   1.502   4.412
  574SOL    HW1 2621   4.148   1.449   4.484
  574SOL    HW2 2622   4.058   1.440   4.349
  575SOL     OW 2623   4.871   3.904   6.779
  575SOL    HW1 2624   4.905   3.840   6.710
  575SOL    HW2 2625   4.804   3.858   6.837
  576SOL     OW 2626   0.789   1.901   3.280
  576SOL    HW1 2627   0.694   1.878   3.258
  576SOL    HW2 2628   0.841   1.816   3.296
  577SOL     OW 2629   1.516   1.336   2.783
  577SOL    HW1 2630   1.524   1.329   2.883
  577SOL    HW2 2631   1.504   1.432   2.757
  578SOL     OW 2632   5.544   5.728   4.044
  578SOL    HW1 2633   5.456   5.740   4.090
  578SOL    HW2 2634   5.529   5.687   3.954
  579SOL     OW 2635   1.759   3.520   3.337
  579SOL    HW1 2636   1.858   3.506   3.332
  579SOL    HW2 2637   1.712   3.443   3.293
  580SOL     OW 2638   4.966   5.934   6.775
  580SOL    HW1 2639   5.009   5.995   6.840
  580SOL    HW2 2640   4.986   5.964   6.681
  581SOL     OW 2641   2.147   3.615   1.528
  581SOL    HW1 2642   2.187   3.640   1.616
  581SOL    HW2 2643   2.142   3.696   1.469
  582SOL     OW 2644   4.343   6.345   1.960
  582SOL    HW1 2645   4.323   6.415   1.891
  582SOL    HW2 2646   4.437   6.356   1.992
  583SOL     OW 2647   3.175   6.285   5.613
  583SOL    HW1 2648   3.212   6.274   5.705
  583SOL    HW2 2649   3.151   6.196   5.575
  584SOL     OW 2650   2.951   4.892   6.920
  584SOL    HW1 2651   2.867   4.944   6.933
  584SOL    HW2 2652   3.024   4.933   6.973
  585SOL     OW 2653   5.409   2.453   6.200
  585SOL    HW1 2654   5.319   2.478   6.236
  585SOL    HW2 2655   5.479   2.510   6.244
  586SOL     OW 2656   3.526   0.569   6.107
  586SOL    HW1 2657   3.478   0.595   6.190
  586SOL    HW2 2658   3.461   0.564   6.031
  587SOL     OW 2659   4.520   1.780   4.855
  587SOL    HW1 2660   4.478   1.857   4.902
  587SOL    HW2 2661   4.461   1.752   4.778
  588SOL     OW 2662   1.583   4.758   2.415
  588SOL    HW1 2663   1.538   4.723   2.334
  588SOL    HW2 2664   1.623   4.682   2.467
  589SOL     OW 2665   3.254   4.722   1.345
  589SOL    HW1 2666   3.174   4.782   1.345
  589SOL    HW2 2667   3.273   4.693   1.251
  590SOL     OW 2668   4.832   3.064   3.102
  590SOL    HW1 2669   4.818   3.029   3.195
  590SOL    HW2 2670   4.801   2.995   3.036
  591SOL     OW 2671   3.049   5.159   4.059
  591SOL    HW1 2672   3.111   5.091   4.019
  591SOL    HW2 2673   2.966   5.113   4.090
  592SOL     OW 2674   4.084   1.351   0.904
  592SOL    HW1 2675   4.093   1.253   0.887
  592SOL    HW2 2676   3.998   1.384   0.864
  593SOL     OW 2677   4.587   2.577   4.432
  593SOL    HW1 2678   4.580   2.600   4.335
  593SOL    HW2 2679   4.619   2.483   4.442
  594SOL     OW 2680   6.666   1.906   0.322
  594SOL    HW1 2681   6.762   1.931   0.324
  594SOL    HW2 2682   6.615   1.972   0.267
  595SOL     OW 2683   5.701   0.405   3.278
  595SOL    HW1 2684   5.779   0.405   3.216
  595SOL    HW2 2685   5.616   0.396   3.226
  596SOL     OW 2686   0.480   5.522   3.415
  596SOL    HW1 2687   0.421   5.550   3.490
  596SOL    HW2 2688   0.481   5.594   3.345
  597SOL     OW 2689   2.728   0.281   6.891
  597SOL    HW1 2690   2.687   0.367   6.921
  597SOL    HW2 2691   2.711   0.211   6.961
  598SOL     OW 2692   4.028   5.030   5.633
  598SOL    HW1 2693   4.074   5.119   5.628
  598SOL    HW2 2694   3.954   5.027   5.566
  599SOL     OW 2695   2.095   6.157   1.892
  599SOL    HW1 2696   2.063   6.204   1.974
  599SOL    HW2 2697   2.147   6.221   1.835
  600SOL     OW 2698   6.871   1.185   6.430
  600SOL    HW1 2699   6.865   1.275   6.386
  600SOL    HW2 2700   6.784   1.138   6.421
  601SOL     OW 2701   1.625   0.297   4.572
  601SOL    HW1 2702   1.622   0.222   4.638
  601SOL    HW2 2703   1.714   0.300   4.527
  602SOL     OW 2704   2.259   2.456   6.470
  602SOL    HW1 2705   2.223   2.549   6.466
  602SOL    HW2 2706   2.183   2.391   6.464
  603SOL     OW 2707   2.557   2.283   5.330
  603SOL    HW1 2708   2.611   2.213   5.376
  603SOL    HW2 2709   2.460   2.263   5.340
  604SOL     OW 2710   1.343   2.799   1.653
  604SOL    HW1 2711   1.270   2.866   1.664
  604SOL    HW2 2712   1.336   2.730   1.726
  605SOL     OW 2713   6.532   6.605   1.232
  605SOL    HW1 2714   6.620   6.626   1.190
  605SOL    HW2 2715   6.464   6.671   1.199
  606SOL     OW 2716   4.348   6.836   6.832
  606SOL    HW1 2717   4.346   6.936   6.822
  606SOL    HW2 2718   4.425   6.810   6.890
  607SOL     OW 2719   6.779   6.340   5.890
  607SOL    HW1 2720   6.733   6.367   5.805
  607SOL    HW2 2721   6.713   6.340   5.965
  608SOL     OW 2722   3.512   5.901   6.795
  608SOL    HW1 2723   3.489   5.995   6.819
  608SOL    HW2 2724   3.553   5.855   6.874
  609SOL     OW 2725   3.995   3.075   2.931
  609SOL    HW1 2726   3.942   3.025   3.000
  609SOL    HW2 2727   4.033   3.158   2.971
  610SOL     OW 2728   5.324   4.020   1.715
  610SOL    HW1 2729   5.259   4.020   1.790
  610SOL    HW2 2730   5.384   4.100   1.722
  611SOL     OW 2731   3.814   6.839   0.912
  611SOL    HW1 2732   3.795   6.750   0.871
  611SOL    HW2 2733   3.912   6.846   0.933
  612SOL     OW 2734   4.040   6.626   5.576
  612SOL    HW1 2735   4.006   6.532   5.577
  612SOL    HW2 2736   4.129   6.630   5.532
  613SOL     OW 2737   4.458   6.011   5.611
  613SOL    HW1 2738   4.482   6.108   5.606
  613SOL    HW2 2739   4.466   5.970   5.520
  614SOL     OW 2740   5.190   5.412   1.073
  614SOL    HW1 2741   5.218   5.414   1.169
  614SOL    HW2 2742   5.226   5.492   1.026
  615SOL     OW 2743   6.486   2.293   1.555
  615SOL    HW1 2744   6.567   2.317   1.503
  615SOL    HW2 2745   6.421   2.369   1.555
  616SOL     OW 2746   7.008   2.619   3.981
  616SOL    HW1 2747   6.947   2.575   4.047
  616SOL    HW2 2748   0.020   2.549   3.921
  617SOL     OW 2749   6.316   4.625   6.717
  617SOL    HW1 2750   6.337   4.553   6.651
  617SOL    HW2 2751   6.234   4.601   6.768
  618SOL     OW 2752   6.768   2.410   6.768
  618SOL    HW1 2753   6.759   2.441   6.674
  618SOL    HW2 2754   6.863   2.381   6.785
  619SOL     OW 2755   4.621   1.143   0.068
  619SOL    HW1 2756   4.720   1.145   0.082
  619SOL    HW2 2757   4.588   1.049   0.081
  620SOL     OW 2758   4.510   2.941   1.167
  620SOL    HW1 2759   4.470   3.031   1.185
  620SOL    HW2 2760   4.471   2.874   1.230
  621SOL     OW 2761   2.731   6.431   6.835
  621SOL    HW1 2762   2.775   6.445   6.746
  621SOL    HW2 2763   2.663   6.503   6.850
  622SOL     OW 2764   1.657   0.382   4.844
  622SOL    HW1 2765   1.654   0.383   4.744
  622SOL    HW2 2766   1.745   0.417   4.875
  623SOL     OW 2767   0.444   5.196   5.883
  623SOL    HW1 2768   0.484   5.105   5.887
  623SOL    HW2 2769   0.513   5.262   5.855
  624SOL     OW 2770   7.011   2.371   1.285
  624SOL    HW1 2771   6.994   2.319   1.369
  624SOL    HW2 2772   7.025   2.467   1.307
  625SOL     OW 2773   1.576   1.501   2.346
  625SOL    HW1 2774   1.567   1.586   2.295
  625SOL    HW2 2775   1.669   1.494   2.383
  626SOL     OW 2776   2.251   5.809   3.128
  626SOL    HW1 2777   2.322   5.881   3.130
  626SOL    HW2 2778   2.199   5.816   3.043
  627SOL     OW 2779   6.002   6.653   0.105
  627SOL    HW1 2780   5.981   6.556   0.117
  627SOL    HW2 2781   5.917   6.704   0.093
  628SOL     OW 2782   6.155   5.314   5.797
  628SOL    HW1 2783   6.115   5.226   5.772
  628SOL    HW2 2784   6.087   5.386   5.785
  629SOL     OW 2785   6.984   0.620   6.539
  629SOL    HW1 2786   6.888   0.597   6.555
  629SOL    HW2 2787   6.989   0.695   6.472
  630SOL     OW 2788   0.717   1.588   1.090
  630SOL    HW1 2789   0.670   1.518   1.144
  630SOL    HW2 2790   0.651   1.658   1.062
  631SOL     OW 2791   3.713   6.963   5.131
  631SOL    HW1 2792   3.670   0.023   5.153
  631SOL    HW2 2793   3.671   6.924   5.049
  632SOL     OW 2794   3.355   1.473   0.840
  632SOL    HW1 2795   3.357   1.562   0.794
  632SOL    HW2 2796   3.439   1.461   0.893
  633SOL     OW 2797   3.363   3.611   6.785
  633SOL    HW1 2798   3.287   3.639   6.844
  633SOL    HW2 2799   3.425   3.688   6.773
  634SOL     OW 2800   3.681   3.318   1.156
  634SOL    HW1 2801   3.590   3.278   1.139
  634SOL    HW2 2802   3.740   3.249   1.198
  635SOL     OW 2803   4.515   5.549   1.709
  635SOL    HW1 2804   4.483   5.619   1.646
  635SOL    HW2 2805   4.438   5.510   1.760
  636SOL     OW 2806   2.831   6.041   0.296
  636SOL    HW1 2807   2.826   6.004   0.388
  636SOL    HW2 2808   2.743   6.082   0.272
  637SOL     OW 2809   0.131   3.126   3.366
  637SOL    HW1 2810   0.060   3.056   3.355
  637SOL    HW2 2811   0.218   3.090   3.333
  638SOL     OW 2812   5.479   2.313   4.211
  638SOL    HW1 2813   5.431   2.296   4.125
  638SOL    HW2 2814   5.577   2.302   4.198
  639SOL     OW 2815   4.966   3.712   2.949
  639SOL    HW1 2816   4.970   3.800   2.902
  639SOL    HW2 2817   4.982   3.639   2.883
  640SOL     OW 2818   0.322   5.634   3.845
  640SOL    HW1 2819   0.290   5.635   3.751
  640SOL    HW2 2820   0.271   5.565   3.897
  641SOL     OW 2821   6.748   5.127   4.503
  641SOL    HW1 2822   6.768   5.149   4.599
  641SOL    HW2 2823   6.833   5.115   4.453
  642SOL     OW 2824   6.738   3.195   4.466
  642SOL    HW1 2825   6.746   3.241   4.378
  642SOL    HW2 2826   6.810   3.127   4.475
  643SOL     OW 2827   6.003   5.473   5.544
  643SOL    HW1 2828   5.977   5.377   5.530
  643SOL    HW2 2829   6.075   5.498   5.479
  644SOL     OW 2830   1.480   6.570   4.354
  644SOL    HW1 2831   1.568   6.590   4.398
  644SOL    HW2 2832   1.497   6.541   4.259
  645SOL     OW 2833   3.685   0.868   4.165
  645SOL    HW1 2834   3.743   0.803   4.213
  645SOL    HW2 2835   3.611   0.819   4.118
  646SOL     OW 2836   3.385   1.495   4.403
  646SOL    HW1 2837   3.397   1.561   4.477
  646SOL    HW2 2838   3.460   1.503   4.338
  647SOL     OW 2839   5.162   1.451   4.914
  647SOL    HW1 2840   5.176   1.396   4.832
  647SOL    HW2 2841   5.096   1.524   4.895
  648SOL     OW 2842   0.743   3.602   4.250
  648SOL    HW1 2843   0.698   3.639   4.331
  648SOL    HW2 2844   0.677   3.546   4.199
  649SOL     OW 2845   2.862   4.228   0.862
  649SOL    HW1 2846   2.805   4.152   0.830
  649SOL    HW2 2847   2.816   4.274   0.938
  650SOL     OW 2848   6.163   4.108   0.302
  650SOL    HW1 2849   6.257   4.078   0.314
  650SOL    HW2 2850   6.142   4.180   0.368
  651SOL     OW 2851   0.128   5.963   5.814
  651SOL    HW1 2852   0.054   6.016   5.854
  651SOL    HW2 2853   0.142   5.879   5.867
  652SOL     OW 2854   4.580   6.831   3.404
  652SOL    HW1 2855   4.536   6.746   3.377
  652SOL    HW2 2856   4.536   6.908   3.356
  653SOL     OW 2857   1.163   5.495   5.530
  653SOL    HW1 2858   1.181   5.591   5.512
  653SOL    HW2 2859   1.230   5.438   5.481
  654SOL     OW 2860   0.696   4.119   6.303
  654SOL    HW1 2861   0.648   4.121   6.390
  654SOL    HW2 2862   0.703   4.213   6.267
  655SOL     OW 2863   0.340   5.647   2.206
  655SOL    HW1 2864   0.259   5.703   2.224
  655SOL    HW2 2865   0.373   5.666   2.113
  656SOL     OW 2866   1.367   5.920   1.559
  656SOL    HW1 2867   1.431   5.906   1.483
  656SOL    HW2 2868   1.301   5.845   1.562
  657SOL     OW 2869   2.174   3.217   1.812
  657SOL    HW1 2870   2.184   3.198   1.714
  657SOL    HW2 2871   2.234   3.292   1.838
  658SOL     OW 2872   2.628   4.241   6.529
  658SOL    HW1 2873   2.586   4.177   6.464
  658SOL    HW2 2874   2.718   4.206   6.556
  659SOL     OW 2875   1.928   5.898   5.822
  659SOL    HW1 2876   2.010   5.840   5.831
  659SOL    HW2 2877   1.924   5.961   5.900
  660SOL     OW 2878   5.428   4.280   2.406
  660SOL    HW1 2879   5.492   4.225   2.459
  660SOL    HW2 2880   5.478   4.327   2.332
  661SOL     OW 2881   4.985   4.995   3.544
  661SOL    HW1 2882   5.060   5.043   3.497
  661SOL    HW2 2883   4.903   4.998   3.487
  662SOL     OW 2884   3.573   0.643   5.015
  662SOL    HW1 2885   3.518   0.726   5.012
  662SOL    HW2 2886   3.670   0.667   5.012
  663SOL     OW 2887   2.073   3.873   6.801
  663SOL    HW1 2888   2.093   3.791   6.855
  663SOL    HW2 2889   2.151   3.935   6.803
  664SOL     OW 2890   0.324   4.975   6.396
  664SOL    HW1 2891   0.380   4.939   6.322
  664SOL    HW2 2892   0.257   5.040   6.359
  665SOL     OW 2893   4.625   4.925   1.469
  665SOL    HW1 2894   4.633   4.849   1.534
  665SOL    HW2 2895   4.591   5.006   1.517
  666SOL     OW 2896   5.244   1.847   2.530
  666SOL    HW1 2897   5.156   1.834   2.484
  666SOL    HW2 2898   5.238   1.925   2.592
  667SOL     OW 2899   6.615   4.539   3.674
  667SOL    HW1 2900   6.552   4.538   3.752
  667SOL    HW2 2901   6.689   4.474   3.690
  668SOL     OW 2902   5.091   6.274   6.255
  668SOL    HW1 2903   5.129   6.357   6.214
  668SOL    HW2 2904   5.155   6.198   6.242
  669SOL     OW 2905   3.922   0.305   4.111
  669SOL    HW1 2906   3.977   0.381   4.076
  669SOL    HW2 2907   3.844   0.289   4.050
  670SOL     OW 2908   2.855   3.155   0.582
  670SOL    HW1 2909   2.916   3.201   0.646
  670SOL    HW2 2910   2.881   3.180   0.488
  671SOL     OW 2911   2.053   6.228   1.127
  671SOL    HW1 2912   2.011   6.262   1.043
  671SOL    HW2 2913   2.092   6.304   1.178
  672SOL     OW 2914   1.313   5.101   1.621
  672SOL    HW1 2915   1.318   5.122   1.719
  672SOL    HW2 2916   1.222   5.123   1.587
  673SOL     OW 2917   0.360   0.435   1.540
  673SOL    HW1 2918   0.372   0.534   1.528
  673SOL    HW2 2919   0.438   0.399   1.591
  674SOL     OW 2920   0.657   2.677   5.327
  674SOL    HW1 2921   0.734   2.618   5.302
  674SOL    HW2 2922   0.646   2.749   5.259
  675SOL     OW 2923   0.363   0.762   3.711
  675SOL    HW1 2924   0.367   0.856   3.743
  675SOL    HW2 2925   0.270   0.726   3.724
  676SOL     OW 2926   3.686   6.099   2.884
  676SOL    HW1 2927   3.753   6.032   2.851
  676SOL    HW2 2928   3.595   6.075   2.850
  677SOL     OW 2929   6.627   1.674   0.181
  677SOL    HW1 2930   6.532   1.647   0.165
  677SOL    HW2 2931   6.628   1.762   0.229
  678SOL     OW 2932   2.147   1.012   5.419
  678SOL    HW1 2933   2.104   1.056   5.341
  678SOL    HW2 2934   2.077   0.985   5.485
  679SOL     OW 2935   4.430   1.957   4.240
  679SOL    HW1 2936   4.480   2.043   4.225
  679SOL    HW2 2937   4.494   1.887   4.271
  680SOL     OW 2938   5.448   5.160   5.419
  680SOL    HW1 2939   5.356   5.133   5.446
  680SOL    HW2 2940   5.447   5.188   5.323
  681SOL     OW 2941   5.561   5.137   1.485
  681SOL    HW1 2942   5.488   5.192   1.444
  681SOL    HW2 2943   5.623   5.196   1.537
  682SOL     OW 2944   1.088   0.678   0.612
  682SOL    HW1 2945   1.151   0.732   0.667
  682SOL    HW2 2946   1.045   0.737   0.543
  683SOL     OW 2947   3.893   3.920   0.546
  683SOL    HW1 2948   3.837   3.837   0.558
  683SOL    HW2 2949   3.984   3.895   0.515
  684SOL     OW 2950   0.178   0.890   6.862
  684SOL    HW1 2951   0.177   0.984   6.830
  684SOL    HW2 2952   0.095   0.843   6.833
  685SOL     OW 2953   4.526   1.022   4.320
  685SOL    HW1 2954   4.566   1.040   4.230
  685SOL    HW2 2955   4.429   1.045   4.319
  686SOL     OW 2956   5.153   2.583   3.917
  686SOL    HW1 2957   5.150   2.529   4.001
  686SOL    HW2 2958   5.244   2.625   3.908
  687SOL     OW 2959   0.581   2.541   4.671
  687SOL    HW1 2960   0.654   2.600   4.637
  687SOL    HW2 2961   0.509   2.534   4.602
  688SOL     OW 2962   0.986   2.084   0.504
  688SOL    HW1 2963   1.064   2.067   0.563
  688SOL    HW2 2964   0.977   2.009   0.438
  689SOL     OW 2965   6.624   3.903   6.416
  689SOL    HW1 2966   6.674   3.870   6.496
  689SOL    HW2 2967   6.571   3.827   6.376
  690SOL     OW 2968   0.622   4.596   2.695
  690SOL    HW1 2969   0.630   4.501   2.727
  690SOL    HW2 2970   0.703   4.648   2.723
  691SOL     OW 2971   2.471   6.571   6.840
  691SOL    HW1 2972   2.379   6.582   6.801
  691SOL    HW2 2973   2.475   6.486   6.893
  692SOL     OW 2974   3.119   6.453   3.328
  692SOL    HW1 2975   3.093   6.549   3.339
  692SOL    HW2 2976   3.072   6.415   3.249
  693SOL     OW 2977   6.290   0.720   3.318
  693SOL    HW1 2978   6.332   0.635   3.348
  693SOL    HW2 2979   6.252   0.768   3.397
  694SOL     OW 2980   4.006   5.645   2.838
  694SOL    HW1 2981   3.975   5.551   2.851
  694SOL    HW2 2982   4.060   5.673   2.917
  695SOL     OW 2983   3.984   6.020   4.161
  695SOL    HW1 2984   3.906   6.036   4.222
  695SOL    HW2 2985   3.956   6.039   4.066
  696SOL     OW 2986   3.980   4.852   2.368
  696SOL    HW1 2987   4.024   4.786   2.307
  696SOL    HW2 2988   3.896   4.885   2.326
  697SOL     OW 2989   1.980   3.428   3.636
  697SOL    HW1 2990   2.057   3.381   3.678
  697SOL    HW2 2991   1.954   3.507   3.692
  698SOL     OW 2992   5.519   6.538   6.838
  698SOL    HW1 2993   5.493   6.540   6.742
  698SOL    HW2 2994   5.494   6.450   6.878
  699SOL     OW 2995   2.003   3.503   6.291
  699SOL    HW1 2996   2.089   3.484   6.245
  699SOL    HW2 2997   1.936   3.431   6.270
  700SOL     OW 2998   2.943   1.495   2.935
  700SOL    HW1 2999   2.880   1.482   2.859
  700SOL    HW2 3000   2.920   1.431   3.009
  701SOL     OW 3001   6.594   3.554   5.687
  701SOL    HW1 3002   6.642   3.641   5.673
  701SOL    HW2 3003   6.498   3.572   5.707
  702SOL     OW 3004   0.792   5.556   4.899
  702SOL    HW1 3005   0.707   5.517   4.863
  702SOL    HW2 3006   0.857   5.482   4.917
  703SOL     OW 3007   3.563   4.227   6.331
  703SOL    HW1 3008   3.602   4.318   6.316
  703SOL    HW2 3009   3.595   4.164   6.261
  704SOL     OW 3010   1.752   1.893   0.184
  704SOL    HW1 3011   1.794   1.803   0.169
  704SOL    HW2 3012   1.801   1.962   0.130
  705SOL     OW 3013   6.126   5.996   2.603
  705SOL    HW1 3014   6.095   5.906   2.631
  705SOL    HW2 3015   6.091   6.065   2.667
  706SOL     OW 3016   4.766   2.714   4.566
  706SOL    HW1 3017   4.683   2.682   4.521
  706SOL    HW2 3018   4.809   2.639   4.616
  707SOL     OW 3019   4.927   5.566   2.817
  707SOL    HW1 3020   4.893   5.472   2.822
  707SOL    HW2 3021   5.002   5.578   2.882
  708SOL     OW 3022   4.555   6.706   1.497
  708SOL    HW1 3023   4.618   6.781   1.476
  708SOL    HW2 3024   4.585   6.659   1.580
  709SOL     OW 3025   0.791   5.757   1.207
  709SOL    HW1 3026   0.842   5.700   1.271
  709SOL    HW2 3027   0.850   5.830   1.173
  710SOL     OW 3028   4.057   3.139   2.298
  710SOL    HW1 3029   4.082   3.052   2.256
  710SOL    HW2 3030   3.971   3.128   2.348
  711SOL     OW 3031   6.977   3.276   5.723
  711SOL    HW1 3032   7.007   3.366   5.755
  711SOL    HW2 3033   6.974   3.275   5.623
  712SOL     OW 3034   4.352   3.164   1.219
  712SOL    HW1 3035   4.308   3.188   1.306
  712SOL    HW2 3036   4.373   3.248   1.168
  713SOL     OW 3037   4.439   2.403   5.658
  713SOL    HW1 3038   4.383   2.471   5.706
  713SOL    HW2 3039   4.454   2.433   5.564
  714SOL     OW 3040   6.105   4.143   3.419
  714SOL    HW1 3041   6.106   4.184   3.328
  714SOL    HW2 3042   6.195   4.104   3.438
  715SOL     OW 3043   5.961   5.728   0.266
  715SOL    HW1 3044   5.893   5.784   0.315
  715SOL    HW2 3045   5.918   5.688   0.185
  716SOL     OW 3046   0.614   0.748   1.825
  716SOL    HW1 3047   0.528   0.705   1.796
  716SOL    HW2 3048   0.690   0.708   1.774
  717SOL     OW 3049   6.364   4.094   5.758
  717SOL    HW1 3050   6.358   4.172   5.822
  717SOL    HW2 3051   6.285   4.034   5.771
  718SOL     OW 3052   5.407   2.799   5.896
  718SOL    HW1 3053   5.309   2.807   5.878
  718SOL    HW2 3054   5.448   2.736   5.830
  719SOL     OW 3055   6.116   0.745   1.419
  719SOL    HW1 3056   6.093   0.651   1.442
  719SOL    HW2 3057   6.033   0.800   1.415
  720SOL     OW 3058   3.047   0.528   5.735
  720SOL    HW1 3059   2.980   0.455   5.720
  720SOL    HW2 3060   3.087   0.555   5.647
  721SOL     OW 3061   2.617   2.158   3.916
  721SOL    HW1 3062   2.691   2.098   3.888
  721SOL    HW2 3063   2.649   2.253   3.918
  722SOL     OW 3064   2.827   0.600   5.438
  722SOL    HW1 3065   2.752   0.608   5.503
  722SOL    HW2 3066   2.844   0.688   5.395
  723SOL     OW 3067   1.886   4.793   2.902
  723SOL    HW1 3068   1.825   4.778   2.824
  723SOL    HW2 3069   1.834   4.835   2.977
  724SOL     OW 3070   1.112   3.008   4.555
  724SOL    HW1 3071   1.091   2.930   4.614
  724SOL    HW2 3072   1.142   2.974   4.466
  725SOL     OW 3073   2.453   5.587   0.778
  725SOL    HW1 3074   2.551   5.607   0.771
  725SOL    HW2 3075   2.434   5.551   0.869
  726SOL     OW 3076   3.732   5.317   1.074
  726SOL    HW1 3077   3.822   5.313   1.032
  726SOL    HW2 3078   3.741   5.334   1.172
  727SOL     OW 3079   5.621   4.661   5.453
  727SOL    HW1 3080   5.571   4.576   5.436
  727SOL    HW2 3081   5.564   4.739   5.429
  728SOL     OW 3082   6.858   2.843   5.155
  728SOL    HW1 3083   6.897   2.752   5.164
  728SOL    HW2 3084   6.920   2.901   5.102
  729SOL     OW 3085   1.305   2.139   1.060
  729SOL    HW1 3086   1.269   2.092   1.141
  729SOL    HW2 3087   1.370   2.209   1.088
  730SOL     OW 3088   5.366   0.383   4.760
  730SOL    HW1 3089   5.302   0.367   4.684
  730SOL    HW2 3090   5.432   0.453   4.733
  731SOL     OW 3091   5.221   4.561   6.100
  731SOL    HW1 3092   5.133   4.604   6.085
  731SOL    HW2 3093   5.234   4.487   6.034
  732SOL     OW 3094   0.038   2.656   1.411
  732SOL    HW1 3095   7.014   2.715   1.474
  732SOL    HW2 3096   0.001   2.666   1.319
  733SOL     OW 3097   5.466   6.381   5.101
  733SOL    HW1 3098   5.438   6.393   5.196
  733SOL    HW2 3099   5.457   6.284   5.076
  734SOL     OW 3100   0.034   4.969   2.767
  734SOL    HW1 3101   0.086   4.919   2.698
  734SOL    HW2 3102   0.093   5.035   2.812
  735SOL     OW 3103   4.343   1.920   0.492
  735SOL    HW1 3104   4.356   1.834   0.443
  735SOL    HW2 3105   4.413   1.986   0.465
  736SOL     OW 3106   0.121   1.384   4.094
  736SOL    HW1 3107   0.051   1.336   4.147
  736SOL    HW2 3108   0.205   1.330   4.093
  737SOL     OW 3109   5.065   1.849   5.073
  737SOL    HW1 3110   5.035   1.928   5.020
  737SOL    HW2 3111   5.045   1.766   5.022
  738SOL     OW 3112   2.318   4.426   1.133
  738SOL    HW1 3113   2.242   4.488   1.110
  738SOL    HW2 3114   2.295   4.374   1.215
  739SOL     OW 3115   4.776   0.204   4.130
  739SOL    HW1 3116   4.837   0.191   4.051
  739SOL    HW2 3117   4.690   0.155   4.114
  740SOL     OW 3118   6.158   0.475   1.163
  740SOL    HW1 3119   6.128   0.519   1.248
  740SOL    HW2 3120   6.091   0.405   1.137
  741SOL     OW 3121   2.333   6.296   3.421
  741SOL    HW1 3122   2.383   6.368   3.373
  741SOL    HW2 3123   2.235   6.313   3.414
  742SOL     OW 3124   2.876   6.634   2.369
  742SOL    HW1 3125   2.820   6.557   2.337
  742SOL    HW2 3126   2.870   6.709   2.303
  743SOL     OW 3127   6.986   4.835   2.989
  743SOL    HW1 3128   6.896   4.874   3.007
  743SOL    HW2 3129   0.001   4.884   2.913
  744SOL     OW 3130   5.810   0.515   6.802
  744SOL    HW1 3131   5.751   0.551   6.874
  744SOL    HW2 3132   5.895   0.568   6.799
  745SOL     OW 3133   1.394   4.830   4.415
  745SOL    HW1 3134   1.480   4.788   4.387
  745SOL    HW2 3135   1.390   4.834   4.515
  746SOL     OW 3136   7.024   3.882   6.690
  746SOL    HW1 3137   0.067   3.812   6.681
  746SOL    HW2 3138   7.025   3.918   6.783
  747SOL     OW 3139   3.671   6.360   4.318
  747SOL    HW1 3140   3.650   6.269   4.351
  747SOL    HW2 3141   3.597   6.423   4.343
  748SOL     OW 3142   3.860   5.162   2.169
  748SOL    HW1 3143   3.896   5.141   2.078
  748SOL    HW2 3144   3.790   5.095   2.193
  749SOL     OW 3145   6.013   4.026   5.081
  749SOL    HW1 3146   5.942   3.997   5.016
  749SOL    HW2 3147   6.094   3.969   5.070
  750SOL     OW 3148   1.462   2.318   1.210
  750SOL    HW1 3149   1.409   2.401   1.231
  750SOL    HW2 3150   1.442   2.248   1.278
  751SOL     OW 3151   3.699   1.975   0.142
  751SOL    HW1 3152   3.757   1.951   0.064
  751SOL    HW2 3153   3.701   2.074   0.155
  752SOL     OW 3154   3.327   1.100   1.638
  752SOL    HW1 3155   3.248   1.056   1.680
  752SOL    HW2 3156   3.309   1.198   1.626
  753SOL     OW 3157   2.377   3.023   5.623
  753SOL    HW1 3158   2.439   2.945   5.627
  753SOL    HW2 3159   2.331   3.024   5.534
  754SOL     OW 3160   5.313   3.002   5.521
  754SOL    HW1 3161   5.282   3.042   5.434
  754SOL    HW2 3162   5.247   2.934   5.552
  755SOL     OW 3163   1.704   4.671   5.951
  755SOL    HW1 3164   1.774   4.605   5.977
  755SOL    HW2 3165   1.657   4.639   5.869
  756SOL     OW 3166   2.911   6.702   6.263
  756SOL    HW1 3167   2.870   6.761   6.333
  756SOL    HW2 3168   2.989   6.654   6.302
  757SOL     OW 3169   0.168   0.446   3.542
  757SOL    HW1 3170   0.247   0.384   3.541
  757SOL    HW2 3171   0.084   0.393   3.534
  758SOL     OW 3172   3.398   0.703   2.268
  758SOL    HW1 3173   3.385   0.633   2.338
  758SOL    HW2 3174   3.316   0.710   2.212
  759SOL     OW 3175   0.229   1.658   1.658
  759SOL    HW1 3176   0.192   1.683   1.569
  759SOL    HW2 3177   0.318   1.702   1.671
  760SOL     OW 3178   5.429   6.833   5.149
  760SOL    HW1 3179   5.418   6.740   5.185
  760SOL    HW2 3180   5.524   6.847   5.121
  761SOL     OW 3181   5.115   3.652   6.004
  761SOL    HW1 3182   5.161   3.653   6.092
  761SOL    HW2 3183   5.022   3.687   6.014
  762SOL     OW 3184   2.231   0.449   4.713
  762SOL    HW1 3185   2.219   0.362   4.664
  762SOL    HW2 3186   2.245   0.523   4.646
  763SOL     OW 3187   4.063   5.222   6.810
  763SOL    HW1 3188   4.115   5.276   6.745
  763SOL    HW2 3189   4.102   5.130   6.816
  764SOL     OW 3190   4.652   0.919   4.803
  764SOL    HW1 3191   4.654   0.848   4.873
  764SOL    HW2 3192   4.725   0.903   4.736
  765SOL     OW 3193   1.653   5.925   1.684
  765SOL    HW1 3194   1.625   6.008   1.637
  765SOL    HW2 3195   1.701   5.949   1.768
  766SOL     OW 3196   2.425   3.323   5.908
  766SOL    HW1 3197   2.505   3.276   5.870
  766SOL    HW2 3198   2.357   3.337   5.835
  767SOL     OW 3199   6.210   5.465   1.581
  767SOL    HW1 3200   6.111   5.466   1.570
  767SOL    HW2 3201   6.240   5.372   1.605
  768SOL     OW 3202   2.640   6.883   2.375
  768SOL    HW1 3203   2.556   6.845   2.337
  768SOL    HW2 3204   2.640   6.871   2.474
  769SOL     OW 3205   2.826   0.745   5.009
  769SOL    HW1 3206   2.879   0.673   5.054
  769SOL    HW2 3207   2.865   0.762   4.918
  770SOL     OW 3208   2.061   5.018   2.926
  770SOL    HW1 3209   2.147   4.971   2.912
  770SOL    HW2 3210   1.986   4.952   2.928
  771SOL     OW 3211   1.586   5.710   2.366
  771SOL    HW1 3212   1.577   5.731   2.269
  771SOL    HW2 3213   1.572   5.612   2.380
  772SOL     OW 3214   5.613   6.018   0.036
  772SOL    HW1 3215   5.664   6.047   0.117
  772SOL    HW2 3216   5.542   5.953   0.063
  773SOL     OW 3217   6.917   4.295   4.013
  773SOL    HW1 3218   6.832   4.332   4.050
  773SOL    HW2 3219   6.952   4.224   4.074
  774SOL     OW 3220   1.679   1.623   1.739
  774SOL    HW1 3221   1.733   1.629   1.823
  774SOL    HW2 3222   1.674   1.528   1.709
  775SOL     OW 3223   1.104   2.486   3.743
  775SOL    HW1 3224   1.062   2.411   3.793
  775SOL    HW2 3225   1.191   2.510   3.786
  776SOL     OW 3226   1.318   6.980   6.100
  776SOL    HW1 3227   1.316   0.049   6.125
  776SOL    HW2 3228   1.321   6.971   6.000
  777SOL     OW 3229   2.129   4.623   1.770
  777SOL    HW1 3230   2.136   4.523   1.781
  777SOL    HW2 3231   2.045   4.656   1.812
  778SOL     OW 3232   2.233   1.608   2.133
  778SOL    HW1 3233   2.259   1.516   2.105
  778SOL    HW2 3234   2.316   1.663   2.145
  779SOL     OW 3235   6.535   2.519   2.039
  779SOL    HW1 3236   6.536   2.609   1.997
  779SOL    HW2 3237   6.524   2.449   1.967
  780SOL     OW 3238   0.173   4.214   3.630
  780SOL    HW1 3239   0.111   4.141   3.659
  780SOL    HW2 3240   0.265   4.176   3.615
  781SOL     OW 3241   6.397   6.790   6.960
  781SOL    HW1 3242   6.444   6.879   6.959
  781SOL    HW2 3243   6.335   6.785   6.882
  782SOL     OW 3244   1.908   4.038   6.253
  782SOL    HW1 3245   1.918   3.951   6.204
  782SOL    HW2 3246   1.845   4.097   6.202
  783SOL     OW 3247   4.588   5.047   1.966
  783SOL    HW1 3248   4.547   5.120   2.021
  783SOL    HW2 3249   4.602   5.079   1.873
  784SOL     OW 3250   4.863   4.667   0.930
  784SOL    HW1 3251   4.908   4.724   1.000
  784SOL    HW2 3252   4.779   4.628   0.968
  785SOL     OW 3253   0.228   2.706   3.401
  785SOL    HW1 3254   0.205   2.699   3.498
  785SOL    HW2 3255   0.328   2.713   3.391
  786SOL     OW 3256   1.336   1.121   2.859
  786SOL    HW1 3257   1.416   1.070   2.889
  786SOL    HW2 3258   1.366   1.195   2.798
  787SOL     OW 3259   2.283   0.628   0.141
  787SOL    HW1 3260   2.198   0.655   0.186
  787SOL    HW2 3261   2.303   0.533   0.162
  788SOL     OW 3262   3.760   2.504   6.629
  788SOL    HW1 3263   3.831   2.481   6.563
  788SOL    HW2 3264   3.670   2.487   6.589
  789SOL     OW 3265   4.727   4.322   0.549
  789SOL    HW1 3266   4.653   4.369   0.597
  789SOL    HW2 3267   4.687   4.257   0.484
  790SOL     OW 3268   2.436   1.389   3.592
  790SOL    HW1 3269   2.489   1.443   3.658
  790SOL    HW2 3270   2.496   1.319   3.552
  791SOL     OW 3271   2.274   5.705   3.765
  791SOL    HW1 3272   2.370   5.693   3.789
  791SOL    HW2 3273   2.267   5.761   3.683
  792SOL     OW 3274   0.839   0.762   0.976
  792SOL    HW1 3275   0.783   0.822   1.033
  792SOL    HW2 3276   0.790   0.739   0.893
  793SOL     OW 3277   4.784   4.954   3.319
  793SOL    HW1 3278   4.855   4.883   3.315
  793SOL    HW2 3279   4.694   4.911   3.326
  794SOL     OW 3280   3.395   3.905   5.888
  794SOL    HW1 3281   3.463   3.958   5.836
  794SOL    HW2 3282   3.332   3.968   5.933
  795SOL     OW 3283   3.082   6.628   4.305
  795SOL    HW1 3284   3.029   6.669   4.231
  795SOL    HW2 3285   3.179   6.630   4.281
  796SOL     OW 3286   6.848   2.130   6.563
  796SOL    HW1 3287   6.828   2.033   6.580
  796SOL    HW2 3288   6.929   2.157   6.614
  797SOL     OW 3289   5.844   2.700   0.693
  797SOL    HW1 3290   5.833   2.604   0.665
  797SOL    HW2 3291   5.875   2.703   0.788
  798SOL     OW 3292   3.550   6.374   2.066
  798SOL    HW1 3293   3.610   6.388   2.145
  798SOL    HW2 3294   3.458   6.407   2.088
  799SOL     OW 3295   0.439   6.556   5.489
  799SOL    HW1 3296   0.381   6.592   5.415
  799SOL    HW2 3297   0.518   6.509   5.449
  800SOL     OW 3298   5.245   2.065   2.705
  800SOL    HW1 3299   5.273   2.009   2.783
  800SOL    HW2 3300   5.158   2.109   2.725
  801SOL     OW 3301   1.545   3.912   4.522
  801SOL    HW1 3302   1.643   3.891   4.531
  801SOL    HW2 3303   1.532   3.978   4.448
  802SOL     OW 3304   3.706   2.281   1.026
  802SOL    HW1 3305   3.749   2.254   1.113
  802SOL    HW2 3306   3.749   2.231   0.951
  803SOL     OW 3307   0.261   6.891   5.484
  803SOL    HW1 3308   0.345   6.945   5.478
  803SOL    HW2 3309   0.185   6.944   5.445
  804SOL     OW 3310   5.691   5.490   6.548
  804SOL    HW1 3311   5.734   5.570   6.508
  804SOL    HW2 3312   5.604   5.472   6.502
  805SOL     OW 3313   3.255   0.033   4.338
  805SOL    HW1 3314   3.350   0.003   4.328
  805SOL    HW2 3315   3.203   0.009   4.257
  806SOL     OW 3316   4.924   1.362   4.106
  806SOL    HW1 3317   4.904   1.330   4.198
  806SOL    HW2 3318   4.998   1.430   4.110
  807SOL     OW 3319   1.592   1.072   5.410
  807SOL    HW1 3320   1.516   1.133   5.432
  807SOL    HW2 3321   1.627   1.030   5.494
  808SOL     OW 3322   3.908   3.635   6.344
  808SOL    HW1 3323   3.978   3.685   6.293
  808SOL    HW2 3324   3.822   3.685   6.339
  809SOL     OW 3325   0.158   4.757   1.082
  809SOL    HW1 3326   0.157   4.857   1.088
  809SOL    HW2 3327   0.187   4.730   0.991
  810SOL     OW 3328   3.719   3.542   0.989
  810SOL    HW1 3329   3.643   3.595   1.025
  810SOL    HW2 3330   3.733   3.460   1.045
  811SOL     OW 3331   4.778   5.362   5.328
  811SOL    HW1 3332   4.847   5.396   5.392
  811SOL    HW2 3333   4.688   5.393   5.357
  812SOL     OW 3334   0.344   0.950   2.343
  812SOL    HW1 3335   0.303   0.871   2.297
  812SOL    HW2 3336   0.439   0.928   2.367
  813SOL     OW 3337   3.941   0.007   4.099
  813SOL    HW1 3338   3.926   0.096   4.055
  813SOL    HW2 3339   4.039   7.021   4.114
  814SOL     OW 3340   6.159   6.381   2.140
  814SOL    HW1 3341   6.179   6.406   2.234
  814SOL    HW2 3342   6.191   6.288   2.122
  815SOL     OW 3343   0.376   3.715   3.219
  815SOL    HW1 3344   0.320   3.664   3.153
  815SOL    HW2 3345   0.333   3.803   3.238
  816SOL     OW 3346   6.244   6.552   0.025
  816SOL    HW1 3347   6.325   6.612   0.025
  816SOL    HW2 3348   6.163   6.607   0.045
  817SOL     OW 3349   1.583   4.761   1.022
  817SOL    HW1 3350   1.655   4.823   0.989
  817SOL    HW2 3351   1.511   4.755   0.953
  818SOL     OW 3352   6.253   2.929   2.784
  818SOL    HW1 3353   6.340   2.958   2.744
  818SOL    HW2 3354   6.215   2.854   2.730
  819SOL     OW 3355   5.429   2.478   2.716
  819SOL    HW1 3356   5.358   2.513   2.778
  819SOL    HW2 3357   5.398   2.488   2.622
  820SOL     OW 3358   3.498   1.853   5.383
  820SOL    HW1 3359   3.550   1.819   5.305
  820SOL    HW2 3360   3.401   1.847   5.363
  821SOL     OW 3361   0.907   4.356   1.184
  821SOL    HW1 3362   0.921   4.413   1.103
  821SOL    HW2 3363   0.917   4.413   1.266
  822SOL     OW 3364   1.566   4.973   3.638
  822SOL    HW1 3365   1.613   4.934   3.559
  822SOL    HW2 3366   1.633   4.991   3.710
  823SOL     OW 3367   4.781   3.590   6.320
  823SOL    HW1 3368   4.840   3.622   6.245
  823SOL    HW2 3369   4.711   3.659   6.339
  824SOL     OW 3370   5.546   1.347   6.210
  824SOL    HW1 3371   5.590   1.401   6.138
  824SOL    HW2 3372   5.447   1.344   6.194
  825SOL     OW 3373   6.914   4.390   1.364
  825SOL    HW1 3374   6.863   4.472   1.388
  825SOL    HW2 3375   7.001   4.389   1.414
  826SOL     OW 3376   4.114   3.062   5.467
  826SOL    HW1 3377   4.169   3.094   5.390
  826SOL    HW2 3378   4.051   2.991   5.435
  827SOL     OW 3379   2.958   4.543   5.458
  827SOL    HW1 3380   3.019   4.622   5.457
  827SOL    HW2 3381   2.931   4.522   5.365
  828SOL     OW 3382   6.154   6.503   6.795
  828SOL    HW1 3383   6.081   6.570   6.792
  828SOL    HW2 3384   6.217   6.525   6.869
  829SOL     OW 3385   3.739   4.038   2.627
  829SOL    HW1 3386   3.670   4.111   2.634
  829SOL    HW2 3387   3.739   3.985   2.712
  830SOL     OW 3388   4.987   5.111   6.547
  830SOL    HW1 3389   5.009   5.146   6.639
  830SOL    HW2 3390   4.892   5.132   6.525
  831SOL     OW 3391   6.284   0.381   0.121
  831SOL    HW1 3392   6.214   0.439   0.080
  831SOL    HW2 3393   6.264   0.368   0.218
  832SOL     OW 3394   3.412   0.821   1.832
  832SOL    HW1 3395   3.440   0.884   1.759
  832SOL    HW2 3396   3.487   0.811   1.898
  833SOL     OW 3397   1.241   3.750   5.672
  833SOL    HW1 3398   1.206   3.840   5.697
  833SOL    HW2 3399   1.190   3.715   5.593
  834SOL     OW 3400   3.749   3.676   0.552
  834SOL    HW1 3401   3.829   3.643   0.501
  834SOL    HW2 3402   3.668   3.670   0.494
  835SOL     OW 3403   3.771   0.249   5.746
  835SOL    HW1 3404   3.764   0.344   5.777
  835SOL    HW2 3405   3.860   0.235   5.702
  836SOL     OW 3406   3.965   5.745   6.058
  836SOL    HW1 3407   3.936   5.652   6.081
  836SOL    HW2 3408   4.045   5.770   6.113
  837SOL     OW 3409   5.391   0.109   0.624
  837SOL    HW1 3410   5.319   0.130   0.690
  837SOL    HW2 3411   5.395   0.183   0.556
  838SOL     OW 3412   2.602   0.581   4.610
  838SOL    HW1 3413   2.623   0.673   4.643
  838SOL    HW2 3414   2.602   0.517   4.687
  839SOL     OW 3415   1.188   2.465   2.294
  839SOL    HW1 3416   1.284   2.450   2.319
  839SOL    HW2 3417   1.171   2.425   2.204
  840SOL     OW 3418   6.574   5.491   0.524
  840SOL    HW1 3419   6.513   5.512   0.448
  840SOL    HW2 3420   6.575   5.568   0.588
  841SOL     OW 3421   4.068   4.943   7.009
  841SOL    HW1 3422   4.095   4.904   6.921
  841SOL    HW2 3423   4.055   4.869   0.048
  842SOL     OW 3424   4.166   0.186   4.755
  842SOL    HW1 3425   4.129   0.250   4.687
  842SOL    HW2 3426   4.115   0.100   4.750
  843SOL     OW 3427   0.916   1.456   0.776
  843SOL    HW1 3428   0.866   1.537   0.807
  843SOL    HW2 3429   0.968   1.419   0.852
  844SOL     OW 3430   5.639   0.701   0.340
  844SOL    HW1 3431   5.544   0.695   0.371
  844SOL    HW2 3432   5.652   0.644   0.259
  845SOL     OW 3433   4.978   4.378   4.987
  845SOL    HW1 3434   4.942   4.360   4.895
  845SOL    HW2 3435   5.045   4.452   4.983
  846SOL     OW 3436   2.049   1.702   6.212
  846SOL    HW1 3437   2.043   1.768   6.287
  846SOL    HW2 3438   2.142   1.667   6.205
  847SOL     OW 3439   1.224   3.213   1.520
  847SOL    HW1 3440   1.174   3.216   1.433
  847SOL    HW2 3441   1.208   3.298   1.570
  848SOL     OW 3442   6.308   0.437   5.721
  848SOL    HW1 3443   6.267   0.457   5.632
  848SOL    HW2 3444   6.406   0.452   5.716
  849SOL     OW 3445   0.119   3.521   6.052
  849SOL    HW1 3446   0.109   3.430   6.093
  849SOL    HW2 3447   0.198   3.567   6.092
  850SOL     OW 3448   5.410   0.679   2.993
  850SOL    HW1 3449   5.474   0.754   2.977
  850SOL    HW2 3450   5.353   0.665   2.912
  851SOL     OW 3451   0.073   1.988   2.817
  851SOL    HW1 3452   7.020   1.955   2.866
  851SOL    HW2 3453   0.155   1.942   2.853
  852SOL     OW 3454   1.365   3.425   6.609
  852SOL    HW1 3455   1.365   3.525   6.616
  852SOL    HW2 3456   1.445   3.395   6.557
  853SOL     OW 3457   1.433   4.282   1.603
  853SOL    HW1 3458   1.376   4.333   1.538
  853SOL    HW2 3459   1.390   4.194   1.622
  854SOL     OW 3460   5.367   5.594   0.979
  854SOL    HW1 3461   5.389   5.664   1.046
  854SOL    HW2 3462   5.436   5.521   0.983
  855SOL     OW 3463   7.002   7.005   1.793
  855SOL    HW1 3464   7.024   0.017   1.883
  855SOL    HW2 3465   7.004   0.050   1.724
  856SOL     OW 3466   1.039   2.658   5.283
  856SOL    HW1 3467   1.060   2.742   5.334
  856SOL    HW2 3468   1.122   2.626   5.237
  857SOL     OW 3469   5.779   4.177   1.788
  857SOL    HW1 3470   5.867   4.218   1.811
  857SOL    HW2 3471   5.710   4.249   1.779
  858SOL     OW 3472   2.696   3.356   1.347
  858SOL    HW1 3473   2.653   3.443   1.369
  858SOL    HW2 3474   2.635   3.303   1.288
  859SOL     OW 3475   6.125   5.754   5.297
  859SOL    HW1 3476   6.148   5.840   5.251
  859SOL    HW2 3477   6.146   5.762   5.394
  860SOL     OW 3478   5.406   3.084   0.545
  860SOL    HW1 3479   5.342   3.068   0.620
  860SOL    HW2 3480   5.355   3.105   0.462
  861SOL     OW 3481   2.561   5.645   3.201
  861SOL    HW1 3482   2.596   5.720   3.257
  861SOL    HW2 3483   2.572   5.668   3.104
  862SOL     OW 3484   1.220   3.860   4.831
  862SOL    HW1 3485   1.250   3.770   4.862
  862SOL    HW2 3486   1.300   3.919   4.820
  863SOL     OW 3487   5.995   1.179   0.712
  863SOL    HW1 3488   6.083   1.159   0.755
  863SOL    HW2 3489   5.945   1.245   0.768
  864SOL     OW 3490   4.330   5.468   3.949
  864SOL    HW1 3491   4.288   5.426   3.869
  864SOL    HW2 3492   4.415   5.419   3.971
  865SOL     OW 3493   0.976   6.559   5.774
  865SOL    HW1 3494   0.928   6.553   5.687
  865SOL    HW2 3495   0.913   6.538   5.849
  866SOL     OW 3496   1.737   2.339   2.005
  866SOL    HW1 3497   1.803   2.389   1.948
  866SOL    HW2 3498   1.708   2.256   1.956
  867SOL     OW 3499   4.030   3.666   0.488
  867SOL    HW1 3500   4.103   3.617   0.536
  867SOL    HW2 3501   3.996   3.609   0.413
  868SOL     OW 3502   5.948   1.355   1.015
  868SOL    HW1 3503   5.856   1.315   1.017
  868SOL    HW2 3504   5.950   1.434   0.954
  869SOL     OW 3505   0.511   4.657   3.052
  869SOL    HW1 3506   0.447   4.641   3.127
  869SOL    HW2 3507   0.590   4.596   3.062
  870SOL     OW 3508   4.567   3.268   0.771
  870SOL    HW1 3509   4.477   3.285   0.732
  870SOL    HW2 3510   4.594   3.174   0.753
  871SOL     OW 3511   4.721   2.494   2.996
  871SOL    HW1 3512   4.780   2.414   3.008
  871SOL    HW2 3513   4.632   2.476   3.038
  872SOL     OW 3514   5.581   2.875   3.853
  872SOL    HW1 3515   5.678   2.895   3.845
  872SOL    HW2 3516   5.536   2.890   3.765
  873SOL     OW 3517   5.561   0.135   4.113
  873SOL    HW1 3518   5.658   0.113   4.101
  873SOL    HW2 3519   5.505   0.057   4.088
  874SOL     OW 3520   1.108   4.147   5.988
  874SOL    HW1 3521   1.119   4.100   6.076
  874SOL    HW2 3522   1.013   4.178   5.979
  875SOL     OW 3523   3.560   3.313   0.411
  875SOL    HW1 3524   3.529   3.380   0.478
  875SOL    HW2 3525   3.660   3.311   0.410
  876SOL     OW 3526   0.396   4.412   2.422
  876SOL    HW1 3527   0.365   4.332   2.370
  876SOL    HW2 3528   0.390   4.393   2.520
  877SOL     OW 3529   3.985   4.472   6.331
  877SOL    HW1 3530   3.959   4.428   6.246
  877SOL    HW2 3531   3.906   4.474   6.393
  878SOL     OW 3532   3.725   6.107   5.437
  878SOL    HW1 3533   3.760   6.190   5.396
  878SOL    HW2 3534   3.710   6.121   5.535
  879SOL     OW 3535   4.088   2.391   0.782
  879SOL    HW1 3536   4.149   2.438   0.717
  879SOL    HW2 3537   4.014   2.347   0.732
  880SOL     OW 3538   3.103   3.980   4.351
  880SOL    HW1 3539   3.144   4.007   4.439
  880SOL    HW2 3540   3.033   3.911   4.368
  881SOL     OW 3541   4.950   4.032   4.763
  881SOL    HW1 3542   4.934   3.959   4.829
  881SOL    HW2 3543   5.033   4.082   4.788
  882SOL     OW 3544   0.641   2.639   4.321
  882SOL    HW1 3545   0.688   2.558   4.287
  882SOL    HW2 3546   0.574   2.612   4.390
  883SOL     OW 3547   4.701   6.852   6.851
  883SOL    HW1 3548   4.648   6.856   6.766
  883SOL    HW2 3549   4.642   6.875   6.928
  884SOL     OW 3550   0.034   4.254   0.418
  884SOL    HW1 3551   6.984   4.190   0.424
  884SOL    HW2 3552   0.119   4.206   0.440
  885SOL     OW 3553   4.736   6.092   6.445
  885SOL    HW1 3554   4.757   6.045   6.360
  885SOL    HW2 3555   4.665   6.042   6.494
  886SOL     OW 3556   4.213   1.132   1.248
  886SOL    HW1 3557   4.123   1.103   1.218
  886SOL    HW2 3558   4.234   1.222   1.209
  887SOL     OW 3559   3.705   5.908   4.159
  887SOL    HW1 3560   3.667   5.997   4.136
  887SOL    HW2 3561   3.645   5.862   4.225
  888SOL     OW 3562   6.281   5.479   2.627
  888SOL    HW1 3563   6.342   5.409   2.587
  888SOL    HW2 3564   6.328   5.524   2.703
  889SOL     OW 3565   0.986   6.940   5.781
  889SOL    HW1 3566   1.005   7.021   5.837
  889SOL    HW2 3567   1.050   6.867   5.807
  890SOL     OW 3568   1.473   5.995   2.450
  890SOL    HW1 3569   1.378   6.009   2.477
  890SOL    HW2 3570   1.487   5.900   2.423
  891SOL     OW 3571   6.571   3.583   0.429
  891SOL    HW1 3572   6.623   3.565   0.512
  891SOL    HW2 3573   6.473   3.573   0.447
  892SOL     OW 3574   3.908   4.378   6.068
  892SOL    HW1 3575   3.820   4.363   6.023
  892SOL    HW2 3576   3.963   4.442   6.015
  893SOL     OW 3577   2.209   0.777   2.306
  893SOL    HW1 3578   2.211   0.803   2.209
  893SOL    HW2 3579   2.141   0.706   2.320
  894SOL     OW 3580   0.927   2.644   3.291
  894SOL    HW1 3581   1.006   2.639   3.231
  894SOL    HW2 3582   0.915   2.557   3.338
  895SOL     OW 3583   0.837   5.445   3.846
  895SOL    HW1 3584   0.738   5.461   3.851
  895SOL    HW2 3585   0.854   5.352   3.814
  896SOL     OW 3586   6.127   6.775   1.606
  896SOL    HW1 3587   6.027   6.775   1.610
  896SOL    HW2 3588   6.162   6.715   1.678
  897SOL     OW 3589   4.319   1.002   6.745
  897SOL    HW1 3590   4.416   0.976   6.750
  897SOL    HW2 3591   4.304   1.087   6.794
  898SOL     OW 3592   3.442   6.433   3.115
  898SOL    HW1 3593   3.449   6.337   3.144
  898SOL    HW2 3594   3.357   6.472   3.151
  899SOL     OW 3595   0.639   5.443   1.144
  899SOL    HW1 3596   0.581   5.470   1.067
  899SOL    HW2 3597   0.731   5.479   1.131
  900SOL     OW 3598   4.729   5.940   0.373
  900SOL    HW1 3599   4.802   5.959   0.439
  900SOL    HW2 3600   4.768   5.895   0.293
  901SOL     OW 3601   1.326   1.024   5.534
  901SOL    HW1 3602   1.331   0.937   5.581
  901SOL    HW2 3603   1.236   1.066   5.548
  902SOL     OW 3604   0.891   2.404   0.915
  902SOL    HW1 3605   0.966   2.351   0.876
  902SOL    HW2 3606   0.910   2.501   0.905
  903SOL     OW 3607   0.019   3.356   6.456
  903SOL    HW1 3608   7.020   3.446   6.489
  903SOL    HW2 3609   6.968   3.294   6.464
  904SOL     OW 3610   2.196   2.750   2.788
  904SOL    HW1 3611   2.199   2.849   2.804
  904SOL    HW2 3612   2.168   2.732   2.694
  905SOL     OW 3613   5.057   4.011   5.733
  905SOL    HW1 3614   5.043   4.110   5.730
  905SOL    HW2 3615   4.977   3.965   5.695
  906SOL     OW 3616   0.847   3.121   6.119
  906SOL    HW1 3617   0.914   3.179   6.074
  906SOL    HW2 3618   0.771   3.178   6.152
  907SOL     OW 3619   5.085   2.381   2.606
  907SOL    HW1 3620   5.059   2.475   2.628
  907SOL    HW2 3621   5.156   2.382   2.535
  908SOL     OW 3622   2.230   5.066   2.631
  908SOL    HW1 3623   2.293   5.090   2.557
  908SOL    HW2 3624   2.262   4.984   2.677
  909SOL     OW 3625   2.518   5.876   2.197
  909SOL    HW1 3626   2.421   5.866   2.221
  909SOL    HW2 3627   2.557   5.953   2.247
  910SOL     OW 3628   2.328   1.128   0.278
  910SOL    HW1 3629   2.417   1.116   0.321
  910SOL    HW2 3630   2.266   1.055   0.308
  911SOL     OW 3631   6.852   5.841   0.564
  911SOL    HW1 3632   6.882   5.813   0.473
  911SOL    HW2 3633   6.888   5.933   0.583
  912SOL     OW 3634   5.371   0.470   3.821
  912SOL    HW1 3635   5.458   0.462   3.871
  912SOL    HW2 3636   5.390   0.481   3.723
  913SOL     OW 3637   1.827   0.871   3.439
  913SOL    HW1 3638   1.791   0.901   3.527
  913SOL    HW2 3639   1.887   0.941   3.402
  914SOL     OW 3640   1.878   5.931   5.264
  914SOL    HW1 3641   1.966   5.959   5.227
  914SOL    HW2 3642   1.881   5.834   5.288
  915SOL     OW 3643   0.925   3.120   0.743
  915SOL    HW1 3644   0.874   3.065   0.810
  915SOL    HW2 3645   0.970   3.196   0.790
  916SOL     OW 3646   1.445   2.779   2.387
  916SOL    HW1 3647   1.392   2.852   2.429
  916SOL    HW2 3648   1.528   2.817   2.346
  917SOL     OW 3649   5.588   0.813   2.197
  917SOL    HW1 3650   5.665   0.749   2.199
  917SOL    HW2 3651   5.596   0.878   2.272
  918SOL     OW 3652   3.225   0.133   0.592
  918SOL    HW1 3653   3.277   0.149   0.508
  918SOL    HW2 3654   3.147   0.075   0.573
  919SOL     OW 3655   6.540   5.868   2.837
  919SOL    HW1 3656   6.566   5.890   2.932
  919SOL    HW2 3657   6.622   5.871   2.780
  920SOL     OW 3658   2.274   5.299   2.799
  920SOL    HW1 3659   2.238   5.270   2.887
  920SOL    HW2 3660   2.281   5.219   2.739
  921SOL     OW 3661   4.923   4.315   3.211
  921SOL    HW1 3662   4.911   4.303   3.112
  921SOL    HW2 3663   4.954   4.408   3.230
  922SOL     OW 3664   3.183   3.565   6.044
  922SOL    HW1 3665   3.119   3.497   6.007
  922SOL    HW2 3666   3.143   3.605   6.127
  923SOL     OW 3667   3.188   4.576   5.918
  923SOL    HW1 3668   3.176   4.537   5.826
  923SOL    HW2 3669   3.133   4.524   5.983
  924SOL     OW 3670   5.964   2.483   2.831
  924SOL    HW1 3671   5.939   2.578   2.852
  924SOL    HW2 3672   5.996   2.478   2.736
  925SOL     OW 3673   0.542   1.527   6.589
  925SOL    HW1 3674   0.608   1.476   6.645
  925SOL    HW2 3675   0.490   1.463   6.533
  926SOL     OW 3676   5.597   0.988   0.584
  926SOL    HW1 3677   5.673   0.961   0.642
  926SOL    HW2 3678   5.526   0.918   0.587
  927SOL     OW 3679   6.302   4.209   3.105
  927SOL    HW1 3680   6.333   4.171   3.192
  927SOL    HW2 3681   6.204   4.227   3.109
  928SOL     OW 3682   0.995   5.913   0.770
  928SOL    HW1 3683   0.928   5.985   0.787
  928SOL    HW2 3684   0.968   5.830   0.819
  929SOL     OW 3685   0.226   1.188   1.269
  929SOL    HW1 3686   0.223   1.122   1.344
  929SOL    HW2 3687   0.288   1.155   1.198
  930SOL     OW 3688   5.674   5.966   4.065
  930SOL    HW1 3689   5.625   6.030   4.005
  930SOL    HW2 3690   5.630   5.876   4.061
  931SOL     OW 3691   6.133   2.114   3.392
  931SOL    HW1 3692   6.082   2.087   3.473
  931SOL    HW2 3693   6.078   2.094   3.310
  932SOL     OW 3694   3.257   6.597   2.991
  932SOL    HW1 3695   3.345   6.644   2.978
  932SOL    HW2 3696   3.245   6.529   2.919
  933SOL     OW 3697   1.198   6.006   3.360
  933SOL    HW1 3698   1.297   6.010   3.347
  933SOL    HW2 3699   1.169   5.910   3.366
  934SOL     OW 3700   1.907   0.500   5.526
  934SOL    HW1 3701   1.854   0.453   5.456
  934SOL    HW2 3702   1.845   0.537   5.596
  935SOL     OW 3703   4.758   4.595   4.993
  935SOL    HW1 3704   4.688   4.536   4.953
  935SOL    HW2 3705   4.773   4.570   5.089
  936SOL     OW 3706   0.989   0.256   6.184
  936SOL    HW1 3707   0.941   0.336   6.147
  936SOL    HW2 3708   0.981   0.255   6.284
  937SOL     OW 3709   4.895   0.902   4.635
  937SOL    HW1 3710   4.919   0.999   4.644
  937SOL    HW2 3711   4.962   0.846   4.684
  938SOL     OW 3712   6.626   5.214   5.536
  938SOL    HW1 3713   6.718   5.254   5.535
  938SOL    HW2 3714   6.566   5.270   5.593
  939SOL     OW 3715   5.956   0.156   5.675
  939SOL    HW1 3716   5.921   0.214   5.748
  939SOL    HW2 3717   6.038   0.198   5.636
  940SOL     OW 3718   0.314   2.639   2.134
  940SOL    HW1 3719   0.241   2.571   2.137
  940SOL    HW2 3720   0.328   2.678   2.225
  941SOL     OW 3721   5.532   1.115   5.774
  941SOL    HW1 3722   5.604   1.103   5.842
  941SOL    HW2 3723   5.569   1.099   5.682
  942SOL     OW 3724   4.988   6.925   3.296
  942SOL    HW1 3725   4.974   6.977   3.380
  942SOL    HW2 3726   5.086   6.906   3.285
  943SOL     OW 3727   2.133   3.260   3.784
  943SOL    HW1 3728   2.129   3.165   3.756
  943SOL    HW2 3729   2.171   3.266   3.876
  944SOL     OW 3730   0.291   3.794   5.968
  944SOL    HW1 3731   0.195   3.822   5.965
  944SOL    HW2 3732   0.335   3.816   5.881
  945SOL     OW 3733   5.804   4.024   4.615
  945SOL    HW1 3734   5.885   4.032   4.557
  945SOL    HW2 3735   5.724   4.007   4.558
  946SOL     OW 3736   5.245   2.634   6.358
  946SOL    HW1 3737   5.177   2.702   6.332
  946SOL    HW2 3738   5.314   2.676   6.416
  947SOL     OW 3739   3.850   3.178   4.194
  947SOL    HW1 3740   3.774   3.231   4.229
  947SOL    HW2 3741   3.920   3.167   4.265
  948SOL     OW 3742   4.152   7.004   1.299
  948SOL    HW1 3743   4.077   0.012   1.356
  948SOL    HW2 3744   4.123   6.919   1.255
  949SOL     OW 3745   0.937   6.361   6.363
  949SOL    HW1 3746   1.020   6.368   6.308
  949SOL    HW2 3747   0.916   6.265   6.380
  950SOL     OW 3748   4.673   5.269   1.762
  950SOL    HW1 3749   4.763   5.234   1.734
  950SOL    HW2 3750   4.665   5.365   1.736
  951SOL     OW 3751   2.208   1.080   4.230
  951SOL    HW1 3752   2.224   1.058   4.134
  951SOL    HW2 3753   2.277   1.145   4.262
  952SOL     OW 3754   4.963   1.788   3.279
  952SOL    HW1 3755   4.985   1.782   3.376
  952SOL    HW2 3756   4.972   1.698   3.236
  953SOL     OW 3757   5.532   5.487   3.882
  953SOL    HW1 3758   5.624   5.460   3.854
  953SOL    HW2 3759   5.484   5.528   3.805
  954SOL     OW 3760   4.283   5.722   0.672
  954SOL    HW1 3761   4.237   5.683   0.752
  954SOL    HW2 3762   4.299   5.820   0.689
  955SOL     OW 3763   7.015   3.932   3.022
  955SOL    HW1 3764   7.001   3.858   3.089
  955SOL    HW2 3765   6.961   4.011   3.049
  956SOL     OW 3766   6.804   2.078   2.696
  956SOL    HW1 3767   6.888   2.122   2.730
  956SOL    HW2 3768   6.828   2.015   2.622
  957SOL     OW 3769   6.718   4.296   5.141
  957SOL    HW1 3770   6.686   4.274   5.048
  957SOL    HW2 3771   6.639   4.305   5.201
  958SOL     OW 3772   4.440   1.941   1.942
  958SOL    HW1 3773   4.444   2.032   1.901
  958SOL    HW2 3774   4.348   1.925   1.978
  959SOL     OW 3775   3.555   5.608   2.648
  959SOL    HW1 3776   3.469   5.607   2.699
  959SOL    HW2 3777   3.575   5.702   2.620
  960SOL     OW 3778   0.948   6.200   2.029
  960SOL    HW1 3779   0.877   6.152   1.979
  960SOL    HW2 3780   0.965   6.289   1.987
  961SOL     OW 3781   5.235   0.147   3.397
  961SOL    HW1 3782   5.142   0.113   3.411
  961SOL    HW2 3783   5.255   0.152   3.299
  962SOL     OW 3784   0.629   0.921   5.339
  962SOL    HW1 3785   0.577   0.969   5.409
  962SOL    HW2 3786   0.574   0.913   5.256
  963SOL     OW 3787   6.502   1.854   6.212
  963SOL    HW1 3788   6.594   1.887   6.234
  963SOL    HW2 3789   6.473   1.893   6.125
  964SOL     OW 3790   5.624   4.413   0.218
  964SOL    HW1 3791   5.690   4.338   0.207
  964SOL    HW2 3792   5.599   4.422   0.315
  965SOL     OW 3793   5.441   2.012   0.940
  965SOL    HW1 3794   5.402   1.987   1.029
  965SOL    HW2 3795   5.500   2.092   0.952
  966SOL     OW 3796   5.117   2.128   1.952
  966SOL    HW1 3797   5.095   2.180   1.869
  966SOL    HW2 3798   5.032   2.100   1.997
  967SOL     OW 3799   2.451   4.489   1.529
  967SOL    HW1 3800   2.401   4.418   1.480
  967SOL    HW2 3801   2.401   4.576   1.521
  968SOL     OW 3802   3.488   1.125   1.402
  968SOL    HW1 3803   3.581   1.137   1.436
  968SOL    HW2 3804   3.434   1.075   1.470
  969SOL     OW 3805   3.420   6.091   6.068
  969SOL    HW1 3806   3.470   6.018   6.116
  969SOL    HW2 3807   3.333   6.107   6.114
  970SOL     OW 3808   5.693   0.863   5.921
  970SOL    HW1 3809   5.605   0.839   5.960
  970SOL    HW2 3810   5.765   0.852   5.990
  971SOL     OW 3811   6.824   2.223   3.190
  971SOL    HW1 3812   6.802   2.275   3.272
  971SOL    HW2 3813   6.781   2.265   3.110
  972SOL     OW 3814   5.494   3.768   2.100
  972SOL    HW1 3815   5.464   3.784   2.006
  972SOL    HW2 3816   5.564   3.698   2.102
  973SOL     OW 3817   0.483   4.760   0.226
  973SOL    HW1 3818   0.493   4.789   0.321
  973SOL    HW2 3819   0.565   4.709   0.198
  974SOL     OW 3820   5.370   6.422   2.490
  974SOL    HW1 3821   5.278   6.407   2.524
  974SOL    HW2 3822   5.387   6.361   2.412
  975SOL     OW 3823   1.237   6.449   6.756
  975SOL    HW1 3824   1.307   6.520   6.768
  975SOL    HW2 3825   1.192   6.462   6.668
  976SOL     OW 3826   7.005   3.405   3.063
  976SOL    HW1 3827   6.955   3.459   2.995
  976SOL    HW2 3828   7.021   3.313   3.027
  977SOL     OW 3829   0.925   0.699   2.406
  977SOL    HW1 3830   1.020   0.670   2.393
  977SOL    HW2 3831   0.887   0.654   2.487
  978SOL     OW 3832   4.028   3.769   5.566
  978SOL    HW1 3833   3.940   3.732   5.596
  978SOL    HW2 3834   4.044   3.744   5.471
  979SOL     OW 3835   6.635   2.176   0.495
  979SOL    HW1 3836   6.582   2.164   0.411
  979SOL    HW2 3837   6.680   2.266   0.492
  980SOL     OW 3838   4.791   2.352   4.343
  980SOL    HW1 3839   4.832   2.391   4.260
  980SOL    HW2 3840   4.819   2.257   4.352
  981SOL     OW 3841   0.449   1.656   4.647
  981SOL    HW1 3842   0.423   1.689   4.738
  981SOL    HW2 3843   0.534   1.700   4.619
  982SOL     OW 3844   2.645   2.405   4.144
  982SOL    HW1 3845   2.576   2.344   4.182
  982SOL    HW2 3846   2.607   2.497   4.134
  983SOL     OW 3847   5.935   2.432   5.208
  983SOL    HW1 3848   5.990   2.474   5.280
  983SOL    HW2 3849   5.995   2.409   5.130
  984SOL     OW 3850   2.518   1.645   4.713
  984SOL    HW1 3851   2.581   1.580   4.670
  984SOL    HW2 3852   2.542   1.656   4.809
  985SOL     OW 3853   5.564   3.960   5.008
  985SOL    HW1 3854   5.545   3.874   4.960
  985SOL    HW2 3855   5.478   4.006   5.027
  986SOL     OW 3856   6.086   4.600   0.961
  986SOL    HW1 3857   6.034   4.686   0.963
  986SOL    HW2 3858   6.153   4.601   1.035
  987SOL     OW 3859   4.648   7.017   2.051
  987SOL    HW1 3860   4.623   0.080   2.014
  987SOL    HW2 3861   4.622   6.946   1.986
  988SOL     OW 3862   3.241   3.206   2.717
  988SOL    HW1 3863   3.199   3.147   2.647
  988SOL    HW2 3864   3.246   3.299   2.682
  989SOL     OW 3865   6.507   0.867   5.705
  989SOL    HW1 3866   6.550   0.781   5.734
  989SOL    HW2 3867   6.536   0.889   5.612
  990SOL     OW 3868   3.702   0.542   2.173
  990SOL    HW1 3869   3.640   0.543   2.095
  990SOL    HW2 3870   3.698   0.630   2.220
  991SOL     OW 3871   0.859   2.489   5.362
  991SOL    HW1 3872   0.941   2.536   5.329
  991SOL    HW2 3873   0.827   2.424   5.294
  992SOL     OW 3874   6.839   2.536   2.166
  992SOL    HW1 3875   6.896   2.612   2.134
  992SOL    HW2 3876   6.743   2.561   2.161
  993SOL     OW 3877   1.008   4.500   1.426
  993SOL    HW1 3878   0.946   4.500   1.505
  993SOL    HW2 3879   1.029   4.594   1.400
  994SOL     OW 3880   3.735   4.360   1.557
  994SOL    HW1 3881   3.832   4.366   1.580
  994SOL    HW2 3882   3.694   4.451   1.564
  995SOL     OW 3883   3.856   2.948   4.781
  995SOL    HW1 3884   3.946   2.905   4.769
  995SOL    HW2 3885   3.864   3.046   4.765
  996SOL     OW 3886   2.985   4.925   4.637
  996SOL    HW1 3887   2.937   4.882   4.560
  996SOL    HW2 3888   2.943   4.896   4.723
  997SOL     OW 3889   0.627   1.098   3.104
  997SOL    HW1 3890   0.659   1.166   3.169
  997SOL    HW2 3891   0.694   1.025   3.096
  998SOL     OW 3892   4.599   6.911   4.022
  998SOL    HW1 3893   4.577   7.003   3.990
  998SOL    HW2 3894   4.527   6.880   4.085
  999SOL     OW 3895   4.921   4.302   2.948
  999SOL    HW1 3896   4.846   4.354   2.907
  999SOL    HW2 3897   4.890   4.210   2.970
 1000SOL     OW 3898   2.610   1.150   1.984
 1000SOL    HW1 3899   2.617   1.122   2.080
 1000SOL    HW2 3900   2.554   1.233   1.977
 1001SOL     OW 3901   4.906   5.703   0.554
 1001SOL    HW1 3902   4.862   5.672   0.638
 1001SOL    HW2 3903   4.931   5.799   0.562
 1002SOL     OW 3904   5.951   1.604   1.314
 1002SOL    HW1 3905   6.040   1.591   1.272
 1002SOL    HW2 3906   5.951   1.564   1.406
 1003SOL     OW 3907   2.070   6.558   2.193
 1003SOL    HW1 3908   2.015   6.600   2.265
 1003SOL    HW2 3909   2.020   6.480   2.154
 1004SOL     OW 3910   0.392   6.917   2.620
 1004SOL    HW1 3911   0.458   6.893   2.548
 1004SOL    HW2 3912   0.319   6.973   2.581
 1005SOL     OW 3913   2.307   2.926   3.923
 1005SOL    HW1 3914   2.250   2.955   3.847
 1005SOL    HW2 3915   2.290   2.985   4.002
 1006SOL     OW 3916   0.620   4.780   1.497
 1006SOL    HW1 3917   0.643   4.739   1.408
 1006SOL    HW2 3918   0.576   4.869   1.482
 1007SOL     OW 3919   4.188   6.870   5.299
 1007SOL    HW1 3920   4.255   6.848   5.228
 1007SOL    HW2 3921   4.101   6.893   5.256
 1008SOL     OW 3922   1.647   2.833   5.001
 1008SOL    HW1 3923   1.720   2.788   4.949
 1008SOL    HW2 3924   1.570   2.851   4.941
 1009SOL     OW 3925   0.435   5.365   5.107
 1009SOL    HW1 3926   0.348   5.404   5.138
 1009SOL    HW2 3927   0.496   5.439   5.079
 1010SOL     OW 3928   3.616   2.903   5.938
 1010SOL    HW1 3929   3.696   2.847   5.919
 1010SOL    HW2 3930   3.558   2.907   5.857
 1011SOL     OW 3931   2.335   4.700   2.267
 1011SOL    HW1 3932   2.280   4.701   2.350
 1011SOL    HW2 3933   2.395   4.781   2.266
 1012SOL     OW 3934   6.938   0.649   1.997
 1012SOL    HW1 3935   6.963   0.702   1.916
 1012SOL    HW2 3936   6.872   0.578   1.971
 1013SOL     OW 3937   1.292   0.765   5.625
 1013SOL    HW1 3938   1.387   0.759   5.595
 1013SOL    HW2 3939   1.283   0.719   5.714
 1014SOL     OW 3940   5.951   5.443   6.426
 1014SOL    HW1 3941   5.861   5.425   6.465
 1014SOL    HW2 3942   5.974   5.370   6.361
 1015SOL     OW 3943   2.342   6.683   5.760
 1015SOL    HW1 3944   2.265   6.721   5.811
 1015SOL    HW2 3945   2.391   6.618   5.818
 1016SOL     OW 3946   3.953   3.609   6.604
 1016SOL    HW1 3947   3.942   3.512   6.627
 1016SOL    HW2 3948   3.939   3.622   6.505
 1017SOL     OW 3949   4.342   2.645   1.101
 1017SOL    HW1 3950   4.389   2.563   1.068
 1017SOL    HW2 3951   4.381   2.673   1.189
 1018SOL     OW 3952   0.144   4.334   3.408
 1018SOL    HW1 3953   0.234   4.322   3.365
 1018SOL    HW2 3954   0.148   4.302   3.502
 1019SOL     OW 3955   6.832   6.666   1.297
 1019SOL    HW1 3956   6.822   6.740   1.230
 1019SOL    HW2 3957   6.925   6.666   1.332
 1020SOL     OW 3958   0.558   0.952   1.339
 1020SOL    HW1 3959   0.607   0.886   1.396
 1020SOL    HW2 3960   0.502   1.012   1.397
 1021SOL     OW 3961   5.414   0.484   1.389
 1021SOL    HW1 3962   5.487   0.425   1.355
 1021SOL    HW2 3963   5.343   0.493   1.319
 1022SOL     OW 3964   3.635   4.864   5.549
 1022SOL    HW1 3965   3.675   4.773   5.556
 1022SOL    HW2 3966   3.536   4.855   5.535
 1023SOL     OW 3967   0.918   6.910   3.265
 1023SOL    HW1 3968   0.819   6.898   3.271
 1023SOL    HW2 3969   0.948   6.975   3.335
 1024SOL     OW 3970   0.527   2.618   3.970
 1024SOL    HW1 3971   0.468   2.673   4.030
 1024SOL    HW2 3972   0.520   2.652   3.876
 1025SOL     OW 3973   3.761   2.996   0.964
 1025SOL    HW1 3974   3.670   3.008   1.004
 1025SOL    HW2 3975   3.826   3.056   1.010
 1026SOL     OW 3976   2.230   2.767   0.530
 1026SOL    HW1 3977   2.171   2.775   0.611
 1026SOL    HW2 3978   2.267   2.857   0.506
 1027SOL     OW 3979   3.031   6.393   1.733
 1027SOL    HW1 3980   3.000   6.299   1.738
 1027SOL    HW2 3981   3.009   6.432   1.644
 1028SOL     OW 3982   2.912   5.952   0.721
 1028SOL    HW1 3983   2.832   5.979   0.775
 1028SOL    HW2 3984   2.883   5.907   0.637
 1029SOL     OW 3985   1.939   0.094   6.961
 1029SOL    HW1 3986   2.010   0.056   6.902
 1029SOL    HW2 3987   1.956   0.067   0.028
 1030SOL     OW 3988   3.289   2.770   1.815
 1030SOL    HW1 3989   3.260   2.680   1.784
 1030SOL    HW2 3990   3.209   2.826   1.836
 1031SOL     OW 3991   5.386   4.238   0.954
 1031SOL    HW1 3992   5.381   4.141   0.929
 1031SOL    HW2 3993   5.435   4.288   0.883
 1032SOL     OW 3994   2.290   2.249   5.352
 1032SOL    HW1 3995   2.231   2.266   5.274
 1032SOL    HW2 3996   2.236   2.255   5.436
 1033SOL     OW 3997   1.390   6.748   0.863
 1033SOL    HW1 3998   1.301   6.793   0.868
 1033SOL    HW2 3999   1.462   6.818   0.861
 1034SOL     OW 4000   0.566   4.932   4.718
 1034SOL    HW1 4001   0.565   5.018   4.769
 1034SOL    HW2 4002   0.661   4.908   4.695
 1035SOL     OW 4003   0.229   1.048   5.096
 1035SOL    HW1 4004   0.142   1.050   5.146
 1035SOL    HW2 4005   0.284   1.127   5.122
 1036SOL     OW 4006   3.566   1.465   1.766
 1036SOL    HW1 4007   3.609   1.555   1.767
 1036SOL    HW2 4008   3.607   1.407   1.836
 1037SOL     OW 4009   1.923   0.832   2.010
 1037SOL    HW1 4010   1.887   0.770   1.939
 1037SOL    HW2 4011   1.853   0.899   2.034
 1038SOL     OW 4012   1.246   0.428   4.922
 1038SOL    HW1 4013   1.187   0.479   4.985
 1038SOL    HW2 4014   1.337   0.470   4.922
 1039SOL     OW 4015   3.309   3.952   5.453
 1039SOL    HW1 4016   3.344   3.994   5.370
 1039SOL    HW2 4017   3.212   3.930   5.441
 1040SOL     OW 4018   4.475   2.115   2.560
 1040SOL    HW1 4019   4.542   2.163   2.504
 1040SOL    HW2 4020   4.517   2.033   2.599
 1041SOL     OW 4021   0.194   0.169   3.623
 1041SOL    HW1 4022   0.204   0.125   3.534
 1041SOL    HW2 4023   0.106   0.215   3.628
 1042SOL     OW 4024   4.827   5.389   2.044
 1042SOL    HW1 4025   4.813   5.477   2.090
 1042SOL    HW2 4026   4.920   5.356   2.062
 1043SOL     OW 4027   3.733   1.461   5.080
 1043SOL    HW1 4028   3.816   1.444   5.133
 1043SOL    HW2 4029   3.744   1.422   4.989
 1044SOL     OW 4030   5.198   5.303   2.509
 1044SOL    HW1 4031   5.236   5.225   2.557
 1044SOL    HW2 4032   5.163   5.370   2.576
 1045SOL     OW 4033   4.156   6.586   2.271
 1045SOL    HW1 4034   4.221   6.523   2.312
 1045SOL    HW2 4035   4.117   6.645   2.343
 1046SOL     OW 4036   1.311   0.936   0.126
 1046SOL    HW1 4037   1.389   0.953   0.065
 1046SOL    HW2 4038   1.258   0.858   0.092
 1047SOL     OW 4039   1.840   1.229   3.362
 1047SOL    HW1 4040   1.876   1.162   3.297
 1047SOL    HW2 4041   1.903   1.306   3.369
 1048SOL     OW 4042   4.800   6.212   4.197
 1048SOL    HW1 4043   4.868   6.161   4.250
 1048SOL    HW2 4044   4.764   6.154   4.124
 1049SOL     OW 4045   6.452   6.035   3.627
 1049SOL    HW1 4046   6.479   5.965   3.561
 1049SOL    HW2 4047   6.521   6.108   3.628
 1050SOL     OW 4048   4.204   5.184   1.093
 1050SOL    HW1 4049   4.269   5.201   1.018
 1050SOL    HW2 4050   4.140   5.260   1.100
 1051SOL     OW 4051   2.478   5.909   1.005
 1051SOL    HW1 4052   2.428   5.976   1.059
 1051SOL    HW2 4053   2.525   5.845   1.065
 1052SOL     OW 4054   3.606   0.976   4.606
 1052SOL    HW1 4055   3.642   0.891   4.645
 1052SOL    HW2 4056   3.580   0.960   4.511
 1053SOL     OW 4057   5.639   5.129   3.239
 1053SOL    HW1 4058   5.697   5.091   3.167
 1053SOL    HW2 4059   5.696   5.178   3.305
 1054SOL     OW 4060   3.138   4.236   6.174
 1054SOL    HW1 4061   3.061   4.258   6.233
 1054SOL    HW2 4062   3.215   4.295   6.196
 1055SOL     OW 4063   3.659   6.651   5.111
 1055SOL    HW1 4064   3.678   6.683   5.203
 1055SOL    HW2 4065   3.711   6.568   5.093
 1056SOL     OW 4066   1.661   5.363   6.046
 1056SOL    HW1 4067   1.700   5.340   5.956
 1056SOL    HW2 4068   1.586   5.301   6.066
 1057SOL     OW 4069   3.047   2.910   1.829
 1057SOL    HW1 4070   2.995   2.994   1.845
 1057SOL    HW2 4071   3.034   2.881   1.734
 1058SOL     OW 4072   4.791   1.494   3.452
 1058SOL    HW1 4073   4.823   1.436   3.527
 1058SOL    HW2 4074   4.865   1.507   3.387
 1059SOL     OW 4075   2.660   0.677   1.724
 1059SOL    HW1 4076   2.561   0.665   1.715
 1059SOL    HW2 4077   2.692   0.745   1.658
 1060SOL     OW 4078   0.161   4.258   4.643
 1060SOL    HW1 4079   0.156   4.253   4.742
 1060SOL    HW2 4080   0.088   4.319   4.609
 1061SOL     OW 4081   6.175   3.185   0.861
 1061SOL    HW1 4082   6.106   3.167   0.791
 1061SOL    HW2 4083   6.173   3.282   0.886
 1062SOL     OW 4084   5.702   3.848   6.241
 1062SOL    HW1 4085   5.749   3.906   6.174
 1062SOL    HW2 4086   5.683   3.759   6.201
 1063SOL     OW 4087   1.644   5.011   2.288
 1063SOL    HW1 4088   1.738   5.045   2.288
 1063SOL    HW2 4089   1.639   4.924   2.338
 1064SOL     OW 4090   1.789   4.240   1.829
 1064SOL    HW1 4091   1.780   4.200   1.738
 1064SOL    HW2 4092   1.774   4.339   1.823
 1065SOL     OW 4093   3.276   0.450   3.809
 1065SOL    HW1 4094   3.337   0.521   3.845
 1065SOL    HW2 4095   3.238   0.480   3.721
 1066SOL     OW 4096   4.544   6.672   3.099
 1066SOL    HW1 4097   4.520   6.641   3.191
 1066SOL    HW2 4098   4.632   6.719   3.102
 1067SOL     OW 4099   0.590   3.589   0.906
 1067SOL    HW1 4100   0.670   3.642   0.934
 1067SOL    HW2 4101   0.567   3.523   0.977
 1068SOL     OW 4102   5.317   5.654   2.957
 1068SOL    HW1 4103   5.384   5.659   2.882
 1068SOL    HW2 4104   5.358   5.605   3.034
 1069SOL     OW 4105   4.355   5.305   1.412
 1069SOL    HW1 4106   4.269   5.328   1.457
 1069SOL    HW2 4107   4.392   5.386   1.366
 1070SOL     OW 4108   6.935   0.379   2.431
 1070SOL    HW1 4109   6.925   0.380   2.531
 1070SOL    HW2 4110   6.954   0.286   2.400
 1071SOL     OW 4111   1.476   0.381   3.523
 1071SOL    HW1 4112   1.513   0.290   3.504
 1071SOL    HW2 4113   1.550   0.448   3.521
 1072SOL     OW 4114   2.192   0.992   1.199
 1072SOL    HW1 4115   2.118   1.059   1.212
 1072SOL    HW2 4116   2.225   0.961   1.288
 1073SOL     OW 4117   4.955   0.067   1.790
 1073SOL    HW1 4118   4.988   0.047   1.882
 1073SOL    HW2 4119   4.856   0.086   1.794
 1074SOL     OW 4120   1.790   5.342   1.203
 1074SOL    HW1 4121   1.843   5.417   1.242
 1074SOL    HW2 4122   1.800   5.343   1.103
 1075SOL     OW 4123   5.194   6.666   4.236
 1075SOL    HW1 4124   5.269   6.720   4.274
 1075SOL    HW2 4125   5.231   6.596   4.175
 1076SOL     OW 4126   0.145   2.845   5.805
 1076SOL    HW1 4127   0.193   2.803   5.882
 1076SOL    HW2 4128   0.160   2.944   5.807
 1077SOL     OW 4129   5.775   0.610   1.218
 1077SOL    HW1 4130   5.786   0.704   1.184
 1077SOL    HW2 4131   5.706   0.563   1.163
 1078SOL     OW 4132   1.040   1.663   2.415
 1078SOL    HW1 4133   1.077   1.582   2.369
 1078SOL    HW2 4134   1.009   1.638   2.507
 1079SOL     OW 4135   2.326   6.173   2.307
 1079SOL    HW1 4136   2.296   6.264   2.336
 1079SOL    HW2 4137   2.408   6.147   2.359
 1080SOL     OW 4138   0.844   4.161   3.546
 1080SOL    HW1 4139   0.920   4.122   3.495
 1080SOL    HW2 4140   0.843   4.123   3.639
 1081SOL     OW 4141   0.289   5.440   6.017
 1081SOL    HW1 4142   0.219   5.492   5.968
 1081SOL    HW2 4143   0.360   5.411   5.953
 1082SOL     OW 4144   4.246   2.090   5.715
 1082SOL    HW1 4145   4.314   2.038   5.663
 1082SOL    HW2 4146   4.195   2.027   5.774
 1083SOL     OW 4147   4.077   3.639   6.985
 1083SOL    HW1 4148   4.084   3.700   0.036
 1083SOL    HW2 4149   4.148   3.662   6.919
 1084SOL     OW 4150   5.515   6.294   7.009
 1084SOL    HW1 4151   5.554   6.223   0.040
 1084SOL    HW2 4152   5.433   6.260   6.963
 1085SOL     OW 4153   1.127   4.010   4.135
 1085SOL    HW1 4154   1.096   4.105   4.141
 1085SOL    HW2 4155   1.132   3.970   4.227
 1086SOL     OW 4156   6.499   6.252   1.158
 1086SOL    HW1 4157   6.510   6.273   1.061
 1086SOL    HW2 4158   6.500   6.337   1.211
 1087SOL     OW 4159   5.451   1.600   4.872
 1087SOL    HW1 4160   5.421   1.614   4.966
 1087SOL    HW2 4161   5.466   1.502   4.856
 1088SOL     OW 4162   6.884   4.817   3.300
 1088SOL    HW1 4163   6.863   4.776   3.211
 1088SOL    HW2 4164   6.806   4.871   3.331
 1089SOL     OW 4165   1.742   6.246   4.090
 1089SOL    HW1 4166   1.723   6.178   4.019
 1089SOL    HW2 4167   1.752   6.199   4.178
 1090SOL     OW 4168   2.157   2.288   3.892
 1090SOL    HW1 4169   2.193   2.370   3.848
 1090SOL    HW2 4170   2.139   2.218   3.823
 1091SOL     OW 4171   3.202   1.781   5.304
 1091SOL    HW1 4172   3.265   1.725   5.251
 1091SOL    HW2 4173   3.109   1.768   5.270
 1092SOL     OW 4174   2.048   3.920   1.503
 1092SOL    HW1 4175   2.058   3.878   1.412
 1092SOL    HW2 4176   1.997   3.858   1.562
 1093SOL     OW 4177   2.029   1.378   2.317
 1093SOL    HW1 4178   2.122   1.343   2.327
 1093SOL    HW2 4179   1.991   1.350   2.229
 1094SOL     OW 4180   0.697   6.871   3.549
 1094SOL    HW1 4181   0.623   6.919   3.502
 1094SOL    HW2 4182   0.721   6.789   3.497
 1095SOL     OW 4183   0.676   2.794   6.568
 1095SOL    HW1 4184   0.760   2.839   6.536
 1095SOL    HW2 4185   0.598   2.856   6.554
 1096SOL     OW 4186   3.418   4.523   1.627
 1096SOL    HW1 4187   3.476   4.549   1.550
 1096SOL    HW2 4188   3.430   4.588   1.702
 1097SOL     OW 4189   2.196   4.590   3.938
 1097SOL    HW1 4190   2.168   4.678   3.898
 1097SOL    HW2 4191   2.115   4.535   3.957
 1098SOL     OW 4192   4.365   3.288   7.027
 1098SOL    HW1 4193   4.453   3.255   0.035
 1098SOL    HW2 4194   4.343   3.240   6.942
 1099SOL     OW 4195   4.333   1.635   5.530
 1099SOL    HW1 4196   4.399   1.595   5.593
 1099SOL    HW2 4197   4.338   1.588   5.442
 1100SOL     OW 4198   3.626   1.711   5.597
 1100SOL    HW1 4199   3.601   1.786   5.536
 1100SOL    HW2 4200   3.694   1.652   5.553
 1101SOL     OW 4201   6.270   2.502   6.526
 1101SOL    HW1 4202   6.219   2.438   6.583
 1101SOL    HW2 4203   6.366   2.473   6.521
 1102SOL     OW 4204   0.485   6.376   5.147
 1102SOL    HW1 4205   0.473   6.277   5.146
 1102SOL    HW2 4206   0.481   6.411   5.053
 1103SOL     OW 4207   3.484   1.342   0.549
 1103SOL    HW1 4208   3.392   1.303   0.550
 1103SOL    HW2 4209   3.535   1.304   0.472
 1104SOL     OW 4210   2.243   2.694   5.452
 1104SOL    HW1 4211   2.331   2.649   5.437
 1104SOL    HW2 4212   2.241   2.781   5.403
 1105SOL     OW 4213   6.788   4.036   5.283
 1105SOL    HW1 4214   6.805   4.131   5.256
 1105SOL    HW2 4215   6.713   3.999   5.227
 1106SOL     OW 4216   0.394   1.914   1.695
 1106SOL    HW1 4217   0.351   1.921   1.604
 1106SOL    HW2 4218   0.328   1.942   1.765
 1107SOL     OW 4219   1.630   0.369   6.929
 1107SOL    HW1 4220   1.648   0.431   6.852
 1107SOL    HW2 4221   1.673   0.405   7.012
 1108SOL     OW 4222   3.723   0.516   5.834
 1108SOL    HW1 4223   3.665   0.502   5.914
 1108SOL    HW2 4224   3.807   0.563   5.862
 1109SOL     OW 4225   4.838   0.579   4.420
 1109SOL    HW1 4226   4.758   0.638   4.425
 1109SOL    HW2 4227   4.891   0.602   4.339
 1110SOL     OW 4228   2.543   1.617   3.335
 1110SOL    HW1 4229   2.576   1.707   3.366
 1110SOL    HW2 4230   2.532   1.619   3.235
 1111SOL     OW 4231   4.516   5.347   6.414
 1111SOL    HW1 4232   4.564   5.433   6.428
 1111SOL    HW2 4233   4.547   5.280   6.482
 1112SOL     OW 4234   4.903   1.358   2.289
 1112SOL    HW1 4235   4.896   1.312   2.201
 1112SOL    HW2 4236   4.840   1.315   2.354
 1113SOL     OW 4237   6.257   4.027   2.045
 1113SOL    HW1 4238   6.222   3.956   1.984
 1113SOL    HW2 4239   6.195   4.039   2.122
 1114SOL     OW 4240   3.681   1.874   6.754
 1114SOL    HW1 4241   3.742   1.835   6.685
 1114SOL    HW2 4242   3.673   1.973   6.739
 1115SOL     OW 4243   4.105   3.117   6.535
 1115SOL    HW1 4244   4.122   3.090   6.441
 1115SOL    HW2 4245   4.173   3.074   6.595
 1116SOL     OW 4246   4.818   6.196   5.462
 1116SOL    HW1 4247   4.885   6.270   5.464
 1116SOL    HW2 4248   4.817   6.154   5.372
 1117SOL     OW 4249   1.835   2.364   2.269
 1117SOL    HW1 4250   1.830   2.377   2.170
 1117SOL    HW2 4251   1.822   2.267   2.290
 1118SOL     OW 4252   2.727   4.598   0.827
 1118SOL    HW1 4253   2.801   4.544   0.787
 1118SOL    HW2 4254   2.699   4.555   0.913
 1119SOL     OW 4255   3.966   4.482   1.303
 1119SOL    HW1 4256   3.880   4.467   1.253
 1119SOL    HW2 4257   3.965   4.428   1.387
 1120SOL     OW 4258   6.320   6.644   5.991
 1120SOL    HW1 4259   6.314   6.554   6.035
 1120SOL    HW2 4260   6.280   6.639   5.899
 1121SOL     OW 4261   5.215   5.066   3.375
 1121SOL    HW1 4262   5.251   5.068   3.281
 1121SOL    HW2 4263   5.258   4.992   3.426
 1122SOL     OW 4264   5.241   3.257   6.877
 1122SOL    HW1 4265   5.190   3.310   6.945
 1122SOL    HW2 4266   5.177   3.200   6.826
 1123SOL     OW 4267   4.641   1.046   3.385
 1123SOL    HW1 4268   4.739   1.031   3.371
 1123SOL    HW2 4269   4.594   1.036   3.297
 1124SOL     OW 4270   0.465   3.862   5.349
 1124SOL    HW1 4271   0.368   3.875   5.373
 1124SOL    HW2 4272   0.503   3.949   5.316
 1125SOL     OW 4273   3.365   2.111   4.581
 1125SOL    HW1 4274   3.295   2.041   4.573
 1125SOL    HW2 4275   3.402   2.132   4.491
 1126SOL     OW 4276   6.027   4.911   6.522
 1126SOL    HW1 4277   6.037   4.994   6.467
 1126SOL    HW2 4278   6.114   4.891   6.568
 1127SOL     OW 4279   5.200   5.266   4.842
 1127SOL    HW1 4280   5.248   5.178   4.848
 1127SOL    HW2 4281   5.123   5.267   4.906
 1128SOL     OW 4282   5.633   1.531   5.416
 1128SOL    HW1 4283   5.706   1.589   5.380
 1128SOL    HW2 4284   5.556   1.589   5.443
 1129SOL     OW 4285   2.607   0.516   6.977
 1129SOL    HW1 4286   2.637   0.576   0.024
 1129SOL    HW2 4287   2.546   0.566   6.916
 1130SOL     OW 4288   2.506   4.657   0.631
 1130SOL    HW1 4289   2.489   4.572   0.582
 1130SOL    HW2 4290   2.600   4.658   0.665
 1131SOL     OW 4291   0.307   5.455   6.316
 1131SOL    HW1 4292   0.337   5.475   6.223
 1131SOL    HW2 4293   0.217   5.495   6.332
 1132SOL     OW 4294   5.304   0.838   1.452
 1132SOL    HW1 4295   5.396   0.807   1.432
 1132SOL    HW2 4296   5.273   0.799   1.539
 1133SOL     OW 4297   0.638   0.314   1.243
 1133SOL    HW1 4298   0.623   0.373   1.164
 1133SOL    HW2 4299   0.550   0.283   1.279
 1134SOL     OW 4300   5.225   0.837   1.989
 1134SOL    HW1 4301   5.129   0.862   1.977
 1134SOL    HW2 4302   5.241   0.812   2.084
 1135SOL     OW 4303   2.522   1.113   2.823
 1135SOL    HW1 4304   2.620   1.130   2.830
 1135SOL    HW2 4305   2.506   1.047   2.749
 1136SOL     OW 4306   3.800   5.120   3.645
 1136SOL    HW1 4307   3.754   5.080   3.724
 1136SOL    HW2 4308   3.794   5.057   3.567
 1137SOL     OW 4309   1.205   0.863   6.507
 1137SOL    HW1 4310   1.136   0.796   6.478
 1137SOL    HW2 4311   1.247   0.904   6.426
 1138SOL     OW 4312   0.467   0.843   5.998
 1138SOL    HW1 4313   0.514   0.794   6.072
 1138SOL    HW2 4314   0.395   0.900   6.037
 1139SOL     OW 4315   3.387   5.129   1.693
 1139SOL    HW1 4316   3.449   5.089   1.760
 1139SOL    HW2 4317   3.349   5.214   1.729
 1140SOL     OW 4318   4.286   1.347   2.121
 1140SOL    HW1 4319   4.327   1.403   2.049
 1140SOL    HW2 4320   4.223   1.282   2.081
 1141SOL     OW 4321   0.230   6.020   6.863
 1141SOL    HW1 4322   0.236   6.026   6.962
 1141SOL    HW2 4323   0.223   6.111   6.824
 1142SOL     OW 4324   2.883   6.949   4.310
 1142SOL    HW1 4325   2.954   6.910   4.369
 1142SOL    HW2 4326   2.907   0.016   4.287
 1143SOL     OW 4327   1.455   3.849   2.625
 1143SOL    HW1 4328   1.397   3.791   2.567
 1143SOL    HW2 4329   1.443   3.945   2.600
 1144SOL     OW 4330   6.549   4.895   4.483
 1144SOL    HW1 4331   6.618   4.966   4.468
 1144SOL    HW2 4332   6.486   4.924   4.555
 1145SOL     OW 4333   6.392   3.651   2.458
 1145SOL    HW1 4334   6.416   3.724   2.521
 1145SOL    HW2 4335   6.302   3.669   2.419
 1146SOL     OW 4336   6.471   0.895   2.349
 1146SOL    HW1 4337   6.413   0.874   2.428
 1146SOL    HW2 4338   6.545   0.957   2.377
 1147SOL     OW 4339   2.438   5.013   1.408
 1147SOL    HW1 4340   2.360   5.060   1.449
 1147SOL    HW2 4341   2.522   5.044   1.453
 1148SOL     OW 4342   5.287   5.973   0.828
 1148SOL    HW1 4343   5.305   5.958   0.925
 1148SOL    HW2 4344   5.259   6.067   0.813
 1149SOL     OW 4345   6.850   4.157   3.049
 1149SOL    HW1 4346   6.825   4.152   3.145
 1149SOL    HW2 4347   6.770   4.136   2.992
 1150SOL     OW 4348   2.356   3.545   0.344
 1150SOL    HW1 4349   2.444   3.591   0.354
 1150SOL    HW2 4350   2.359   3.457   0.392
 1151SOL     OW 4351   4.779   4.900   6.747
 1151SOL    HW1 4352   4.793   4.847   6.663
 1151SOL    HW2 4353   4.848   4.873   6.815
 1152SOL     OW 4354   5.529   4.762   6.099
 1152SOL    HW1 4355   5.609   4.721   6.054
 1152SOL    HW2 4356   5.532   4.861   6.088
 1153SOL     OW 4357   1.667   0.716   1.443
 1153SOL    HW1 4358   1.637   0.694   1.350
 1153SOL    HW2 4359   1.683   0.630   1.493
 1154SOL     OW 4360   0.607   4.283   1.436
 1154SOL    HW1 4361   0.637   4.354   1.372
 1154SOL    HW2 4362   0.523   4.241   1.401
 1155SOL     OW 4363   2.529   5.586   6.450
 1155SOL    HW1 4364   2.536   5.497   6.495
 1155SOL    HW2 4365   2.569   5.580   6.358
 1156SOL     OW 4366   4.041   1.920   4.660
 1156SOL    HW1 4367   4.137   1.942   4.641
 1156SOL    HW2 4368   3.988   2.004   4.661
 1157SOL     OW 4369   5.863   0.662   5.528
 1157SOL    HW1 4370   5.927   0.626   5.596
 1157SOL    HW2 4371   5.889   0.630   5.437
 1158SOL     OW 4372   0.024   5.130   5.411
 1158SOL    HW1 4373   0.087   5.069   5.364
 1158SOL    HW2 4374   6.987   5.075   5.465
 1159SOL     OW 4375   6.387   6.998   4.156
 1159SOL    HW1 4376   6.402   0.064   4.188
 1159SOL    HW2 4377   6.428   6.987   4.066
 1160SOL     OW 4378   4.343   3.736   0.896
 1160SOL    HW1 4379   4.284   3.786   0.958
 1160SOL    HW2 4380   4.421   3.699   0.946
 1161SOL     OW 4381   6.250   0.198   6.302
 1161SOL    HW1 4382   6.191   0.138   6.356
 1161SOL    HW2 4383   6.287   0.270   6.360
 1162SOL     OW 4384   3.265   2.452   6.348
 1162SOL    HW1 4385   3.187   2.472   6.408
 1162SOL    HW2 4386   3.243   2.375   6.289
 1163SOL     OW 4387   6.412   3.221   1.955
 1163SOL    HW1 4388   6.413   3.321   1.955
 1163SOL    HW2 4389   6.499   3.187   1.990
 1164SOL     OW 4390   6.120   3.270   4.915
 1164SOL    HW1 4391   6.173   3.201   4.964
 1164SOL    HW2 4392   6.032   3.232   4.888
 1165SOL     OW 4393   2.983   4.872   4.042
 1165SOL    HW1 4394   2.908   4.935   4.061
 1165SOL    HW2 4395   3.062   4.924   4.008
 1166SOL     OW 4396   3.948   6.926   0.079
 1166SOL    HW1 4397   3.890   6.867   0.136
 1166SOL    HW2 4398   4.014   6.870   0.029
 1167SOL     OW 4399   4.259   6.424   6.481
 1167SOL    HW1 4400   4.235   6.519   6.498
 1167SOL    HW2 4401   4.192   6.364   6.524
 1168SOL     OW 4402   5.414   2.413   3.599
 1168SOL    HW1 4403   5.351   2.475   3.645
 1168SOL    HW2 4404   5.483   2.466   3.549
 1169SOL     OW 4405   5.154   2.162   5.729
 1169SOL    HW1 4406   5.099   2.111   5.795
 1169SOL    HW2 4407   5.130   2.134   5.636
 1170SOL     OW 4408   5.059   0.888   3.089
 1170SOL    HW1 4409   5.145   0.927   3.122
 1170SOL    HW2 4410   5.075   0.795   3.056
 1171SOL     OW 4411   2.984   6.186   0.050
 1171SOL    HW1 4412   3.049   6.261   0.064
 1171SOL    HW2 4413   3.001   6.114   0.118
 1172SOL     OW 4414   3.024   4.196   1.809
 1172SOL    HW1 4415   3.007   4.126   1.878
 1172SOL    HW2 4416   2.997   4.286   1.846
 1173SOL     OW 4417   2.839   0.686   6.276
 1173SOL    HW1 4418   2.785   0.749   6.219
 1173SOL    HW2 4419   2.781   0.649   6.349
 1174SOL     OW 4420   3.302   4.888   1.006
 1174SOL    HW1 4421   3.321   4.866   0.911
 1174SOL    HW2 4422   3.288   4.804   1.058
 1175SOL     OW 4423   3.991   3.255   6.940
 1175SOL    HW1 4424   4.000   3.268   6.842
 1175SOL    HW2 4425   4.005   3.342   6.987
 1176SOL     OW 4426   6.028   5.145   6.322
 1176SOL    HW1 4427   6.007   5.105   6.233
 1176SOL    HW2 4428   6.128   5.147   6.335
 1177SOL     OW 4429   0.006   1.857   5.444
 1177SOL    HW1 4430   7.006   1.761   5.445
 1177SOL    HW2 4431   7.022   1.894   5.352
 1178SOL     OW 4432   3.097   4.059   0.808
 1178SOL    HW1 4433   3.019   4.110   0.844
 1178SOL    HW2 4434   3.147   4.016   0.882
 1179SOL     OW 4435   3.323   6.237   0.729
 1179SOL    HW1 4436   3.421   6.217   0.727
 1179SOL    HW2 4437   3.293   6.266   0.638
 1180SOL     OW 4438   1.925   5.602   3.838
 1180SOL    HW1 4439   2.024   5.609   3.849
 1180SOL    HW2 4440   1.904   5.561   3.749
 1181SOL     OW 4441   0.390   3.249   5.831
 1181SOL    HW1 4442   0.489   3.264   5.826
 1181SOL    HW2 4443   0.343   3.329   5.794
 1182SOL     OW 4444   3.208   4.878   3.387
 1182SOL    HW1 4445   3.206   4.868   3.288
 1182SOL    HW2 4446   3.120   4.849   3.425
 1183SOL     OW 4447   3.626   5.315   2.016
 1183SOL    HW1 4448   3.707   5.271   1.979
 1183SOL    HW2 4449   3.554   5.247   2.029
 1184SOL     OW 4450   5.873   6.975   6.027
 1184SOL    HW1 4451   5.960   7.024   6.030
 1184SOL    HW2 4452   5.873   6.901   6.095
 1185SOL     OW 4453   0.430   0.830   1.059
 1185SOL    HW1 4454   0.408   0.786   1.147
 1185SOL    HW2 4455   0.438   0.928   1.072
 1186SOL     OW 4456   5.610   5.233   5.636
 1186SOL    HW1 4457   5.554   5.209   5.556
 1186SOL    HW2 4458   5.707   5.227   5.612
 1187SOL     OW 4459   5.238   6.378   5.615
 1187SOL    HW1 4460   5.188   6.414   5.535
 1187SOL    HW2 4461   5.307   6.445   5.643
 1188SOL     OW 4462   3.458   5.156   6.325
 1188SOL    HW1 4463   3.425   5.240   6.369
 1188SOL    HW2 4464   3.456   5.168   6.226
 1189SOL     OW 4465   6.156   0.614   0.892
 1189SOL    HW1 4466   6.183   0.562   0.973
 1189SOL    HW2 4467   6.235   0.624   0.831
 1190SOL     OW 4468   2.876   5.923   2.691
 1190SOL    HW1 4469   2.895   5.897   2.597
 1190SOL    HW2 4470   2.954   5.897   2.749
 1191SOL     OW 4471   2.617   6.051   4.511
 1191SOL    HW1 4472   2.675   6.056   4.593
 1191SOL    HW2 4473   2.660   5.991   4.444
 1192SOL     OW 4474   5.857   6.361   3.554
 1192SOL    HW1 4475   5.771   6.313   3.541
 1192SOL    HW2 4476   5.844   6.437   3.618
 1193SOL     OW 4477   0.270   0.380   4.948
 1193SOL    HW1 4478   0.325   0.462   4.930
 1193SOL    HW2 4479   0.179   0.393   4.910
 1194SOL     OW 4480   6.635   1.463   1.297
 1194SOL    HW1 4481   6.606   1.370   1.318
 1194SOL    HW2 4482   6.735   1.466   1.287
 1195SOL     OW 4483   6.864   3.143   0.435
 1195SOL    HW1 4484   6.868   3.163   0.532
 1195SOL    HW2 4485   6.895   3.223   0.383
 1196SOL     OW 4486   6.134   4.538   3.555
 1196SOL    HW1 4487   6.195   4.462   3.575
 1196SOL    HW2 4488   6.169   4.589   3.476
 1197SOL     OW 4489   4.602   6.421   4.690
 1197SOL    HW1 4490   4.531   6.485   4.661
 1197SOL    HW2 4491   4.669   6.410   4.616
 1198SOL     OW 4492   1.309   3.702   2.175
 1198SOL    HW1 4493   1.219   3.742   2.166
 1198SOL    HW2 4494   1.378   3.764   2.138
 1199SOL     OW 4495   3.318   3.843   2.899
 1199SOL    HW1 4496   3.404   3.815   2.941
 1199SOL    HW2 4497   3.289   3.773   2.833
 1200SOL     OW 4498   3.828   4.036   4.616
 1200SOL    HW1 4499   3.735   4.069   4.634
 1200SOL    HW2 4500   3.860   4.073   4.529
 1201SOL     OW 4501   6.633   0.974   5.250
 1201SOL    HW1 4502   6.726   0.960   5.282
 1201SOL    HW2 4503   6.631   0.971   5.150
 1202SOL     OW 4504   0.051   6.288   5.648
 1202SOL    HW1 4505   7.010   6.356   5.623
 1202SOL    HW2 4506   0.021   6.197   5.618
 1203SOL     OW 4507   0.392   6.412   0.423
 1203SOL    HW1 4508   0.358   6.432   0.331
 1203SOL    HW2 4509   0.452   6.486   0.453
 1204SOL     OW 4510   4.546   1.389   1.469
 1204SOL    HW1 4511   4.523   1.471   1.521
 1204SOL    HW2 4512   4.542   1.309   1.529
 1205SOL     OW 4513   3.607   3.869   0.238
 1205SOL    HW1 4514   3.665   3.937   0.193
 1205SOL    HW2 4515   3.512   3.883   0.209
 1206SOL     OW 4516   0.978   3.320   5.059
 1206SOL    HW1 4517   1.004   3.225   5.078
 1206SOL    HW2 4518   1.027   3.381   5.122
 1207SOL     OW 4519   0.205   0.682   1.052
 1207SOL    HW1 4520   0.229   0.603   1.108
 1207SOL    HW2 4521   0.287   0.720   1.011
 1208SOL     OW 4522   3.496   3.111   1.395
 1208SOL    HW1 4523   3.449   3.069   1.472
 1208SOL    HW2 4524   3.437   3.180   1.353
 1209SOL     OW 4525   5.035   0.094   4.232
 1209SOL    HW1 4526   5.095   0.170   4.207
 1209SOL    HW2 4527   4.941   0.128   4.239
 1210SOL     OW 4528   4.400   6.505   3.608
 1210SOL    HW1 4529   4.323   6.442   3.622
 1210SOL    HW2 4530   4.407   6.566   3.686
 1211SOL     OW 4531   0.822   3.347   2.604
 1211SOL    HW1 4532   0.826   3.380   2.699
 1211SOL    HW2 4533   0.911   3.309   2.578
 1212SOL     OW 4534   6.748   0.089   5.834
 1212SOL    HW1 4535   6.742   0.186   5.859
 1212SOL    HW2 4536   6.692   0.034   5.895
 1213SOL     OW 4537   5.371   2.286   2.038
 1213SOL    HW1 4538   5.437   2.271   1.964
 1213SOL    HW2 4539   5.293   2.226   2.025
 1214SOL     OW 4540   0.599   2.444   7.018
 1214SOL    HW1 4541   0.650   2.523   6.984
 1214SOL    HW2 4542   0.508   2.443   6.978
 1215SOL     OW 4543   1.177   5.012   2.686
 1215SOL    HW1 4544   1.264   5.028   2.640
 1215SOL    HW2 4545   1.126   4.941   2.637
 1216SOL     OW 4546   5.379   1.409   0.996
 1216SOL    HW1 4547   5.467   1.436   1.036
 1216SOL    HW2 4548   5.329   1.491   0.968
 1217SOL     OW 4549   2.341   4.867   0.653
 1217SOL    HW1 4550   2.371   4.935   0.586
 1217SOL    HW2 4551   2.404   4.790   0.651
 1218SOL     OW 4552   1.618   2.371   5.218
 1218SOL    HW1 4553   1.622   2.365   5.119
 1218SOL    HW2 4554   1.678   2.444   5.250
 1219SOL     OW 4555   5.732   5.514   2.216
 1219SOL    HW1 4556   5.773   5.460   2.142
 1219SOL    HW2 4557   5.800   5.533   2.286
 1220SOL     OW 4558   6.800   4.022   2.403
 1220SOL    HW1 4559   6.827   4.092   2.336
 1220SOL    HW2 4560   6.817   3.931   2.364
 1221SOL     OW 4561   5.066   3.843   6.589
 1221SOL    HW1 4562   5.152   3.892   6.572
 1221SOL    HW2 4563   5.071   3.752   6.548
 1222SOL     OW 4564   6.882   1.200   6.721
 1222SOL    HW1 4565   6.839   1.115   6.752
 1222SOL    HW2 4566   6.900   1.193   6.623
 1223SOL     OW 4567   3.944   0.948   0.150
 1223SOL    HW1 4568   4.007   0.871   0.149
 1223SOL    HW2 4569   3.900   0.956   0.060
 1224SOL     OW 4570   2.945   6.141   6.674
 1224SOL    HW1 4571   2.955   6.239   6.690
 1224SOL    HW2 4572   2.857   6.110   6.709
 1225SOL     OW 4573   3.373   2.324   6.794
 1225SOL    HW1 4574   3.292   2.279   6.758
 1225SOL    HW2 4575   3.384   2.300   6.891
 1226SOL     OW 4576   4.008   6.376   0.432
 1226SOL    HW1 4577   4.106   6.394   0.445
 1226SOL    HW2 4578   3.996   6.316   0.354
 1227SOL     OW 4579   4.968   4.717   5.742
 1227SOL    HW1 4580   4.922   4.650   5.683
 1227SOL    HW2 4581   5.066   4.702   5.739
 1228SOL     OW 4582   3.546   2.465   6.471
 1228SOL    HW1 4583   3.570   2.556   6.437
 1228SOL    HW2 4584   3.448   2.451   6.461
 1229SOL     OW 4585   2.468   5.377   0.034
 1229SOL    HW1 4586   2.426   5.396   0.123
 1229SOL    HW2 4587   2.517   5.458   0.002
 1230SOL     OW 4588   5.239   6.206   1.850
 1230SOL    HW1 4589   5.195   6.237   1.766
 1230SOL    HW2 4590   5.279   6.284   1.898
 1231SOL     OW 4591   1.877   2.152   5.471
 1231SOL    HW1 4592   1.803   2.150   5.404
 1231SOL    HW2 4593   1.898   2.059   5.501
 1232SOL     OW 4594   6.722   1.123   4.817
 1232SOL    HW1 4595   6.792   1.189   4.844
 1232SOL    HW2 4596   6.658   1.166   4.753
 1233SOL     OW 4597   0.996   5.344   4.956
 1233SOL    HW1 4598   1.067   5.344   5.026
 1233SOL    HW2 4599   0.948   5.257   4.957
 1234SOL     OW 4600   5.713   3.154   5.685
 1234SOL    HW1 4601   5.623   3.170   5.645
 1234SOL    HW2 4602   5.705   3.086   5.758
 1235SOL     OW 4603   6.107   5.039   1.960
 1235SOL    HW1 4604   6.203   5.065   1.968
 1235SOL    HW2 4605   6.065   5.033   2.050
 1236SOL     OW 4606   4.286   0.893   0.841
 1236SOL    HW1 4607   4.330   0.839   0.913
 1236SOL    HW2 4608   4.319   0.863   0.751
 1237SOL     OW 4609   1.829   4.703   5.682
 1237SOL    HW1 4610   1.865   4.612   5.659
 1237SOL    HW2 4611   1.731   4.695   5.702
 1238SOL     OW 4612   1.605   0.696   6.217
 1238SOL    HW1 4613   1.550   0.749   6.153
 1238SOL    HW2 4614   1.687   0.747   6.241
 1239SOL     OW 4615   0.352   0.140   6.955
 1239SOL    HW1 4616   0.301   0.055   6.940
 1239SOL    HW2 4617   0.315   0.211   6.895
 1240SOL     OW 4618   5.853   6.138   0.918
 1240SOL    HW1 4619   5.875   6.235   0.921
 1240SOL    HW2 4620   5.886   6.100   0.832
 1241SOL     OW 4621   5.892   3.994   5.326
 1241SOL    HW1 4622   5.962   4.007   5.255
 1241SOL    HW2 4623   5.934   4.008   5.416
 1242SOL     OW 4624   1.994   3.439   1.174
 1242SOL    HW1 4625   1.929   3.506   1.212
 1242SOL    HW2 4626   2.070   3.428   1.238
 1243SOL     OW 4627   1.191   0.338   5.237
 1243SOL    HW1 4628   1.261   0.372   5.300
 1243SOL    HW2 4629   1.185   0.398   5.158
 1244SOL     OW 4630   5.383   6.482   4.181
 1244SOL    HW1 4631   5.476   6.517   4.176
 1244SOL    HW2 4632   5.372   6.427   4.263
 1245SOL     OW 4633   5.516   4.296   0.454
 1245SOL    HW1 4634   5.418   4.305   0.471
 1245SOL    HW2 4635   5.561   4.256   0.533
 1246SOL     OW 4636   3.317   1.281   1.257
 1246SOL    HW1 4637   3.301   1.244   1.165
 1246SOL    HW2 4638   3.379   1.220   1.307
 1247SOL     OW 4639   0.259   6.684   5.675
 1247SOL    HW1 4640   0.254   6.764   5.616
 1247SOL    HW2 4641   0.330   6.622   5.641
 1248SOL     OW 4642   2.217   6.660   4.229
 1248SOL    HW1 4643   2.259   6.579   4.271
 1248SOL    HW2 4644   2.270   6.687   4.149
 1249SOL     OW 4645   6.813   2.264   2.023
 1249SOL    HW1 4646   6.830   2.358   2.054
 1249SOL    HW2 4647   6.805   2.204   2.102
 1250SOL     OW 4648   5.399   5.428   3.257
 1250SOL    HW1 4649   5.341   5.497   3.300
 1250SOL    HW2 4650   5.484   5.471   3.228
 1251SOL     OW 4651   2.717   1.403   3.357
 1251SOL    HW1 4652   2.654   1.480   3.364
 1251SOL    HW2 4653   2.751   1.396   3.263
 1252SOL     OW 4654   4.275   4.348   6.858
 1252SOL    HW1 4655   4.201   4.354   6.790
 1252SOL    HW2 4656   4.350   4.409   6.831
 1253SOL     OW 4657   3.179   6.444   1.960
 1253SOL    HW1 4658   3.210   6.539   1.952
 1253SOL    HW2 4659   3.128   6.418   1.878
 1254SOL     OW 4660   0.696   2.869   3.639
 1254SOL    HW1 4661   0.759   2.867   3.561
 1254SOL    HW2 4662   0.747   2.889   3.723
 1255SOL     OW 4663   5.803   1.470   5.835
 1255SOL    HW1 4664   5.780   1.415   5.756
 1255SOL    HW2 4665   5.881   1.529   5.814
 1256SOL     OW 4666   6.808   0.402   3.402
 1256SOL    HW1 4667   6.832   0.374   3.309
 1256SOL    HW2 4668   6.726   0.459   3.400
 1257SOL     OW 4669   0.147   4.905   4.523
 1257SOL    HW1 4670   0.242   4.914   4.493
 1257SOL    HW2 4671   0.090   4.968   4.471
 1258SOL     OW 4672   1.567   5.129   2.961
 1258SOL    HW1 4673   1.472   5.104   2.946
 1258SOL    HW2 4674   1.593   5.202   2.896
 1259SOL     OW 4675   3.247   0.567   4.302
 1259SOL    HW1 4676   3.238   0.471   4.327
 1259SOL    HW2 4677   3.324   0.607   4.351
 1260SOL     OW 4678   3.050   1.974   6.650
 1260SOL    HW1 4679   3.101   2.058   6.629
 1260SOL    HW2 4680   3.028   1.972   6.748
 1261SOL     OW 4681   6.816   5.144   6.802
 1261SOL    HW1 4682   6.727   5.165   6.842
 1261SOL    HW2 4683   6.865   5.229   6.783
 1262SOL     OW 4684   5.949   4.001   1.567
 1262SOL    HW1 4685   5.901   3.916   1.589
 1262SOL    HW2 4686   5.883   4.077   1.567
 1263SOL     OW 4687   0.065   1.981   1.348
 1263SOL    HW1 4688   6.993   1.988   1.365
 1263SOL    HW2 4689   0.080   1.951   1.254
 1264SOL     OW 4690   6.668   3.714   2.053
 1264SOL    HW1 4691   6.765   3.690   2.056
 1264SOL    HW2 4692   6.654   3.783   1.983
 1265SOL     OW 4693   4.682   6.034   4.017
 1265SOL    HW1 4694   4.662   6.075   3.927
 1265SOL    HW2 4695   4.662   5.936   4.014
 1266SOL     OW 4696   0.330   1.390   4.760
 1266SOL    HW1 4697   0.338   1.454   4.836
 1266SOL    HW2 4698   0.388   1.421   4.684
 1267SOL     OW 4699   4.694   6.494   1.069
 1267SOL    HW1 4700   4.744   6.514   0.985
 1267SOL    HW2 4701   4.711   6.567   1.136
 1268SOL     OW 4702   3.458   2.815   0.517
 1268SOL    HW1 4703   3.500   2.752   0.452
 1268SOL    HW2 4704   3.470   2.909   0.486
 1269SOL     OW 4705   5.845   5.206   4.712
 1269SOL    HW1 4706   5.892   5.196   4.800
 1269SOL    HW2 4707   5.847   5.302   4.685
 1270SOL     OW 4708   1.508   3.616   3.508
 1270SOL    HW1 4709   1.448   3.555   3.559
 1270SOL    HW2 4710   1.530   3.575   3.419
 1271SOL     OW 4711   2.608   2.188   3.435
 1271SOL    HW1 4712   2.614   2.249   3.515
 1271SOL    HW2 4713   2.688   2.128   3.434
 1272SOL     OW 4714   5.321   5.433   0.304
 1272SOL    HW1 4715   5.255   5.507   0.293
 1272SOL    HW2 4716   5.381   5.429   0.224
 1273SOL     OW 4717   0.089   3.807   0.319
 1273SOL    HW1 4718   0.154   3.749   0.269
 1273SOL    HW2 4719   0.038   3.864   0.254
 1274SOL     OW 4720   6.634   4.496   1.041
 1274SOL    HW1 4721   6.603   4.587   1.011
 1274SOL    HW2 4722   6.728   4.482   1.012
 1275SOL     OW 4723   3.780   2.106   4.967
 1275SOL    HW1 4724   3.875   2.137   4.960
 1275SOL    HW2 4725   3.738   2.107   4.877
 1276SOL     OW 4726   0.056   5.628   4.835
 1276SOL    HW1 4727   0.094   5.550   4.785
 1276SOL    HW2 4728   6.987   5.639   4.813
 1277SOL     OW 4729   1.466   5.843   6.136
 1277SOL    HW1 4730   1.527   5.766   6.155
 1277SOL    HW2 4731   1.376   5.825   6.176
 1278SOL     OW 4732   0.744   6.873   4.863
 1278SOL    HW1 4733   0.665   6.889   4.805
 1278SOL    HW2 4734   0.724   6.797   4.925
 1279SOL     OW 4735   2.679   6.083   0.820
 1279SOL    HW1 4736   2.629   6.012   0.869
 1279SOL    HW2 4737   2.698   6.159   0.883
 1280SOL     OW 4738   3.286   6.400   5.175
 1280SOL    HW1 4739   3.221   6.329   5.147
 1280SOL    HW2 4740   3.372   6.387   5.126
 1281SOL     OW 4741   1.939   6.547   3.465
 1281SOL    HW1 4742   2.001   6.598   3.406
 1281SOL    HW2 4743   1.929   6.595   3.552
 1282SOL     OW 4744   0.527   2.133   6.913
 1282SOL    HW1 4745   0.622   2.163   6.907
 1282SOL    HW2 4746   0.467   2.214   6.916
 1283SOL     OW 4747   0.869   3.199   5.675
 1283SOL    HW1 4748   0.891   3.296   5.669
 1283SOL    HW2 4749   0.784   3.186   5.725
 1284SOL     OW 4750   4.688   2.165   1.159
 1284SOL    HW1 4751   4.732   2.250   1.131
 1284SOL    HW2 4752   4.752   2.089   1.149
 1285SOL     OW 4753   4.429   2.102   6.480
 1285SOL    HW1 4754   4.513   2.074   6.527
 1285SOL    HW2 4755   4.451   2.134   6.388
 1286SOL     OW 4756   4.771   3.775   1.645
 1286SOL    HW1 4757   4.690   3.782   1.703
 1286SOL    HW2 4758   4.770   3.850   1.578
 1287SOL     OW 4759   5.743   5.783   5.413
 1287SOL    HW1 4760   5.726   5.755   5.318
 1287SOL    HW2 4761   5.678   5.854   5.439
 1288SOL     OW 4762   4.454   2.907   6.180
 1288SOL    HW1 4763   4.478   3.004   6.182
 1288SOL    HW2 4764   4.383   2.888   6.247
 1289SOL     OW 4765   0.625   6.178   1.598
 1289SOL    HW1 4766   0.598   6.204   1.505
 1289SOL    HW2 4767   0.719   6.208   1.615
 1290SOL     OW 4768   0.523   5.784   6.711
 1290SOL    HW1 4769   0.429   5.749   6.713
 1290SOL    HW2 4770   0.534   5.844   6.632
 1291SOL     OW 4771   0.168   3.788   4.913
 1291SOL    HW1 4772   0.212   3.700   4.934
 1291SOL    HW2 4773   0.074   3.787   4.944
 1292SOL     OW 4774   0.044   5.767   2.192
 1292SOL    HW1 4775   0.039   5.802   2.098
 1292SOL    HW2 4776   7.016   5.825   2.252
 1293SOL     OW 4777   0.887   1.935   0.264
 1293SOL    HW1 4778   0.797   1.940   0.306
 1293SOL    HW2 4779   0.880   1.893   0.173
 1294SOL     OW 4780   0.816   2.966   6.363
 1294SOL    HW1 4781   0.837   3.023   6.283
 1294SOL    HW2 4782   0.848   3.012   6.446
 1295SOL     OW 4783   6.888   3.567   2.076
 1295SOL    HW1 4784   6.831   3.491   2.106
 1295SOL    HW2 4785   6.956   3.535   2.011
 1296SOL     OW 4786   3.869   6.843   5.881
 1296SOL    HW1 4787   3.807   6.816   5.807
 1296SOL    HW2 4788   3.820   6.903   5.945
 1297SOL     OW 4789   6.751   0.767   1.549
 1297SOL    HW1 4790   6.813   0.831   1.504
 1297SOL    HW2 4791   6.761   0.775   1.648
 1298SOL     OW 4792   5.346   5.075   2.674
 1298SOL    HW1 4793   5.430   5.022   2.690
 1298SOL    HW2 4794   5.270   5.031   2.723
 1299SOL     OW 4795   1.452   3.850   3.151
 1299SOL    HW1 4796   1.454   3.944   3.185
 1299SOL    HW2 4797   1.499   3.845   3.063
 1300SOL     OW 4798   2.961   3.184   1.171
 1300SOL    HW1 4799   2.878   3.154   1.217
 1300SOL    HW2 4800   2.952   3.280   1.144
 1301SOL     OW 4801   0.625   6.358   1.341
 1301SOL    HW1 4802   0.577   6.445   1.332
 1301SOL    HW2 4803   0.600   6.297   1.266
 1302SOL     OW 4804   4.996   0.077   5.835
 1302SOL    HW1 4805   4.900   0.048   5.843
 1302SOL    HW2 4806   4.999   0.174   5.810
 1303SOL     OW 4807   4.520   2.249   1.391
 1303SOL    HW1 4808   4.613   2.232   1.358
 1303SOL    HW2 4809   4.454   2.226   1.320
 1304SOL     OW 4810   1.942   1.092   6.623
 1304SOL    HW1 4811   2.000   1.146   6.561
 1304SOL    HW2 4812   1.846   1.100   6.595
 1305SOL     OW 4813   5.167   3.449   0.612
 1305SOL    HW1 4814   5.102   3.435   0.537
 1305SOL    HW2 4815   5.257   3.418   0.584
 1306SOL     OW 4816   0.627   5.070   3.388
 1306SOL    HW1 4817   0.675   4.990   3.352
 1306SOL    HW2 4818   0.676   5.153   3.361
 1307SOL     OW 4819   0.914   4.640   3.836
 1307SOL    HW1 4820   0.996   4.697   3.835
 1307SOL    HW2 4821   0.843   4.683   3.891
 1308SOL     OW 4822   6.189   6.489   5.091
 1308SOL    HW1 4823   6.169   6.434   5.173
 1308SOL    HW2 4824   6.105   6.497   5.036
 1309SOL     OW 4825   5.765   3.764   5.212
 1309SOL    HW1 4826   5.728   3.765   5.119
 1309SOL    HW2 4827   5.795   3.856   5.237
 1310SOL     OW 4828   6.636   4.133   3.976
 1310SOL    HW1 4829   6.638   4.199   4.051
 1310SOL    HW2 4830   6.670   4.045   4.008
 1311SOL     OW 4831   0.772   6.243   4.557
 1311SOL    HW1 4832   0.764   6.274   4.463
 1311SOL    HW2 4833   0.747   6.317   4.619
 1312SOL     OW 4834   1.187   6.807   0.028
 1312SOL    HW1 4835   1.158   6.902   0.013
 1312SOL    HW2 4836   1.287   6.803   0.033
 1313SOL     OW 4837   0.417   4.344   3.337
 1313SOL    HW1 4838   0.403   4.304   3.246
 1313SOL    HW2 4839   0.511   4.330   3.366
 1314SOL     OW 4840   4.172   1.337   5.430
 1314SOL    HW1 4841   4.271   1.323   5.426
 1314SOL    HW2 4842   4.151   1.409   5.496
 1315SOL     OW 4843   0.220   1.381   1.661
 1315SOL    HW1 4844   0.121   1.389   1.660
 1315SOL    HW2 4845   0.261   1.473   1.661
 1316SOL     OW 4846   1.580   5.742   5.000
 1316SOL    HW1 4847   1.573   5.806   5.077
 1316SOL    HW2 4848   1.517   5.666   5.013
 1317SOL     OW 4849   2.640   4.812   6.633
 1317SOL    HW1 4850   2.641   4.718   6.599
 1317SOL    HW2 4851   2.709   4.865   6.584
 1318SOL     OW 4852   0.769   1.813   1.277
 1318SOL    HW1 4853   0.828   1.888   1.245
 1318SOL    HW2 4854   0.783   1.733   1.219
 1319SOL     OW 4855   6.702   0.132   0.504
 1319SOL    HW1 4856   6.695   0.053   0.443
 1319SOL    HW2 4857   6.750   0.206   0.458
 1320SOL     OW 4858   4.738   4.266   0.867
 1320SOL    HW1 4859   4.691   4.200   0.808
 1320SOL    HW2 4860   4.817   4.304   0.819
 1321SOL     OW 4861   5.607   1.354   6.674
 1321SOL    HW1 4862   5.668   1.370   6.752
 1321SOL    HW2 4863   5.562   1.265   6.685
 1322SOL     OW 4864   4.065   0.776   3.367
 1322SOL    HW1 4865   4.146   0.720   3.354
 1322SOL    HW2 4866   4.007   0.734   3.437
 1323SOL     OW 4867   4.570   0.606   5.521
 1323SOL    HW1 4868   4.515   0.588   5.602
 1323SOL    HW2 4869   4.513   0.650   5.452
 1324SOL     OW 4870   0.978   3.516   0.548
 1324SOL    HW1 4871   0.898   3.464   0.581
 1324SOL    HW2 4872   0.982   3.603   0.597
 1325SOL     OW 4873   2.131   0.529   2.825
 1325SOL    HW1 4874   2.036   0.504   2.809
 1325SOL    HW2 4875   2.178   0.456   2.874
 1326SOL     OW 4876   5.004   3.454   4.871
 1326SOL    HW1 4877   5.015   3.522   4.797
 1326SOL    HW2 4878   4.936   3.486   4.936
 1327SOL     OW 4879   0.633   5.818   2.063
 1327SOL    HW1 4880   0.645   5.846   2.158
 1327SOL    HW2 4881   0.589   5.728   2.060
 1328SOL     OW 4882   1.255   2.966   0.686
 1328SOL    HW1 4883   1.347   2.996   0.660
 1328SOL    HW2 4884   1.202   2.943   0.604
 1329SOL     OW 4885   0.179   2.346   1.690
 1329SOL    HW1 4886   0.119   2.288   1.745
 1329SOL    HW2 4887   0.180   2.314   1.595
 1330SOL     OW 4888   0.675   1.776   2.072
 1330SOL    HW1 4889   0.609   1.702   2.085
 1330SOL    HW2 4890   0.659   1.820   1.984
 1331SOL     OW 4891   5.224   2.561   2.856
 1331SOL    HW1 4892   5.206   2.598   2.947
 1331SOL    HW2 4893   5.157   2.597   2.791
 1332SOL     OW 4894   2.730   6.990   5.983
 1332SOL    HW1 4895   2.766   0.053   5.961
 1332SOL    HW2 4896   2.680   6.954   5.904
 1333SOL     OW 4897   3.747   3.782   4.283
 1333SOL    HW1 4898   3.826   3.842   4.291
 1333SOL    HW2 4899   3.667   3.825   4.326
 1334SOL     OW 4900   6.002   1.463   4.307
 1334SOL    HW1 4901   6.042   1.418   4.227
 1334SOL    HW2 4902   6.033   1.416   4.390
 1335SOL     OW 4903   2.389   2.109   3.017
 1335SOL    HW1 4904   2.387   2.134   3.114
 1335SOL    HW2 4905   2.427   2.016   3.008
 1336SOL     OW 4906   1.901   2.469   4.955
 1336SOL    HW1 4907   1.994   2.460   4.992
 1336SOL    HW2 4908   1.892   2.558   4.911
 1337SOL     OW 4909   2.035   2.433   4.679
 1337SOL    HW1 4910   1.992   2.365   4.739
 1337SOL    HW2 4911   1.966   2.499   4.650
 1338SOL     OW 4912   5.300   1.823   5.204
 1338SOL    HW1 4913   5.206   1.829   5.170
 1338SOL    HW2 4914   5.345   1.912   5.192
 1339SOL     OW 4915   6.778   1.787   6.290
 1339SOL    HW1 4916   6.742   1.743   6.372
 1339SOL    HW2 4917   6.872   1.756   6.274
 1340SOL     OW 4918   6.974   2.458   2.418
 1340SOL    HW1 4919   7.003   2.362   2.408
 1340SOL    HW2 4920   6.897   2.476   2.356
 1341SOL     OW 4921   5.272   6.513   6.073
 1341SOL    HW1 4922   5.346   6.559   6.023
 1341SOL    HW2 4923   5.252   6.564   6.156
 1342SOL     OW 4924   2.155   5.706   5.839
 1342SOL    HW1 4925   2.245   5.730   5.802
 1342SOL    HW2 4926   2.152   5.728   5.937
 1343SOL     OW 4927   4.232   5.863   3.193
 1343SOL    HW1 4928   4.146   5.830   3.231
 1343SOL    HW2 4929   4.299   5.875   3.266
 1344SOL     OW 4930   6.719   5.812   4.362
 1344SOL    HW1 4931   6.679   5.814   4.270
 1344SOL    HW2 4932   6.781   5.890   4.373
 1345SOL     OW 4933   1.648   0.854   2.746
 1345SOL    HW1 4934   1.653   0.944   2.701
 1345SOL    HW2 4935   1.627   0.784   2.678
 1346SOL     OW 4936   0.778   6.287   5.124
 1346SOL    HW1 4937   0.704   6.343   5.087
 1346SOL    HW2 4938   0.797   6.211   5.062
 1347SOL     OW 4939   6.295   6.849   4.641
 1347SOL    HW1 4940   6.284   6.763   4.592
 1347SOL    HW2 4941   6.282   6.925   4.578
 1348SOL     OW 4942   5.520   5.533   2.606
 1348SOL    HW1 4943   5.504   5.531   2.508
 1348SOL    HW2 4944   5.533   5.440   2.640
 1349SOL     OW 4945   4.685   2.441   5.898
 1349SOL    HW1 4946   4.707   2.507   5.826
 1349SOL    HW2 4947   4.642   2.360   5.857
 1350SOL     OW 4948   4.920   5.063   5.360
 1350SOL    HW1 4949   4.971   5.138   5.317
 1350SOL    HW2 4950   4.966   4.976   5.341
 1351SOL     OW 4951   5.992   1.801   3.326
 1351SOL    HW1 4952   5.975   1.779   3.422
 1351SOL    HW2 4953   5.936   1.880   3.300
 1352SOL     OW 4954   6.765   6.485   2.589
 1352SOL    HW1 4955   6.748   6.386   2.587
 1352SOL    HW2 4956   6.701   6.530   2.528
 1353SOL     OW 4957   0.428   3.137   0.419
 1353SOL    HW1 4958   0.329   3.130   0.431
 1353SOL    HW2 4959   0.474   3.135   0.508
 1354SOL     OW 4960   1.007   2.936   1.138
 1354SOL    HW1 4961   0.919   2.981   1.127
 1354SOL    HW2 4962   1.064   2.953   1.057
 1355SOL     OW 4963   6.805   2.527   5.064
 1355SOL    HW1 4964   6.886   2.530   5.005
 1355SOL    HW2 4965   6.806   2.443   5.118
 1356SOL     OW 4966   3.125   3.061   2.939
 1356SOL    HW1 4967   3.047   3.117   2.968
 1356SOL    HW2 4968   3.178   3.110   2.870
 1357SOL     OW 4969   1.210   3.102   5.603
 1357SOL    HW1 4970   1.193   3.175   5.538
 1357SOL    HW2 4971   1.308   3.083   5.608
 1358SOL     OW 4972   4.393   0.578   5.754
 1358SOL    HW1 4973   4.446   0.511   5.807
 1358SOL    HW2 4974   4.360   0.650   5.815
 1359SOL     OW 4975   5.578   4.351   1.686
 1359SOL    HW1 4976   5.487   4.330   1.724
 1359SOL    HW2 4977   5.571   4.359   1.587
 1360SOL     OW 4978   4.037   2.837   0.341
 1360SOL    HW1 4979   3.978   2.758   0.356
 1360SOL    HW2 4980   3.987   2.907   0.288
 1361SOL     OW 4981   0.109   5.270   4.998
 1361SOL    HW1 4982   0.137   5.349   5.053
 1361SOL    HW2 4983   0.024   5.232   5.035
 1362SOL     OW 4984   3.345   4.129   4.145
 1362SOL    HW1 4985   3.420   4.154   4.083
 1362SOL    HW2 4986   3.260   4.124   4.093
 1363SOL     OW 4987   6.877   5.602   3.100
 1363SOL    HW1 4988   6.873   5.618   3.002
 1363SOL    HW2 4989   6.883   5.690   3.148
 1364SOL     OW 4990   6.496   2.589   1.270
 1364SOL    HW1 4991   6.557   2.665   1.289
 1364SOL    HW2 4992   6.445   2.564   1.353
 1365SOL     OW 4993   1.137   2.840   6.383
 1365SOL    HW1 4994   1.037   2.844   6.392
 1365SOL    HW2 4995   1.162   2.821   6.289
 1366SOL     OW 4996   1.058   4.560   6.919
 1366SOL    HW1 4997   1.041   4.637   6.857
 1366SOL    HW2 4998   1.157   4.546   6.928
 1367SOL     OW 4999   2.060   6.877   2.786
 1367SOL    HW1 5000   1.992   6.826   2.840
 1367SOL    HW2 5001   2.096   6.952   2.842
 1368SOL     OW 5002   6.348   0.463   3.453
 1368SOL    HW1 5003   6.315   0.377   3.413
 1368SOL    HW2 5004   6.304   0.477   3.542
 1369SOL     OW 5005   2.457   0.169   1.408
 1369SOL    HW1 5006   2.494   0.241   1.348
 1369SOL    HW2 5007   2.373   0.202   1.451
 1370SOL     OW 5008   4.075   1.775   1.723
 1370SOL    HW1 5009   4.131   1.763   1.805
 1370SOL    HW2 5010   4.134   1.805   1.648
 1371SOL     OW 5011   6.274   1.378   4.057
 1371SOL    HW1 5012   6.175   1.373   4.067
 1371SOL    HW2 5013   6.300   1.353   3.964
 1372SOL     OW 5014   1.236   3.337   0.605
 1372SOL    HW1 5015   1.264   3.357   0.699
 1372SOL    HW2 5016   1.159   3.396   0.580
 1373SOL     OW 5017   4.834   2.373   6.733
 1373SOL    HW1 5018   4.850   2.442   6.662
 1373SOL    HW2 5019   4.739   2.380   6.765
 1374SOL     OW 5020   5.037   1.963   6.949
 1374SOL    HW1 5021   5.100   2.026   6.994
 1374SOL    HW2 5022   5.079   1.926   6.867
 1375SOL     OW 5023   0.614   4.112   6.560
 1375SOL    HW1 5024   0.644   4.200   6.596
 1375SOL    HW2 5025   0.643   4.038   6.621
 1376SOL     OW 5026   4.173   4.740   5.150
 1376SOL    HW1 5027   4.128   4.760   5.063
 1376SOL    HW2 5028   4.221   4.652   5.144
 1377SOL     OW 5029   0.670   3.570   5.635
 1377SOL    HW1 5030   0.748   3.538   5.688
 1377SOL    HW2 5031   0.587   3.527   5.669
 1378SOL     OW 5032   5.748   0.977   4.683
 1378SOL    HW1 5033   5.771   0.939   4.593
 1378SOL    HW2 5034   5.665   0.933   4.717
 1379SOL     OW 5035   3.728   6.860   3.034
 1379SOL    HW1 5036   3.661   6.793   3.002
 1379SOL    HW2 5037   3.712   6.880   3.130
 1380SOL     OW 5038   6.921   6.751   2.385
 1380SOL    HW1 5039   6.855   6.818   2.419
 1380SOL    HW2 5040   6.993   6.738   2.453
 1381SOL     OW 5041   5.820   2.471   6.748
 1381SOL    HW1 5042   5.901   2.431   6.790
 1381SOL    HW2 5043   5.784   2.409   6.678
 1382SOL     OW 5044   4.784   3.569   0.284
 1382SOL    HW1 5045   4.725   3.501   0.329
 1382SOL    HW2 5046   4.727   3.635   0.235
 1383SOL     OW 5047   0.848   0.384   1.974
 1383SOL    HW1 5048   0.931   0.400   2.027
 1383SOL    HW2 5049   0.771   0.365   2.035
 1384SOL     OW 5050   4.463   6.939   1.682
 1384SOL    HW1 5051   4.368   6.968   1.695
 1384SOL    HW2 5052   4.479   6.854   1.732
 1385SOL     OW 5053   1.808   4.037   3.726
 1385SOL    HW1 5054   1.744   4.107   3.694
 1385SOL    HW2 5055   1.874   4.017   3.653
 1386SOL     OW 5056   3.399   0.727   4.446
 1386SOL    HW1 5057   3.498   0.715   4.459
 1386SOL    HW2 5058   3.371   0.817   4.480
 1387SOL     OW 5059   3.489   5.555   2.235
 1387SOL    HW1 5060   3.465   5.459   2.251
 1387SOL    HW2 5061   3.565   5.560   2.170
 1388SOL     OW 5062   0.273   6.955   3.125
 1388SOL    HW1 5063   0.318   6.866   3.117
 1388SOL    HW2 5064   0.320   7.021   3.066
 1389SOL     OW 5065   6.867   0.828   3.681
 1389SOL    HW1 5066   6.944   0.875   3.724
 1389SOL    HW2 5067   6.900   0.752   3.625
 1390SOL     OW 5068   5.993   3.297   6.401
 1390SOL    HW1 5069   5.959   3.358   6.329
 1390SOL    HW2 5070   5.971   3.335   6.491
 1391SOL     OW 5071   6.066   0.070   5.326
 1391SOL    HW1 5072   6.113   0.136   5.384
 1391SOL    HW2 5073   6.067   7.007   5.370
 1392SOL     OW 5074   5.596   6.521   6.314
 1392SOL    HW1 5075   5.617   6.574   6.396
 1392SOL    HW2 5076   5.610   6.423   6.333
 1393SOL     OW 5077   6.914   3.673   6.068
 1393SOL    HW1 5078   7.003   3.632   6.044
 1393SOL    HW2 5079   6.848   3.651   5.997
 1394SOL     OW 5080   3.876   5.996   4.726
 1394SOL    HW1 5081   3.863   5.990   4.825
 1394SOL    HW2 5082   3.921   5.912   4.694
 1395SOL     OW 5083   1.498   4.420   3.981
 1395SOL    HW1 5084   1.443   4.452   4.058
 1395SOL    HW2 5085   1.441   4.418   3.899
 1396SOL     OW 5086   0.762   0.483   4.437
 1396SOL    HW1 5087   0.792   0.417   4.368
 1396SOL    HW2 5088   0.840   0.509   4.494
 1397SOL     OW 5089   0.614   5.850   4.656
 1397SOL    HW1 5090   0.699   5.809   4.688
 1397SOL    HW2 5091   0.575   5.794   4.583
 1398SOL     OW 5092   2.269   1.925   6.643
 1398SOL    HW1 5093   2.321   1.847   6.610
 1398SOL    HW2 5094   2.323   1.976   6.710
 1399SOL     OW 5095   3.771   6.831   0.269
 1399SOL    HW1 5096   3.779   6.745   0.320
 1399SOL    HW2 5097   3.827   6.901   0.313
 1400SOL     OW 5098   0.294   2.240   4.600
 1400SOL    HW1 5099   0.246   2.294   4.532
 1400SOL    HW2 5100   0.386   2.277   4.614
 1401SOL     OW 5101   5.959   6.997   4.402
 1401SOL    HW1 5102   5.965   0.026   4.319
 1401SOL    HW2 5103   5.866   6.961   4.411
 1402SOL     OW 5104   5.601   4.270   6.557
 1402SOL    HW1 5105   5.583   4.329   6.636
 1402SOL    HW2 5106   5.517   4.258   6.505
 1403SOL     OW 5107   1.485   2.108   1.408
 1403SOL    HW1 5108   1.565   2.156   1.442
 1403SOL    HW2 5109   1.510   2.015   1.381
 1404SOL     OW 5110   6.590   0.423   0.143
 1404SOL    HW1 5111   6.521   0.358   0.111
 1404SOL    HW2 5112   6.668   0.374   0.180
 1405SOL     OW 5113   2.611   4.227   1.080
 1405SOL    HW1 5114   2.549   4.298   1.047
 1405SOL    HW2 5115   2.576   4.137   1.054
 1406SOL     OW 5116   1.916   5.765   1.147
 1406SOL    HW1 5117   1.961   5.845   1.185
 1406SOL    HW2 5118   1.922   5.688   1.211
 1407SOL     OW 5119   1.617   4.040   3.482
 1407SOL    HW1 5120   1.547   4.103   3.449
 1407SOL    HW2 5121   1.706   4.086   3.481
 1408SOL     OW 5122   6.156   6.531   6.334
 1408SOL    HW1 5123   6.079   6.512   6.274
 1408SOL    HW2 5124   6.200   6.616   6.305
 1409SOL     OW 5125   0.863   0.264   5.114
 1409SOL    HW1 5126   0.774   0.306   5.134
 1409SOL    HW2 5127   0.906   0.235   5.200
 1410SOL     OW 5128   2.751   4.042   6.850
 1410SOL    HW1 5129   2.729   4.027   6.947
 1410SOL    HW2 5130   2.839   3.998   6.829
 1411SOL     OW 5131   3.592   6.380   0.371
 1411SOL    HW1 5132   3.608   6.296   0.319
 1411SOL    HW2 5133   3.538   6.444   0.315
 1412SOL     OW 5134   0.609   3.847   1.616
 1412SOL    HW1 5135   0.534   3.877   1.674
 1412SOL    HW2 5136   0.622   3.911   1.541
 1413SOL     OW 5137   2.333   1.400   4.588
 1413SOL    HW1 5138   2.370   1.438   4.672
 1413SOL    HW2 5139   2.401   1.408   4.515
 1414SOL     OW 5140   2.686   2.064   1.705
 1414SOL    HW1 5141   2.684   2.029   1.799
 1414SOL    HW2 5142   2.777   2.050   1.666
 1415SOL     OW 5143   3.029   1.567   4.048
 1415SOL    HW1 5144   3.034   1.600   3.954
 1415SOL    HW2 5145   3.118   1.576   4.092
 1416SOL     OW 5146   3.590   6.808   4.906
 1416SOL    HW1 5147   3.506   6.780   4.858
 1416SOL    HW2 5148   3.610   6.742   4.978
 1417SOL     OW 5149   3.215   2.795   6.618
 1417SOL    HW1 5150   3.257   2.879   6.651
 1417SOL    HW2 5151   3.272   2.717   6.643
 1418SOL     OW 5152   2.694   3.997   0.823
 1418SOL    HW1 5153   2.711   3.899   0.812
 1418SOL    HW2 5154   2.597   4.016   0.810
 1419SOL     OW 5155   2.987   5.816   3.999
 1419SOL    HW1 5156   3.031   5.746   4.056
 1419SOL    HW2 5157   2.924   5.772   3.936
 1420SOL     OW 5158   3.512   5.932   3.265
 1420SOL    HW1 5159   3.426   5.898   3.227
 1420SOL    HW2 5160   3.526   6.027   3.237
 1421SOL     OW 5161   0.657   4.193   4.014
 1421SOL    HW1 5162   0.629   4.275   3.964
 1421SOL    HW2 5163   0.669   4.216   4.111
 1422SOL     OW 5164   3.058   4.438   6.769
 1422SOL    HW1 5165   2.979   4.414   6.825
 1422SOL    HW2 5166   3.140   4.439   6.826
 1423SOL     OW 5167   3.807   0.733   4.390
 1423SOL    HW1 5168   3.795   0.717   4.488
 1423SOL    HW2 5169   3.893   0.782   4.374
 1424SOL     OW 5170   6.741   3.886   6.687
 1424SOL    HW1 5171   6.700   3.977   6.677
 1424SOL    HW2 5172   6.838   3.891   6.662
 1425SOL     OW 5173   2.118   5.574   5.171
 1425SOL    HW1 5174   2.216   5.568   5.150
 1425SOL    HW2 5175   2.107   5.615   5.262
 1426SOL     OW 5176   2.386   2.101   5.793
 1426SOL    HW1 5177   2.327   2.028   5.829
 1426SOL    HW2 5178   2.420   2.156   5.870
 1427SOL     OW 5179   6.847   6.680   3.762
 1427SOL    HW1 5180   6.915   6.747   3.731
 1427SOL    HW2 5181   6.875   6.589   3.733
 1428SOL     OW 5182   0.952   1.841   1.674
 1428SOL    HW1 5183   0.923   1.747   1.687
 1428SOL    HW2 5184   0.945   1.891   1.760
 1429SOL     OW 5185   5.932   1.666   0.414
 1429SOL    HW1 5186   5.953   1.724   0.335
 1429SOL    HW2 5187   5.921   1.723   0.495
 1430SOL     OW 5188   2.259   4.895   3.581
 1430SOL    HW1 5189   2.328   4.969   3.584
 1430SOL    HW2 5190   2.267   4.840   3.664
 1431SOL     OW 5191   2.782   2.664   6.231
 1431SOL    HW1 5192   2.873   2.689   6.198
 1431SOL    HW2 5193   2.723   2.744   6.228
 1432SOL     OW 5194   3.131   0.805   1.000
 1432SOL    HW1 5195   3.133   0.795   0.901
 1432SOL    HW2 5196   3.165   0.896   1.025
 1433SOL     OW 5197   4.082   0.144   5.114
 1433SOL    HW1 5198   4.152   0.156   5.043
 1433SOL    HW2 5199   4.063   0.047   5.126
 1434SOL     OW 5200   0.360   0.756   6.640
 1434SOL    HW1 5201   0.364   0.813   6.558
 1434SOL    HW2 5202   0.372   0.813   6.721
 1435SOL     OW 5203   6.960   0.332   2.685
 1435SOL    HW1 5204   6.909   0.349   2.769
 1435SOL    HW2 5205   7.000   0.417   2.651
 1436SOL     OW 5206   5.570   3.998   0.000
 1436SOL    HW1 5207   5.486   3.947   0.020
 1436SOL    HW2 5208   5.623   4.008   0.084
 1437SOL     OW 5209   3.199   1.616   6.067
 1437SOL    HW1 5210   3.217   1.523   6.033
 1437SOL    HW2 5211   3.255   1.681   6.016
 1438SOL     OW 5212   2.487   0.337   1.175
 1438SOL    HW1 5213   2.586   0.350   1.168
 1438SOL    HW2 5214   2.448   0.330   1.083
 1439SOL     OW 5215   0.570   5.032   0.598
 1439SOL    HW1 5216   0.477   5.001   0.579
 1439SOL    HW2 5217   0.587   5.118   0.551
 1440SOL     OW 5218   3.283   2.723   5.804
 1440SOL    HW1 5219   3.329   2.811   5.793
 1440SOL    HW2 5220   3.315   2.659   5.734
 1441SOL     OW 5221   6.097   3.731   4.282
 1441SOL    HW1 5222   6.068   3.809   4.338
 1441SOL    HW2 5223   6.187   3.700   4.313
 1442SOL     OW 5224   6.569   5.163   6.911
 1442SOL    HW1 5225   6.597   5.155   7.007
 1442SOL    HW2 5226   6.477   5.127   6.900
 1443SOL     OW 5227   1.473   2.746   4.705
 1443SOL    HW1 5228   1.441   2.824   4.759
 1443SOL    HW2 5229   1.453   2.662   4.754
 1444SOL     OW 5230   4.416   5.846   1.708
 1444SOL    HW1 5231   4.503   5.880   1.672
 1444SOL    HW2 5232   4.402   5.881   1.800
 1445SOL     OW 5233   0.050   2.823   2.359
 1445SOL    HW1 5234   0.143   2.802   2.388
 1445SOL    HW2 5235   7.012   2.766   2.409
 1446SOL     OW 5236   5.154   1.896   6.453
 1446SOL    HW1 5237   5.124   1.988   6.427
 1446SOL    HW2 5238   5.082   1.830   6.432
 1447SOL     OW 5239   6.105   6.845   5.401
 1447SOL    HW1 5240   6.202   6.855   5.424
 1447SOL    HW2 5241   6.096   6.783   5.323
 1448SOL     OW 5242   6.337   2.566   0.114
 1448SOL    HW1 5243   6.323   2.498   0.043
 1448SOL    HW2 5244   6.366   2.652   0.072
 1449SOL     OW 5245   6.353   0.937   0.103
 1449SOL    HW1 5246   6.356   0.952   0.202
 1449SOL    HW2 5247   6.445   0.915   0.071
 1450SOL     OW 5248   1.060   2.444   2.033
 1450SOL    HW1 5249   1.097   2.393   1.956
 1450SOL    HW2 5250   1.018   2.529   2.000
 1451SOL     OW 5251   3.004   1.122   2.571
 1451SOL    HW1 5252   3.027   1.218   2.585
 1451SOL    HW2 5253   3.070   1.081   2.508
 1452SOL     OW 5254   4.198   1.108   3.925
 1452SOL    HW1 5255   4.154   1.191   3.890
 1452SOL    HW2 5256   4.285   1.094   3.879
 1453SOL     OW 5257   0.248   3.392   5.512
 1453SOL    HW1 5258   0.292   3.445   5.585
 1453SOL    HW2 5259   0.165   3.438   5.482
 1454SOL     OW 5260   6.043   2.293   3.037
 1454SOL    HW1 5261   6.085   2.345   3.111
 1454SOL    HW2 5262   6.008   2.357   2.968
 1455SOL     OW 5263   1.305   0.725   1.195
 1455SOL    HW1 5264   1.279   0.760   1.286
 1455SOL    HW2 5265   1.233   0.749   1.129
 1456SOL     OW 5266   6.479   0.109   5.564
 1456SOL    HW1 5267   6.525   0.037   5.512
 1456SOL    HW2 5268   6.429   0.067   5.641
 1457SOL     OW 5269   1.404   0.087   1.244
 1457SOL    HW1 5270   1.360   0.106   1.156
 1457SOL    HW2 5271   1.499   0.060   1.228
 1458SOL     OW 5272   6.304   6.733   3.479
 1458SOL    HW1 5273   6.282   6.638   3.502
 1458SOL    HW2 5274   6.225   6.776   3.436
 1459SOL     OW 5275   2.111   5.098   5.737
 1459SOL    HW1 5276   2.169   5.021   5.763
 1459SOL    HW2 5277   2.134   5.177   5.793
 1460SOL     OW 5278   0.215   5.077   5.772
 1460SOL    HW1 5279   0.249   5.011   5.706
 1460SOL    HW2 5280   0.291   5.133   5.806
 1461SOL     OW 5281   0.515   5.258   3.551
 1461SOL    HW1 5282   0.516   5.182   3.486
 1461SOL    HW2 5283   0.513   5.345   3.501
 1462SOL     OW 5284   0.891   0.712   5.993
 1462SOL    HW1 5285   0.793   0.733   5.984
 1462SOL    HW2 5286   0.909   0.621   5.954
 1463SOL     OW 5287   0.551   5.329   6.886
 1463SOL    HW1 5288   0.614   5.253   6.874
 1463SOL    HW2 5289   0.467   5.312   6.834
 1464SOL     OW 5290   5.856   6.853   1.172
 1464SOL    HW1 5291   5.913   6.825   1.249
 1464SOL    HW2 5292   5.887   6.941   1.138
 1465SOL     OW 5293   1.713   1.560   3.839
 1465SOL    HW1 5294   1.695   1.573   3.936
 1465SOL    HW2 5295   1.679   1.640   3.788
 1466SOL     OW 5296   0.984   0.969   2.245
 1466SOL    HW1 5297   1.050   0.918   2.190
 1466SOL    HW2 5298   0.943   0.909   2.313
 1467SOL     OW 5299   1.989   1.978   2.190
 1467SOL    HW1 5300   1.964   1.888   2.156
 1467SOL    HW2 5301   2.088   1.981   2.206
 1468SOL     OW 5302   5.382   5.263   2.909
 1468SOL    HW1 5303   5.394   5.217   2.821
 1468SOL    HW2 5304   5.459   5.326   2.924
 1469SOL     OW 5305   0.995   1.371   1.946
 1469SOL    HW1 5306   0.896   1.359   1.954
 1469SOL    HW2 5307   1.018   1.384   1.850
 1470SOL     OW 5308   1.670   1.132   3.050
 1470SOL    HW1 5309   1.629   1.200   3.111
 1470SOL    HW2 5310   1.604   1.059   3.034
 1471SOL     OW 5311   0.951   0.238   0.859
 1471SOL    HW1 5312   0.901   0.152   0.853
 1471SOL    HW2 5313   0.907   0.306   0.800
 1472SOL     OW 5314   4.014   5.930   5.210
 1472SOL    HW1 5315   3.915   5.931   5.214
 1472SOL    HW2 5316   4.045   5.977   5.128
 1473SOL     OW 5317   5.801   5.981   3.345
 1473SOL    HW1 5318   5.841   6.005   3.433
 1473SOL    HW2 5319   5.875   5.970   3.278
 1474SOL     OW 5320   6.080   5.681   3.117
 1474SOL    HW1 5321   6.127   5.606   3.072
 1474SOL    HW2 5322   6.038   5.741   3.049
 1475SOL     OW 5323   6.637   0.339   1.673
 1475SOL    HW1 5324   6.715   0.326   1.735
 1475SOL    HW2 5325   6.580   0.258   1.673
 1476SOL     OW 5326   2.425   1.587   1.272
 1476SOL    HW1 5327   2.349   1.551   1.216
 1476SOL    HW2 5328   2.450   1.519   1.341
 1477SOL     OW 5329   3.207   0.521   6.833
 1477SOL    HW1 5330   3.195   0.422   6.837
 1477SOL    HW2 5331   3.141   0.560   6.768
 1478SOL     OW 5332   5.412   4.864   0.287
 1478SOL    HW1 5333   5.404   4.765   0.282
 1478SOL    HW2 5334   5.503   4.889   0.318
 1479SOL     OW 5335   1.641   3.394   6.895
 1479SOL    HW1 5336   1.618   3.307   6.853
 1479SOL    HW2 5337   1.725   3.429   6.853
 1480SOL     OW 5338   3.056   0.109   6.248
 1480SOL    HW1 5339   3.045   0.081   6.153
 1480SOL    HW2 5340   3.142   0.158   6.259
 1481SOL     OW 5341   0.274   2.362   5.345
 1481SOL    HW1 5342   0.301   2.458   5.336
 1481SOL    HW2 5343   0.274   2.337   5.442
 1482SOL     OW 5344   5.135   2.645   0.878
 1482SOL    HW1 5345   5.127   2.556   0.835
 1482SOL    HW2 5346   5.231   2.666   0.897
 1483SOL     OW 5347   5.977   1.835   6.111
 1483SOL    HW1 5348   6.033   1.859   6.032
 1483SOL    HW2 5349   5.894   1.892   6.110
 1484SOL     OW 5350   5.714   5.215   3.825
 1484SOL    HW1 5351   5.633   5.169   3.788
 1484SOL    HW2 5352   5.787   5.148   3.836
 1485SOL     OW 5353   3.384   1.746   3.274
 1485SOL    HW1 5354   3.285   1.747   3.278
 1485SOL    HW2 5355   3.419   1.668   3.326
 1486SOL     OW 5356   5.013   2.414   3.149
 1486SOL    HW1 5357   4.994   2.467   3.066
 1486SOL    HW2 5358   5.086   2.348   3.130
 1487SOL     OW 5359   6.652   3.010   6.876
 1487SOL    HW1 5360   6.725   3.065   6.918
 1487SOL    HW2 5361   6.692   2.950   6.806
 1488SOL     OW 5362   5.791   2.008   3.975
 1488SOL    HW1 5363   5.729   2.020   4.053
 1488SOL    HW2 5364   5.796   1.911   3.952
 1489SOL     OW 5365   4.281   5.118   3.630
 1489SOL    HW1 5366   4.207   5.127   3.697
 1489SOL    HW2 5367   4.310   5.023   3.625
 1490SOL     OW 5368   1.207   2.959   0.953
 1490SOL    HW1 5369   1.264   2.881   0.979
 1490SOL    HW2 5370   1.196   2.961   0.854
 1491SOL     OW 5371   6.209   4.067   3.732
 1491SOL    HW1 5372   6.164   4.066   3.821
 1491SOL    HW2 5373   6.304   4.098   3.742
 1492SOL     OW 5374   5.756   1.814   2.693
 1492SOL    HW1 5375   5.821   1.781   2.624
 1492SOL    HW2 5376   5.797   1.891   2.743
 1493SOL     OW 5377   4.755   6.963   3.638
 1493SOL    HW1 5378   4.686   6.903   3.598
 1493SOL    HW2 5379   4.728   0.031   3.624
 1494SOL     OW 5380   5.988   1.820   5.397
 1494SOL    HW1 5381   5.943   1.768   5.470
 1494SOL    HW2 5382   5.960   1.915   5.401
 1495SOL     OW 5383   6.603   2.625   4.899
 1495SOL    HW1 5384   6.663   2.590   4.971
 1495SOL    HW2 5385   6.612   2.724   4.893
 1496SOL     OW 5386   0.579   1.598   2.558
 1496SOL    HW1 5387   0.518   1.520   2.576
 1496SOL    HW2 5388   0.619   1.588   2.467
 1497SOL     OW 5389   6.751   2.965   3.701
 1497SOL    HW1 5390   6.838   2.954   3.654
 1497SOL    HW2 5391   6.746   2.901   3.778
 1498SOL     OW 5392   2.153   4.665   6.605
 1498SOL    HW1 5393   2.090   4.592   6.632
 1498SOL    HW2 5394   2.162   4.665   6.505
 1499SOL     OW 5395   1.023   3.453   6.315
 1499SOL    HW1 5396   1.118   3.430   6.334
 1499SOL    HW2 5397   1.017   3.545   6.276
 1500SOL     OW 5398   6.870   6.391   6.902
 1500SOL    HW1 5399   6.934   6.418   6.973
 1500SOL    HW2 5400   6.910   6.317   6.848
 1501SOL     OW 5401   5.380   1.785   6.026
 1501SOL    HW1 5402   5.365   1.693   5.991
 1501SOL    HW2 5403   5.292   1.826   6.051
 1502SOL     OW 5404   5.891   0.495   0.867
 1502SOL    HW1 5405   5.973   0.550   0.884
 1502SOL    HW2 5406   5.913   0.420   0.806
 1503SOL     OW 5407   2.779   1.805   2.318
 1503SOL    HW1 5408   2.732   1.880   2.363
 1503SOL    HW2 5409   2.746   1.796   2.224
 1504SOL     OW 5410   1.055   0.651   5.001
 1504SOL    HW1 5411   1.070   0.675   5.097
 1504SOL    HW2 5412   0.957   0.642   4.984
 1505SOL     OW 5413   6.047   0.378   5.803
 1505SOL    HW1 5414   6.010   0.465   5.771
 1505SOL    HW2 5415   6.142   0.369   5.774
 1506SOL     OW 5416   1.952   5.514   1.314
 1506SOL    HW1 5417   1.926   5.510   1.410
 1506SOL    HW2 5418   2.049   5.492   1.304
 1507SOL     OW 5419   0.652   1.914   5.669
 1507SOL    HW1 5420   0.729   1.849   5.668
 1507SOL    HW2 5421   0.580   1.879   5.728
 1508SOL     OW 5422   6.718   0.498   1.901
 1508SOL    HW1 5423   6.630   0.462   1.932
 1508SOL    HW2 5424   6.781   0.422   1.884
 1509SOL     OW 5425   4.659   2.315   6.150
 1509SOL    HW1 5426   4.662   2.370   6.067
 1509SOL    HW2 5427   4.745   2.326   6.201
 1510SOL     OW 5428   5.892   2.955   4.830
 1510SOL    HW1 5429   5.890   3.028   4.761
 1510SOL    HW2 5430   5.877   2.867   4.786
 1511SOL     OW 5431   3.331   2.974   1.595
 1511SOL    HW1 5432   3.255   2.920   1.559
 1511SOL    HW2 5433   3.397   2.913   1.639
 1512SOL     OW 5434   0.294   5.657   1.538
 1512SOL    HW1 5435   0.368   5.675   1.473
 1512SOL    HW2 5436   0.214   5.622   1.489
 1513SOL     OW 5437   3.291   0.926   3.746
 1513SOL    HW1 5438   3.383   0.963   3.753
 1513SOL    HW2 5439   3.278   0.888   3.654
 1514SOL     OW 5440   5.133   2.450   5.732
 1514SOL    HW1 5441   5.212   2.448   5.794
 1514SOL    HW2 5442   5.102   2.356   5.715
 1515SOL     OW 5443   5.798   3.130   5.054
 1515SOL    HW1 5444   5.815   3.058   4.988
 1515SOL    HW2 5445   5.783   3.090   5.144
 1516SOL     OW 5446   0.186   6.990   0.791
 1516SOL    HW1 5447   0.167   6.893   0.801
 1516SOL    HW2 5448   0.143   7.024   0.707
 1517SOL     OW 5449   3.949   6.078   3.318
 1517SOL    HW1 5450   3.980   6.167   3.351
 1517SOL    HW2 5451   3.890   6.036   3.388
 1518SOL     OW 5452   0.587   2.933   0.557
 1518SOL    HW1 5453   0.550   2.870   0.625
 1518SOL    HW2 5454   0.584   2.890   0.467
 1519SOL     OW 5455   6.291   5.234   2.246
 1519SOL    HW1 5456   6.316   5.253   2.341
 1519SOL    HW2 5457   6.202   5.188   2.244
 1520SOL     OW 5458   0.378   3.866   2.490
 1520SOL    HW1 5459   0.396   3.768   2.503
 1520SOL    HW2 5460   0.280   3.881   2.484
 1521SOL     OW 5461   2.344   4.110   0.381
 1521SOL    HW1 5462   2.397   4.107   0.296
 1521SOL    HW2 5463   2.293   4.024   0.391
 1522SOL     OW 5464   6.334   0.127   4.796
 1522SOL    HW1 5465   6.399   0.128   4.720
 1522SOL    HW2 5466   6.301   0.033   4.809
 1523SOL     OW 5467   4.949   4.058   6.988
 1523SOL    HW1 5468   5.030   4.116   6.975
 1523SOL    HW2 5469   4.934   4.003   6.906
 1524SOL     OW 5470   1.373   2.380   1.686
 1524SOL    HW1 5471   1.307   2.442   1.728
 1524SOL    HW2 5472   1.400   2.310   1.753
 1525SOL     OW 5473   6.474   2.111   0.245
 1525SOL    HW1 5474   6.397   2.167   0.275
 1525SOL    HW2 5475   6.521   2.156   0.169
 1526SOL     OW 5476   0.920   0.225   6.678
 1526SOL    HW1 5477   0.955   0.295   6.616
 1526SOL    HW2 5478   0.920   0.259   6.771
 1527SOL     OW 5479   3.601   0.972   5.770
 1527SOL    HW1 5480   3.682   0.928   5.729
 1527SOL    HW2 5481   3.549   1.018   5.698
 1528SOL     OW 5482   5.020   5.761   2.417
 1528SOL    HW1 5483   4.948   5.715   2.469
 1528SOL    HW2 5484   5.087   5.694   2.387
 1529SOL     OW 5485   4.051   0.134   0.611
 1529SOL    HW1 5486   4.122   0.065   0.623
 1529SOL    HW2 5487   3.972   0.112   0.668
 1530SOL     OW 5488   3.305   1.354   2.970
 1530SOL    HW1 5489   3.244   1.412   2.916
 1530SOL    HW2 5490   3.253   1.309   3.042
 1531SOL     OW 5491   5.251   0.927   4.845
 1531SOL    HW1 5492   5.217   0.948   4.936
 1531SOL    HW2 5493   5.185   0.869   4.797
 1532SOL     OW 5494   2.956   3.911   5.770
 1532SOL    HW1 5495   3.024   3.978   5.742
 1532SOL    HW2 5496   2.929   3.927   5.865
 1533SOL     OW 5497   0.041   3.243   0.175
 1533SOL    HW1 5498   0.039   3.311   0.248
 1533SOL    HW2 5499   6.977   3.204   0.163
 1534SOL     OW 5500   1.807   5.122   6.311
 1534SOL    HW1 5501   1.800   5.151   6.216
 1534SOL    HW2 5502   1.894   5.153   6.349
 1535SOL     OW 5503   5.002   6.163   4.372
 1535SOL    HW1 5504   5.009   6.128   4.465
 1535SOL    HW2 5505   5.075   6.230   4.356
 1536SOL     OW 5506   4.054   4.282   5.268
 1536SOL    HW1 5507   3.972   4.256   5.217
 1536SOL    HW2 5508   4.113   4.339   5.211
 1537SOL     OW 5509   3.660   6.119   3.147
 1537SOL    HW1 5510   3.694   6.142   3.056
 1537SOL    HW2 5511   3.680   6.023   3.166
 1538SOL     OW 5512   3.465   5.462   5.912
 1538SOL    HW1 5513   3.436   5.444   5.818
 1538SOL    HW2 5514   3.386   5.485   5.968
 1539SOL     OW 5515   4.096   3.799   1.955
 1539SOL    HW1 5516   4.058   3.852   2.032
 1539SOL    HW2 5517   4.071   3.703   1.967
 1540SOL     OW 5518   1.286   6.953   5.826
 1540SOL    HW1 5519   1.247   6.861   5.820
 1540SOL    HW2 5520   1.237   7.014   5.765
 1541SOL     OW 5521   3.821   2.873   2.106
 1541SOL    HW1 5522   3.838   2.777   2.132
 1541SOL    HW2 5523   3.745   2.908   2.161
 1542SOL     OW 5524   6.682   6.452   1.690
 1542SOL    HW1 5525   6.719   6.426   1.779
 1542SOL    HW2 5526   6.740   6.415   1.618
 1543SOL     OW 5527   3.220   3.766   3.847
 1543SOL    HW1 5528   3.246   3.823   3.925
 1543SOL    HW2 5529   3.129   3.791   3.816
 1544SOL     OW 5530   3.163   3.563   2.052
 1544SOL    HW1 5531   3.221   3.495   2.097
 1544SOL    HW2 5532   3.149   3.537   1.956
 1545SOL     OW 5533   5.087   0.715   4.754
 1545SOL    HW1 5534   5.113   0.686   4.662
 1545SOL    HW2 5535   5.003   0.669   4.782
 1546SOL     OW 5536   4.841   6.691   5.974
 1546SOL    HW1 5537   4.768   6.633   5.938
 1546SOL    HW2 5538   4.886   6.644   6.050
 1547SOL     OW 5539   1.827   3.974   3.062
 1547SOL    HW1 5540   1.781   3.936   3.142
 1547SOL    HW2 5541   1.827   3.906   2.989
 1548SOL     OW 5542   4.405   3.942   6.140
 1548SOL    HW1 5543   4.323   3.999   6.128
 1548SOL    HW2 5544   4.472   3.992   6.195
 1549SOL     OW 5545   4.440   1.436   2.704
 1549SOL    HW1 5546   4.441   1.457   2.606
 1549SOL    HW2 5547   4.346   1.440   2.738
 1550SOL     OW 5548   2.827   4.993   6.457
 1550SOL    HW1 5549   2.867   4.902   6.445
 1550SOL    HW2 5550   2.888   5.048   6.514
 1551SOL     OW 5551   2.639   3.695   0.015
 1551SOL    HW1 5552   2.565   3.668   6.981
 1551SOL    HW2 5553   2.666   3.617   0.072
 1552SOL     OW 5554   0.428   0.162   1.273
 1552SOL    HW1 5555   0.409   0.123   1.182
 1552SOL    HW2 5556   0.352   0.221   1.300
 1553SOL     OW 5557   6.999   0.436   5.779
 1553SOL    HW1 5558   0.003   0.353   5.733
 1553SOL    HW2 5559   6.987   0.509   5.712
 1554SOL     OW 5560   3.868   1.902   3.579
 1554SOL    HW1 5561   3.912   1.971   3.522
 1554SOL    HW2 5562   3.821   1.835   3.521
 1555SOL     OW 5563   5.439   1.848   6.502
 1555SOL    HW1 5564   5.424   1.912   6.426
 1555SOL    HW2 5565   5.355   1.839   6.555
 1556SOL     OW 5566   3.750   1.002   0.327
 1556SOL    HW1 5567   3.756   0.927   0.393
 1556SOL    HW2 5568   3.819   0.990   0.256
 1557SOL     OW 5569   2.020   1.482   6.483
 1557SOL    HW1 5570   1.945   1.508   6.544
 1557SOL    HW2 5571   2.024   1.546   6.406
 1558SOL     OW 5572   5.214   1.291   4.280
 1558SOL    HW1 5573   5.253   1.213   4.233
 1558SOL    HW2 5574   5.137   1.262   4.336
 1559SOL     OW 5575   0.086   2.369   6.966
 1559SOL    HW1 5576   0.112   2.436   6.896
 1559SOL    HW2 5577   0.024   2.412   0.004
 1560SOL     OW 5578   3.401   1.195   6.566
 1560SOL    HW1 5579   3.387   1.111   6.620
 1560SOL    HW2 5580   3.392   1.174   6.469
 1561SOL     OW 5581   6.083   6.620   2.839
 1561SOL    HW1 5582   6.005   6.577   2.792
 1561SOL    HW2 5583   6.168   6.589   2.796
 1562SOL     OW 5584   4.293   6.264   1.589
 1562SOL    HW1 5585   4.391   6.272   1.608
 1562SOL    HW2 5586   4.277   6.275   1.491
 1563SOL     OW 5587   2.558   0.965   5.922
 1563SOL    HW1 5588   2.502   1.039   5.885
 1563SOL    HW2 5589   2.600   0.914   5.847
 1564SOL     OW 5590   1.395   2.232   2.506
 1564SOL    HW1 5591   1.314   2.175   2.498
 1564SOL    HW2 5592   1.381   2.303   2.575
 1565SOL     OW 5593   4.042   5.737   4.321
 1565SOL    HW1 5594   4.066   5.640   4.327
 1565SOL    HW2 5595   4.057   5.769   4.228
 1566SOL     OW 5596   5.928   4.719   4.636
 1566SOL    HW1 5597   5.833   4.705   4.610
 1566SOL    HW2 5598   5.976   4.631   4.634
 1567SOL     OW 5599   6.505   6.128   0.094
 1567SOL    HW1 5600   6.601   6.103   0.104
 1567SOL    HW2 5601   6.497   6.210   0.038
 1568SOL     OW 5602   1.757   6.784   1.832
 1568SOL    HW1 5603   1.853   6.780   1.862
 1568SOL    HW2 5604   1.737   6.706   1.773
 1569SOL     OW 5605   2.984   6.668   3.755
 1569SOL    HW1 5606   2.891   6.643   3.784
 1569SOL    HW2 5607   2.982   6.758   3.711
 1570SOL     OW 5608   2.320   6.610   0.358
 1570SOL    HW1 5609   2.323   6.518   0.321
 1570SOL    HW2 5610   2.412   6.640   0.382
 1571SOL     OW 5611   6.382   1.809   3.041
 1571SOL    HW1 5612   6.411   1.867   3.117
 1571SOL    HW2 5613   6.287   1.782   3.054
 1572SOL     OW 5614   1.829   6.146   0.728
 1572SOL    HW1 5615   1.862   6.212   0.796
 1572SOL    HW2 5616   1.907   6.096   0.689
 1573SOL     OW 5617   6.184   3.865   1.777
 1573SOL    HW1 5618   6.146   3.817   1.697
 1573SOL    HW2 5619   6.156   3.961   1.774
 1574SOL     OW 5620   6.375   1.762   3.910
 1574SOL    HW1 5621   6.444   1.748   3.839
 1574SOL    HW2 5622   6.408   1.725   3.997
 1575SOL     OW 5623   2.468   1.867   1.248
 1575SOL    HW1 5624   2.454   1.772   1.277
 1575SOL    HW2 5625   2.403   1.890   1.176
 1576SOL     OW 5626   1.111   0.530   3.185
 1576SOL    HW1 5627   1.050   0.465   3.231
 1576SOL    HW2 5628   1.188   0.551   3.245
 1577SOL     OW 5629   2.500   0.501   5.815
 1577SOL    HW1 5630   2.513   0.407   5.845
 1577SOL    HW2 5631   2.472   0.557   5.893
 1578SOL     OW 5632   5.365   1.847   5.668
 1578SOL    HW1 5633   5.410   1.779   5.611
 1578SOL    HW2 5634   5.307   1.801   5.736
 1579SOL     OW 5635   6.983   1.877   2.140
 1579SOL    HW1 5636   0.016   1.876   2.060
 1579SOL    HW2 5637   6.932   1.791   2.144
 1580SOL     OW 5638   3.711   4.132   4.285
 1580SOL    HW1 5639   3.698   4.172   4.194
 1580SOL    HW2 5640   3.652   4.052   4.294
 1581SOL     OW 5641   6.206   4.816   4.692
 1581SOL    HW1 5642   6.229   4.758   4.614
 1581SOL    HW2 5643   6.113   4.851   4.681
 1582SOL     OW 5644   1.567   6.403   4.713
 1582SOL    HW1 5645   1.489   6.341   4.710
 1582SOL    HW2 5646   1.633   6.378   4.642
 1583SOL     OW 5647   0.517   6.157   3.070
 1583SOL    HW1 5648   0.584   6.090   3.039
 1583SOL    HW2 5649   0.427   6.132   3.034
 1584SOL     OW 5650   0.788   5.670   5.593
 1584SOL    HW1 5651   0.822   5.604   5.660
 1584SOL    HW2 5652   0.811   5.762   5.622
 1585SOL     OW 5653   4.291   2.083   3.288
 1585SOL    HW1 5654   4.226   2.009   3.270
 1585SOL    HW2 5655   4.268   2.162   3.231
 1586SOL     OW 5656   3.229   4.940   2.056
 1586SOL    HW1 5657   3.145   4.896   2.087
 1586SOL    HW2 5658   3.265   4.891   1.976
 1587SOL     OW 5659   2.460   5.719   5.839
 1587SOL    HW1 5660   2.458   5.818   5.821
 1587SOL    HW2 5661   2.479   5.703   5.936
 1588SOL     OW 5662   4.261   0.743   2.246
 1588SOL    HW1 5663   4.181   0.719   2.191
 1588SOL    HW2 5664   4.345   0.718   2.197
 1589SOL     OW 5665   6.897   2.998   2.009
 1589SOL    HW1 5666   6.891   2.910   1.963
 1589SOL    HW2 5667   6.984   3.005   2.058
 1590SOL     OW 5668   4.251   0.347   4.422
 1590SOL    HW1 5669   4.326   0.324   4.360
 1590SOL    HW2 5670   4.164   0.325   4.378
 1591SOL     OW 5671   0.093   5.559   1.379
 1591SOL    HW1 5672   0.087   5.460   1.368
 1591SOL    HW2 5673   0.104   5.601   1.289
 1592SOL     OW 5674   2.571   3.863   6.739
 1592SOL    HW1 5675   2.640   3.923   6.779
 1592SOL    HW2 5676   2.592   3.847   6.642
 1593SOL     OW 5677   0.861   6.824   5.579
 1593SOL    HW1 5678   0.871   6.875   5.664
 1593SOL    HW2 5679   0.939   6.843   5.519
 1594SOL     OW 5680   1.210   6.477   1.485
 1594SOL    HW1 5681   1.159   6.522   1.558
 1594SOL    HW2 5682   1.246   6.390   1.518
 1595SOL     OW 5683   1.126   5.081   0.445
 1595SOL    HW1 5684   1.165   5.006   0.392
 1595SOL    HW2 5685   1.085   5.148   0.383
 1596SOL     OW 5686   0.389   2.963   3.915
 1596SOL    HW1 5687   0.314   2.984   3.853
 1596SOL    HW2 5688   0.409   3.043   3.971
 1597SOL     OW 5689   1.176   6.172   0.419
 1597SOL    HW1 5690   1.091   6.216   0.449
 1597SOL    HW2 5691   1.208   6.110   0.490
 1598SOL     OW 5692   6.925   4.580   5.713
 1598SOL    HW1 5693   6.882   4.670   5.713
 1598SOL    HW2 5694   6.943   4.551   5.807
 1599SOL     OW 5695   5.014   5.704   4.683
 1599SOL    HW1 5696   4.928   5.659   4.703
 1599SOL    HW2 5697   5.086   5.668   4.742
 1600SOL     OW 5698   3.870   1.073   3.415
 1600SOL    HW1 5699   3.780   1.046   3.448
 1600SOL    HW2 5700   3.934   0.997   3.428
 1601SOL     OW 5701   6.985   6.384   4.318
 1601SOL    HW1 5702   6.937   6.365   4.233
 1601SOL    HW2 5703   0.007   6.302   4.348
 1602SOL     OW 5704   4.057   5.068   3.790
 1602SOL    HW1 5705   4.062   5.086   3.888
 1602SOL    HW2 5706   3.966   5.032   3.768
 1603SOL     OW 5707   1.670   6.615   2.916
 1603SOL    HW1 5708   1.597   6.681   2.901
 1603SOL    HW2 5709   1.677   6.554   2.837
 1604SOL     OW 5710   5.187   4.287   1.132
 1604SOL    HW1 5711   5.208   4.364   1.191
 1604SOL    HW2 5712   5.264   4.271   1.070
 1605SOL     OW 5713   6.715   5.571   1.784
 1605SOL    HW1 5714   6.678   5.534   1.698
 1605SOL    HW2 5715   6.644   5.568   1.854
 1606SOL     OW 5716   3.540   6.824   5.534
 1606SOL    HW1 5717   3.566   6.773   5.616
 1606SOL    HW2 5718   3.606   6.805   5.461
 1607SOL     OW 5719   4.406   0.821   0.626
 1607SOL    HW1 5720   4.500   0.788   0.621
 1607SOL    HW2 5721   4.355   0.792   0.545
 1608SOL     OW 5722   0.364   1.045   3.805
 1608SOL    HW1 5723   0.320   1.088   3.884
 1608SOL    HW2 5724   0.376   1.114   3.733
 1609SOL     OW 5725   4.705   0.102   0.094
 1609SOL    HW1 5726   4.643   0.149   0.032
 1609SOL    HW2 5727   4.681   0.005   0.097
 1610SOL     OW 5728   6.063   4.749   6.900
 1610SOL    HW1 5729   6.080   4.685   6.825
 1610SOL    HW2 5730   6.006   4.825   6.867
 1611SOL     OW 5731   2.612   3.732   0.313
 1611SOL    HW1 5732   2.604   3.720   0.215
 1611SOL    HW2 5733   2.708   3.747   0.337
 1612SOL     OW 5734   2.664   0.349   0.376
 1612SOL    HW1 5735   2.721   0.268   0.367
 1612SOL    HW2 5736   2.619   0.349   0.466
 1613SOL     OW 5737   1.741   6.009   2.363
 1613SOL    HW1 5738   1.756   6.002   2.265
 1613SOL    HW2 5739   1.643   6.019   2.382
 1614SOL     OW 5740   5.417   2.022   6.299
 1614SOL    HW1 5741   5.415   2.039   6.201
 1614SOL    HW2 5742   5.390   2.105   6.349
 1615SOL     OW 5743   6.048   5.708   0.539
 1615SOL    HW1 5744   6.031   5.673   0.447
 1615SOL    HW2 5745   5.964   5.746   0.577
 1616SOL     OW 5746   3.798   0.980   5.160
 1616SOL    HW1 5747   3.773   1.006   5.253
 1616SOL    HW2 5748   3.759   1.045   5.095
 1617SOL     OW 5749   5.347   0.024   2.856
 1617SOL    HW1 5750   5.312   6.999   2.778
 1617SOL    HW2 5751   5.317   0.119   2.848
 1618SOL     OW 5752   1.367   5.838   2.723
 1618SOL    HW1 5753   1.298   5.822   2.652
 1618SOL    HW2 5754   1.340   5.917   2.778
 1619SOL     OW 5755   0.759   4.136   1.692
 1619SOL    HW1 5756   0.762   4.184   1.604
 1619SOL    HW2 5757   0.851   4.110   1.720
 1620SOL     OW 5758   2.859   4.434   1.618
 1620SOL    HW1 5759   2.853   4.335   1.632
 1620SOL    HW2 5760   2.856   4.480   1.706
 1621SOL     OW 5761   6.645   1.151   0.652
 1621SOL    HW1 5762   6.651   1.227   0.717
 1621SOL    HW2 5763   6.600   1.074   0.696
 1622SOL     OW 5764   0.386   3.509   5.192
 1622SOL    HW1 5765   0.448   3.576   5.233
 1622SOL    HW2 5766   0.379   3.429   5.251
 1623SOL     OW 5767   1.695   2.941   4.622
 1623SOL    HW1 5768   1.785   2.942   4.579
 1623SOL    HW2 5769   1.673   2.847   4.651
 1624SOL     OW 5770   3.424   1.656   5.188
 1624SOL    HW1 5771   3.449   1.705   5.105
 1624SOL    HW2 5772   3.441   1.558   5.175
 1625SOL     OW 5773   1.120   4.775   0.398
 1625SOL    HW1 5774   1.201   4.829   0.377
 1625SOL    HW2 5775   1.069   4.757   0.314
 1626SOL     OW 5776   4.125   1.225   0.496
 1626SOL    HW1 5777   4.147   1.321   0.481
 1626SOL    HW2 5778   4.028   1.216   0.522
 1627SOL     OW 5779   6.207   2.979   3.631
 1627SOL    HW1 5780   6.125   2.922   3.639
 1627SOL    HW2 5781   6.218   3.009   3.536
 1628SOL     OW 5782   4.823   4.813   0.657
 1628SOL    HW1 5783   4.863   4.792   0.746
 1628SOL    HW2 5784   4.821   4.729   0.602
 1629SOL     OW 5785   2.860   1.112   3.824
 1629SOL    HW1 5786   2.943   1.056   3.821
 1629SOL    HW2 5787   2.855   1.160   3.911
 1630SOL     OW 5788   1.090   4.890   6.222
 1630SOL    HW1 5789   1.084   4.918   6.126
 1630SOL    HW2 5790   1.186   4.885   6.249
 1631SOL     OW 5791   0.885   2.950   0.550
 1631SOL    HW1 5792   0.786   2.933   0.556
 1631SOL    HW2 5793   0.909   3.022   0.615
 1632SOL     OW 5794   5.780   2.085   1.125
 1632SOL    HW1 5795   5.836   2.090   1.042
 1632SOL    HW2 5796   5.826   2.029   1.194
 1633SOL     OW 5797   5.463   3.871   4.686
 1633SOL    HW1 5798   5.520   3.795   4.717
 1633SOL    HW2 5799   5.498   3.905   4.599
 1634SOL     OW 5800   4.147   5.424   4.159
 1634SOL    HW1 5801   4.208   5.466   4.091
 1634SOL    HW2 5802   4.054   5.420   4.122
 1635SOL     OW 5803   0.398   5.043   6.644
 1635SOL    HW1 5804   0.396   5.138   6.674
 1635SOL    HW2 5805   0.341   5.032   6.563
 1636SOL     OW 5806   3.087   4.419   0.923
 1636SOL    HW1 5807   3.043   4.444   0.837
 1636SOL    HW2 5808   3.023   4.366   0.979
 1637SOL     OW 5809   6.897   0.802   3.064
 1637SOL    HW1 5810   6.861   0.883   3.111
 1637SOL    HW2 5811   6.988   0.782   3.099
 1638SOL     OW 5812   6.992   4.517   3.298
 1638SOL    HW1 5813   0.002   4.551   3.212
 1638SOL    HW2 5814   0.027   4.448   3.336
 1639SOL     OW 5815   5.578   6.266   1.555
 1639SOL    HW1 5816   5.584   6.338   1.624
 1639SOL    HW2 5817   5.669   6.227   1.539
 1640SOL     OW 5818   5.999   0.191   6.659
 1640SOL    HW1 5819   6.059   0.268   6.639
 1640SOL    HW2 5820   5.912   0.203   6.610
 1641SOL     OW 5821   4.666   1.996   2.950
 1641SOL    HW1 5822   4.570   2.024   2.955
 1641SOL    HW2 5823   4.673   1.897   2.958
 1642SOL     OW 5824   0.095   3.333   6.912
 1642SOL    HW1 5825   0.177   3.349   6.966
 1642SOL    HW2 5826   0.044   3.418   6.903
 1643SOL     OW 5827   2.267   5.009   4.589
 1643SOL    HW1 5828   2.312   4.925   4.619
 1643SOL    HW2 5829   2.285   5.081   4.656
 1644SOL     OW 5830   5.850   4.108   6.557
 1644SOL    HW1 5831   5.758   4.144   6.545
 1644SOL    HW2 5832   5.848   4.008   6.554
 1645SOL     OW 5833   3.585   5.266   6.767
 1645SOL    HW1 5834   3.541   5.351   6.737
 1645SOL    HW2 5835   3.612   5.275   6.863
 1646SOL     OW 5836   2.874   6.728   0.289
 1646SOL    HW1 5837   2.855   6.643   0.338
 1646SOL    HW2 5838   2.972   6.737   0.274
 1647SOL     OW 5839   6.129   3.269   4.424
 1647SOL    HW1 5840   6.167   3.197   4.482
 1647SOL    HW2 5841   6.195   3.293   4.353
 1648SOL     OW 5842   5.677   5.613   0.369
 1648SOL    HW1 5843   5.725   5.577   0.290
 1648SOL    HW2 5844   5.661   5.539   0.435
 1649SOL     OW 5845   3.617   1.467   3.739
 1649SOL    HW1 5846   3.623   1.391   3.804
 1649SOL    HW2 5847   3.527   1.465   3.694
 1650SOL     OW 5848   1.137   6.036   5.401
 1650SOL    HW1 5849   1.117   6.125   5.440
 1650SOL    HW2 5850   1.236   6.020   5.405
 1651SOL     OW 5851   0.602   1.887   1.841
 1651SOL    HW1 5852   0.673   1.952   1.816
 1651SOL    HW2 5853   0.524   1.897   1.779
 1652SOL     OW 5854   0.963   3.159   2.819
 1652SOL    HW1 5855   1.047   3.186   2.867
 1652SOL    HW2 5856   0.982   3.149   2.722
 1653SOL     OW 5857   0.842   7.014   0.040
 1653SOL    HW1 5858   0.891   0.056   0.093
 1653SOL    HW2 5859   0.882   7.008   6.975
 1654SOL     OW 5860   0.072   3.479   1.929
 1654SOL    HW1 5861   0.157   3.427   1.922
 1654SOL    HW2 5862   0.063   3.541   1.851
 1655SOL     OW 5863   0.494   1.859   4.843
 1655SOL    HW1 5864   0.472   1.834   4.938
 1655SOL    HW2 5865   0.592   1.847   4.828
 1656SOL     OW 5866   2.156   4.331   2.726
 1656SOL    HW1 5867   2.086   4.278   2.677
 1656SOL    HW2 5868   2.205   4.271   2.789
 1657SOL     OW 5869   7.006   1.005   4.331
 1657SOL    HW1 5870   0.056   0.943   4.313
 1657SOL    HW2 5871   6.995   1.015   4.430
 1658SOL     OW 5872   6.685   6.966   1.446
 1658SOL    HW1 5873   6.689   7.004   1.539
 1658SOL    HW2 5874   6.655   6.871   1.450
 1659SOL     OW 5875   3.574   6.865   0.013
 1659SOL    HW1 5876   3.622   6.872   0.101
 1659SOL    HW2 5877   3.600   6.941   6.981
 1660SOL     OW 5878   1.563   5.672   2.780
 1660SOL    HW1 5879   1.487   5.730   2.750
 1660SOL    HW2 5880   1.649   5.721   2.769
 1661SOL     OW 5881   3.000   6.575   1.230
 1661SOL    HW1 5882   2.961   6.641   1.294
 1661SOL    HW2 5883   3.012   6.619   1.141
 1662SOL     OW 5884   0.573   0.659   4.398
 1662SOL    HW1 5885   0.645   0.590   4.392
 1662SOL    HW2 5886   0.509   0.648   4.322
 1663SOL     OW 5887   4.351   6.311   3.312
 1663SOL    HW1 5888   4.299   6.274   3.389
 1663SOL    HW2 5889   4.330   6.259   3.230
 1664SOL     OW 5890   2.047   6.311   4.875
 1664SOL    HW1 5891   1.997   6.242   4.822
 1664SOL    HW2 5892   1.985   6.353   4.942
 1665SOL     OW 5893   6.762   2.572   2.774
 1665SOL    HW1 5894   6.826   2.555   2.849
 1665SOL    HW2 5895   6.737   2.485   2.732
 1666SOL     OW 5896   5.634   1.791   6.183
 1666SOL    HW1 5897   5.644   1.793   6.283
 1666SOL    HW2 5898   5.537   1.790   6.160
 1667SOL     OW 5899   0.220   6.352   0.772
 1667SOL    HW1 5900   0.191   6.270   0.722
 1667SOL    HW2 5901   0.299   6.329   0.829
 1668SOL     OW 5902   4.943   6.507   3.926
 1668SOL    HW1 5903   5.026   6.544   3.883
 1668SOL    HW2 5904   4.965   6.478   4.019
 1669SOL     OW 5905   6.550   4.976   6.665
 1669SOL    HW1 5906   6.627   4.913   6.657
 1669SOL    HW2 5907   6.575   5.050   6.729
 1670SOL     OW 5908   0.500   3.628   5.949
 1670SOL    HW1 5909   0.425   3.687   5.979
 1670SOL    HW2 5910   0.587   3.669   5.974
 1671SOL     OW 5911   5.550   1.399   3.019
 1671SOL    HW1 5912   5.524   1.309   3.052
 1671SOL    HW2 5913   5.484   1.467   3.051
 1672SOL     OW 5914   1.551   2.978   0.894
 1672SOL    HW1 5915   1.555   3.054   0.829
 1672SOL    HW2 5916   1.481   2.913   0.864
 1673SOL     OW 5917   1.248   1.294   4.915
 1673SOL    HW1 5918   1.275   1.388   4.893
 1673SOL    HW2 5919   1.222   1.289   5.012
 1674SOL     OW 5920   0.746   2.921   2.220
 1674SOL    HW1 5921   0.833   2.948   2.180
 1674SOL    HW2 5922   0.759   2.904   2.318
 1675SOL     OW 5923   5.222   6.836   0.397
 1675SOL    HW1 5924   5.306   6.876   0.434
 1675SOL    HW2 5925   5.221   6.845   0.297
 1676SOL     OW 5926   2.151   2.476   1.519
 1676SOL    HW1 5927   2.228   2.441   1.572
 1676SOL    HW2 5928   2.148   2.575   1.526
 1677SOL     OW 5929   3.492   3.510   4.142
 1677SOL    HW1 5930   3.586   3.503   4.177
 1677SOL    HW2 5931   3.427   3.494   4.216
 1678SOL     OW 5932   5.834   4.408   3.464
 1678SOL    HW1 5933   5.762   4.461   3.509
 1678SOL    HW2 5934   5.817   4.310   3.478
 1679SOL     OW 5935   2.320   2.788   4.301
 1679SOL    HW1 5936   2.353   2.816   4.391
 1679SOL    HW2 5937   2.397   2.755   4.246
 1680SOL     OW 5938   0.202   2.833   5.357
 1680SOL    HW1 5939   0.156   2.882   5.282
 1680SOL    HW2 5940   0.254   2.898   5.413
 1681SOL     OW 5941   0.039   5.384   6.748
 1681SOL    HW1 5942   6.984   5.416   6.795
 1681SOL    HW2 5943   0.021   5.377   6.650
 1682SOL     OW 5944   1.739   0.347   5.364
 1682SOL    HW1 5945   1.680   0.365   5.285
 1682SOL    HW2 5946   1.704   0.268   5.415
 1683SOL     OW 5947   4.537   4.741   1.936
 1683SOL    HW1 5948   4.550   4.774   2.030
 1683SOL    HW2 5949   4.443   4.761   1.906
 1684SOL     OW 5950   1.188   6.604   2.145
 1684SOL    HW1 5951   1.174   6.505   2.159
 1684SOL    HW2 5952   1.109   6.654   2.181
 1685SOL     OW 5953   2.588   1.140   4.793
 1685SOL    HW1 5954   2.511   1.164   4.852
 1685SOL    HW2 5955   2.663   1.104   4.849
 1686SOL     OW 5956   2.303   6.081   4.347
 1686SOL    HW1 5957   2.328   5.994   4.305
 1686SOL    HW2 5958   2.374   6.149   4.328
 1687SOL     OW 5959   2.015   3.117   2.007
 1687SOL    HW1 5960   2.083   3.150   1.942
 1687SOL    HW2 5961   1.927   3.159   1.986
 1688SOL     OW 5962   2.225   2.459   4.249
 1688SOL    HW1 5963   2.128   2.481   4.262
 1688SOL    HW2 5964   2.243   2.366   4.279
 1689SOL     OW 5965   6.253   1.013   2.854
 1689SOL    HW1 5966   6.273   1.109   2.872
 1689SOL    HW2 5967   6.163   0.990   2.891
 1690SOL     OW 5968   1.433   2.975   4.393
 1690SOL    HW1 5969   1.457   3.035   4.470
 1690SOL    HW2 5970   1.402   2.887   4.428
 1691SOL     OW 5971   5.525   3.855   3.693
 1691SOL    HW1 5972   5.544   3.938   3.639
 1691SOL    HW2 5973   5.494   3.783   3.632
 1692SOL     OW 5974   5.206   6.399   1.623
 1692SOL    HW1 5975   5.239   6.492   1.607
 1692SOL    HW2 5976   5.150   6.370   1.545
 1693SOL     OW 5977   6.673   1.977   2.281
 1693SOL    HW1 5978   6.602   2.040   2.310
 1693SOL    HW2 5979   6.759   2.026   2.267
 1694SOL     OW 5980   5.706   1.314   2.820
 1694SOL    HW1 5981   5.784   1.375   2.802
 1694SOL    HW2 5982   5.644   1.357   2.885
 1695SOL     OW 5983   4.061   0.671   6.427
 1695SOL    HW1 5984   3.994   0.614   6.473
 1695SOL    HW2 5985   4.130   0.702   6.492
 1696SOL     OW 5986   4.155   5.655   0.920
 1696SOL    HW1 5987   4.159   5.747   0.957
 1696SOL    HW2 5988   4.066   5.640   0.876
 1697SOL     OW 5989   6.125   0.817   0.454
 1697SOL    HW1 5990   6.102   0.799   0.550
 1697SOL    HW2 5991   6.090   0.742   0.397
 1698SOL     OW 5992   3.379   0.258   0.155
 1698SOL    HW1 5993   3.461   0.255   0.097
 1698SOL    HW2 5994   3.313   0.323   0.116
 1699SOL     OW 5995   2.558   1.186   6.656
 1699SOL    HW1 5996   2.588   1.248   6.728
 1699SOL    HW2 5997   2.625   1.185   6.582
 1700SOL     OW 5998   6.269   3.897   3.505
 1700SOL    HW1 5999   6.234   3.956   3.578
 1700SOL    HW2 6000   6.204   3.823   3.489
 1701SOL     OW 6001   5.157   4.396   5.539
 1701SOL    HW1 6002   5.123   4.386   5.633
 1701SOL    HW2 6003   5.234   4.460   5.538
 1702SOL     OW 6004   6.176   1.274   0.490
 1702SOL    HW1 6005   6.235   1.354   0.491
 1702SOL    HW2 6006   6.099   1.289   0.553
 1703SOL     OW 6007   3.523   2.499   0.743
 1703SOL    HW1 6008   3.569   2.585   0.720
 1703SOL    HW2 6009   3.512   2.493   0.842
 1704SOL     OW 6010   1.270   1.691   1.346
 1704SOL    HW1 6011   1.229   1.766   1.398
 1704SOL    HW2 6012   1.199   1.644   1.294
 1705SOL     OW 6013   2.999   2.175   2.519
 1705SOL    HW1 6014   3.063   2.195   2.445
 1705SOL    HW2 6015   2.907   2.165   2.482
 1706SOL     OW 6016   5.077   1.087   2.327
 1706SOL    HW1 6017   5.009   1.083   2.254
 1706SOL    HW2 6018   5.139   1.164   2.310
 1707SOL     OW 6019   4.986   2.270   1.676
 1707SOL    HW1 6020   5.004   2.265   1.577
 1707SOL    HW2 6021   5.050   2.335   1.717
 1708SOL     OW 6022   4.814   5.603   2.190
 1708SOL    HW1 6023   4.858   5.687   2.158
 1708SOL    HW2 6024   4.715   5.618   2.197
 1709SOL     OW 6025   2.994   6.100   2.261
 1709SOL    HW1 6026   2.974   6.102   2.163
 1709SOL    HW2 6027   3.043   6.184   2.286
 1710SOL     OW 6028   4.906   4.595   3.801
 1710SOL    HW1 6029   4.998   4.563   3.821
 1710SOL    HW2 6030   4.873   4.651   3.878
 1711SOL     OW 6031   1.587   4.503   4.464
 1711SOL    HW1 6032   1.605   4.415   4.510
 1711SOL    HW2 6033   1.537   4.486   4.380
 1712SOL     OW 6034   6.559   2.124   5.075
 1712SOL    HW1 6035   6.471   2.136   5.120
 1712SOL    HW2 6036   6.548   2.132   4.976
 1713SOL     OW 6037   4.752   2.548   2.045
 1713SOL    HW1 6038   4.763   2.637   2.001
 1713SOL    HW2 6039   4.654   2.525   2.048
 1714SOL     OW 6040   3.465   1.073   5.542
 1714SOL    HW1 6041   3.493   1.168   5.524
 1714SOL    HW2 6042   3.448   1.027   5.455
 1715SOL     OW 6043   1.351   5.499   2.940
 1715SOL    HW1 6044   1.394   5.440   3.009
 1715SOL    HW2 6045   1.422   5.544   2.886
 1716SOL     OW 6046   4.898   0.203   2.805
 1716SOL    HW1 6047   4.859   0.292   2.827
 1716SOL    HW2 6048   4.940   0.163   2.887
 1717SOL     OW 6049   2.868   6.058   5.539
 1717SOL    HW1 6050   2.861   6.023   5.632
 1717SOL    HW2 6051   2.805   6.008   5.479
 1718SOL     OW 6052   2.743   1.514   1.801
 1718SOL    HW1 6053   2.685   1.443   1.763
 1718SOL    HW2 6054   2.796   1.558   1.728
 1719SOL     OW 6055   2.090   3.137   1.309
 1719SOL    HW1 6056   2.148   3.106   1.234
 1719SOL    HW2 6057   2.002   3.090   1.304
 1720SOL     OW 6058   0.185   2.908   0.315
 1720SOL    HW1 6059   0.262   2.967   0.291
 1720SOL    HW2 6060   0.203   2.815   0.280
 1721SOL     OW 6061   2.074   0.154   1.761
 1721SOL    HW1 6062   2.135   0.165   1.839
 1721SOL    HW2 6063   2.123   0.177   1.677
 1722SOL     OW 6064   3.477   1.252   3.294
 1722SOL    HW1 6065   3.545   1.188   3.257
 1722SOL    HW2 6066   3.389   1.207   3.301
 1723SOL     OW 6067   5.721   2.292   1.634
 1723SOL    HW1 6068   5.714   2.391   1.620
 1723SOL    HW2 6069   5.697   2.245   1.549
 1724SOL     OW 6070   6.603   2.931   2.277
 1724SOL    HW1 6071   6.660   2.929   2.359
 1724SOL    HW2 6072   6.507   2.938   2.303
 1725SOL     OW 6073   2.417   4.775   6.396
 1725SOL    HW1 6074   2.500   4.722   6.407
 1725SOL    HW2 6075   2.440   4.871   6.383
 1726SOL     OW 6076   6.583   4.535   5.400
 1726SOL    HW1 6077   6.510   4.479   5.360
 1726SOL    HW2 6078   6.574   4.630   5.369
 1727SOL     OW 6079   3.405   2.885   3.420
 1727SOL    HW1 6080   3.366   2.843   3.338
 1727SOL    HW2 6081   3.333   2.933   3.470
 1728SOL     OW 6082   5.233   4.978   5.148
 1728SOL    HW1 6083   5.243   4.957   5.050
 1728SOL    HW2 6084   5.197   5.070   5.159
 1729SOL     OW 6085   2.198   4.331   3.338
 1729SOL    HW1 6086   2.256   4.323   3.419
 1729SOL    HW2 6087   2.113   4.377   3.362
 1730SOL     OW 6088   1.232   0.049   5.590
 1730SOL    HW1 6089   1.167   0.010   5.525
 1730SOL    HW2 6090   1.325   0.023   5.564
 1731SOL     OW 6091   0.210   3.912   3.452
 1731SOL    HW1 6092   0.274   3.855   3.504
 1731SOL    HW2 6093   0.259   3.957   3.377
 1732SOL     OW 6094   2.341   4.938   5.785
 1732SOL    HW1 6095   2.392   4.867   5.833
 1732SOL    HW2 6096   2.373   4.944   5.690
 1733SOL     OW 6097   1.875   4.721   1.856
 1733SOL    HW1 6098   1.811   4.753   1.925
 1733SOL    HW2 6099   1.886   4.790   1.785
 1734SOL     OW 6100   4.822   3.102   1.354
 1734SOL    HW1 6101   4.743   3.160   1.377
 1734SOL    HW2 6102   4.864   3.135   1.270
 1735SOL     OW 6103   5.123   5.243   0.248
 1735SOL    HW1 6104   5.039   5.226   0.300
 1735SOL    HW2 6105   5.190   5.288   0.307
 1736SOL     OW 6106   3.519   3.925   0.531
 1736SOL    HW1 6107   3.601   3.936   0.475
 1736SOL    HW2 6108   3.456   3.862   0.486
 1737SOL     OW 6109   4.030   1.106   4.237
 1737SOL    HW1 6110   4.013   1.088   4.141
 1737SOL    HW2 6111   4.006   1.201   4.258
 1738SOL     OW 6112   1.878   2.887   4.120
 1738SOL    HW1 6113   1.955   2.839   4.076
 1738SOL    HW2 6114   1.853   2.839   4.204
 1739SOL     OW 6115   0.058   1.536   5.411
 1739SOL    HW1 6116   6.994   1.562   5.443
 1739SOL    HW2 6117   0.067   1.437   5.412
 1740SOL     OW 6118   0.077   2.271   5.819
 1740SOL    HW1 6119   0.048   2.337   5.888
 1740SOL    HW2 6120   0.132   2.318   5.749
 1741SOL     OW 6121   2.290   0.449   3.717
 1741SOL    HW1 6122   2.289   0.535   3.767
 1741SOL    HW2 6123   2.331   0.378   3.775
 1742SOL     OW 6124   5.647   0.872   6.379
 1742SOL    HW1 6125   5.618   0.814   6.303
 1742SOL    HW2 6126   5.572   0.883   6.444
 1743SOL     OW 6127   0.859   2.252   2.179
 1743SOL    HW1 6128   0.921   2.296   2.114
 1743SOL    HW2 6129   0.785   2.315   2.201
 1744SOL     OW 6130   5.979   2.714   3.666
 1744SOL    HW1 6131   5.885   2.681   3.661
 1744SOL    HW2 6132   6.041   2.636   3.674
 1745SOL     OW 6133   5.494   5.514   2.346
 1745SOL    HW1 6134   5.588   5.536   2.320
 1745SOL    HW2 6135   5.460   5.440   2.288
 1746SOL     OW 6136   1.749   3.998   4.693
 1746SOL    HW1 6137   1.717   3.965   4.782
 1746SOL    HW2 6138   1.772   3.920   4.635
 1747SOL     OW 6139   4.534   1.291   3.203
 1747SOL    HW1 6140   4.538   1.346   3.119
 1747SOL    HW2 6141   4.624   1.253   3.222
 1748SOL     OW 6142   0.826   1.392   5.298
 1748SOL    HW1 6143   0.745   1.336   5.279
 1748SOL    HW2 6144   0.896   1.335   5.341
 1749SOL     OW 6145   2.204   6.861   4.926
 1749SOL    HW1 6146   2.143   6.883   5.002
 1749SOL    HW2 6147   2.242   6.769   4.939
 1750SOL     OW 6148   5.158   6.197   4.066
 1750SOL    HW1 6149   5.137   6.115   4.013
 1750SOL    HW2 6150   5.074   6.244   4.091
 1751SOL     OW 6151   3.730   0.295   4.346
 1751SOL    HW1 6152   3.795   0.322   4.275
 1751SOL    HW2 6153   3.658   0.364   4.354
 1752SOL     OW 6154   6.307   1.822   2.330
 1752SOL    HW1 6155   6.261   1.892   2.385
 1752SOL    HW2 6156   6.365   1.766   2.388
 1753SOL     OW 6157   6.353   0.889   1.343
 1753SOL    HW1 6158   6.314   0.956   1.280
 1753SOL    HW2 6159   6.281   0.827   1.375
 1754SOL     OW 6160   1.293   4.448   6.950
 1754SOL    HW1 6161   1.287   4.354   6.916
 1754SOL    HW2 6162   1.382   4.487   6.926
 1755SOL     OW 6163   0.100   6.196   1.247
 1755SOL    HW1 6164   0.114   6.285   1.202
 1755SOL    HW2 6165   0.173   6.181   1.314
 1756SOL     OW 6166   4.389   5.455   5.646
 1756SOL    HW1 6167   4.306   5.463   5.701
 1756SOL    HW2 6168   4.470   5.456   5.705
 1757SOL     OW 6169   2.051   5.366   4.564
 1757SOL    HW1 6170   2.079   5.281   4.521
 1757SOL    HW2 6171   1.962   5.354   4.608
 1758SOL     OW 6172   2.684   0.894   4.427
 1758SOL    HW1 6173   2.587   0.878   4.405
 1758SOL    HW2 6174   2.734   0.807   4.421
 1759SOL     OW 6175   1.859   6.455   5.032
 1759SOL    HW1 6176   1.827   6.369   5.070
 1759SOL    HW2 6177   1.781   6.511   5.004
 1760SOL     OW 6178   5.529   1.391   3.396
 1760SOL    HW1 6179   5.500   1.296   3.413
 1760SOL    HW2 6180   5.448   1.449   3.390
 1761SOL     OW 6181   0.365   0.774   1.566
 1761SOL    HW1 6182   0.329   0.743   1.654
 1761SOL    HW2 6183   0.409   0.863   1.578
 1762SOL     OW 6184   0.994   1.232   4.160
 1762SOL    HW1 6185   0.951   1.313   4.200
 1762SOL    HW2 6186   0.923   1.174   4.118
 1763SOL     OW 6187   0.947   4.246   4.188
 1763SOL    HW1 6188   0.955   4.316   4.117
 1763SOL    HW2 6189   0.860   4.258   4.237
 1764SOL     OW 6190   2.055   3.230   2.341
 1764SOL    HW1 6191   1.985   3.191   2.401
 1764SOL    HW2 6192   2.129   3.164   2.330
 1765SOL     OW 6193   3.721   1.206   1.545
 1765SOL    HW1 6194   3.763   1.199   1.635
 1765SOL    HW2 6195   3.717   1.302   1.517
 1766SOL     OW 6196   5.379   4.641   2.925
 1766SOL    HW1 6197   5.360   4.716   2.988
 1766SOL    HW2 6198   5.412   4.678   2.838
 1767SOL     OW 6199   0.883   4.053   2.517
 1767SOL    HW1 6200   0.904   4.113   2.440
 1767SOL    HW2 6201   0.930   3.965   2.504
 1768SOL     OW 6202   3.606   1.299   6.843
 1768SOL    HW1 6203   3.611   1.345   6.754
 1768SOL    HW2 6204   3.559   1.359   6.908
 1769SOL     OW 6205   4.486   1.301   6.466
 1769SOL    HW1 6206   4.557   1.329   6.532
 1769SOL    HW2 6207   4.469   1.203   6.475
 1770SOL     OW 6208   6.897   4.650   4.711
 1770SOL    HW1 6209   6.895   4.563   4.761
 1770SOL    HW2 6210   6.836   4.715   4.756
 1771SOL     OW 6211   1.880   5.370   0.903
 1771SOL    HW1 6212   1.786   5.370   0.867
 1771SOL    HW2 6213   1.944   5.362   0.827
 1772SOL     OW 6214   3.656   6.586   3.185
 1772SOL    HW1 6215   3.576   6.537   3.151
 1772SOL    HW2 6216   3.697   6.534   3.260
 1773SOL     OW 6217   2.905   3.036   6.100
 1773SOL    HW1 6218   2.892   3.131   6.072
 1773SOL    HW2 6219   2.823   2.983   6.075
 1774SOL     OW 6220   4.700   6.564   1.725
 1774SOL    HW1 6221   4.795   6.570   1.696
 1774SOL    HW2 6222   4.696   6.556   1.825
 1775SOL     OW 6223   1.879   4.644   5.296
 1775SOL    HW1 6224   1.923   4.727   5.329
 1775SOL    HW2 6225   1.887   4.573   5.366
 1776SOL     OW 6226   5.353   0.997   5.971
 1776SOL    HW1 6227   5.337   1.034   6.062
 1776SOL    HW2 6228   5.421   1.053   5.923
 1777SOL     OW 6229   3.349   6.282   5.847
 1777SOL    HW1 6230   3.437   6.284   5.799
 1777SOL    HW2 6231   3.351   6.210   5.916
 1778SOL     OW 6232   4.792   2.080   4.401
 1778SOL    HW1 6233   4.887   2.054   4.415
 1778SOL    HW2 6234   4.759   2.130   4.481
 1779SOL     OW 6235   3.941   1.277   4.731
 1779SOL    HW1 6236   3.976   1.371   4.740
 1779SOL    HW2 6237   4.005   1.214   4.773
 1780SOL     OW 6238   2.410   4.113   6.144
 1780SOL    HW1 6239   2.312   4.115   6.124
 1780SOL    HW2 6240   2.447   4.206   6.136
 1781SOL     OW 6241   5.297   5.231   3.885
 1781SOL    HW1 6242   5.212   5.210   3.934
 1781SOL    HW2 6243   5.321   5.327   3.901
 1782SOL     OW 6244   3.300   1.734   3.678
 1782SOL    HW1 6245   3.305   1.636   3.698
 1782SOL    HW2 6246   3.254   1.747   3.590
 1783SOL     OW 6247   2.587   3.362   6.133
 1783SOL    HW1 6248   2.547   3.449   6.161
 1783SOL    HW2 6249   2.555   3.339   6.041
 1784SOL     OW 6250   2.383   1.373   2.146
 1784SOL    HW1 6251   2.478   1.390   2.118
 1784SOL    HW2 6252   2.383   1.305   2.220
 1785SOL     OW 6253   5.953   6.083   3.550
 1785SOL    HW1 6254   5.948   6.179   3.521
 1785SOL    HW2 6255   6.017   6.075   3.625
 1786SOL     OW 6256   1.253   3.717   0.829
 1786SOL    HW1 6257   1.320   3.776   0.784
 1786SOL    HW2 6258   1.171   3.709   0.771
 1787SOL     OW 6259   2.749   1.561   5.228
 1787SOL    HW1 6260   2.681   1.633   5.213
 1787SOL    HW2 6261   2.839   1.595   5.201
 1788SOL     OW 6262   3.790   4.216   0.261
 1788SOL    HW1 6263   3.707   4.230   0.205
 1788SOL    HW2 6264   3.840   4.137   0.228
 1789SOL     OW 6265   5.348   2.930   2.339
 1789SOL    HW1 6266   5.269   2.946   2.280
 1789SOL    HW2 6267   5.331   2.852   2.399
 1790SOL     OW 6268   3.600   0.527   4.368
 1790SOL    HW1 6269   3.575   0.497   4.276
 1790SOL    HW2 6270   3.666   0.601   4.362
 1791SOL     OW 6271   6.577   1.004   4.505
 1791SOL    HW1 6272   6.598   0.933   4.572
 1791SOL    HW2 6273   6.537   1.083   4.552
 1792SOL     OW 6274   0.768   1.509   4.782
 1792SOL    HW1 6275   0.724   1.423   4.755
 1792SOL    HW2 6276   0.802   1.500   4.876
 1793SOL     OW 6277   6.424   0.651   3.937
 1793SOL    HW1 6278   6.454   0.603   4.019
 1793SOL    HW2 6279   6.338   0.699   3.956
 1794SOL     OW 6280   4.793   6.046   5.783
 1794SOL    HW1 6281   4.728   6.114   5.750
 1794SOL    HW2 6282   4.862   6.090   5.840
 1795SOL     OW 6283   6.509   5.443   2.096
 1795SOL    HW1 6284   6.605   5.429   2.121
 1795SOL    HW2 6285   6.455   5.365   2.128
 1796SOL     OW 6286   2.104   0.928   4.691
 1796SOL    HW1 6287   2.037   0.881   4.748
 1796SOL    HW2 6288   2.183   0.954   4.746
 1797SOL     OW 6289   1.349   6.700   5.455
 1797SOL    HW1 6290   1.443   6.683   5.482
 1797SOL    HW2 6291   1.315   6.623   5.401
 1798SOL     OW 6292   4.247   3.203   5.285
 1798SOL    HW1 6293   4.317   3.226   5.218
 1798SOL    HW2 6294   4.175   3.272   5.283
 1799SOL     OW 6295   5.783   3.071   6.510
 1799SOL    HW1 6296   5.769   3.143   6.578
 1799SOL    HW2 6297   5.699   3.060   6.456
 1800SOL     OW 6298   4.920   4.697   3.319
 1800SOL    HW1 6299   4.889   4.638   3.394
 1800SOL    HW2 6300   5.020   4.689   3.310
 1801SOL     OW 6301   1.336   1.642   3.028
 1801SOL    HW1 6302   1.243   1.669   3.054
 1801SOL    HW2 6303   1.393   1.724   3.018
 1802SOL     OW 6304   6.341   6.563   3.112
 1802SOL    HW1 6305   6.387   6.515   3.187
 1802SOL    HW2 6306   6.242   6.549   3.120
 1803SOL     OW 6307   6.640   6.904   2.216
 1803SOL    HW1 6308   6.542   6.889   2.219
 1803SOL    HW2 6309   6.676   6.908   2.309
 1804SOL     OW 6310   3.655   3.210   5.168
 1804SOL    HW1 6311   3.731   3.145   5.164
 1804SOL    HW2 6312   3.581   3.172   5.224
 1805SOL     OW 6313   1.102   4.497   6.049
 1805SOL    HW1 6314   1.026   4.501   5.984
 1805SOL    HW2 6315   1.160   4.578   6.037
 1806SOL     OW 6316   0.937   2.236   1.686
 1806SOL    HW1 6317   0.867   2.305   1.667
 1806SOL    HW2 6318   0.940   2.170   1.612
 1807SOL     OW 6319   6.257   2.185   6.262
 1807SOL    HW1 6320   6.277   2.171   6.166
 1807SOL    HW2 6321   6.272   2.281   6.286
 1808SOL     OW 6322   5.571   4.832   4.368
 1808SOL    HW1 6323   5.600   4.769   4.441
 1808SOL    HW2 6324   5.487   4.798   4.327
 1809SOL     OW 6325   2.710   2.422   5.172
 1809SOL    HW1 6326   2.768   2.375   5.106
 1809SOL    HW2 6327   2.654   2.355   5.221
 1810SOL     OW 6328   1.302   0.241   4.488
 1810SOL    HW1 6329   1.371   0.185   4.442
 1810SOL    HW2 6330   1.273   0.315   4.426
 1811SOL     OW 6331   4.921   4.519   2.718
 1811SOL    HW1 6332   4.848   4.495   2.781
 1811SOL    HW2 6333   4.999   4.459   2.733
 1812SOL     OW 6334   4.806   6.868   6.157
 1812SOL    HW1 6335   4.828   6.807   6.080
 1812SOL    HW2 6336   4.720   6.838   6.198
 1813SOL     OW 6337   4.928   5.185   1.733
 1813SOL    HW1 6338   4.961   5.094   1.708
 1813SOL    HW2 6339   4.968   5.212   1.821
 1814SOL     OW 6340   6.012   0.313   0.709
 1814SOL    HW1 6341   5.977   0.267   0.627
 1814SOL    HW2 6342   6.090   0.371   0.684
 1815SOL     OW 6343   6.268   0.587   2.877
 1815SOL    HW1 6344   6.343   0.548   2.931
 1815SOL    HW2 6345   6.222   0.515   2.827
 1816SOL     OW 6346   2.896   5.126   0.178
 1816SOL    HW1 6347   2.909   5.044   0.234
 1816SOL    HW2 6348   2.819   5.179   0.213
 1817SOL     OW 6349   4.186   0.603   3.049
 1817SOL    HW1 6350   4.220   0.610   3.142
 1817SOL    HW2 6351   4.100   0.551   3.049
 1818SOL     OW 6352   2.028   6.634   1.045
 1818SOL    HW1 6353   1.971   6.651   0.965
 1818SOL    HW2 6354   2.033   6.716   1.101
 1819SOL     OW 6355   1.376   6.538   1.801
 1819SOL    HW1 6356   1.427   6.572   1.880
 1819SOL    HW2 6357   1.316   6.610   1.767
 1820SOL     OW 6358   3.637   0.426   2.679
 1820SOL    HW1 6359   3.552   0.386   2.716
 1820SOL    HW2 6360   3.636   0.419   2.580
 1821SOL     OW 6361   2.575   1.348   1.631
 1821SOL    HW1 6362   2.482   1.362   1.666
 1821SOL    HW2 6363   2.587   1.403   1.548
 1822SOL     OW 6364   0.827   2.542   1.720
 1822SOL    HW1 6365   0.792   2.602   1.647
 1822SOL    HW2 6366   0.750   2.499   1.767
 1823SOL     OW 6367   3.299   6.068   3.103
 1823SOL    HW1 6368   3.329   6.159   3.132
 1823SOL    HW2 6369   3.207   6.051   3.137
 1824SOL     OW 6370   4.139   4.273   0.922
 1824SOL    HW1 6371   4.053   4.319   0.944
 1824SOL    HW2 6372   4.214   4.339   0.925
 1825SOL     OW 6373   0.902   2.354   4.589
 1825SOL    HW1 6374   0.912   2.261   4.625
 1825SOL    HW2 6375   0.833   2.354   4.517
 1826SOL     OW 6376   3.295   1.829   1.415
 1826SOL    HW1 6377   3.303   1.894   1.340
 1826SOL    HW2 6378   3.278   1.877   1.501
 1827SOL     OW 6379   6.359   5.256   1.099
 1827SOL    HW1 6380   6.419   5.330   1.130
 1827SOL    HW2 6381   6.264   5.286   1.104
 1828SOL     OW 6382   1.317   2.899   6.873
 1828SOL    HW1 6383   1.277   2.867   6.787
 1828SOL    HW2 6384   1.373   2.980   6.855
 1829SOL     OW 6385   4.326   0.848   3.032
 1829SOL    HW1 6386   4.264   0.907   2.981
 1829SOL    HW2 6387   4.274   0.777   3.079
 1830SOL     OW 6388   5.483   5.997   4.820
 1830SOL    HW1 6389   5.433   6.033   4.741
 1830SOL    HW2 6390   5.581   5.993   4.798
 1831SOL     OW 6391   5.787   6.301   2.289
 1831SOL    HW1 6392   5.884   6.315   2.271
 1831SOL    HW2 6393   5.753   6.374   2.348
 1832SOL     OW 6394   4.360   1.710   0.764
 1832SOL    HW1 6395   4.449   1.753   0.776
 1832SOL    HW2 6396   4.371   1.623   0.715
 1833SOL     OW 6397   5.432   0.614   1.791
 1833SOL    HW1 6398   5.343   0.652   1.765
 1833SOL    HW2 6399   5.419   0.524   1.832
 1834SOL     OW 6400   2.145   4.232   0.615
 1834SOL    HW1 6401   2.089   4.235   0.531
 1834SOL    HW2 6402   2.171   4.137   0.634
 1835SOL     OW 6403   0.143   4.496   1.642
 1835SOL    HW1 6404   0.183   4.499   1.551
 1835SOL    HW2 6405   0.216   4.494   1.710
 1836SOL     OW 6406   5.428   2.641   1.781
 1836SOL    HW1 6407   5.370   2.720   1.761
 1836SOL    HW2 6408   5.524   2.665   1.766
 1837SOL     OW 6409   1.112   6.867   5.449
 1837SOL    HW1 6410   1.202   6.833   5.478
 1837SOL    HW2 6411   1.099   6.846   5.352
 1838SOL     OW 6412   6.267   1.055   5.561
 1838SOL    HW1 6413   6.174   1.068   5.526
 1838SOL    HW2 6414   6.263   1.036   5.659
 1839SOL     OW 6415   0.490   1.407   5.333
 1839SOL    HW1 6416   0.467   1.504   5.334
 1839SOL    HW2 6417   0.464   1.368   5.244
 1840SOL     OW 6418   3.991   7.011   1.903
 1840SOL    HW1 6419   3.894   0.002   1.920
 1840SOL    HW2 6420   4.042   7.020   1.988
 1841SOL     OW 6421   2.612   0.922   3.295
 1841SOL    HW1 6422   2.520   0.928   3.256
 1841SOL    HW2 6423   2.624   0.832   3.337
 1842SOL     OW 6424   1.290   5.814   1.217
 1842SOL    HW1 6425   1.222   5.745   1.238
 1842SOL    HW2 6426   1.380   5.771   1.210
 1843SOL     OW 6427   5.779   0.595   4.648
 1843SOL    HW1 6428   5.850   0.594   4.718
 1843SOL    HW2 6429   5.696   0.638   4.684
 1844SOL     OW 6430   3.277   0.102   4.949
 1844SOL    HW1 6431   3.217   0.027   4.977
 1844SOL    HW2 6432   3.302   0.091   4.853
 1845SOL     OW 6433   2.498   6.574   4.665
 1845SOL    HW1 6434   2.436   6.650   4.647
 1845SOL    HW2 6435   2.525   6.576   4.761
 1846SOL     OW 6436   3.814   1.026   2.570
 1846SOL    HW1 6437   3.868   0.962   2.516
 1846SOL    HW2 6438   3.768   1.091   2.509
 1847SOL     OW 6439   1.685   0.103   5.777
 1847SOL    HW1 6440   1.770   0.079   5.823
 1847SOL    HW2 6441   1.642   0.180   5.824
 1848SOL     OW 6442   1.806   6.414   3.058
 1848SOL    HW1 6443   1.745   6.486   3.025
 1848SOL    HW2 6444   1.851   6.369   2.980
 1849SOL     OW 6445   4.791   2.473   1.433
 1849SOL    HW1 6446   4.824   2.539   1.501
 1849SOL    HW2 6447   4.845   2.389   1.439
 1850SOL     OW 6448   0.115   2.427   2.135
 1850SOL    HW1 6449   0.144   2.340   2.175
 1850SOL    HW2 6450   0.017   2.438   2.147
 1851SOL     OW 6451   0.735   3.496   0.161
 1851SOL    HW1 6452   0.696   3.406   0.141
 1851SOL    HW2 6453   0.821   3.486   0.210
 1852SOL     OW 6454   6.935   4.577   2.599
 1852SOL    HW1 6455   6.851   4.526   2.581
 1852SOL    HW2 6456   6.984   4.592   2.513
 1853SOL     OW 6457   6.687   2.373   3.390
 1853SOL    HW1 6458   6.667   2.397   3.485
 1853SOL    HW2 6459   6.689   2.456   3.334
 1854SOL     OW 6460   1.831   5.570   2.618
 1854SOL    HW1 6461   1.830   5.471   2.605
 1854SOL    HW2 6462   1.876   5.613   2.539
 1855SOL     OW 6463   5.888   3.639   5.577
 1855SOL    HW1 6464   5.903   3.552   5.623
 1855SOL    HW2 6465   5.876   3.622   5.479
 1856SOL     OW 6466   4.667   2.970   5.880
 1856SOL    HW1 6467   4.705   2.877   5.890
 1856SOL    HW2 6468   4.695   3.026   5.958
 1857SOL     OW 6469   4.075   2.042   0.497
 1857SOL    HW1 6470   4.024   1.990   0.429
 1857SOL    HW2 6471   4.169   2.009   0.501
 1858SOL     OW 6472   5.364   3.109   3.137
 1858SOL    HW1 6473   5.296   3.180   3.158
 1858SOL    HW2 6474   5.412   3.133   3.052
 1859SOL     OW 6475   4.642   1.739   3.764
 1859SOL    HW1 6476   4.615   1.836   3.757
 1859SOL    HW2 6477   4.626   1.694   3.676
 1860SOL     OW 6478   0.423   1.270   5.083
 1860SOL    HW1 6479   0.384   1.336   5.019
 1860SOL    HW2 6480   0.511   1.239   5.049
 1861SOL     OW 6481   5.509   0.653   2.635
 1861SOL    HW1 6482   5.536   0.686   2.545
 1861SOL    HW2 6483   5.591   0.622   2.685
 1862SOL     OW 6484   2.699   6.889   6.309
 1862SOL    HW1 6485   2.712   6.890   6.210
 1862SOL    HW2 6486   2.747   6.968   6.349
 1863SOL     OW 6487   7.014   2.870   3.621
 1863SOL    HW1 6488   0.029   2.781   3.640
 1863SOL    HW2 6489   0.018   2.903   3.532
 1864SOL     OW 6490   2.952   5.934   4.670
 1864SOL    HW1 6491   2.947   5.912   4.572
 1864SOL    HW2 6492   3.024   5.879   4.712
 1865SOL     OW 6493   3.838   0.472   0.280
 1865SOL    HW1 6494   3.892   0.520   0.349
 1865SOL    HW2 6495   3.895   0.452   0.201
 1866SOL     OW 6496   6.919   4.787   3.645
 1866SOL    HW1 6497   6.999   4.819   3.595
 1866SOL    HW2 6498   6.925   4.818   3.740
 1867SOL     OW 6499   1.865   4.066   1.144
 1867SOL    HW1 6500   1.929   4.142   1.154
 1867SOL    HW2 6501   1.771   4.101   1.148
 1868SOL     OW 6502   4.958   3.239   6.582
 1868SOL    HW1 6503   4.974   3.312   6.648
 1868SOL    HW2 6504   5.033   3.237   6.515
 1869SOL     OW 6505   6.615   3.254   4.984
 1869SOL    HW1 6506   6.689   3.243   4.919
 1869SOL    HW2 6507   6.560   3.170   4.986
 1870SOL     OW 6508   1.380   3.383   5.061
 1870SOL    HW1 6509   1.410   3.299   5.016
 1870SOL    HW2 6510   1.455   3.420   5.116
 1871SOL     OW 6511   0.390   0.425   0.283
 1871SOL    HW1 6512   0.360   0.357   0.350
 1871SOL    HW2 6513   0.425   0.379   0.201
 1872SOL     OW 6514   4.442   2.146   0.095
 1872SOL    HW1 6515   4.437   2.107   0.003
 1872SOL    HW2 6516   4.419   2.076   0.162
 1873SOL     OW 6517   6.037   0.634   5.736
 1873SOL    HW1 6518   6.047   0.660   5.832
 1873SOL    HW2 6519   6.105   0.683   5.681
 1874SOL     OW 6520   1.534   1.349   6.699
 1874SOL    HW1 6521   1.606   1.377   6.762
 1874SOL    HW2 6522   1.489   1.430   6.661
 1875SOL     OW 6523   6.273   0.460   0.663
 1875SOL    HW1 6524   6.319   0.385   0.709
 1875SOL    HW2 6525   6.312   0.472   0.572
 1876SOL     OW 6526   3.753   5.709   6.277
 1876SOL    HW1 6527   3.847   5.718   6.308
 1876SOL    HW2 6528   3.749   5.650   6.197
 1877SOL     OW 6529   1.285   1.811   3.790
 1877SOL    HW1 6530   1.250   1.831   3.698
 1877SOL    HW2 6531   1.304   1.713   3.798
 1878SOL     OW 6532   6.899   3.169   4.042
 1878SOL    HW1 6533   6.898   3.174   3.943
 1878SOL    HW2 6534   6.993   3.180   4.076
 1879SOL     OW 6535   2.732   6.276   4.130
 1879SOL    HW1 6536   2.635   6.297   4.141
 1879SOL    HW2 6537   2.742   6.198   4.069
 1880SOL     OW 6538   0.326   1.867   2.954
 1880SOL    HW1 6539   0.405   1.928   2.956
 1880SOL    HW2 6540   0.297   1.847   3.047
 1881SOL     OW 6541   1.423   1.965   3.945
 1881SOL    HW1 6542   1.366   1.911   3.883
 1881SOL    HW2 6543   1.375   1.977   4.032
 1882SOL     OW 6544   0.982   4.768   6.743
 1882SOL    HW1 6545   1.037   4.848   6.767
 1882SOL    HW2 6546   0.953   4.775   6.648
 1883SOL     OW 6547   1.197   3.381   3.433
 1883SOL    HW1 6548   1.253   3.349   3.510
 1883SOL    HW2 6549   1.171   3.476   3.449
 1884SOL     OW 6550   6.043   2.646   1.267
 1884SOL    HW1 6551   6.102   2.567   1.251
 1884SOL    HW2 6552   5.947   2.616   1.271
 1885SOL     OW 6553   0.219   2.086   0.277
 1885SOL    HW1 6554   0.265   2.067   0.363
 1885SOL    HW2 6555   0.284   2.123   0.211
 1886SOL     OW 6556   2.819   1.794   0.722
 1886SOL    HW1 6557   2.730   1.753   0.739
 1886SOL    HW2 6558   2.868   1.805   0.808
 1887SOL     OW 6559   0.556   4.562   5.507
 1887SOL    HW1 6560   0.606   4.587   5.424
 1887SOL    HW2 6561   0.458   4.563   5.489
 1888SOL     OW 6562   3.156   1.962   6.297
 1888SOL    HW1 6563   3.144   1.978   6.199
 1888SOL    HW2 6564   3.068   1.969   6.344
 1889SOL     OW 6565   5.773   2.356   6.293
 1889SOL    HW1 6566   5.842   2.427   6.276
 1889SOL    HW2 6567   5.816   2.266   6.289
 1890SOL     OW 6568   1.284   5.310   5.383
 1890SOL    HW1 6569   1.215   5.280   5.317
 1890SOL    HW2 6570   1.324   5.230   5.428
 1891SOL     OW 6571   5.617   3.268   4.410
 1891SOL    HW1 6572   5.631   3.366   4.395
 1891SOL    HW2 6573   5.519   3.249   4.418
 1892SOL     OW 6574   3.808   0.036   0.760
 1892SOL    HW1 6575   3.799   6.971   0.798
 1892SOL    HW2 6576   3.779   0.103   0.829
 1893SOL     OW 6577   3.210   1.719   5.739
 1893SOL    HW1 6578   3.265   1.638   5.716
 1893SOL    HW2 6579   3.243   1.797   5.686
 1894SOL     OW 6580   3.725   3.901   2.057
 1894SOL    HW1 6581   3.711   3.852   1.971
 1894SOL    HW2 6582   3.665   3.981   2.059
 1895SOL     OW 6583   5.089   1.234   2.699
 1895SOL    HW1 6584   5.146   1.291   2.639
 1895SOL    HW2 6585   5.023   1.184   2.643
 1896SOL     OW 6586   0.616   0.384   3.414
 1896SOL    HW1 6587   0.600   0.355   3.508
 1896SOL    HW2 6588   0.695   0.444   3.411
 1897SOL     OW 6589   0.626   5.090   2.379
 1897SOL    HW1 6590   0.546   5.031   2.383
 1897SOL    HW2 6591   0.694   5.058   2.446
 1898SOL     OW 6592   3.006   4.845   2.190
 1898SOL    HW1 6593   2.970   4.866   2.099
 1898SOL    HW2 6594   3.029   4.748   2.195
 1899SOL     OW 6595   0.980   2.337   2.454
 1899SOL    HW1 6596   0.927   2.333   2.370
 1899SOL    HW2 6597   1.076   2.356   2.433
 1900SOL     OW 6598   1.185   0.054   5.196
 1900SOL    HW1 6599   1.178   0.153   5.188
 1900SOL    HW2 6600   1.095   0.013   5.182
 1901SOL     OW 6601   2.315   1.478   1.678
 1901SOL    HW1 6602   2.228   1.516   1.647
 1901SOL    HW2 6603   2.348   1.530   1.756
 1902SOL     OW 6604   2.760   2.359   4.784
 1902SOL    HW1 6605   2.823   2.436   4.797
 1902SOL    HW2 6606   2.678   2.373   4.840
 1903SOL     OW 6607   6.751   4.287   3.737
 1903SOL    HW1 6608   6.656   4.254   3.744
 1903SOL    HW2 6609   6.783   4.314   3.828
 1904SOL     OW 6610   6.151   6.587   3.774
 1904SOL    HW1 6611   6.230   6.560   3.828
 1904SOL    HW2 6612   6.069   6.586   3.831
 1905SOL     OW 6613   1.757   1.163   4.515
 1905SOL    HW1 6614   1.796   1.254   4.531
 1905SOL    HW2 6615   1.661   1.172   4.489
 1906SOL     OW 6616   3.046   0.128   5.293
 1906SOL    HW1 6617   3.059   0.033   5.267
 1906SOL    HW2 6618   2.973   0.169   5.238
 1907SOL     OW 6619   3.572   0.025   3.236
 1907SOL    HW1 6620   3.543   0.121   3.240
 1907SOL    HW2 6621   3.493   6.995   3.212
 1908SOL     OW 6622   4.384   0.750   4.942
 1908SOL    HW1 6623   4.391   0.805   5.025
 1908SOL    HW2 6624   4.355   0.808   4.866
 1909SOL     OW 6625   1.250   4.058   2.744
 1909SOL    HW1 6626   1.321   4.067   2.814
 1909SOL    HW2 6627   1.203   3.970   2.755
 1910SOL     OW 6628   0.132   2.594   6.816
 1910SOL    HW1 6629   0.188   2.663   6.862
 1910SOL    HW2 6630   0.042   2.633   6.796
 1911SOL     OW 6631   6.223   2.732   5.656
 1911SOL    HW1 6632   6.133   2.695   5.635
 1911SOL    HW2 6633   6.216   2.799   5.730
 1912SOL     OW 6634   3.728   0.042   1.064
 1912SOL    HW1 6635   3.667   0.012   1.138
 1912SOL    HW2 6636   3.762   6.989   1.015
 1913SOL     OW 6637   1.148   5.711   5.363
 1913SOL    HW1 6638   1.103   5.653   5.295
 1913SOL    HW2 6639   1.110   5.804   5.357
 1914SOL     OW 6640   3.498   2.290   0.063
 1914SOL    HW1 6641   3.594   2.259   0.064
 1914SOL    HW2 6642   3.490   2.377   0.112
 1915SOL     OW 6643   3.723   1.702   5.217
 1915SOL    HW1 6644   3.767   1.765   5.153
 1915SOL    HW2 6645   3.715   1.612   5.175
 1916SOL     OW 6646   3.646   6.040   1.066
 1916SOL    HW1 6647   3.680   6.040   1.160
 1916SOL    HW2 6648   3.557   6.085   1.063
 1917SOL     OW 6649   3.344   3.074   4.227
 1917SOL    HW1 6650   3.294   3.071   4.140
 1917SOL    HW2 6651   3.427   3.019   4.219
 1918SOL     OW 6652   0.753   1.016   6.883
 1918SOL    HW1 6653   0.783   0.939   6.940
 1918SOL    HW2 6654   0.823   1.037   6.815
 1919SOL     OW 6655   2.329   0.370   1.705
 1919SOL    HW1 6656   2.268   0.366   1.784
 1919SOL    HW2 6657   2.344   0.465   1.679
 1920SOL     OW 6658   1.171   5.392   2.743
 1920SOL    HW1 6659   1.131   5.326   2.807
 1920SOL    HW2 6660   1.259   5.423   2.779
 1921SOL     OW 6661   1.455   4.526   0.150
 1921SOL    HW1 6662   1.493   4.567   0.232
 1921SOL    HW2 6663   1.405   4.442   0.174
 1922SOL     OW 6664   3.335   4.391   0.825
 1922SOL    HW1 6665   3.413   4.368   0.883
 1922SOL    HW2 6666   3.254   4.405   0.882
 1923SOL     OW 6667   3.382   1.130   6.290
 1923SOL    HW1 6668   3.300   1.114   6.234
 1923SOL    HW2 6669   3.445   1.190   6.240
 1924SOL     OW 6670   5.088   5.298   1.964
 1924SOL    HW1 6671   5.159   5.298   1.893
 1924SOL    HW2 6672   5.075   5.205   1.999
 1925SOL     OW 6673   2.501   3.606   1.209
 1925SOL    HW1 6674   2.491   3.612   1.110
 1925SOL    HW2 6675   2.539   3.692   1.244
 1926SOL     OW 6676   1.124   6.896   2.845
 1926SOL    HW1 6677   1.036   6.929   2.811
 1926SOL    HW2 6678   1.130   6.913   2.944
 1927SOL     OW 6679   3.300   5.026   6.552
 1927SOL    HW1 6680   3.261   5.069   6.470
 1927SOL    HW2 6681   3.379   4.970   6.526
 1928SOL     OW 6682   0.295   3.767   5.660
 1928SOL    HW1 6683   0.325   3.835   5.593
 1928SOL    HW2 6684   0.195   3.768   5.666
 1929SOL     OW 6685   0.780   6.068   1.834
 1929SOL    HW1 6686   0.843   6.026   1.769
 1929SOL    HW2 6687   0.688   6.032   1.819
 1930SOL     OW 6688   3.712   4.045   6.820
 1930SOL    HW1 6689   3.805   4.071   6.793
 1930SOL    HW2 6690   3.646   4.100   6.769
 1931SOL     OW 6691   7.016   2.995   2.576
 1931SOL    HW1 6692   0.008   3.019   2.481
 1931SOL    HW2 6693   0.060   2.933   2.610
 1932SOL     OW 6694   4.957   3.497   3.327
 1932SOL    HW1 6695   4.922   3.463   3.239
 1932SOL    HW2 6696   4.952   3.424   3.395
 1933SOL     OW 6697   2.321   4.603   0.868
 1933SOL    HW1 6698   2.401   4.597   0.808
 1933SOL    HW2 6699   2.270   4.517   0.864
 1934SOL     OW 6700   0.817   0.419   4.881
 1934SOL    HW1 6701   0.854   0.369   4.959
 1934SOL    HW2 6702   0.890   0.474   4.840
 1935SOL     OW 6703   3.757   6.676   4.430
 1935SOL    HW1 6704   3.785   6.739   4.358
 1935SOL    HW2 6705   3.661   6.693   4.453
 1936SOL     OW 6706   6.440   3.808   4.026
 1936SOL    HW1 6707   6.407   3.822   4.119
 1936SOL    HW2 6708   6.458   3.711   4.011
 1937SOL     OW 6709   4.897   0.275   0.861
 1937SOL    HW1 6710   4.989   0.249   0.833
 1937SOL    HW2 6711   4.878   0.368   0.830
 1938SOL     OW 6712   2.486   0.849   1.921
 1938SOL    HW1 6713   2.576   0.809   1.901
 1938SOL    HW2 6714   2.470   0.927   1.861
 1939SOL     OW 6715   0.357   0.060   4.648
 1939SOL    HW1 6716   0.309   0.015   4.572
 1939SOL    HW2 6717   0.417   0.131   4.612
 1940SOL     OW 6718   4.552   4.474   0.046
 1940SOL    HW1 6719   4.526   4.377   0.045
 1940SOL    HW2 6720   4.525   4.516   6.986
 1941SOL     OW 6721   0.333   4.605   3.262
 1941SOL    HW1 6722   0.373   4.535   3.321
 1941SOL    HW2 6723   0.237   4.581   3.242
 1942SOL     OW 6724   5.347   0.336   1.640
 1942SOL    HW1 6725   5.368   0.402   1.568
 1942SOL    HW2 6726   5.409   0.349   1.717
 1943SOL     OW 6727   2.559   6.523   2.168
 1943SOL    HW1 6728   2.469   6.565   2.172
 1943SOL    HW2 6729   2.564   6.460   2.090
 1944SOL     OW 6730   5.755   2.413   0.704
 1944SOL    HW1 6731   5.779   2.410   0.801
 1944SOL    HW2 6732   5.673   2.357   0.689
 1945SOL     OW 6733   3.441   5.497   1.859
 1945SOL    HW1 6734   3.363   5.454   1.813
 1945SOL    HW2 6735   3.479   5.432   1.926
 1946SOL     OW 6736   6.853   0.175   1.538
 1946SOL    HW1 6737   6.860   0.274   1.552
 1946SOL    HW2 6738   6.783   0.138   1.599
 1947SOL     OW 6739   4.237   6.781   4.672
 1947SOL    HW1 6740   4.267   6.866   4.715
 1947SOL    HW2 6741   4.317   6.732   4.636
 1948SOL     OW 6742   5.869   5.653   3.597
 1948SOL    HW1 6743   5.844   5.569   3.644
 1948SOL    HW2 6744   5.817   5.661   3.512
 1949SOL     OW 6745   3.552   4.436   6.559
 1949SOL    HW1 6746   3.453   4.424   6.563
 1949SOL    HW2 6747   3.576   4.497   6.484
 1950SOL     OW 6748   3.989   4.515   1.004
 1950SOL    HW1 6749   4.050   4.541   1.079
 1950SOL    HW2 6750   3.897   4.502   1.040
 1951SOL     OW 6751   5.991   4.268   6.746
 1951SOL    HW1 6752   5.955   4.251   6.655
 1951SOL    HW2 6753   5.926   4.233   6.814
 1952SOL     OW 6754   4.375   2.656   0.201
 1952SOL    HW1 6755   4.379   2.569   0.153
 1952SOL    HW2 6756   4.318   2.647   0.283
 1953SOL     OW 6757   5.707   1.794   0.296
 1953SOL    HW1 6758   5.727   1.722   0.363
 1953SOL    HW2 6759   5.791   1.820   0.249
 1954SOL     OW 6760   5.562   1.320   3.688
 1954SOL    HW1 6761   5.492   1.390   3.701
 1954SOL    HW2 6762   5.529   1.253   3.621
 1955SOL     OW 6763   0.935   1.213   2.435
 1955SOL    HW1 6764   0.867   1.148   2.399
 1955SOL    HW2 6765   1.022   1.200   2.388
 1956SOL     OW 6766   4.862   6.634   2.623
 1956SOL    HW1 6767   4.778   6.663   2.669
 1956SOL    HW2 6768   4.844   6.552   2.569
 1957SOL     OW 6769   6.096   5.037   4.324
 1957SOL    HW1 6770   6.041   5.105   4.274
 1957SOL    HW2 6771   6.192   5.051   4.302
 1958SOL     OW 6772   5.043   2.230   2.834
 1958SOL    HW1 6773   5.046   2.308   2.772
 1958SOL    HW2 6774   4.949   2.214   2.864
 1959SOL     OW 6775   0.661   1.284   4.739
 1959SOL    HW1 6776   0.638   1.241   4.826
 1959SOL    HW2 6777   0.697   1.215   4.676
 1960SOL     OW 6778   6.291   4.467   2.081
 1960SOL    HW1 6779   6.307   4.384   2.028
 1960SOL    HW2 6780   6.337   4.544   2.038
 1961SOL     OW 6781   5.834   4.421   4.313
 1961SOL    HW1 6782   5.797   4.474   4.237
 1961SOL    HW2 6783   5.789   4.332   4.317
 1962SOL     OW 6784   2.442   6.601   3.560
 1962SOL    HW1 6785   2.344   6.592   3.581
 1962SOL    HW2 6786   2.462   6.557   3.473
 1963SOL     OW 6787   0.738   1.316   2.038
 1963SOL    HW1 6788   0.653   1.320   1.985
 1963SOL    HW2 6789   0.741   1.230   2.089
 1964SOL     OW 6790   4.612   4.068   0.721
 1964SOL    HW1 6791   4.551   4.115   0.658
 1964SOL    HW2 6792   4.656   3.992   0.673
 1965SOL     OW 6793   0.909   3.437   4.734
 1965SOL    HW1 6794   0.960   3.377   4.672
 1965SOL    HW2 6795   0.949   3.433   4.825
 1966SOL     OW 6796   6.884   6.758   0.491
 1966SOL    HW1 6797   6.813   6.797   0.432
 1966SOL    HW2 6798   6.955   6.716   0.434
 1967SOL     OW 6799   5.560   2.574   5.338
 1967SOL    HW1 6800   5.510   2.643   5.390
 1967SOL    HW2 6801   5.651   2.561   5.378
 1968SOL     OW 6802   3.111   6.877   6.740
 1968SOL    HW1 6803   3.031   6.937   6.744
 1968SOL    HW2 6804   3.087   6.786   6.774
 1969SOL     OW 6805   1.513   1.671   2.114
 1969SOL    HW1 6806   1.591   1.646   2.057
 1969SOL    HW2 6807   1.429   1.638   2.070
 1970SOL     OW 6808   2.091   6.689   6.001
 1970SOL    HW1 6809   2.087   6.683   6.101
 1970SOL    HW2 6810   2.016   6.747   5.968
 1971SOL     OW 6811   0.101   0.202   5.674
 1971SOL    HW1 6812   0.135   0.202   5.580
 1971SOL    HW2 6813   0.053   0.116   5.692
 1972SOL     OW 6814   5.309   2.376   2.461
 1972SOL    HW1 6815   5.354   2.289   2.477
 1972SOL    HW2 6816   5.271   2.377   2.368
 1973SOL     OW 6817   2.902   2.449   0.200
 1973SOL    HW1 6818   2.857   2.423   0.114
 1973SOL    HW2 6819   2.832   2.477   0.266
 1974SOL     OW 6820   5.787   6.248   4.241
 1974SOL    HW1 6821   5.764   6.150   4.235
 1974SOL    HW2 6822   5.814   6.281   4.151
 1975SOL     OW 6823   2.286   1.767   3.893
 1975SOL    HW1 6824   2.264   1.680   3.850
 1975SOL    HW2 6825   2.380   1.766   3.926
 1976SOL     OW 6826   0.371   6.911   6.609
 1976SOL    HW1 6827   0.456   6.901   6.556
 1976SOL    HW2 6828   0.300   6.853   6.569
 1977SOL     OW 6829   0.610   3.735   4.440
 1977SOL    HW1 6830   0.639   3.830   4.454
 1977SOL    HW2 6831   0.544   3.710   4.510
 1978SOL     OW 6832   1.706   0.145   3.170
 1978SOL    HW1 6833   1.725   0.243   3.176
 1978SOL    HW2 6834   1.722   0.113   3.077
 1979SOL     OW 6835   6.158   4.512   6.167
 1979SOL    HW1 6836   6.147   4.423   6.123
 1979SOL    HW2 6837   6.255   4.535   6.172
 1980SOL     OW 6838   2.668   0.380   4.815
 1980SOL    HW1 6839   2.656   0.286   4.846
 1980SOL    HW2 6840   2.749   0.387   4.757
 1981SOL     OW 6841   6.802   1.809   2.804
 1981SOL    HW1 6842   6.772   1.903   2.789
 1981SOL    HW2 6843   6.829   1.768   2.716
 1982SOL     OW 6844   0.224   4.445   4.934
 1982SOL    HW1 6845   0.157   4.374   4.957
 1982SOL    HW2 6846   0.267   4.423   4.846
 1983SOL     OW 6847   0.293   1.510   2.987
 1983SOL    HW1 6848   0.269   1.602   3.016
 1983SOL    HW2 6849   0.389   1.508   2.957
 1984SOL     OW 6850   6.322   1.855   4.887
 1984SOL    HW1 6851   6.285   1.920   4.953
 1984SOL    HW2 6852   6.420   1.843   4.903
 1985SOL     OW 6853   1.225   6.336   2.199
 1985SOL    HW1 6854   1.219   6.267   2.127
 1985SOL    HW2 6855   1.321   6.361   2.214
 1986SOL     OW 6856   1.878   0.906   6.959
 1986SOL    HW1 6857   1.881   1.004   6.980
 1986SOL    HW2 6858   1.799   0.887   6.901
 1987SOL     OW 6859   1.956   2.510   2.449
 1987SOL    HW1 6860   1.902   2.511   2.534
 1987SOL    HW2 6861   1.906   2.458   2.379
 1988SOL     OW 6862   5.643   4.228   0.713
 1988SOL    HW1 6863   5.729   4.239   0.663
 1988SOL    HW2 6864   5.658   4.167   0.791
 1989SOL     OW 6865   2.422   5.936   4.656
 1989SOL    HW1 6866   2.324   5.949   4.647
 1989SOL    HW2 6867   2.469   5.978   4.578
 1990SOL     OW 6868   3.629   6.599   0.565
 1990SOL    HW1 6869   3.553   6.664   0.553
 1990SOL    HW2 6870   3.599   6.509   0.534
 1991SOL     OW 6871   4.061   4.404   6.661
 1991SOL    HW1 6872   3.971   4.401   6.618
 1991SOL    HW2 6873   4.112   4.483   6.627
 1992SOL     OW 6874   0.811   0.714   0.677
 1992SOL    HW1 6875   0.780   0.739   0.586
 1992SOL    HW2 6876   0.909   0.692   0.674
 1993SOL     OW 6877   3.603   3.190   4.876
 1993SOL    HW1 6878   3.613   3.193   4.975
 1993SOL    HW2 6879   3.597   3.095   4.846
 1994SOL     OW 6880   0.405   1.105   1.074
 1994SOL    HW1 6881   0.478   1.168   1.049
 1994SOL    HW2 6882   0.343   1.093   0.997
 1995SOL     OW 6883   5.245   2.259   3.121
 1995SOL    HW1 6884   5.299   2.179   3.149
 1995SOL    HW2 6885   5.262   2.278   3.025
 1996SOL     OW 6886   2.573   3.309   0.407
 1996SOL    HW1 6887   2.490   3.303   0.463
 1996SOL    HW2 6888   2.650   3.338   0.464
 1997SOL     OW 6889   4.330   1.757   4.670
 1997SOL    HW1 6890   4.310   1.855   4.670
 1997SOL    HW2 6891   4.335   1.724   4.576
 1998SOL     OW 6892   2.355   4.431   6.428
 1998SOL    HW1 6893   2.263   4.449   6.394
 1998SOL    HW2 6894   2.351   4.403   6.524
 1999SOL     OW 6895   2.854   6.891   0.881
 1999SOL    HW1 6896   2.846   6.936   0.970
 1999SOL    HW2 6897   2.930   6.826   0.883
 2000SOL     OW 6898   4.604   2.313   5.195
 2000SOL    HW1 6899   4.643   2.305   5.103
 2000SOL    HW2 6900   4.674   2.343   5.259
 2001SOL     OW 6901   3.152   1.495   1.852
 2001SOL    HW1 6902   3.112   1.418   1.901
 2001SOL    HW2 6903   3.202   1.462   1.772
 2002SOL     OW 6904   0.967   4.849   6.472
 2002SOL    HW1 6905   0.929   4.937   6.502
 2002SOL    HW2 6906   1.019   4.862   6.388
 2003SOL     OW 6907   6.065   6.088   2.355
 2003SOL    HW1 6908   5.972   6.075   2.323
 2003SOL    HW2 6909   6.070   6.067   2.453
 2004SOL     OW 6910   5.323   0.769   5.684
 2004SOL    HW1 6911   5.295   0.733   5.773
 2004SOL    HW2 6912   5.394   0.711   5.645
 2005SOL     OW 6913   1.165   5.162   0.060
 2005SOL    HW1 6914   1.095   5.111   0.011
 2005SOL    HW2 6915   1.125   5.201   0.143
 2006SOL     OW 6916   4.981   6.422   4.152
 2006SOL    HW1 6917   4.907   6.359   4.178
 2006SOL    HW2 6918   5.059   6.408   4.213
 2007SOL     OW 6919   3.976   4.895   0.920
 2007SOL    HW1 6920   3.993   4.802   0.889
 2007SOL    HW2 6921   4.050   4.954   0.890
 2008SOL     OW 6922   2.686   5.299   4.012
 2008SOL    HW1 6923   2.659   5.322   3.918
 2008SOL    HW2 6924   2.606   5.307   4.072
 2009SOL     OW 6925   5.851   0.769   2.537
 2009SOL    HW1 6926   5.807   0.697   2.589
 2009SOL    HW2 6927   5.819   0.858   2.570
 2010SOL     OW 6928   1.917   1.966   0.639
 2010SOL    HW1 6929   1.878   1.963   0.731
 2010SOL    HW2 6930   2.006   2.011   0.641
 2011SOL     OW 6931   6.797   6.940   4.801
 2011SOL    HW1 6932   6.835   6.999   4.730
 2011SOL    HW2 6933   6.773   6.995   4.881
 2012SOL     OW 6934   1.717   3.559   1.823
 2012SOL    HW1 6935   1.807   3.521   1.844
 2012SOL    HW2 6936   1.650   3.484   1.821
 2013SOL     OW 6937   6.377   2.421   3.658
 2013SOL    HW1 6938   6.335   2.413   3.568
 2013SOL    HW2 6939   6.436   2.342   3.676
 2014SOL     OW 6940   2.616   5.102   3.421
 2014SOL    HW1 6941   2.519   5.082   3.430
 2014SOL    HW2 6942   2.634   5.141   3.330
 2015SOL     OW 6943   2.076   0.727   0.284
 2015SOL    HW1 6944   2.016   0.663   0.235
 2015SOL    HW2 6945   2.072   0.817   0.240
 2016SOL     OW 6946   1.019   6.412   5.124
 2016SOL    HW1 6947   0.938   6.353   5.134
 2016SOL    HW2 6948   0.992   6.498   5.082
 2017SOL     OW 6949   3.176   0.049   4.075
 2017SOL    HW1 6950   3.091   0.009   4.039
 2017SOL    HW2 6951   3.205   0.124   4.015
 2018SOL     OW 6952   5.752   6.491   5.500
 2018SOL    HW1 6953   5.772   6.565   5.436
 2018SOL    HW2 6954   5.783   6.517   5.592
 2019SOL     OW 6955   5.383   2.933   6.973
 2019SOL    HW1 6956   5.341   2.894   6.891
 2019SOL    HW2 6957   5.481   2.945   6.957
 2020SOL     OW 6958   1.207   6.202   5.041
 2020SOL    HW1 6959   1.299   6.219   5.075
 2020SOL    HW2 6960   1.153   6.287   5.045
 2021SOL     OW 6961   1.499   6.040   3.579
 2021SOL    HW1 6962   1.596   6.061   3.593
 2021SOL    HW2 6963   1.480   6.030   3.482
 2022SOL     OW 6964   1.733   3.789   3.287
 2022SOL    HW1 6965   1.663   3.837   3.340
 2022SOL    HW2 6966   1.750   3.699   3.327
 2023SOL     OW 6967   6.346   0.950   5.995
 2023SOL    HW1 6968   6.310   1.011   5.925
 2023SOL    HW2 6969   6.318   0.982   6.086
 2024SOL     OW 6970   0.462   6.319   3.985
 2024SOL    HW1 6971   0.512   6.263   4.051
 2024SOL    HW2 6972   0.511   6.405   3.969
 2025SOL     OW 6973   2.740   1.943   3.457
 2025SOL    HW1 6974   2.655   1.925   3.507
 2025SOL    HW2 6975   2.814   1.956   3.523
 2026SOL     OW 6976   0.699   2.656   5.847
 2026SOL    HW1 6977   0.745   2.734   5.889
 2026SOL    HW2 6978   0.756   2.618   5.774
 2027SOL     OW 6979   0.543   1.029   0.448
 2027SOL    HW1 6980   0.614   1.099   0.453
 2027SOL    HW2 6981   0.584   0.938   0.454
 2028SOL     OW 6982   3.134   6.882   4.987
 2028SOL    HW1 6983   3.146   6.831   5.071
 2028SOL    HW2 6984   3.112   6.820   4.912
 2029SOL     OW 6985   6.233   0.345   0.396
 2029SOL    HW1 6986   6.232   0.259   0.446
 2029SOL    HW2 6987   6.322   0.389   0.408
 2030SOL     OW 6988   2.577   1.437   2.493
 2030SOL    HW1 6989   2.650   1.371   2.475
 2030SOL    HW2 6990   2.497   1.390   2.528
 2031SOL     OW 6991   6.400   5.770   1.181
 2031SOL    HW1 6992   6.435   5.754   1.274
 2031SOL    HW2 6993   6.302   5.791   1.186
 2032SOL     OW 6994   4.906   0.075   2.102
 2032SOL    HW1 6995   4.927   0.081   2.200
 2032SOL    HW2 6996   4.811   0.047   2.089
 2033SOL     OW 6997   3.198   4.091   6.533
 2033SOL    HW1 6998   3.135   4.066   6.607
 2033SOL    HW2 6999   3.200   4.017   6.465
 2034SOL     OW 7000   3.188   5.932   5.274
 2034SOL    HW1 7001   3.274   5.896   5.311
 2034SOL    HW2 7002   3.165   6.018   5.321
 2035SOL     OW 7003   0.482   0.556   2.988
 2035SOL    HW1 7004   0.447   0.626   2.926
 2035SOL    HW2 7005   0.415   0.483   2.998
 2036SOL     OW 7006   1.672   4.483   2.953
 2036SOL    HW1 7007   1.770   4.470   2.941
 2036SOL    HW2 7008   1.650   4.580   2.947
 2037SOL     OW 7009   6.648   2.852   5.378
 2037SOL    HW1 7010   6.654   2.855   5.278
 2037SOL    HW2 7011   6.612   2.939   5.412
 2038SOL     OW 7012   1.381   2.617   0.043
 2038SOL    HW1 7013   1.452   2.584   7.009
 2038SOL    HW2 7014   1.328   2.688   7.024
 2039SOL     OW 7015   0.414   5.740   3.205
 2039SOL    HW1 7016   0.493   5.801   3.215
 2039SOL    HW2 7017   0.332   5.787   3.239
 2040SOL     OW 7018   3.171   3.444   4.899
 2040SOL    HW1 7019   3.218   3.396   4.825
 2040SOL    HW2 7020   3.150   3.381   4.973
 2041SOL     OW 7021   0.618   5.903   5.113
 2041SOL    HW1 7022   0.682   5.861   5.177
 2041SOL    HW2 7023   0.668   5.958   5.046
 2042SOL     OW 7024   4.957   5.515   0.138
 2042SOL    HW1 7025   4.980   5.511   0.040
 2042SOL    HW2 7026   5.042   5.521   0.191
 2043SOL     OW 7027   6.975   3.548   3.785
 2043SOL    HW1 7028   0.001   3.482   3.837
 2043SOL    HW2 7029   6.877   3.531   3.800
 2044SOL     OW 7030   6.426   6.870   1.588
 2044SOL    HW1 7031   6.511   6.826   1.558
 2044SOL    HW2 7032   6.350   6.805   1.579
 2045SOL     OW 7033   2.432   5.259   4.149
 2045SOL    HW1 7034   2.378   5.317   4.210
 2045SOL    HW2 7035   2.420   5.163   4.174
 2046SOL     OW 7036   6.700   2.240   4.436
 2046SOL    HW1 7037   6.603   2.245   4.461
 2046SOL    HW2 7038   6.728   2.144   4.428
 2047SOL     OW 7039   6.326   1.632   0.174
 2047SOL    HW1 7040   6.293   1.718   0.134
 2047SOL    HW2 7041   6.342   1.645   0.272
 2048SOL     OW 7042   1.544   6.358   6.141
 2048SOL    HW1 7043   1.454   6.343   6.182
 2048SOL    HW2 7044   1.570   6.277   6.088
 2049SOL     OW 7045   6.073   1.327   5.558
 2049SOL    HW1 7046   6.089   1.273   5.475
 2049SOL    HW2 7047   5.979   1.313   5.589
 2050SOL     OW 7048   6.676   2.972   4.085
 2050SOL    HW1 7049   6.740   3.048   4.083
 2050SOL    HW2 7050   6.670   2.931   3.994
 2051SOL     OW 7051   1.053   5.457   0.462
 2051SOL    HW1 7052   1.144   5.491   0.436
 2051SOL    HW2 7053   1.019   5.395   0.392
 2052SOL     OW 7054   1.495   3.882   0.749
 2052SOL    HW1 7055   1.512   3.883   0.650
 2052SOL    HW2 7056   1.580   3.859   0.797
 2053SOL     OW 7057   5.741   6.859   4.501
 2053SOL    HW1 7058   5.779   6.777   4.459
 2053SOL    HW2 7059   5.699   6.836   4.588
 2054SOL     OW 7060   3.492   4.136   2.918
 2054SOL    HW1 7061   3.412   4.169   2.867
 2054SOL    HW2 7062   3.485   4.163   3.014
 2055SOL     OW 7063   6.021   3.518   3.098
 2055SOL    HW1 7064   5.930   3.484   3.122
 2055SOL    HW2 7065   6.049   3.588   3.164
 2056SOL     OW 7066   3.460   5.984   2.696
 2056SOL    HW1 7067   3.457   5.915   2.769
 2056SOL    HW2 7068   3.524   5.954   2.625
 2057SOL     OW 7069   5.358   4.147   5.162
 2057SOL    HW1 7070   5.362   4.170   5.259
 2057SOL    HW2 7071   5.281   4.085   5.146
 2058SOL     OW 7072   0.639   1.725   3.076
 2058SOL    HW1 7073   0.591   1.654   3.025
 2058SOL    HW2 7074   0.573   1.779   3.128
 2059SOL     OW 7075   1.633   5.632   6.147
 2059SOL    HW1 7076   1.710   5.682   6.187
 2059SOL    HW2 7077   1.661   5.539   6.125
 2060SOL     OW 7078   0.439   4.354   1.638
 2060SOL    HW1 7079   0.455   4.449   1.665
 2060SOL    HW2 7080   0.506   4.328   1.568
 2061SOL     OW 7081   0.819   2.114   3.483
 2061SOL    HW1 7082   0.729   2.108   3.526
 2061SOL    HW2 7083   0.819   2.057   3.400
 2062SOL     OW 7084   6.449   6.493   3.842
 2062SOL    HW1 7085   6.499   6.530   3.763
 2062SOL    HW2 7086   6.454   6.394   3.841
 2063SOL     OW 7087   2.063   6.886   6.766
 2063SOL    HW1 7088   2.025   6.927   6.683
 2063SOL    HW2 7089   2.075   6.788   6.752
 2064SOL     OW 7090   1.197   2.279   5.363
 2064SOL    HW1 7091   1.267   2.351   5.366
 2064SOL    HW2 7092   1.178   2.248   5.456
 2065SOL     OW 7093   6.430   2.370   5.322
 2065SOL    HW1 7094   6.419   2.275   5.291
 2065SOL    HW2 7095   6.518   2.380   5.368
 2066SOL     OW 7096   0.711   4.774   3.965
 2066SOL    HW1 7097   0.650   4.699   3.992
 2066SOL    HW2 7098   0.724   4.835   4.043
 2067SOL     OW 7099   6.404   4.902   0.929
 2067SOL    HW1 7100   6.340   4.862   0.864
 2067SOL    HW2 7101   6.363   4.903   1.020
 2068SOL     OW 7102   1.921   0.512   4.409
 2068SOL    HW1 7103   1.987   0.521   4.334
 2068SOL    HW2 7104   1.887   0.418   4.412
 2069SOL     OW 7105   0.264   2.605   4.117
 2069SOL    HW1 7106   0.201   2.627   4.043
 2069SOL    HW2 7107   0.305   2.515   4.101
 2070SOL     OW 7108   0.964   1.224   1.540
 2070SOL    HW1 7109   0.865   1.237   1.546
 2070SOL    HW2 7110   1.009   1.291   1.598
 2071SOL     OW 7111   6.579   6.717   6.104
 2071SOL    HW1 7112   6.497   6.668   6.074
 2071SOL    HW2 7113   6.641   6.652   6.149
 2072SOL     OW 7114   4.390   6.064   4.068
 2072SOL    HW1 7115   4.439   6.080   3.982
 2072SOL    HW2 7116   4.308   6.010   4.050
 2073SOL     OW 7117   3.996   6.918   5.092
 2073SOL    HW1 7118   3.896   6.925   5.084
 2073SOL    HW2 7119   4.031   6.857   5.021
 2074SOL     OW 7120   2.021   2.698   6.813
 2074SOL    HW1 7121   2.065   2.777   6.771
 2074SOL    HW2 7122   1.921   2.708   6.805
 2075SOL     OW 7123   6.406   3.405   2.890
 2075SOL    HW1 7124   6.360   3.321   2.919
 2075SOL    HW2 7125   6.343   3.482   2.894
 2076SOL     OW 7126   6.294   7.009   6.603
 2076SOL    HW1 7127   6.387   7.015   6.567
 2076SOL    HW2 7128   6.270   0.067   6.649
 2077SOL     OW 7129   5.897   2.719   3.079
 2077SOL    HW1 7130   5.952   2.777   3.019
 2077SOL    HW2 7131   5.958   2.667   3.140
 2078SOL     OW 7132   1.308   6.085   6.118
 2078SOL    HW1 7133   1.313   6.141   6.036
 2078SOL    HW2 7134   1.367   6.005   6.107
 2079SOL     OW 7135   5.572   2.569   3.443
 2079SOL    HW1 7136   5.615   2.641   3.497
 2079SOL    HW2 7137   5.641   2.523   3.386
 2080SOL     OW 7138   1.480   6.747   4.646
 2080SOL    HW1 7139   1.473   6.656   4.685
 2080SOL    HW2 7140   1.406   6.805   4.681
 2081SOL     OW 7141   1.331   5.265   4.128
 2081SOL    HW1 7142   1.390   5.185   4.123
 2081SOL    HW2 7143   1.285   5.278   4.040
 2082SOL     OW 7144   0.433   0.122   2.999
 2082SOL    HW1 7145   0.389   0.206   2.966
 2082SOL    HW2 7146   0.477   0.075   2.923
 2083SOL     OW 7147   6.422   4.584   6.163
 2083SOL    HW1 7148   6.394   4.674   6.194
 2083SOL    HW2 7149   6.501   4.592   6.102
 2084SOL     OW 7150   0.934   3.917   3.011
 2084SOL    HW1 7151   0.915   3.858   2.932
 2084SOL    HW2 7152   0.874   3.892   3.087
 2085SOL     OW 7153   4.774   0.415   0.016
 2085SOL    HW1 7154   4.869   0.392   0.040
 2085SOL    HW2 7155   4.731   0.336   7.000
 2086SOL     OW 7156   4.334   6.063   5.864
 2086SOL    HW1 7157   4.414   6.098   5.913
 2086SOL    HW2 7158   4.363   6.020   5.779
 2087SOL     OW 7159   5.050   0.965   1.494
 2087SOL    HW1 7160   5.115   0.890   1.483
 2087SOL    HW2 7161   4.963   0.929   1.527
 2088SOL     OW 7162   1.626   5.903   0.657
 2088SOL    HW1 7163   1.704   5.846   0.685
 2088SOL    HW2 7164   1.592   5.871   0.569
 2089SOL     OW 7165   5.183   2.394   6.465
 2089SOL    HW1 7166   5.213   2.478   6.418
 2089SOL    HW2 7167   5.244   2.375   6.541
 2090SOL     OW 7168   4.278   3.531   5.310
 2090SOL    HW1 7169   4.260   3.617   5.356
 2090SOL    HW2 7170   4.369   3.498   5.335
 2091SOL     OW 7171   6.985   5.436   0.784
 2091SOL    HW1 7172   6.990   5.536   0.791
 2091SOL    HW2 7173   6.915   5.411   0.718
 2092SOL     OW 7174   4.868   3.647   0.005
 2092SOL    HW1 7175   4.928   3.677   0.079
 2092SOL    HW2 7176   4.791   3.710   7.024
 2093SOL     OW 7177   2.805   2.347   1.519
 2093SOL    HW1 7178   2.892   2.318   1.558
 2093SOL    HW2 7179   2.747   2.385   1.591
 2094SOL     OW 7180   5.604   1.733   3.280
 2094SOL    HW1 7181   5.606   1.821   3.329
 2094SOL    HW2 7182   5.599   1.658   3.346
 2095SOL     OW 7183   6.156   6.752   5.132
 2095SOL    HW1 7184   6.198   6.661   5.130
 2095SOL    HW2 7185   6.068   6.749   5.084
 2096SOL     OW 7186   4.839   4.045   3.012
 2096SOL    HW1 7187   4.814   4.018   2.919
 2096SOL    HW2 7188   4.804   3.979   3.078
 2097SOL     OW 7189   2.944   3.476   6.611
 2097SOL    HW1 7190   2.909   3.520   6.694
 2097SOL    HW2 7191   2.998   3.542   6.558
 2098SOL     OW 7192   3.407   6.148   1.904
 2098SOL    HW1 7193   3.424   6.061   1.951
 2098SOL    HW2 7194   3.361   6.211   1.967
 2099SOL     OW 7195   3.580   2.684   6.350
 2099SOL    HW1 7196   3.493   2.690   6.301
 2099SOL    HW2 7197   3.591   2.765   6.409
 2100SOL     OW 7198   5.693   2.328   6.570
 2100SOL    HW1 7199   5.716   2.341   6.473
 2100SOL    HW2 7200   5.710   2.233   6.596
 2101SOL     OW 7201   1.315   6.970   1.469
 2101SOL    HW1 7202   1.223   7.008   1.479
 2101SOL    HW2 7203   1.359   7.010   1.389
 2102SOL     OW 7204   5.133   4.992   2.830
 2102SOL    HW1 7205   5.131   5.040   2.918
 2102SOL    HW2 7206   5.042   4.958   2.808
 2103SOL     OW 7207   3.531   4.181   6.648
 2103SOL    HW1 7208   3.535   4.275   6.614
 2103SOL    HW2 7209   3.537   4.117   6.571
 2104SOL     OW 7210   1.606   4.349   1.404
 2104SOL    HW1 7211   1.677   4.410   1.438
 2104SOL    HW2 7212   1.552   4.314   1.480
 2105SOL     OW 7213   5.679   5.205   5.082
 2105SOL    HW1 7214   5.778   5.191   5.074
 2105SOL    HW2 7215   5.631   5.120   5.059
 2106SOL     OW 7216   4.691   4.163   1.114
 2106SOL    HW1 7217   4.717   4.234   1.049
 2106SOL    HW2 7218   4.659   4.083   1.065
 2107SOL     OW 7219   5.886   2.946   5.602
 2107SOL    HW1 7220   5.846   2.911   5.517
 2107SOL    HW2 7221   5.834   3.025   5.633
 2108SOL     OW 7222   6.651   5.866   4.800
 2108SOL    HW1 7223   6.686   5.960   4.801
 2108SOL    HW2 7224   6.619   5.841   4.891
 2109SOL     OW 7225   4.371   5.985   2.261
 2109SOL    HW1 7226   4.439   6.014   2.194
 2109SOL    HW2 7227   4.404   5.904   2.310
 2110SOL     OW 7228   2.335   1.916   0.238
 2110SOL    HW1 7229   2.296   1.843   0.294
 2110SOL    HW2 7230   2.434   1.903   0.230
 2111SOL     OW 7231   2.094   2.683   6.459
 2111SOL    HW1 7232   2.119   2.776   6.434
 2111SOL    HW2 7233   2.067   2.680   6.556
 2112SOL     OW 7234   5.167   3.065   0.297
 2112SOL    HW1 7235   5.097   3.133   0.318
 2112SOL    HW2 7236   5.240   3.107   0.244
 2113SOL     OW 7237   2.547   1.662   4.312
 2113SOL    HW1 7238   2.604   1.579   4.314
 2113SOL    HW2 7239   2.600   1.740   4.345
 2114SOL     OW 7240   2.137   1.959   6.350
 2114SOL    HW1 7241   2.191   1.943   6.433
 2114SOL    HW2 7242   2.114   2.056   6.345
 2115SOL     OW 7243   1.495   4.108   3.212
 2115SOL    HW1 7244   1.565   4.179   3.212
 2115SOL    HW2 7245   1.408   4.147   3.242
 2116SOL     OW 7246   0.948   4.979   3.068
 2116SOL    HW1 7247   0.891   4.942   2.995
 2116SOL    HW2 7248   1.012   5.046   3.030
 2117SOL     OW 7249   6.802   4.580   2.017
 2117SOL    HW1 7250   6.850   4.536   1.941
 2117SOL    HW2 7251   6.789   4.677   1.998
 2118SOL     OW 7252   6.301   2.687   3.009
 2118SOL    HW1 7253   6.299   2.693   2.909
 2118SOL    HW2 7254   6.275   2.775   3.048
 2119SOL     OW 7255   1.388   0.627   0.934
 2119SOL    HW1 7256   1.374   0.651   1.030
 2119SOL    HW2 7257   1.398   0.711   0.880
 2120SOL     OW 7258   0.379   5.097   3.130
 2120SOL    HW1 7259   0.334   5.019   3.174
 2120SOL    HW2 7260   0.476   5.095   3.151
 2121SOL     OW 7261   1.599   3.834   6.340
 2121SOL    HW1 7262   1.541   3.889   6.281
 2121SOL    HW2 7263   1.678   3.889   6.369
 2122SOL     OW 7264   5.708   4.255   6.049
 2122SOL    HW1 7265   5.654   4.335   6.021
 2122SOL    HW2 7266   5.777   4.283   6.115
 2123SOL     OW 7267   6.776   5.114   2.262
 2123SOL    HW1 7268   6.697   5.120   2.324
 2123SOL    HW2 7269   6.853   5.162   2.302
 2124SOL     OW 7270   3.221   2.326   1.206
 2124SOL    HW1 7271   3.210   2.307   1.108
 2124SOL    HW2 7272   3.237   2.240   1.255
 2125SOL     OW 7273   1.906   0.777   2.559
 2125SOL    HW1 7274   1.828   0.725   2.594
 2125SOL    HW2 7275   1.899   0.872   2.591
 2126SOL     OW 7276   3.747   2.140   6.485
 2126SOL    HW1 7277   3.712   2.061   6.435
 2126SOL    HW2 7278   3.776   2.211   6.420
 2127SOL     OW 7279   1.034   2.248   5.592
 2127SOL    HW1 7280   1.022   2.347   5.600
 2127SOL    HW2 7281   1.036   2.207   5.684
 2128SOL     OW 7282   6.536   3.447   4.338
 2128SOL    HW1 7283   6.623   3.398   4.332
 2128SOL    HW2 7284   6.462   3.388   4.306
 2129SOL     OW 7285   4.666   2.947   5.255
 2129SOL    HW1 7286   4.573   2.971   5.284
 2129SOL    HW2 7287   4.725   3.028   5.259
 2130SOL     OW 7288   3.683   0.447   2.973
 2130SOL    HW1 7289   3.709   0.357   3.010
 2130SOL    HW2 7290   3.655   0.437   2.878
 2131SOL     OW 7291   4.688   1.589   6.945
 2131SOL    HW1 7292   4.640   1.541   7.018
 2131SOL    HW2 7293   4.629   1.594   6.864
 2132SOL     OW 7294   3.681   0.857   0.543
 2132SOL    HW1 7295   3.743   0.788   0.581
 2132SOL    HW2 7296   3.589   0.818   0.538
 2133SOL     OW 7297   3.417   3.278   1.006
 2133SOL    HW1 7298   3.417   3.179   1.002
 2133SOL    HW2 7299   3.412   3.316   0.913
 2134SOL     OW 7300   0.606   0.601   5.849
 2134SOL    HW1 7301   0.593   0.688   5.803
 2134SOL    HW2 7302   0.522   0.576   5.898
 2135SOL     OW 7303   1.755   2.897   5.261
 2135SOL    HW1 7304   1.717   2.855   5.178
 2135SOL    HW2 7305   1.708   2.984   5.277
 2136SOL     OW 7306   0.691   4.384   4.274
 2136SOL    HW1 7307   0.642   4.352   4.355
 2136SOL    HW2 7308   0.655   4.472   4.245
 2137SOL     OW 7309   1.032   5.425   4.535
 2137SOL    HW1 7310   1.078   5.497   4.587
 2137SOL    HW2 7311   1.062   5.336   4.568
 2138SOL     OW 7312   6.645   0.841   2.653
 2138SOL    HW1 7313   6.676   0.928   2.615
 2138SOL    HW2 7314   6.551   0.823   2.624
 2139SOL     OW 7315   3.477   1.030   2.853
 2139SOL    HW1 7316   3.397   0.984   2.814
 2139SOL    HW2 7317   3.560   0.984   2.822
 2140SOL     OW 7318   3.876   6.176   3.966
 2140SOL    HW1 7319   3.874   6.251   4.031
 2140SOL    HW2 7320   3.782   6.150   3.942
 2141SOL     OW 7321   6.013   4.519   2.059
 2141SOL    HW1 7322   6.111   4.513   2.074
 2141SOL    HW2 7323   5.994   4.589   1.990
 2142SOL     OW 7324   1.404   2.155   3.078
 2142SOL    HW1 7325   1.489   2.190   3.116
 2142SOL    HW2 7326   1.402   2.171   2.979
 2143SOL     OW 7327   3.010   4.488   1.391
 2143SOL    HW1 7328   2.959   4.455   1.312
 2143SOL    HW2 7329   2.974   4.446   1.475
 2144SOL     OW 7330   1.237   5.582   3.925
 2144SOL    HW1 7331   1.248   5.582   4.025
 2144SOL    HW2 7332   1.238   5.488   3.891
 2145SOL     OW 7333   4.396   5.724   4.341
 2145SOL    HW1 7334   4.313   5.702   4.290
 2145SOL    HW2 7335   4.419   5.820   4.328
 2146SOL     OW 7336   2.849   3.719   1.303
 2146SOL    HW1 7337   2.871   3.739   1.207
 2146SOL    HW2 7338   2.752   3.738   1.319
 2147SOL     OW 7339   6.873   1.619   6.078
 2147SOL    HW1 7340   6.812   1.673   6.137
 2147SOL    HW2 7341   6.915   1.679   6.010
 2148SOL     OW 7342   5.370   2.071   5.508
 2148SOL    HW1 7343   5.426   2.145   5.546
 2148SOL    HW2 7344   5.365   1.996   5.574
 2149SOL     OW 7345   3.508   2.405   1.305
 2149SOL    HW1 7346   3.460   2.429   1.389
 2149SOL    HW2 7347   3.596   2.452   1.302
 2150SOL     OW 7348   3.052   1.818   2.383
 2150SOL    HW1 7349   2.958   1.805   2.351
 2150SOL    HW2 7350   3.087   1.905   2.348
 2151SOL     OW 7351   1.799   0.735   5.163
 2151SOL    HW1 7352   1.777   0.830   5.186
 2151SOL    HW2 7353   1.764   0.715   5.071
 2152SOL     OW 7354   3.780   6.295   1.720
 2152SOL    HW1 7355   3.877   6.320   1.721
 2152SOL    HW2 7356   3.754   6.266   1.628
 2153SOL     OW 7357   3.621   0.510   3.478
 2153SOL    HW1 7358   3.651   0.583   3.417
 2153SOL    HW2 7359   3.694   0.442   3.487
 2154SOL     OW 7360   4.824   6.970   4.792
 2154SOL    HW1 7361   4.776   6.883   4.779
 2154SOL    HW2 7362   4.907   6.954   4.845
 2155SOL     OW 7363   1.854   6.119   0.124
 2155SOL    HW1 7364   1.852   6.053   0.199
 2155SOL    HW2 7365   1.914   6.195   0.148
 2156SOL     OW 7366   3.045   1.060   4.714
 2156SOL    HW1 7367   2.996   1.098   4.793
 2156SOL    HW2 7368   2.985   1.061   4.634
 2157SOL     OW 7369   6.508   1.111   3.452
 2157SOL    HW1 7370   6.552   1.189   3.497
 2157SOL    HW2 7371   6.514   1.031   3.513
 2158SOL     OW 7372   4.080   6.115   0.849
 2158SOL    HW1 7373   4.112   6.042   0.909
 2158SOL    HW2 7374   4.002   6.161   0.891
 2159SOL     OW 7375   1.937   6.543   5.554
 2159SOL    HW1 7376   2.035   6.558   5.540
 2159SOL    HW2 7377   1.890   6.553   5.466
 2160SOL     OW 7378   4.212   4.104   0.731
 2160SOL    HW1 7379   4.174   4.168   0.798
 2160SOL    HW2 7380   4.294   4.142   0.690
 2161SOL     OW 7381   5.296   4.240   3.262
 2161SOL    HW1 7382   5.242   4.172   3.213
 2161SOL    HW2 7383   5.249   4.264   3.347
 2162SOL     OW 7384   2.548   0.744   1.353
 2162SOL    HW1 7385   2.620   0.771   1.417
 2162SOL    HW2 7386   2.563   0.787   1.265
 2163SOL     OW 7387   0.745   4.391   6.655
 2163SOL    HW1 7388   0.818   4.324   6.659
 2163SOL    HW2 7389   0.758   4.451   6.576
 2164SOL     OW 7390   1.229   3.181   6.669
 2164SOL    HW1 7391   1.148   3.136   6.632
 2164SOL    HW2 7392   1.253   3.259   6.611
 2165SOL     OW 7393   0.618   2.516   2.978
 2165SOL    HW1 7394   0.625   2.488   2.882
 2165SOL    HW2 7395   0.684   2.465   3.033
 2166SOL     OW 7396   1.292   2.292   4.724
 2166SOL    HW1 7397   1.246   2.281   4.636
 2166SOL    HW2 7398   1.229   2.332   4.790
 2167SOL     OW 7399   1.809   1.291   3.809
 2167SOL    HW1 7400   1.908   1.281   3.823
 2167SOL    HW2 7401   1.784   1.387   3.820
 2168SOL     OW 7402   0.605   1.923   4.121
 2168SOL    HW1 7403   0.526   1.942   4.064
 2168SOL    HW2 7404   0.597   1.831   4.161
 2169SOL     OW 7405   5.545   2.057   5.875
 2169SOL    HW1 7406   5.561   2.153   5.897
 2169SOL    HW2 7407   5.546   2.046   5.776
 2170SOL     OW 7408   6.540   5.080   5.307
 2170SOL    HW1 7409   6.560   5.144   5.233
 2170SOL    HW2 7410   6.577   5.116   5.393
 2171SOL     OW 7411   0.039   3.870   1.803
 2171SOL    HW1 7412   0.086   3.891   1.888
 2171SOL    HW2 7413   0.009   3.955   1.759
 2172SOL     OW 7414   2.984   2.428   0.515
 2172SOL    HW1 7415   2.979   2.526   0.533
 2172SOL    HW2 7416   2.905   2.399   0.463
 2173SOL     OW 7417   3.472   0.391   4.546
 2173SOL    HW1 7418   3.525   0.443   4.479
 2173SOL    HW2 7419   3.499   0.418   4.639
 2174SOL     OW 7420   5.759   5.478   5.068
 2174SOL    HW1 7421   5.739   5.486   4.971
 2174SOL    HW2 7422   5.726   5.390   5.102
 2175SOL     OW 7423   2.331   2.771   4.590
 2175SOL    HW1 7424   2.318   2.853   4.646
 2175SOL    HW2 7425   2.244   2.722   4.583
 2176SOL     OW 7426   0.902   2.761   0.205
 2176SOL    HW1 7427   0.973   2.724   0.146
 2176SOL    HW2 7428   0.874   2.851   0.172
 2177SOL     OW 7429   6.361   1.390   3.722
 2177SOL    HW1 7430   6.272   1.354   3.695
 2177SOL    HW2 7431   6.406   1.326   3.785
 2178SOL     OW 7432   0.981   3.404   0.285
 2178SOL    HW1 7433   0.977   3.437   0.379
 2178SOL    HW2 7434   0.952   3.308   0.283
 2179SOL     OW 7435   1.831   5.427   4.713
 2179SOL    HW1 7436   1.760   5.442   4.645
 2179SOL    HW2 7437   1.825   5.497   4.784
 2180SOL     OW 7438   2.290   2.703   1.733
 2180SOL    HW1 7439   2.263   2.790   1.690
 2180SOL    HW2 7440   2.216   2.672   1.793
 2181SOL     OW 7441   4.280   4.889   5.454
 2181SOL    HW1 7442   4.184   4.884   5.481
 2181SOL    HW2 7443   4.287   4.898   5.354
 2182SOL     OW 7444   0.773   3.243   4.300
 2182SOL    HW1 7445   0.729   3.310   4.359
 2182SOL    HW2 7446   0.780   3.156   4.349
 2183SOL     OW 7447   2.879   4.226   5.626
 2183SOL    HW1 7448   2.783   4.196   5.624
 2183SOL    HW2 7449   2.917   4.221   5.533
 2184SOL     OW 7450   4.651   2.013   6.601
 2184SOL    HW1 7451   4.670   2.039   6.695
 2184SOL    HW2 7452   4.653   1.913   6.593
 2185SOL     OW 7453   1.508   2.154   0.592
 2185SOL    HW1 7454   1.567   2.121   0.518
 2185SOL    HW2 7455   1.561   2.160   0.676
 2186SOL     OW 7456   0.447   5.211   2.171
 2186SOL    HW1 7457   0.391   5.128   2.179
 2186SOL    HW2 7458   0.518   5.209   2.242
 2187SOL     OW 7459   6.337   1.506   2.697
 2187SOL    HW1 7460   6.326   1.461   2.785
 2187SOL    HW2 7461   6.287   1.593   2.697
 2188SOL     OW 7462   6.190   6.152   4.377
 2188SOL    HW1 7463   6.107   6.109   4.410
 2188SOL    HW2 7464   6.189   6.156   4.277
 2189SOL     OW 7465   1.735   0.074   0.211
 2189SOL    HW1 7466   1.681   0.029   0.282
 2189SOL    HW2 7467   1.830   0.081   0.242
 2190SOL     OW 7468   0.177   2.778   1.856
 2190SOL    HW1 7469   0.213   2.685   1.850
 2190SOL    HW2 7470   0.170   2.805   1.952
 2191SOL     OW 7471   2.803   2.067   6.558
 2191SOL    HW1 7472   2.895   2.057   6.595
 2191SOL    HW2 7473   2.758   2.145   6.600
 2192SOL     OW 7474   3.790   1.086   3.017
 2192SOL    HW1 7475   3.822   1.148   3.088
 2192SOL    HW2 7476   3.833   1.111   2.930
 2193SOL     OW 7477   6.638   5.482   5.807
 2193SOL    HW1 7478   6.705   5.535   5.756
 2193SOL    HW2 7479   6.676   5.455   5.895
 2194SOL     OW 7480   2.372   4.788   6.760
 2194SOL    HW1 7481   2.305   4.767   6.689
 2194SOL    HW2 7482   2.456   4.822   6.717
 2195SOL     OW 7483   6.961   0.261   3.565
 2195SOL    HW1 7484   6.897   0.309   3.505
 2195SOL    HW2 7485   6.913   0.186   3.612
 2196SOL     OW 7486   3.239   0.579   4.660
 2196SOL    HW1 7487   3.321   0.579   4.603
 2196SOL    HW2 7488   3.243   0.656   4.723
 2197SOL     OW 7489   3.070   3.724   0.819
 2197SOL    HW1 7490   3.095   3.638   0.864
 2197SOL    HW2 7491   3.065   3.710   0.721
 2198SOL     OW 7492   6.573   1.076   0.404
 2198SOL    HW1 7493   6.607   1.097   0.496
 2198SOL    HW2 7494   6.477   1.052   0.409
 2199SOL     OW 7495   5.408   1.182   3.095
 2199SOL    HW1 7496   5.318   1.212   3.065
 2199SOL    HW2 7497   5.399   1.101   3.154
 2200SOL     OW 7498   3.132   0.332   4.641
 2200SOL    HW1 7499   3.201   0.260   4.637
 2200SOL    HW2 7500   3.178   0.421   4.653
 2201SOL     OW 7501   6.280   2.333   3.387
 2201SOL    HW1 7502   6.242   2.408   3.334
 2201SOL    HW2 7503   6.211   2.263   3.401
 2202SOL     OW 7504   2.804   5.152   2.582
 2202SOL    HW1 7505   2.715   5.196   2.572
 2202SOL    HW2 7506   2.803   5.065   2.531
 2203SOL     OW 7507   2.475   2.653   1.510
 2203SOL    HW1 7508   2.474   2.566   1.559
 2203SOL    HW2 7509   2.408   2.715   1.551
 2204SOL     OW 7510   4.564   0.877   0.067
 2204SOL    HW1 7511   4.598   0.790   0.031
 2204SOL    HW2 7512   4.523   0.862   0.157
 2205SOL     OW 7513   1.005   0.133   5.935
 2205SOL    HW1 7514   0.986   0.127   6.033
 2205SOL    HW2 7515   1.090   0.183   5.920
 2206SOL     OW 7516   2.764   4.396   6.321
 2206SOL    HW1 7517   2.666   4.384   6.309
 2206SOL    HW2 7518   2.786   4.402   6.419
 2207SOL     OW 7519   3.039   3.965   6.839
 2207SOL    HW1 7520   3.132   3.985   6.869
 2207SOL    HW2 7521   3.040   3.932   6.745
 2208SOL     OW 7522   1.521   6.259   2.316
 2208SOL    HW1 7523   1.472   6.233   2.400
 2208SOL    HW2 7524   1.616   6.280   2.339
 2209SOL     OW 7525   1.615   6.132   5.679
 2209SOL    HW1 7526   1.694   6.174   5.636
 2209SOL    HW2 7527   1.632   6.035   5.694
 2210SOL     OW 7528   6.751   4.942   4.139
 2210SOL    HW1 7529   6.804   4.919   4.058
 2210SOL    HW2 7530   6.729   5.040   4.138
 2211SOL     OW 7531   5.375   0.270   7.019
 2211SOL    HW1 7532   5.294   0.298   6.966
 2211SOL    HW2 7533   5.447   0.241   6.956
 2212SOL     OW 7534   1.857   6.358   6.745
 2212SOL    HW1 7535   1.875   6.399   6.656
 2212SOL    HW2 7536   1.761   6.371   6.770
 2213SOL     OW 7537   3.770   2.902   5.078
 2213SOL    HW1 7538   3.829   2.920   4.999
 2213SOL    HW2 7539   3.827   2.883   5.158
 2214SOL     OW 7540   3.980   2.888   5.267
 2214SOL    HW1 7541   4.004   2.960   5.202
 2214SOL    HW2 7542   4.063   2.844   5.300
 2215SOL     OW 7543   6.668   1.967   6.938
 2215SOL    HW1 7544   6.593   1.901   6.927
 2215SOL    HW2 7545   6.730   1.935   7.010
 2216SOL     OW 7546   1.732   0.464   6.086
 2216SOL    HW1 7547   1.823   0.433   6.056
 2216SOL    HW2 7548   1.732   0.564   6.094
 2217SOL     OW 7549   3.870   6.750   1.497
 2217SOL    HW1 7550   3.843   6.846   1.487
 2217SOL    HW2 7551   3.802   6.702   1.552
 2218SOL     OW 7552   0.646   6.860   0.751
 2218SOL    HW1 7553   0.627   6.901   0.662
 2218SOL    HW2 7554   0.566   6.810   0.782
 2219SOL     OW 7555   6.519   2.231   2.119
 2219SOL    HW1 7556   6.580   2.302   2.083
 2219SOL    HW2 7557   6.510   2.243   2.218
 2220SOL     OW 7558   1.280   0.321   3.950
 2220SOL    HW1 7559   1.289   0.262   3.870
 2220SOL    HW2 7560   1.318   0.275   4.030
 2221SOL     OW 7561   6.041   0.701   5.051
 2221SOL    HW1 7562   6.127   0.703   5.102
 2221SOL    HW2 7563   6.008   0.795   5.037
 2222SOL     OW 7564   4.434   0.088   0.591
 2222SOL    HW1 7565   4.403   0.112   0.499
 2222SOL    HW2 7566   4.364   0.034   0.637
 2223SOL     OW 7567   5.835   0.862   4.432
 2223SOL    HW1 7568   5.831   0.943   4.373
 2223SOL    HW2 7569   5.918   0.866   4.487
 2224SOL     OW 7570   2.022   4.315   1.354
 2224SOL    HW1 7571   2.044   4.325   1.257
 2224SOL    HW2 7572   2.106   4.309   1.407
 2225SOL     OW 7573   6.274   6.028   3.088
 2225SOL    HW1 7574   6.330   6.059   3.011
 2225SOL    HW2 7575   6.315   5.946   3.128
 2226SOL     OW 7576   4.187   5.033   0.789
 2226SOL    HW1 7577   4.149   4.971   0.720
 2226SOL    HW2 7578   4.171   5.128   0.760
 2227SOL     OW 7579   5.672   3.945   0.625
 2227SOL    HW1 7580   5.708   3.970   0.715
 2227SOL    HW2 7581   5.746   3.948   0.558
 2228SOL     OW 7582   2.456   5.024   1.140
 2228SOL    HW1 7583   2.418   4.969   1.066
 2228SOL    HW2 7584   2.444   4.976   1.227
 2229SOL     OW 7585   4.375   1.653   4.429
 2229SOL    HW1 7586   4.417   1.667   4.340
 2229SOL    HW2 7587   4.295   1.594   4.419
 2230SOL     OW 7588   6.153   5.754   5.551
 2230SOL    HW1 7589   6.104   5.834   5.587
 2230SOL    HW2 7590   6.136   5.675   5.610
 2231SOL     OW 7591   0.594   0.749   2.114
 2231SOL    HW1 7592   0.500   0.720   2.131
 2231SOL    HW2 7593   0.609   0.758   2.015
 2232SOL     OW 7594   0.709   3.299   4.953
 2232SOL    HW1 7595   0.737   3.218   5.004
 2232SOL    HW2 7596   0.765   3.377   4.981
 2233SOL     OW 7597   2.694   4.566   1.409
 2233SOL    HW1 7598   2.614   4.518   1.444
 2233SOL    HW2 7599   2.769   4.557   1.474
 2234SOL     OW 7600   4.147   2.135   1.794
 2234SOL    HW1 7601   4.177   2.094   1.708
 2234SOL    HW2 7602   4.083   2.073   1.840
 2235SOL     OW 7603   2.013   0.818   1.059
 2235SOL    HW1 7604   2.060   0.878   1.124
 2235SOL    HW2 7605   1.923   0.856   1.038
 2236SOL     OW 7606   0.971   4.244   6.585
 2236SOL    HW1 7607   0.952   4.268   6.490
 2236SOL    HW2 7608   0.976   4.145   6.595
 2237SOL     OW 7609   5.496   4.858   3.860
 2237SOL    HW1 7610   5.397   4.868   3.873
 2237SOL    HW2 7611   5.532   4.941   3.816
 2238SOL     OW 7612   5.254   4.679   1.160
 2238SOL    HW1 7613   5.262   4.630   1.074
 2238SOL    HW2 7614   5.212   4.768   1.144
 2239SOL     OW 7615   2.964   5.133   3.266
 2239SOL    HW1 7616   2.999   5.081   3.344
 2239SOL    HW2 7617   2.900   5.203   3.297
 2240SOL     OW 7618   5.120   6.019   3.831
 2240SOL    HW1 7619   5.051   5.959   3.789
 2240SOL    HW2 7620   5.211   5.992   3.800
 2241SOL     OW 7621   0.173   0.075   2.642
 2241SOL    HW1 7622   0.198   0.130   2.722
 2241SOL    HW2 7623   0.081   0.037   2.656
 2242SOL     OW 7624   5.036   1.885   2.848
 2242SOL    HW1 7625   5.012   1.794   2.813
 2242SOL    HW2 7626   4.959   1.947   2.832
 2243SOL     OW 7627   2.984   6.485   5.390
 2243SOL    HW1 7628   2.944   6.433   5.466
 2243SOL    HW2 7629   2.937   6.572   5.381
 2244SOL     OW 7630   2.313   6.640   2.112
 2244SOL    HW1 7631   2.334   6.631   2.015
 2244SOL    HW2 7632   2.225   6.597   2.132
 2245SOL     OW 7633   0.673   2.029   2.240
 2245SOL    HW1 7634   0.698   1.939   2.277
 2245SOL    HW2 7635   0.756   2.078   2.213
 2246SOL     OW 7636   1.124   1.313   6.033
 2246SOL    HW1 7637   1.142   1.410   6.015
 2246SOL    HW2 7638   1.175   1.284   6.114
 2247SOL     OW 7639   2.999   3.024   5.339
 2247SOL    HW1 7640   3.039   3.113   5.315
 2247SOL    HW2 7641   2.899   3.030   5.333
 2248SOL     OW 7642   3.797   4.153   6.152
 2248SOL    HW1 7643   3.811   4.089   6.077
 2248SOL    HW2 7644   3.842   4.240   6.131
 2249SOL     OW 7645   6.158   6.478   2.417
 2249SOL    HW1 7646   6.250   6.510   2.439
 2249SOL    HW2 7647   6.109   6.455   2.501
 2250SOL     OW 7648   4.342   3.555   0.079
 2250SOL    HW1 7649   4.354   3.459   0.053
 2250SOL    HW2 7650   4.245   3.576   0.084
 2251SOL     OW 7651   5.026   0.933   6.867
 2251SOL    HW1 7652   5.035   0.960   6.962
 2251SOL    HW2 7653   4.949   0.980   6.825
 2252SOL     OW 7654   5.371   2.267   2.880
 2252SOL    HW1 7655   5.288   2.232   2.837
 2252SOL    HW2 7656   5.405   2.346   2.829
 2253SOL     OW 7657   1.191   3.801   6.404
 2253SOL    HW1 7658   1.279   3.825   6.445
 2253SOL    HW2 7659   1.153   3.722   6.452
 2254SOL     OW 7660   3.123   3.733   5.293
 2254SOL    HW1 7661   3.067   3.719   5.211
 2254SOL    HW2 7662   3.219   3.713   5.271
 2255SOL     OW 7663   4.909   2.445   6.484
 2255SOL    HW1 7664   4.870   2.391   6.410
 2255SOL    HW2 7665   5.005   2.421   6.496
 2256SOL     OW 7666   5.057   5.971   1.654
 2256SOL    HW1 7667   4.985   5.905   1.634
 2256SOL    HW2 7668   5.080   6.021   1.570
 2257SOL     OW 7669   0.239   1.961   4.448
 2257SOL    HW1 7670   0.319   1.936   4.503
 2257SOL    HW2 7671   0.267   2.024   4.375
 2258SOL     OW 7672   1.111   5.390   6.022
 2258SOL    HW1 7673   1.177   5.384   6.097
 2258SOL    HW2 7674   1.133   5.469   5.965
 2259SOL     OW 7675   5.105   4.167   6.361
 2259SOL    HW1 7676   5.043   4.142   6.435
 2259SOL    HW2 7677   5.063   4.146   6.273
 2260SOL     OW 7678   5.713   4.429   3.146
 2260SOL    HW1 7679   5.727   4.378   3.061
 2260SOL    HW2 7680   5.798   4.474   3.172
 2261SOL     OW 7681   6.868   6.113   0.651
 2261SOL    HW1 7682   6.853   6.179   0.577
 2261SOL    HW2 7683   6.841   6.153   0.738
 2262SOL     OW 7684   5.502   1.574   2.072
 2262SOL    HW1 7685   5.517   1.650   2.008
 2262SOL    HW2 7686   5.424   1.596   2.131
 2263SOL     OW 7687   2.912   5.835   6.641
 2263SOL    HW1 7688   2.877   5.838   6.734
 2263SOL    HW2 7689   2.841   5.867   6.578
 2264SOL     OW 7690   3.368   3.348   0.747
 2264SOL    HW1 7691   3.332   3.257   0.730
 2264SOL    HW2 7692   3.306   3.417   0.709
 2265SOL     OW 7693   0.780   0.746   4.166
 2265SOL    HW1 7694   0.717   0.798   4.224
 2265SOL    HW2 7695   0.759   0.765   4.070
 2266SOL     OW 7696   6.307   2.134   1.315
 2266SOL    HW1 7697   6.317   2.227   1.279
 2266SOL    HW2 7698   6.395   2.088   1.314
 2267SOL     OW 7699   5.612   2.589   4.934
 2267SOL    HW1 7700   5.558   2.635   4.863
 2267SOL    HW2 7701   5.706   2.578   4.901
 2268SOL     OW 7702   6.841   4.023   6.256
 2268SOL    HW1 7703   6.775   3.998   6.327
 2268SOL    HW2 7704   6.923   4.060   6.299
 2269SOL     OW 7705   5.964   5.886   4.599
 2269SOL    HW1 7706   5.947   5.982   4.578
 2269SOL    HW2 7707   5.922   5.829   4.528
 2270SOL     OW 7708   3.797   2.356   6.360
 2270SOL    HW1 7709   3.703   2.386   6.372
 2270SOL    HW2 7710   3.860   2.430   6.384
 2271SOL     OW 7711   6.353   4.110   0.566
 2271SOL    HW1 7712   6.392   4.083   0.477
 2271SOL    HW2 7713   6.397   4.194   0.598
 2272SOL     OW 7714   6.246   1.674   5.291
 2272SOL    HW1 7715   6.176   1.725   5.340
 2272SOL    HW2 7716   6.211   1.644   5.203
 2273SOL     OW 7717   1.389   0.505   2.279
 2273SOL    HW1 7718   1.445   0.587   2.269
 2273SOL    HW2 7719   1.352   0.479   2.190
 2274SOL     OW 7720   1.221   2.302   5.995
 2274SOL    HW1 7721   1.289   2.371   5.969
 2274SOL    HW2 7722   1.265   2.234   6.054
 2275SOL     OW 7723   5.601   0.792   4.013
 2275SOL    HW1 7724   5.598   0.734   4.094
 2275SOL    HW2 7725   5.595   0.736   3.931
 2276SOL     OW 7726   3.279   5.084   1.239
 2276SOL    HW1 7727   3.196   5.133   1.213
 2276SOL    HW2 7728   3.296   5.010   1.173
 2277SOL     OW 7729   3.472   3.299   5.575
 2277SOL    HW1 7730   3.532   3.298   5.655
 2277SOL    HW2 7731   3.418   3.384   5.575
 2278SOL     OW 7732   6.561   5.464   3.891
 2278SOL    HW1 7733   6.493   5.424   3.953
 2278SOL    HW2 7734   6.652   5.453   3.929
 2279SOL     OW 7735   4.498   6.169   4.728
 2279SOL    HW1 7736   4.548   6.256   4.720
 2279SOL    HW2 7737   4.550   6.097   4.681
 2280SOL     OW 7738   0.116   5.979   4.558
 2280SOL    HW1 7739   0.077   6.017   4.642
 2280SOL    HW2 7740   0.066   5.896   4.534
 2281SOL     OW 7741   3.513   1.481   1.234
 2281SOL    HW1 7742   3.442   1.410   1.242
 2281SOL    HW2 7743   3.603   1.439   1.245
 2282SOL     OW 7744   4.488   6.543   5.261
 2282SOL    HW1 7745   4.520   6.448   5.259
 2282SOL    HW2 7746   4.483   6.578   5.167
 2283SOL     OW 7747   6.619   4.487   1.791
 2283SOL    HW1 7748   6.588   4.408   1.739
 2283SOL    HW2 7749   6.719   4.485   1.798
 2284SOL     OW 7750   2.279   2.393   0.148
 2284SOL    HW1 7751   2.265   2.467   0.083
 2284SOL    HW2 7752   2.254   2.423   0.240
 2285SOL     OW 7753   2.123   2.479   0.898
 2285SOL    HW1 7754   2.114   2.561   0.954
 2285SOL    HW2 7755   2.032   2.449   0.869
 2286SOL     OW 7756   0.729   0.118   4.816
 2286SOL    HW1 7757   0.820   0.160   4.822
 2286SOL    HW2 7758   0.734   0.022   4.844
 2287SOL     OW 7759   1.921   1.766   2.736
 2287SOL    HW1 7760   1.922   1.792   2.640
 2287SOL    HW2 7761   1.929   1.667   2.744
 2288SOL     OW 7762   5.932   5.219   4.208
 2288SOL    HW1 7763   5.998   5.289   4.238
 2288SOL    HW2 7764   5.845   5.263   4.187
 2289SOL     OW 7765   6.450   4.546   2.549
 2289SOL    HW1 7766   6.531   4.527   2.605
 2289SOL    HW2 7767   6.398   4.621   2.590
 2290SOL     OW 7768   1.592   3.521   2.255
 2290SOL    HW1 7769   1.500   3.549   2.227
 2290SOL    HW2 7770   1.648   3.505   2.174
 2291SOL     OW 7771   2.500   2.646   6.608
 2291SOL    HW1 7772   2.408   2.616   6.634
 2291SOL    HW2 7773   2.551   2.569   6.569
 2292SOL     OW 7774   5.912   2.868   4.018
 2292SOL    HW1 7775   5.905   2.859   4.118
 2292SOL    HW2 7776   5.873   2.956   3.990
 2293SOL     OW 7777   5.625   6.858   1.506
 2293SOL    HW1 7778   5.594   6.851   1.412
 2293SOL    HW2 7779   5.638   6.766   1.545
 2294SOL     OW 7780   3.825   0.836   6.380
 2294SOL    HW1 7781   3.793   0.884   6.463
 2294SOL    HW2 7782   3.910   0.787   6.401
 2295SOL     OW 7783   0.307   1.727   2.725
 2295SOL    HW1 7784   0.315   1.770   2.815
 2295SOL    HW2 7785   0.394   1.686   2.699
 2296SOL     OW 7786   3.482   6.111   2.291
 2296SOL    HW1 7787   3.461   6.013   2.295
 2296SOL    HW2 7788   3.398   6.162   2.273
 2297SOL     OW 7789   5.337   4.589   5.287
 2297SOL    HW1 7790   5.350   4.685   5.310
 2297SOL    HW2 7791   5.425   4.542   5.285
 2298SOL     OW 7792   3.621   4.180   2.033
 2298SOL    HW1 7793   3.670   4.213   1.952
 2298SOL    HW2 7794   3.640   4.240   2.111
 2299SOL     OW 7795   4.561   4.305   5.146
 2299SOL    HW1 7796   4.558   4.311   5.046
 2299SOL    HW2 7797   4.598   4.216   5.173
 2300SOL     OW 7798   2.221   6.034   2.828
 2300SOL    HW1 7799   2.181   6.100   2.891
 2300SOL    HW2 7800   2.203   6.064   2.734
 2301SOL     OW 7801   3.558   2.887   3.126
 2301SOL    HW1 7802   3.462   2.911   3.128
 2301SOL    HW2 7803   3.590   2.869   3.219
 2302SOL     OW 7804   3.922   0.386   1.347
 2302SOL    HW1 7805   3.983   0.449   1.301
 2302SOL    HW2 7806   3.955   0.292   1.335
 2303SOL     OW 7807   2.363   3.352   7.012
 2303SOL    HW1 7808   2.455   3.350   0.022
 2303SOL    HW2 7809   2.299   3.312   0.051
 2304SOL     OW 7810   5.558   6.746   3.916
 2304SOL    HW1 7811   5.532   6.679   3.847
 2304SOL    HW2 7812   5.622   6.705   3.981
 2305SOL     OW 7813   2.246   0.284   2.837
 2305SOL    HW1 7814   2.313   0.257   2.907
 2305SOL    HW2 7815   2.294   0.327   2.761
 2306SOL     OW 7816   2.102   5.211   2.040
 2306SOL    HW1 7817   2.187   5.161   2.057
 2306SOL    HW2 7818   2.031   5.146   2.013
 2307SOL     OW 7819   0.168   3.014   4.329
 2307SOL    HW1 7820   0.137   2.924   4.298
 2307SOL    HW2 7821   0.089   3.069   4.356
 2308SOL     OW 7822   2.257   4.886   1.766
 2308SOL    HW1 7823   2.216   4.873   1.676
 2308SOL    HW2 7824   2.206   4.832   1.834
 2309SOL     OW 7825   1.808   0.832   5.929
 2309SOL    HW1 7826   1.904   0.813   5.953
 2309SOL    HW2 7827   1.781   0.920   5.967
 2310SOL     OW 7828   5.888   5.264   0.717
 2310SOL    HW1 7829   5.795   5.240   0.747
 2310SOL    HW2 7830   5.911   5.355   0.751
 2311SOL     OW 7831   2.143   0.509   1.422
 2311SOL    HW1 7832   2.111   0.583   1.481
 2311SOL    HW2 7833   2.243   0.509   1.421
 2312SOL     OW 7834   4.816   6.013   3.474
 2312SOL    HW1 7835   4.896   6.069   3.454
 2312SOL    HW2 7836   4.733   6.066   3.456
 2313SOL     OW 7837   5.423   5.624   1.869
 2313SOL    HW1 7838   5.439   5.531   1.903
 2313SOL    HW2 7839   5.377   5.678   1.941
 2314SOL     OW 7840   5.498   5.795   3.625
 2314SOL    HW1 7841   5.594   5.811   3.650
 2314SOL    HW2 7842   5.442   5.798   3.708
 2315SOL     OW 7843   5.315   2.844   6.742
 2315SOL    HW1 7844   5.375   2.814   6.668
 2315SOL    HW2 7845   5.233   2.788   6.744
 2316SOL     OW 7846   4.461   1.680   4.159
 2316SOL    HW1 7847   4.437   1.748   4.090
 2316SOL    HW2 7848   4.557   1.656   4.150
 2317SOL     OW 7849   0.536   6.497   3.365
 2317SOL    HW1 7850   0.558   6.466   3.458
 2317SOL    HW2 7851   0.482   6.427   3.319
 2318SOL     OW 7852   0.714   2.398   3.581
 2318SOL    HW1 7853   0.803   2.387   3.537
 2318SOL    HW2 7854   0.651   2.441   3.516
 2319SOL     OW 7855   1.696   4.755   3.361
 2319SOL    HW1 7856   1.781   4.740   3.312
 2319SOL    HW2 7857   1.698   4.705   3.448
 2320SOL     OW 7858   0.973   2.541   4.247
 2320SOL    HW1 7859   0.933   2.631   4.267
 2320SOL    HW2 7860   1.031   2.548   4.166
 2321SOL     OW 7861   2.924   6.903   6.503
 2321SOL    HW1 7862   2.897   6.998   6.485
 2321SOL    HW2 7863   3.023   6.893   6.488
 2322SOL     OW 7864   2.954   1.791   5.180
 2322SOL    HW1 7865   2.962   1.891   5.176
 2322SOL    HW2 7866   2.981   1.752   5.092
 2323SOL     OW 7867   2.385   5.075   2.064
 2323SOL    HW1 7868   2.447   5.055   1.989
 2323SOL    HW2 7869   2.410   5.162   2.106
 2324SOL     OW 7870   6.313   6.726   1.866
 2324SOL    HW1 7871   6.328   6.655   1.797
 2324SOL    HW2 7872   6.222   6.717   1.905
 2325SOL     OW 7873   1.396   4.546   2.309
 2325SOL    HW1 7874   1.387   4.621   2.243
 2325SOL    HW2 7875   1.460   4.478   2.274
 2326SOL     OW 7876   3.410   5.202   5.533
 2326SOL    HW1 7877   3.485   5.261   5.562
 2326SOL    HW2 7878   3.426   5.109   5.567
 2327SOL     OW 7879   6.275   3.472   5.285
 2327SOL    HW1 7880   6.293   3.568   5.264
 2327SOL    HW2 7881   6.261   3.461   5.384
 2328SOL     OW 7882   3.168   2.029   3.313
 2328SOL    HW1 7883   3.113   2.104   3.350
 2328SOL    HW2 7884   3.264   2.045   3.333
 2329SOL     OW 7885   1.501   4.028   5.010
 2329SOL    HW1 7886   1.491   3.999   4.915
 2329SOL    HW2 7887   1.414   4.016   5.058
 2330SOL     OW 7888   0.941   3.605   2.189
 2330SOL    HW1 7889   0.999   3.665   2.245
 2330SOL    HW2 7890   0.846   3.636   2.193
 2331SOL     OW 7891   6.403   3.822   0.648
 2331SOL    HW1 7892   6.381   3.918   0.659
 2331SOL    HW2 7893   6.389   3.795   0.552
 2332SOL     OW 7894   4.552   1.864   5.712
 2332SOL    HW1 7895   4.475   1.875   5.648
 2332SOL    HW2 7896   4.637   1.891   5.667
 2333SOL     OW 7897   0.023   5.952   3.286
 2333SOL    HW1 7898   7.025   6.005   3.367
 2333SOL    HW2 7899   6.994   5.982   3.209
 2334SOL     OW 7900   2.408   0.425   0.303
 2334SOL    HW1 7901   2.376   0.379   0.385
 2334SOL    HW2 7902   2.506   0.407   0.291
 2335SOL     OW 7903   5.900   1.122   3.371
 2335SOL    HW1 7904   5.858   1.213   3.360
 2335SOL    HW2 7905   5.850   1.057   3.314
 2336SOL     OW 7906   4.175   1.977   5.163
 2336SOL    HW1 7907   4.103   1.909   5.146
 2336SOL    HW2 7908   4.155   2.027   5.247
 2337SOL     OW 7909   4.620   0.939   3.662
 2337SOL    HW1 7910   4.696   0.953   3.725
 2337SOL    HW2 7911   4.642   0.980   3.573
 2338SOL     OW 7912   1.124   0.961   6.752
 2338SOL    HW1 7913   1.160   0.916   6.670
 2338SOL    HW2 7914   1.200   0.999   6.805
 2339SOL     OW 7915   3.545   3.919   5.056
 2339SOL    HW1 7916   3.501   3.882   5.137
 2339SOL    HW2 7917   3.475   3.948   4.990
 2340SOL     OW 7918   5.411   5.398   6.527
 2340SOL    HW1 7919   5.450   5.333   6.592
 2340SOL    HW2 7920   5.336   5.355   6.478
 2341SOL     OW 7921   5.477   4.649   1.352
 2341SOL    HW1 7922   5.493   4.637   1.254
 2341SOL    HW2 7923   5.499   4.743   1.378
 2342SOL     OW 7924   0.416   6.128   4.924
 2342SOL    HW1 7925   0.491   6.146   4.860
 2342SOL    HW2 7926   0.335   6.179   4.895
 2343SOL     OW 7927   1.833   6.664   2.358
 2343SOL    HW1 7928   1.888   6.710   2.428
 2343SOL    HW2 7929   1.759   6.613   2.402
 2344SOL     OW 7930   1.603   1.077   1.104
 2344SOL    HW1 7931   1.629   1.084   1.200
 2344SOL    HW2 7932   1.670   1.124   1.047
 2345SOL     OW 7933   2.044   5.285   5.537
 2345SOL    HW1 7934   2.032   5.205   5.596
 2345SOL    HW2 7935   2.091   5.357   5.588
 2346SOL     OW 7936   5.103   3.341   4.618
 2346SOL    HW1 7937   5.061   3.368   4.704
 2346SOL    HW2 7938   5.052   3.380   4.542
 2347SOL     OW 7939   2.273   3.685   1.756
 2347SOL    HW1 7940   2.214   3.753   1.799
 2347SOL    HW2 7941   2.260   3.597   1.801
 2348SOL     OW 7942   3.423   6.122   3.791
 2348SOL    HW1 7943   3.398   6.094   3.699
 2348SOL    HW2 7944   3.342   6.155   3.839
 2349SOL     OW 7945   0.731   5.210   6.156
 2349SOL    HW1 7946   0.756   5.306   6.148
 2349SOL    HW2 7947   0.670   5.197   6.234
 2350SOL     OW 7948   5.380   6.563   6.529
 2350SOL    HW1 7949   5.370   6.663   6.529
 2350SOL    HW2 7950   5.445   6.536   6.459
 2351SOL     OW 7951   3.574   5.059   2.649
 2351SOL    HW1 7952   3.489   5.070   2.597
 2351SOL    HW2 7953   3.651   5.057   2.586
 2352SOL     OW 7954   1.293   3.668   2.457
 2352SOL    HW1 7955   1.325   3.574   2.471
 2352SOL    HW2 7956   1.289   3.687   2.359
 2353SOL     OW 7957   2.870   4.854   4.884
 2353SOL    HW1 7958   2.849   4.797   4.963
 2353SOL    HW2 7959   2.785   4.890   4.846
 2354SOL     OW 7960   3.364   2.090   6.436
 2354SOL    HW1 7961   3.441   2.136   6.393
 2354SOL    HW2 7962   3.312   2.039   6.368
 2355SOL     OW 7963   1.185   5.231   6.750
 2355SOL    HW1 7964   1.100   5.265   6.709
 2355SOL    HW2 7965   1.261   5.291   6.725
 2356SOL     OW 7966   2.557   4.153   0.592
 2356SOL    HW1 7967   2.483   4.132   0.528
 2356SOL    HW2 7968   2.644   4.120   0.554
 2357SOL     OW 7969   4.000   5.358   3.733
 2357SOL    HW1 7970   3.986   5.263   3.705
 2357SOL    HW2 7971   3.987   5.366   3.831
 2358SOL     OW 7972   2.671   5.445   4.906
 2358SOL    HW1 7973   2.769   5.442   4.921
 2358SOL    HW2 7974   2.639   5.540   4.909
 2359SOL     OW 7975   0.293   0.995   6.178
 2359SOL    HW1 7976   0.206   1.016   6.221
 2359SOL    HW2 7977   0.364   1.056   6.213
 2360SOL     OW 7978   4.801   5.840   5.953
 2360SOL    HW1 7979   4.726   5.775   5.966
 2360SOL    HW2 7980   4.774   5.910   5.887
 2361SOL     OW 7981   2.872   7.015   4.769
 2361SOL    HW1 7982   2.939   6.995   4.697
 2361SOL    HW2 7983   2.907   0.062   4.827
 2362SOL     OW 7984   3.528   6.655   5.766
 2362SOL    HW1 7985   3.582   6.681   5.846
 2362SOL    HW2 7986   3.439   6.619   5.795
 2363SOL     OW 7987   4.932   2.651   5.360
 2363SOL    HW1 7988   4.889   2.634   5.272
 2363SOL    HW2 7989   5.013   2.709   5.347
 2364SOL     OW 7990   0.340   2.468   3.041
 2364SOL    HW1 7991   0.303   2.558   3.061
 2364SOL    HW2 7992   0.433   2.477   3.005
 2365SOL     OW 7993   5.819   2.765   6.126
 2365SOL    HW1 7994   5.839   2.777   6.029
 2365SOL    HW2 7995   5.843   2.848   6.176
 2366SOL     OW 7996   1.176   4.086   5.560
 2366SOL    HW1 7997   1.111   4.017   5.529
 2366SOL    HW2 7998   1.220   4.055   5.644
 2367SOL     OW 7999   2.563   3.537   6.605
 2367SOL    HW1 8000   2.507   3.561   6.685
 2367SOL    HW2 8001   2.577   3.618   6.549
 2368SOL     OW 8002   4.819   0.656   3.794
 2368SOL    HW1 8003   4.827   0.753   3.771
 2368SOL    HW2 8004   4.907   0.623   3.830
 2369SOL     OW 8005   2.151   3.073   4.338
 2369SOL    HW1 8006   2.160   2.976   4.360
 2369SOL    HW2 8007   2.095   3.119   4.407
 2370SOL     OW 8008   4.415   3.978   6.727
 2370SOL    HW1 8009   4.458   4.013   6.810
 2370SOL    HW2 8010   4.347   4.044   6.694
 2371SOL     OW 8011   1.396   6.253   1.794
 2371SOL    HW1 8012   1.392   6.353   1.794
 2371SOL    HW2 8013   1.340   6.217   1.868
 2372SOL     OW 8014   1.149   2.213   0.841
 2372SOL    HW1 8015   1.209   2.189   0.918
 2372SOL    HW2 8016   1.172   2.157   0.762
 2373SOL     OW 8017   5.762   0.314   6.578
 2373SOL    HW1 8018   5.796   0.382   6.514
 2373SOL    HW2 8019   5.750   0.356   6.668
 2374SOL     OW 8020   6.262   0.346   3.736
 2374SOL    HW1 8021   6.341   0.292   3.707
 2374SOL    HW2 8022   6.287   0.402   3.815
 2375SOL     OW 8023   1.956   6.928   3.856
 2375SOL    HW1 8024   1.889   6.958   3.924
 2375SOL    HW2 8025   2.048   6.949   3.889
 2376SOL     OW 8026   6.504   2.516   4.306
 2376SOL    HW1 8027   6.590   2.543   4.349
 2376SOL    HW2 8028   6.454   2.598   4.278
 2377SOL     OW 8029   3.395   4.107   3.791
 2377SOL    HW1 8030   3.298   4.121   3.768
 2377SOL    HW2 8031   3.431   4.032   3.736
 2378SOL     OW 8032   5.393   1.496   6.899
 2378SOL    HW1 8033   5.483   1.454   6.896
 2378SOL    HW2 8034   5.325   1.428   6.927
 2379SOL     OW 8035   7.024   1.865   6.842
 2379SOL    HW1 8036   0.015   1.788   6.903
 2379SOL    HW2 8037   0.010   1.951   6.892
 2380SOL     OW 8038   6.985   7.005   5.743
 2380SOL    HW1 8039   6.900   0.029   5.759
 2380SOL    HW2 8040   6.990   6.929   5.808
 2381SOL     OW 8041   2.261   4.173   4.096
 2381SOL    HW1 8042   2.226   4.092   4.049
 2381SOL    HW2 8043   2.321   4.224   4.034
 2382SOL     OW 8044   2.190   4.547   2.565
 2382SOL    HW1 8045   2.196   4.458   2.610
 2382SOL    HW2 8046   2.100   4.587   2.581
 2383SOL     OW 8047   5.272   6.311   6.857
 2383SOL    HW1 8048   5.297   6.319   6.760
 2383SOL    HW2 8049   5.172   6.314   6.865
 2384SOL     OW 8050   1.050   0.517   2.137
 2384SOL    HW1 8051   1.089   0.506   2.228
 2384SOL    HW2 8052   0.967   0.572   2.143
 2385SOL     OW 8053   6.110   0.266   0.968
 2385SOL    HW1 8054   6.053   0.288   0.889
 2385SOL    HW2 8055   6.204   0.252   0.938
 2386SOL     OW 8056   4.034   4.899   4.206
 2386SOL    HW1 8057   3.950   4.898   4.153
 2386SOL    HW2 8058   4.085   4.982   4.186
 2387SOL     OW 8059   6.732   2.642   4.441
 2387SOL    HW1 8060   6.761   2.701   4.365
 2387SOL    HW2 8061   6.694   2.699   4.514
 2388SOL     OW 8062   1.219   1.872   4.982
 2388SOL    HW1 8063   1.270   1.815   5.046
 2388SOL    HW2 8064   1.150   1.817   4.935
 2389SOL     OW 8065   5.087   4.010   3.733
 2389SOL    HW1 8066   5.148   3.950   3.786
 2389SOL    HW2 8067   5.140   4.055   3.661
 2390SOL     OW 8068   3.601   3.559   4.451
 2390SOL    HW1 8069   3.504   3.582   4.446
 2390SOL    HW2 8070   3.650   3.632   4.499
 2391SOL     OW 8071   3.949   4.156   5.841
 2391SOL    HW1 8072   4.039   4.196   5.824
 2391SOL    HW2 8073   3.959   4.068   5.886
 2392SOL     OW 8074   3.167   5.986   5.775
 2392SOL    HW1 8075   3.113   6.005   5.857
 2392SOL    HW2 8076   3.250   5.936   5.801
 2393SOL     OW 8077   3.460   5.337   1.083
 2393SOL    HW1 8078   3.560   5.329   1.078
 2393SOL    HW2 8079   3.433   5.357   1.177
 2394SOL     OW 8080   1.692   3.534   5.081
 2394SOL    HW1 8081   1.647   3.605   5.134
 2394SOL    HW2 8082   1.787   3.560   5.062
 2395SOL     OW 8083   6.597   2.256   7.000
 2395SOL    HW1 8084   6.665   2.326   6.978
 2395SOL    HW2 8085   6.636   2.165   6.987
 2396SOL     OW 8086   5.157   5.615   0.780
 2396SOL    HW1 8087   5.154   5.521   0.747
 2396SOL    HW2 8088   5.248   5.635   0.816
 2397SOL     OW 8089   6.693   4.980   0.523
 2397SOL    HW1 8090   6.606   4.994   0.571
 2397SOL    HW2 8091   6.693   4.889   0.481
 2398SOL     OW 8092   2.786   4.695   5.941
 2398SOL    HW1 8093   2.788   4.605   5.899
 2398SOL    HW2 8094   2.874   4.740   5.929
 2399SOL     OW 8095   4.557   1.945   2.211
 2399SOL    HW1 8096   4.535   1.938   2.114
 2399SOL    HW2 8097   4.472   1.958   2.263
 2400SOL     OW 8098   4.021   4.672   0.768
 2400SOL    HW1 8099   3.977   4.615   0.700
 2400SOL    HW2 8100   4.010   4.631   0.859
 2401SOL     OW 8101   3.764   0.593   5.570
 2401SOL    HW1 8102   3.836   0.546   5.519
 2401SOL    HW2 8103   3.765   0.562   5.665
 2402SOL     OW 8104   6.953   2.407   4.468
 2402SOL    HW1 8105   6.880   2.345   4.438
 2402SOL    HW2 8106   6.916   2.499   4.481
 2403SOL     OW 8107   2.932   2.802   6.743
 2403SOL    HW1 8108   2.904   2.713   6.779
 2403SOL    HW2 8109   3.012   2.790   6.684
 2404SOL     OW 8110   5.502   1.228   2.649
 2404SOL    HW1 8111   5.567   1.277   2.707
 2404SOL    HW2 8112   5.532   1.232   2.554
 2405SOL     OW 8113   3.923   3.436   5.041
 2405SOL    HW1 8114   3.994   3.506   5.048
 2405SOL    HW2 8115   3.855   3.464   4.973
 2406SOL     OW 8116   1.941   0.363   3.598
 2406SOL    HW1 8117   2.018   0.299   3.606
 2406SOL    HW2 8118   1.960   0.429   3.525
 2407SOL     OW 8119   4.578   1.975   3.315
 2407SOL    HW1 8120   4.617   2.067   3.316
 2407SOL    HW2 8121   4.488   1.977   3.272
 2408SOL     OW 8122   3.949   5.257   2.675
 2408SOL    HW1 8123   3.876   5.324   2.688
 2408SOL    HW2 8124   4.023   5.298   2.622
 2409SOL     OW 8125   2.185   2.899   1.994
 2409SOL    HW1 8126   2.134   2.974   2.037
 2409SOL    HW2 8127   2.129   2.856   1.924
 2410SOL     OW 8128   6.812   2.537   5.745
 2410SOL    HW1 8129   6.822   2.621   5.797
 2410SOL    HW2 8130   6.787   2.559   5.651
 2411SOL     OW 8131   3.586   4.299   5.726
 2411SOL    HW1 8132   3.579   4.335   5.819
 2411SOL    HW2 8133   3.682   4.299   5.698
 2412SOL     OW 8134   2.938   4.276   6.981
 2412SOL    HW1 8135   2.997   4.311   0.026
 2412SOL    HW2 8136   2.925   4.177   6.994
 2413SOL     OW 8137   6.433   3.156   6.867
 2413SOL    HW1 8138   6.514   3.099   6.873
 2413SOL    HW2 8139   6.374   3.123   6.793
 2414SOL     OW 8140   6.033   3.851   2.683
 2414SOL    HW1 8141   6.084   3.875   2.600
 2414SOL    HW2 8142   5.937   3.876   2.671
 2415SOL     OW 8143   1.627   0.351   1.044
 2415SOL    HW1 8144   1.547   0.364   0.986
 2415SOL    HW2 8145   1.700   0.307   0.992
 2416SOL     OW 8146   2.964   1.228   4.934
 2416SOL    HW1 8147   2.993   1.311   4.981
 2416SOL    HW2 8148   2.880   1.194   4.976
 2417SOL     OW 8149   4.618   2.776   0.325
 2417SOL    HW1 8150   4.587   2.731   0.241
 2417SOL    HW2 8151   4.714   2.802   0.316
 2418SOL     OW 8152   3.291   3.499   4.334
 2418SOL    HW1 8153   3.191   3.500   4.335
 2418SOL    HW2 8154   3.323   3.407   4.358
 2419SOL     OW 8155   0.270   6.596   4.246
 2419SOL    HW1 8156   0.170   6.588   4.252
 2419SOL    HW2 8157   0.312   6.511   4.276
 2420SOL     OW 8158   4.040   0.040   2.446
 2420SOL    HW1 8159   3.956   0.092   2.455
 2420SOL    HW2 8160   4.097   0.054   2.527
 2421SOL     OW 8161   2.790   0.629   4.363
 2421SOL    HW1 8162   2.744   0.562   4.422
 2421SOL    HW2 8163   2.883   0.644   4.397
 2422SOL     OW 8164   5.610   0.507   1.037
 2422SOL    HW1 8165   5.606   0.408   1.050
 2422SOL    HW2 8166   5.591   0.529   0.941
 2423SOL     OW 8167   1.049   6.208   3.222
 2423SOL    HW1 8168   1.098   6.251   3.147
 2423SOL    HW2 8169   1.115   6.164   3.284
 2424SOL     OW 8170   5.429   5.472   6.257
 2424SOL    HW1 8171   5.393   5.481   6.350
 2424SOL    HW2 8172   5.410   5.379   6.223
 2425SOL     OW 8173   6.221   0.022   4.408
 2425SOL    HW1 8174   6.129   7.009   4.416
 2425SOL    HW2 8175   6.256   0.008   4.316
 2426SOL     OW 8176   0.878   4.631   4.436
 2426SOL    HW1 8177   0.822   4.565   4.486
 2426SOL    HW2 8178   0.966   4.588   4.412
 2427SOL     OW 8179   6.658   5.418   0.003
 2427SOL    HW1 8180   6.600   5.344   6.995
 2427SOL    HW2 8181   6.660   5.415   0.103
 2428SOL     OW 8182   1.225   6.925   3.414
 2428SOL    HW1 8183   1.316   6.894   3.442
 2428SOL    HW2 8184   1.157   6.894   3.481
 2429SOL     OW 8185   6.730   5.489   3.317
 2429SOL    HW1 8186   6.775   5.568   3.275
 2429SOL    HW2 8187   6.782   5.461   3.398
 2430SOL     OW 8188   6.100   2.252   1.006
 2430SOL    HW1 8189   6.173   2.313   0.976
 2430SOL    HW2 8190   6.037   2.236   0.929
 2431SOL     OW 8191   4.202   0.450   2.028
 2431SOL    HW1 8192   4.180   0.539   1.987
 2431SOL    HW2 8193   4.164   0.446   2.120
 2432SOL     OW 8194   3.974   6.284   2.954
 2432SOL    HW1 8195   4.011   6.377   2.953
 2432SOL    HW2 8196   3.905   6.275   2.881
 2433SOL     OW 8197   3.348   6.635   0.954
 2433SOL    HW1 8198   3.403   6.690   1.016
 2433SOL    HW2 8199   3.355   6.672   0.861
 2434SOL     OW 8200   5.055   1.753   3.517
 2434SOL    HW1 8201   5.057   1.698   3.600
 2434SOL    HW2 8202   5.140   1.740   3.466
 2435SOL     OW 8203   4.727   5.650   6.978
 2435SOL    HW1 8204   4.629   5.649   6.995
 2435SOL    HW2 8205   4.764   5.558   6.988
 2436SOL     OW 8206   2.278   0.418   0.650
 2436SOL    HW1 8207   2.307   0.481   0.722
 2436SOL    HW2 8208   2.212   0.463   0.591
 2437SOL     OW 8209   5.566   5.410   0.955
 2437SOL    HW1 8210   5.570   5.323   0.906
 2437SOL    HW2 8211   5.620   5.478   0.906
 2438SOL     OW 8212   4.078   0.882   5.658
 2438SOL    HW1 8213   4.171   0.864   5.624
 2438SOL    HW2 8214   4.083   0.928   5.746
 2439SOL     OW 8215   1.230   4.073   0.058
 2439SOL    HW1 8216   1.193   3.980   0.059
 2439SOL    HW2 8217   1.329   4.070   0.046
 2440SOL     OW 8218   3.488   6.312   5.028
 2440SOL    HW1 8219   3.472   6.214   5.028
 2440SOL    HW2 8220   3.505   6.343   4.934
 2441SOL     OW 8221   6.608   1.194   0.169
 2441SOL    HW1 8222   6.517   1.192   0.127
 2441SOL    HW2 8223   6.607   1.139   0.253
 2442SOL     OW 8224   6.192   6.044   3.674
 2442SOL    HW1 8225   6.282   6.040   3.631
 2442SOL    HW2 8226   6.158   5.951   3.688
 2443SOL     OW 8227   2.914   0.041   6.779
 2443SOL    HW1 8228   2.968   0.124   6.766
 2443SOL    HW2 8229   2.828   0.064   6.824
 2444SOL     OW 8230   3.815   4.050   6.407
 2444SOL    HW1 8231   3.808   4.081   6.312
 2444SOL    HW2 8232   3.728   4.011   6.436
 2445SOL     OW 8233   0.032   1.013   2.400
 2445SOL    HW1 8234   0.010   1.055   2.312
 2445SOL    HW2 8235   0.119   1.050   2.434
 2446SOL     OW 8236   0.473   3.173   4.135
 2446SOL    HW1 8237   0.472   3.081   4.173
 2446SOL    HW2 8238   0.441   3.238   4.204
 2447SOL     OW 8239   2.929   0.974   1.085
 2447SOL    HW1 8240   2.987   0.905   1.043
 2447SOL    HW2 8241   2.932   1.058   1.030
 2448SOL     OW 8242   0.082   0.515   3.938
 2448SOL    HW1 8243   0.098   0.571   3.857
 2448SOL    HW2 8244   0.170   0.494   3.981
 2449SOL     OW 8245   6.320   4.565   2.855
 2449SOL    HW1 8246   6.362   4.475   2.842
 2449SOL    HW2 8247   6.365   4.632   2.797
 2450SOL     OW 8248   2.970   5.412   5.189
 2450SOL    HW1 8249   2.921   5.362   5.261
 2450SOL    HW2 8250   3.068   5.393   5.196
 2451SOL     OW 8251   0.840   0.255   3.791
 2451SOL    HW1 8252   0.888   0.172   3.821
 2451SOL    HW2 8253   0.760   0.229   3.737
 2452SOL     OW 8254   2.620   2.378   3.239
 2452SOL    HW1 8255   2.709   2.360   3.196
 2452SOL    HW2 8256   2.595   2.301   3.297
 2453SOL     OW 8257   6.161   3.439   0.984
 2453SOL    HW1 8258   6.224   3.513   0.963
 2453SOL    HW2 8259   6.076   3.477   1.019
 2454SOL     OW 8260   3.377   0.629   0.245
 2454SOL    HW1 8261   3.311   0.557   0.223
 2454SOL    HW2 8262   3.363   0.707   0.184
 2455SOL     OW 8263   4.732   0.595   1.139
 2455SOL    HW1 8264   4.675   0.638   1.208
 2455SOL    HW2 8265   4.678   0.527   1.089
 2456SOL     OW 8266   5.834   1.813   0.641
 2456SOL    HW1 8267   5.739   1.842   0.656
 2456SOL    HW2 8268   5.872   1.776   0.725
 2457SOL     OW 8269   0.173   6.059   6.123
 2457SOL    HW1 8270   0.193   6.088   6.216
 2457SOL    HW2 8271   0.106   6.121   6.082
 2458SOL     OW 8272   2.364   5.861   4.229
 2458SOL    HW1 8273   2.341   5.792   4.298
 2458SOL    HW2 8274   2.302   5.853   4.151
 2459SOL     OW 8275   2.876   5.885   5.878
 2459SOL    HW1 8276   2.915   5.804   5.834
 2459SOL    HW2 8277   2.940   5.919   5.947
 2460SOL     OW 8278   1.886   1.270   1.879
 2460SOL    HW1 8279   1.901   1.325   1.797
 2460SOL    HW2 8280   1.860   1.329   1.955
 2461SOL     OW 8281   4.700   0.465   3.138
 2461SOL    HW1 8282   4.625   0.425   3.191
 2461SOL    HW2 8283   4.667   0.547   3.091
 2462SOL     OW 8284   1.812   5.733   0.712
 2462SOL    HW1 8285   1.751   5.662   0.678
 2462SOL    HW2 8286   1.875   5.693   0.779
 2463SOL     OW 8287   6.692   2.402   5.395
 2463SOL    HW1 8288   6.777   2.355   5.418
 2463SOL    HW2 8289   6.711   2.498   5.375
 2464SOL     OW 8290   2.030   4.213   1.985
 2464SOL    HW1 8291   2.026   4.248   1.892
 2464SOL    HW2 8292   1.938   4.187   2.014
 2465SOL     OW 8293   0.477   0.352   1.785
 2465SOL    HW1 8294   0.398   0.291   1.790
 2465SOL    HW2 8295   0.561   0.298   1.780
 2466SOL     OW 8296   2.705   2.002   2.681
 2466SOL    HW1 8297   2.670   1.914   2.715
 2466SOL    HW2 8298   2.798   2.016   2.716
 2467SOL     OW 8299   5.349   1.135   4.651
 2467SOL    HW1 8300   5.308   1.099   4.734
 2467SOL    HW2 8301   5.408   1.213   4.673
 2468SOL     OW 8302   4.979   6.286   2.162
 2468SOL    HW1 8303   5.046   6.216   2.187
 2468SOL    HW2 8304   4.895   6.271   2.213
 2469SOL     OW 8305   3.850   4.061   5.589
 2469SOL    HW1 8306   3.771   4.067   5.528
 2469SOL    HW2 8307   3.820   4.038   5.682
 2470SOL     OW 8308   3.772   4.799   6.348
 2470SOL    HW1 8309   3.788   4.889   6.306
 2470SOL    HW2 8310   3.844   4.781   6.416
 2471SOL     OW 8311   2.927   5.652   1.014
 2471SOL    HW1 8312   2.999   5.716   0.989
 2471SOL    HW2 8313   2.951   5.604   1.098
 2472SOL     OW 8314   5.486   2.679   4.724
 2472SOL    HW1 8315   5.514   2.639   4.637
 2472SOL    HW2 8316   5.433   2.762   4.708
 2473SOL     OW 8317   2.161   3.968   4.742
 2473SOL    HW1 8318   2.075   3.983   4.791
 2473SOL    HW2 8319   2.237   3.977   4.806
 2474SOL     OW 8320   0.436   6.312   0.925
 2474SOL    HW1 8321   0.475   6.229   0.965
 2474SOL    HW2 8322   0.510   6.367   0.885
 2475SOL     OW 8323   4.522   1.608   1.661
 2475SOL    HW1 8324   4.440   1.557   1.683
 2475SOL    HW2 8325   4.520   1.697   1.708
 2476SOL     OW 8326   0.176   1.951   3.621
 2476SOL    HW1 8327   0.143   2.029   3.674
 2476SOL    HW2 8328   0.138   1.955   3.529
 2477SOL     OW 8329   4.852   1.599   2.410
 2477SOL    HW1 8330   4.866   1.539   2.331
 2477SOL    HW2 8331   4.805   1.549   2.483
 2478SOL     OW 8332   6.116   1.114   1.999
 2478SOL    HW1 8333   6.178   1.067   2.063
 2478SOL    HW2 8334   6.024   1.116   2.037
 2479SOL     OW 8335   1.752   3.633   1.200
 2479SOL    HW1 8336   1.757   3.586   1.288
 2479SOL    HW2 8337   1.659   3.665   1.185
 2480SOL     OW 8338   6.136   3.991   0.687
 2480SOL    HW1 8339   6.063   3.955   0.629
 2480SOL    HW2 8340   6.194   4.052   0.634
 2481SOL     OW 8341   2.421   0.871   0.111
 2481SOL    HW1 8342   2.386   0.779   0.129
 2481SOL    HW2 8343   2.345   0.936   0.112
 2482SOL     OW 8344   4.567   2.809   5.486
 2482SOL    HW1 8345   4.500   2.881   5.467
 2482SOL    HW2 8346   4.659   2.844   5.469
 2483SOL     OW 8347   2.191   2.338   6.802
 2483SOL    HW1 8348   2.155   2.338   6.708
 2483SOL    HW2 8349   2.148   2.412   6.854
 2484SOL     OW 8350   2.834   0.530   0.226
 2484SOL    HW1 8351   2.766   0.580   0.172
 2484SOL    HW2 8352   2.788   0.463   0.283
 2485SOL     OW 8353   5.642   3.656   1.825
 2485SOL    HW1 8354   5.598   3.687   1.741
 2485SOL    HW2 8355   5.729   3.612   1.802
 2486SOL     OW 8356   2.049   4.659   4.595
 2486SOL    HW1 8357   2.144   4.693   4.598
 2486SOL    HW2 8358   2.046   4.564   4.627
 2487SOL     OW 8359   4.014   6.184   0.219
 2487SOL    HW1 8360   4.013   6.088   0.248
 2487SOL    HW2 8361   4.002   6.188   0.120
 2488SOL     OW 8362   2.131   4.434   2.339
 2488SOL    HW1 8363   2.060   4.366   2.358
 2488SOL    HW2 8364   2.145   4.491   2.420
 2489SOL     OW 8365   1.388   5.819   3.037
 2489SOL    HW1 8366   1.467   5.757   3.032
 2489SOL    HW2 8367   1.306   5.771   3.005
 2490SOL     OW 8368   6.523   5.199   1.688
 2490SOL    HW1 8369   6.596   5.267   1.694
 2490SOL    HW2 8370   6.550   5.128   1.622
 2491SOL     OW 8371   2.663   5.203   0.969
 2491SOL    HW1 8372   2.563   5.202   0.970
 2491SOL    HW2 8373   2.698   5.111   0.981
 2492SOL     OW 8374   4.459   2.869   0.066
 2492SOL    HW1 8375   4.424   2.790   0.116
 2492SOL    HW2 8376   4.559   2.865   0.063
 2493SOL     OW 8377   6.488   0.662   2.206
 2493SOL    HW1 8378   6.573   0.631   2.248
 2493SOL    HW2 8379   6.469   0.756   2.233
 2494SOL     OW 8380   6.000   4.315   1.849
 2494SOL    HW1 8381   5.992   4.306   1.948
 2494SOL    HW2 8382   5.991   4.411   1.824
 2495SOL     OW 8383   4.930   0.331   4.511
 2495SOL    HW1 8384   4.883   0.413   4.479
 2495SOL    HW2 8385   4.937   0.334   4.611
 2496SOL     OW 8386   0.321   4.118   6.162
 2496SOL    HW1 8387   0.333   4.023   6.193
 2496SOL    HW2 8388   0.389   4.139   6.092
 2497SOL     OW 8389   0.009   1.211   0.841
 2497SOL    HW1 8390   7.005   1.275   0.771
 2497SOL    HW2 8391   6.983   1.225   0.925
 2498SOL     OW 8392   3.745   2.096   4.246
 2498SOL    HW1 8393   3.825   2.142   4.207
 2498SOL    HW2 8394   3.751   2.097   4.346
 2499SOL     OW 8395   5.354   2.561   4.286
 2499SOL    HW1 8396   5.407   2.483   4.318
 2499SOL    HW2 8397   5.272   2.529   4.239
 2500SOL     OW 8398   4.383   2.749   6.849
 2500SOL    HW1 8399   4.463   2.707   6.804
 2500SOL    HW2 8400   4.411   2.787   6.937
 2501SOL     OW 8401   6.566   6.100   0.343
 2501SOL    HW1 8402   6.502   6.145   0.404
 2501SOL    HW2 8403   6.530   6.102   0.249
 2502SOL     OW 8404   2.408   6.038   3.118
 2502SOL    HW1 8405   2.438   6.027   3.212
 2502SOL    HW2 8406   2.347   6.118   3.111
 2503SOL     OW 8407   3.510   5.391   5.005
 2503SOL    HW1 8408   3.589   5.419   4.950
 2503SOL    HW2 8409   3.463   5.315   4.959
 2504SOL     OW 8410   2.368   4.979   5.251
 2504SOL    HW1 8411   2.402   4.887   5.270
 2504SOL    HW2 8412   2.324   4.981   5.162
 2505SOL     OW 8413   1.766   5.838   3.964
 2505SOL    HW1 8414   1.803   5.774   3.896
 2505SOL    HW2 8415   1.820   5.829   4.049
 2506SOL     OW 8416   5.873   3.507   6.559
 2506SOL    HW1 8417   5.773   3.512   6.560
 2506SOL    HW2 8418   5.910   3.570   6.628
 2507SOL     OW 8419   1.186   3.954   1.197
 2507SOL    HW1 8420   1.259   3.903   1.244
 2507SOL    HW2 8421   1.194   4.051   1.219
 2508SOL     OW 8422   2.985   1.303   1.956
 2508SOL    HW1 8423   2.934   1.237   1.901
 2508SOL    HW2 8424   2.944   1.310   2.047
 2509SOL     OW 8425   5.919   2.548   2.516
 2509SOL    HW1 8426   5.844   2.501   2.561
 2509SOL    HW2 8427   5.922   2.644   2.546
 2510SOL     OW 8428   3.344   4.399   1.331
 2510SOL    HW1 8429   3.441   4.403   1.308
 2510SOL    HW2 8430   3.308   4.309   1.307
 2511SOL     OW 8431   2.523   1.750   4.043
 2511SOL    HW1 8432   2.621   1.755   4.024
 2511SOL    HW2 8433   2.509   1.720   4.137
 2512SOL     OW 8434   4.743   5.220   5.070
 2512SOL    HW1 8435   4.774   5.125   5.068
 2512SOL    HW2 8436   4.745   5.253   5.165
 2513SOL     OW 8437   1.631   3.127   5.262
 2513SOL    HW1 8438   1.607   3.165   5.173
 2513SOL    HW2 8439   1.666   3.199   5.321
 2514SOL     OW 8440   6.503   3.529   4.067
 2514SOL    HW1 8441   6.446   3.468   4.012
 2514SOL    HW2 8442   6.496   3.503   4.163
 2515SOL     OW 8443   1.411   6.642   0.208
 2515SOL    HW1 8444   1.457   6.563   0.248
 2515SOL    HW2 8445   1.407   6.715   0.276
 2516SOL     OW 8446   5.801   0.284   3.499
 2516SOL    HW1 8447   5.740   0.285   3.578
 2516SOL    HW2 8448   5.752   0.319   3.419
 2517SOL     OW 8449   1.170   5.827   6.061
 2517SOL    HW1 8450   1.166   5.749   5.999
 2517SOL    HW2 8451   1.180   5.794   6.155
 2518SOL     OW 8452   2.421   3.627   6.901
 2518SOL    HW1 8453   2.352   3.562   6.934
 2518SOL    HW2 8454   2.378   3.714   6.880
 2519SOL     OW 8455   4.559   6.125   3.765
 2519SOL    HW1 8456   4.578   6.180   3.684
 2519SOL    HW2 8457   4.517   6.039   3.738
 2520SOL     OW 8458   1.232   3.180   0.130
 2520SOL    HW1 8459   1.195   3.173   0.038
 2520SOL    HW2 8460   1.190   3.110   0.188
 2521SOL     OW 8461   1.145   6.365   5.684
 2521SOL    HW1 8462   1.103   6.323   5.604
 2521SOL    HW2 8463   1.092   6.446   5.711
 2522SOL     OW 8464   6.917   2.769   5.833
 2522SOL    HW1 8465   7.007   2.784   5.792
 2522SOL    HW2 8466   6.863   2.853   5.827
 2523SOL     OW 8467   6.963   2.965   1.357
 2523SOL    HW1 8468   6.929   2.972   1.264
 2523SOL    HW2 8469   6.896   2.915   1.413
 2524SOL     OW 8470   0.816   5.093   4.909
 2524SOL    HW1 8471   0.728   5.140   4.902
 2524SOL    HW2 8472   0.827   5.030   4.832
 2525SOL     OW 8473   0.930   2.808   4.307
 2525SOL    HW1 8474   1.003   2.851   4.253
 2525SOL    HW2 8475   0.864   2.878   4.335
 2526SOL     OW 8476   1.762   4.305   5.519
 2526SOL    HW1 8477   1.679   4.293   5.464
 2526SOL    HW2 8478   1.797   4.215   5.545
 2527SOL     OW 8479   5.192   6.452   5.019
 2527SOL    HW1 8480   5.142   6.455   5.105
 2527SOL    HW2 8481   5.288   6.429   5.038
 2528SOL     OW 8482   6.152   4.341   0.847
 2528SOL    HW1 8483   6.143   4.434   0.882
 2528SOL    HW2 8484   6.237   4.333   0.795
 2529SOL     OW 8485   0.045   5.933   6.651
 2529SOL    HW1 8486   0.020   5.842   6.620
 2529SOL    HW2 8487   0.128   5.928   6.707
 2530SOL     OW 8488   1.202   6.038   4.797
 2530SOL    HW1 8489   1.212   6.099   4.876
 2530SOL    HW2 8490   1.105   6.025   4.777
 2531SOL     OW 8491   5.313   5.801   4.134
 2531SOL    HW1 8492   5.296   5.888   4.180
 2531SOL    HW2 8493   5.241   5.735   4.158
 2532SOL     OW 8494   1.001   6.086   1.073
 2532SOL    HW1 8495   1.099   6.065   1.067
 2532SOL    HW2 8496   0.962   6.085   0.981
 2533SOL     OW 8497   4.006   0.388   3.265
 2533SOL    HW1 8498   3.976   0.451   3.193
 2533SOL    HW2 8499   4.057   0.438   3.335
 2534SOL     OW 8500   2.259   0.780   2.823
 2534SOL    HW1 8501   2.210   0.701   2.787
 2534SOL    HW2 8502   2.299   0.832   2.748
 2535SOL     OW 8503   2.647   2.866   6.640
 2535SOL    HW1 8504   2.735   2.840   6.678
 2535SOL    HW2 8505   2.595   2.784   6.615
 2536SOL     OW 8506   0.030   2.421   3.813
 2536SOL    HW1 8507   0.072   2.353   3.873
 2536SOL    HW2 8508   6.960   2.403   3.803
 2537SOL     OW 8509   5.027   6.320   6.633
 2537SOL    HW1 8510   5.125   6.336   6.621
 2537SOL    HW2 8511   4.978   6.406   6.628
 2538SOL     OW 8512   1.522   4.096   4.326
 2538SOL    HW1 8513   1.537   4.112   4.228
 2538SOL    HW2 8514   1.584   4.154   4.379
 2539SOL     OW 8515   5.384   0.397   5.681
 2539SOL    HW1 8516   5.385   0.355   5.591
 2539SOL    HW2 8517   5.312   0.467   5.685
 2540SOL     OW 8518   4.558   1.304   2.176
 2540SOL    HW1 8519   4.581   1.337   2.085
 2540SOL    HW2 8520   4.459   1.316   2.192
 2541SOL     OW 8521   1.752   6.628   5.309
 2541SOL    HW1 8522   1.739   6.682   5.393
 2541SOL    HW2 8523   1.763   6.690   5.232
 2542SOL     OW 8524   4.851   1.811   5.256
 2542SOL    HW1 8525   4.932   1.841   5.207
 2542SOL    HW2 8526   4.863   1.716   5.287
 2543SOL     OW 8527   1.757   1.561   2.987
 2543SOL    HW1 8528   1.755   1.652   3.029
 2543SOL    HW2 8529   1.666   1.520   2.992
 2544SOL     OW 8530   6.977   5.103   1.886
 2544SOL    HW1 8531   0.049   5.111   1.880
 2544SOL    HW2 8532   6.937   5.193   1.901
 2545SOL     OW 8533   2.116   0.954   0.839
 2545SOL    HW1 8534   2.098   0.907   0.925
 2545SOL    HW2 8535   2.030   0.974   0.792
 2546SOL     OW 8536   6.982   2.657   2.606
 2546SOL    HW1 8537   6.902   2.629   2.659
 2546SOL    HW2 8538   7.007   2.584   2.543
 2547SOL     OW 8539   5.920   5.188   0.031
 2547SOL    HW1 8540   5.945   5.284   0.042
 2547SOL    HW2 8541   5.909   5.146   0.121
 2548SOL     OW 8542   2.907   6.730   5.159
 2548SOL    HW1 8543   2.996   6.684   5.166
 2548SOL    HW2 8544   2.869   6.741   5.251
 2549SOL     OW 8545   2.057   1.380   1.702
 2549SOL    HW1 8546   2.138   1.325   1.723
 2549SOL    HW2 8547   2.054   1.458   1.764
 2550SOL     OW 8548   6.728   0.780   6.297
 2550SOL    HW1 8549   6.650   0.732   6.256
 2550SOL    HW2 8550   6.811   0.759   6.246
 2551SOL     OW 8551   2.611   5.753   0.140
 2551SOL    HW1 8552   2.559   5.835   0.117
 2551SOL    HW2 8553   2.589   5.681   0.075
 2552SOL     OW 8554   1.228   5.977   5.822
 2552SOL    HW1 8555   1.294   6.051   5.811
 2552SOL    HW2 8556   1.228   5.945   5.916
 2553SOL     OW 8557   3.555   3.500   7.021
 2553SOL    HW1 8558   3.540   3.539   6.931
 2553SOL    HW2 8559   3.563   3.400   7.014
 2554SOL     OW 8560   1.797   5.839   6.606
 2554SOL    HW1 8561   1.700   5.853   6.626
 2554SOL    HW2 8562   1.807   5.799   6.514
 2555SOL     OW 8563   6.462   6.204   5.867
 2555SOL    HW1 8564   6.514   6.198   5.951
 2555SOL    HW2 8565   6.395   6.129   5.863
 2556SOL     OW 8566   4.128   5.941   0.430
 2556SOL    HW1 8567   4.177   5.877   0.371
 2556SOL    HW2 8568   4.194   5.998   0.479
 2557SOL     OW 8569   2.511   2.372   6.455
 2557SOL    HW1 8570   2.421   2.415   6.464
 2557SOL    HW2 8571   2.507   2.299   6.388
 2558SOL     OW 8572   4.187   3.323   6.111
 2558SOL    HW1 8573   4.213   3.327   6.014
 2558SOL    HW2 8574   4.101   3.371   6.124
 2559SOL     OW 8575   6.519   2.982   4.593
 2559SOL    HW1 8576   6.521   2.889   4.629
 2559SOL    HW2 8577   6.585   3.038   4.643
 2560SOL     OW 8578   5.229   3.457   4.233
 2560SOL    HW1 8579   5.260   3.511   4.311
 2560SOL    HW2 8580   5.134   3.430   4.247
 2561SOL     OW 8581   3.303   0.321   4.039
 2561SOL    HW1 8582   3.283   0.359   3.949
 2561SOL    HW2 8583   3.242   0.362   4.107
 2562SOL     OW 8584   1.861   5.704   2.381
 2562SOL    HW1 8585   1.764   5.724   2.391
 2562SOL    HW2 8586   1.887   5.710   2.284
 2563SOL     OW 8587   4.286   1.607   6.825
 2563SOL    HW1 8588   4.208   1.546   6.840
 2563SOL    HW2 8589   4.271   1.661   6.742
 2564SOL     OW 8590   1.008   6.817   6.360
 2564SOL    HW1 8591   1.043   6.910   6.363
 2564SOL    HW2 8592   0.953   6.804   6.277
 2565SOL     OW 8593   6.864   0.695   0.162
 2565SOL    HW1 8594   6.787   0.735   0.212
 2565SOL    HW2 8595   6.833   0.669   0.070
 2566SOL     OW 8596   1.883   0.238   0.834
 2566SOL    HW1 8597   1.910   0.334   0.834
 2566SOL    HW2 8598   1.872   0.207   0.739
 2567SOL     OW 8599   1.206   1.520   2.013
 2567SOL    HW1 8600   1.122   1.468   1.994
 2567SOL    HW2 8601   1.214   1.535   2.111
 2568SOL     OW 8602   2.657   0.642   6.523
 2568SOL    HW1 8603   2.626   0.641   6.618
 2568SOL    HW2 8604   2.700   0.555   6.500
 2569SOL     OW 8605   2.921   0.643   1.854
 2569SOL    HW1 8606   2.868   0.668   1.773
 2569SOL    HW2 8607   2.883   0.689   1.934
 2570SOL     OW 8608   6.007   0.696   6.787
 2570SOL    HW1 8609   6.103   0.719   6.804
 2570SOL    HW2 8610   5.951   0.778   6.798
 2571SOL     OW 8611   2.512   3.737   5.504
 2571SOL    HW1 8612   2.546   3.831   5.497
 2571SOL    HW2 8613   2.589   3.673   5.505
 2572SOL     OW 8614   2.341   6.329   0.918
 2572SOL    HW1 8615   2.317   6.237   0.888
 2572SOL    HW2 8616   2.361   6.329   1.016
 2573SOL     OW 8617   6.221   1.975   2.555
 2573SOL    HW1 8618   6.314   1.984   2.591
 2573SOL    HW2 8619   6.167   2.055   2.581
 2574SOL     OW 8620   0.174   3.127   0.490
 2574SOL    HW1 8621   0.133   3.042   0.456
 2574SOL    HW2 8622   0.116   3.204   0.464
 2575SOL     OW 8623   5.238   4.690   7.005
 2575SOL    HW1 8624   5.299   4.649   0.045
 2575SOL    HW2 8625   5.255   4.649   6.915
 2576SOL     OW 8626   3.974   0.180   4.494
 2576SOL    HW1 8627   3.878   0.168   4.470
 2576SOL    HW2 8628   4.002   0.107   4.557
 2577SOL     OW 8629   4.099   6.182   2.259
 2577SOL    HW1 8630   4.020   6.121   2.272
 2577SOL    HW2 8631   4.181   6.127   2.246
 2578SOL     OW 8632   4.974   2.878   5.111
 2578SOL    HW1 8633   4.966   2.782   5.136
 2578SOL    HW2 8634   4.896   2.905   5.054
 2579SOL     OW 8635   1.162   0.634   3.520
 2579SOL    HW1 8636   1.116   0.721   3.537
 2579SOL    HW2 8637   1.097   0.559   3.531
 2580SOL     OW 8638   2.465   2.680   7.003
 2580SOL    HW1 8639   2.374   2.646   0.001
 2580SOL    HW2 8640   2.473   2.776   0.002
 2581SOL     OW 8641   6.818   4.155   1.248
 2581SOL    HW1 8642   6.904   4.118   1.213
 2581SOL    HW2 8643   6.836   4.242   1.294
 2582SOL     OW 8644   1.349   4.456   2.576
 2582SOL    HW1 8645   1.370   4.493   2.486
 2582SOL    HW2 8646   1.275   4.389   2.568
 2583SOL     OW 8647   0.499   1.886   1.260
 2583SOL    HW1 8648   0.587   1.857   1.295
 2583SOL    HW2 8649   0.470   1.826   1.185
 2584SOL     OW 8650   4.051   5.578   0.326
 2584SOL    HW1 8651   4.086   5.496   0.281
 2584SOL    HW2 8652   4.113   5.605   0.399
 2585SOL     OW 8653   3.928   1.283   6.893
 2585SOL    HW1 8654   3.875   1.223   6.952
 2585SOL    HW2 8655   3.904   1.378   6.912
 2586SOL     OW 8656   3.771   1.613   3.467
 2586SOL    HW1 8657   3.686   1.561   3.478
 2586SOL    HW2 8658   3.822   1.611   3.553
 2587SOL     OW 8659   6.865   1.206   3.506
 2587SOL    HW1 8660   6.826   1.290   3.469
 2587SOL    HW2 8661   6.928   1.166   3.439
 2588SOL     OW 8662   4.964   6.921   6.722
 2588SOL    HW1 8663   5.025   6.982   6.773
 2588SOL    HW2 8664   4.888   6.895   6.780
 2589SOL     OW 8665   0.389   5.863   5.828
 2589SOL    HW1 8666   0.471   5.910   5.798
 2589SOL    HW2 8667   0.308   5.919   5.809
 2590SOL     OW 8668   2.986   6.123   1.818
 2590SOL    HW1 8669   2.928   6.138   1.898
 2590SOL    HW2 8670   3.056   6.055   1.840
 2591SOL     OW 8671   7.001   5.916   1.933
 2591SOL    HW1 8672   0.005   5.863   1.854
 2591SOL    HW2 8673   6.912   5.955   1.914
 2592SOL     OW 8674   3.259   6.725   1.477
 2592SOL    HW1 8675   3.162   6.715   1.498
 2592SOL    HW2 8676   3.313   6.671   1.541
 2593SOL     OW 8677   2.867   5.984   1.574
 2593SOL    HW1 8678   2.801   5.918   1.610
 2593SOL    HW2 8679   2.897   6.044   1.647
 2594SOL     OW 8680   6.845   5.813   6.084
 2594SOL    HW1 8681   6.943   5.830   6.094
 2594SOL    HW2 8682   6.831   5.730   6.031
 2595SOL     OW 8683   6.063   1.198   4.991
 2595SOL    HW1 8684   6.137   1.202   5.059
 2595SOL    HW2 8685   5.996   1.270   5.010
 2596SOL     OW 8686   3.700   2.021   1.790
 2596SOL    HW1 8687   3.689   2.106   1.841
 2596SOL    HW2 8688   3.630   2.016   1.718
 2597SOL     OW 8689   2.036   3.853   6.532
 2597SOL    HW1 8690   2.116   3.794   6.537
 2597SOL    HW2 8691   2.034   3.914   6.611
 2598SOL     OW 8692   5.813   0.591   4.367
 2598SOL    HW1 8693   5.857   0.681   4.374
 2598SOL    HW2 8694   5.754   0.576   4.446
 2599SOL     OW 8695   2.848   0.638   0.602
 2599SOL    HW1 8696   2.903   0.555   0.598
 2599SOL    HW2 8697   2.840   0.668   0.698
 2600SOL     OW 8698   4.954   3.433   4.377
 2600SOL    HW1 8699   4.937   3.529   4.397
 2600SOL    HW2 8700   4.928   3.413   4.282
 2601SOL     OW 8701   2.568   1.992   6.425
 2601SOL    HW1 8702   2.626   2.030   6.497
 2601SOL    HW2 8703   2.561   1.893   6.437
 2602SOL     OW 8704   6.654   4.797   3.822
 2602SOL    HW1 8705   6.736   4.854   3.815
 2602SOL    HW2 8706   6.681   4.700   3.817
 2603SOL     OW 8707   2.251   1.987   2.279
 2603SOL    HW1 8708   2.308   1.929   2.221
 2603SOL    HW2 8709   2.308   2.038   2.343
 2604SOL     OW 8710   5.075   1.375   3.531
 2604SOL    HW1 8711   5.109   1.296   3.582
 2604SOL    HW2 8712   5.101   1.365   3.435
 2605SOL     OW 8713   2.243   4.127   2.893
 2605SOL    HW1 8714   2.228   4.086   2.804
 2605SOL    HW2 8715   2.170   4.098   2.956
 2606SOL     OW 8716   6.641   4.766   0.963
 2606SOL    HW1 8717   6.567   4.833   0.963
 2606SOL    HW2 8718   6.685   4.764   1.053
 2607SOL     OW 8719   0.099   1.346   6.534
 2607SOL    HW1 8720   0.028   1.319   6.469
 2607SOL    HW2 8721   0.075   1.434   6.575
 2608SOL     OW 8722   4.307   4.926   2.182
 2608SOL    HW1 8723   4.299   4.979   2.266
 2608SOL    HW2 8724   4.401   4.927   2.150
 2609SOL     OW 8725   0.228   1.602   1.926
 2609SOL    HW1 8726   0.197   1.611   1.832
 2609SOL    HW2 8727   0.218   1.689   1.973
 2610SOL     OW 8728   0.126   5.041   4.169
 2610SOL    HW1 8729   0.109   5.071   4.075
 2610SOL    HW2 8730   0.196   4.969   4.169
 2611SOL     OW 8731   4.368   6.170   0.875
 2611SOL    HW1 8732   4.389   6.131   0.965
 2611SOL    HW2 8733   4.270   6.161   0.857
 2612SOL     OW 8734   6.600   0.343   5.595
 2612SOL    HW1 8735   6.654   0.358   5.512
 2612SOL    HW2 8736   6.554   0.255   5.590
 2613SOL     OW 8737   2.409   6.411   0.622
 2613SOL    HW1 8738   2.312   6.406   0.644
 2613SOL    HW2 8739   2.441   6.320   0.595
 2614SOL     OW 8740   6.492   0.681   6.148
 2614SOL    HW1 8741   6.400   0.681   6.186
 2614SOL    HW2 8742   6.514   0.772   6.114
 2615SOL     OW 8743   6.815   3.246   3.293
 2615SOL    HW1 8744   6.861   3.316   3.239
 2615SOL    HW2 8745   6.847   3.250   3.387
 2616SOL     OW 8746   3.895   3.451   4.535
 2616SOL    HW1 8747   3.883   3.508   4.617
 2616SOL    HW2 8748   3.827   3.477   4.466
 2617SOL     OW 8749   3.748   6.589   0.817
 2617SOL    HW1 8750   3.715   6.509   0.868
 2617SOL    HW2 8751   3.710   6.587   0.725
 2618SOL     OW 8752   0.213   6.940   4.472
 2618SOL    HW1 8753   0.127   6.982   4.440
 2618SOL    HW2 8754   0.276   6.933   4.395
 2619SOL     OW 8755   3.946   1.567   3.017
 2619SOL    HW1 8756   4.007   1.592   3.092
 2619SOL    HW2 8757   3.858   1.537   3.054
 2620SOL     OW 8758   6.611   6.768   2.689
 2620SOL    HW1 8759   6.689   6.705   2.685
 2620SOL    HW2 8760   6.556   6.747   2.769
 2621SOL     OW 8761   0.960   6.173   2.907
 2621SOL    HW1 8762   1.005   6.100   2.958
 2621SOL    HW2 8763   0.979   6.261   2.950
 2622SOL     OW 8764   2.370   2.545   5.746
 2622SOL    HW1 8765   2.459   2.575   5.778
 2622SOL    HW2 8766   2.381   2.499   5.657
 2623SOL     OW 8767   2.382   1.354   5.554
 2623SOL    HW1 8768   2.302   1.403   5.519
 2623SOL    HW2 8769   2.463   1.412   5.546
 2624SOL     OW 8770   6.941   2.280   5.418
 2624SOL    HW1 8771   6.982   2.213   5.480
 2624SOL    HW2 8772   6.994   2.365   5.421
 2625SOL     OW 8773   2.497   1.987   5.578
 2625SOL    HW1 8774   2.427   1.919   5.601
 2625SOL    HW2 8775   2.508   2.050   5.654
 2626SOL     OW 8776   0.690   0.066   5.297
 2626SOL    HW1 8777   0.628   0.111   5.233
 2626SOL    HW2 8778   0.752   0.134   5.336
 2627SOL     OW 8779   1.549   1.774   5.559
 2627SOL    HW1 8780   1.620   1.716   5.518
 2627SOL    HW2 8781   1.527   1.849   5.496
 2628SOL     OW 8782   2.174   4.844   5.987
 2628SOL    HW1 8783   2.217   4.908   5.923
 2628SOL    HW2 8784   2.239   4.819   6.058
 2629SOL     OW 8785   2.741   3.580   1.730
 2629SOL    HW1 8786   2.802   3.512   1.689
 2629SOL    HW2 8787   2.771   3.601   1.823
 2630SOL     OW 8788   2.826   1.887   2.973
 2630SOL    HW1 8789   2.786   1.978   2.968
 2630SOL    HW2 8790   2.924   1.895   2.991
 2631SOL     OW 8791   5.177   0.278   5.217
 2631SOL    HW1 8792   5.244   0.277   5.292
 2631SOL    HW2 8793   5.193   0.357   5.159
 2632SOL     OW 8794   3.777   2.024   5.969
 2632SOL    HW1 8795   3.828   2.108   5.990
 2632SOL    HW2 8796   3.679   2.041   5.983
 2633SOL     OW 8797   6.844   0.747   4.539
 2633SOL    HW1 8798   6.779   0.735   4.614
 2633SOL    HW2 8799   6.842   0.842   4.508
 2634SOL     OW 8800   1.202   3.960   3.257
 2634SOL    HW1 8801   1.281   3.905   3.231
 2634SOL    HW2 8802   1.125   3.938   3.196
 2635SOL     OW 8803   6.254   6.013   5.803
 2635SOL    HW1 8804   6.206   5.946   5.746
 2635SOL    HW2 8805   6.204   6.099   5.802
 2636SOL     OW 8806   4.818   0.031   5.145
 2636SOL    HW1 8807   4.852   0.023   5.239
 2636SOL    HW2 8808   4.719   0.020   5.144
 2637SOL     OW 8809   5.164   1.988   3.741
 2637SOL    HW1 8810   5.099   1.973   3.666
 2637SOL    HW2 8811   5.256   2.000   3.704
 2638SOL     OW 8812   6.565   0.555   3.317
 2638SOL    HW1 8813   6.598   0.646   3.343
 2638SOL    HW2 8814   6.482   0.534   3.368
 2639SOL     OW 8815   0.849   6.664   1.201
 2639SOL    HW1 8816   0.879   6.578   1.159
 2639SOL    HW2 8817   0.801   6.719   1.133
 2640SOL     OW 8818   0.198   5.840   4.915
 2640SOL    HW1 8819   0.275   5.882   4.868
 2640SOL    HW2 8820   0.163   5.763   4.861
 2641SOL     OW 8821   4.888   3.279   2.081
 2641SOL    HW1 8822   4.835   3.210   2.032
 2641SOL    HW2 8823   4.922   3.240   2.166
 2642SOL     OW 8824   4.097   6.629   4.296
 2642SOL    HW1 8825   4.195   6.610   4.298
 2642SOL    HW2 8826   4.051   6.570   4.362
 2643SOL     OW 8827   0.203   3.600   2.816
 2643SOL    HW1 8828   0.204   3.544   2.733
 2643SOL    HW2 8829   0.128   3.666   2.811
 2644SOL     OW 8830   6.249   5.248   6.061
 2644SOL    HW1 8831   6.221   5.286   5.973
 2644SOL    HW2 8832   6.279   5.154   6.049
 2645SOL     OW 8833   4.410   5.391   4.733
 2645SOL    HW1 8834   4.371   5.299   4.736
 2645SOL    HW2 8835   4.456   5.410   4.820
 2646SOL     OW 8836   6.197   0.388   6.540
 2646SOL    HW1 8837   6.216   0.435   6.626
 2646SOL    HW2 8838   6.159   0.452   6.474
 2647SOL     OW 8839   6.467   0.140   1.691
 2647SOL    HW1 8840   6.437   0.112   1.600
 2647SOL    HW2 8841   6.401   0.109   1.759
 2648SOL     OW 8842   0.393   0.366   4.081
 2648SOL    HW1 8843   0.467   0.308   4.114
 2648SOL    HW2 8844   0.361   0.334   3.992
 2649SOL     OW 8845   5.778   2.801   0.028
 2649SOL    HW1 8846   5.853   2.787   0.092
 2649SOL    HW2 8847   5.694   2.763   0.066
 2650SOL     OW 8848   0.602   4.257   4.494
 2650SOL    HW1 8849   0.507   4.225   4.491
 2650SOL    HW2 8850   0.663   4.180   4.474
 2651SOL     OW 8851   0.771   1.167   0.483
 2651SOL    HW1 8852   0.799   1.262   0.479
 2651SOL    HW2 8853   0.777   1.135   0.578
 2652SOL     OW 8854   3.930   3.979   4.302
 2652SOL    HW1 8855   3.969   3.973   4.210
 2652SOL    HW2 8856   3.863   4.053   4.306
 2653SOL     OW 8857   5.053   6.335   5.397
 2653SOL    HW1 8858   5.090   6.254   5.350
 2653SOL    HW2 8859   5.063   6.415   5.338
 2654SOL     OW 8860   4.857   5.586   1.352
 2654SOL    HW1 8861   4.914   5.516   1.396
 2654SOL    HW2 8862   4.768   5.546   1.329
 2655SOL     OW 8863   4.184   5.915   3.997
 2655SOL    HW1 8864   4.127   5.875   3.926
 2655SOL    HW2 8865   4.126   5.948   4.072
 2656SOL     OW 8866   3.320   5.067   4.282
 2656SOL    HW1 8867   3.233   5.026   4.310
 2656SOL    HW2 8868   3.391   4.996   4.285
 2657SOL     OW 8869   1.211   4.039   6.230
 2657SOL    HW1 8870   1.198   3.958   6.287
 2657SOL    HW2 8871   1.158   4.115   6.266
 2658SOL     OW 8872   5.094   4.477   0.277
 2658SOL    HW1 8873   5.023   4.475   0.207
 2658SOL    HW2 8874   5.087   4.561   0.330
 2659SOL     OW 8875   5.794   3.074   4.406
 2659SOL    HW1 8876   5.761   2.996   4.354
 2659SOL    HW2 8877   5.726   3.147   4.404
 2660SOL     OW 8878   1.139   1.020   0.925
 2660SOL    HW1 8879   1.150   0.921   0.920
 2660SOL    HW2 8880   1.056   1.047   0.876
 2661SOL     OW 8881   2.577   6.877   1.044
 2661SOL    HW1 8882   2.601   6.863   0.947
 2661SOL    HW2 8883   2.485   6.842   1.060
 2662SOL     OW 8884   4.704   6.730   5.445
 2662SOL    HW1 8885   4.722   6.741   5.347
 2662SOL    HW2 8886   4.619   6.678   5.457
 2663SOL     OW 8887   2.909   3.777   0.343
 2663SOL    HW1 8888   2.963   3.791   0.260
 2663SOL    HW2 8889   2.962   3.723   0.408
 2664SOL     OW 8890   3.809   4.190   5.227
 2664SOL    HW1 8891   3.735   4.178   5.160
 2664SOL    HW2 8892   3.772   4.186   5.319
 2665SOL     OW 8893   2.504   2.778   5.308
 2665SOL    HW1 8894   2.516   2.718   5.228
 2665SOL    HW2 8895   2.468   2.866   5.278
 2666SOL     OW 8896   5.737   4.058   0.906
 2666SOL    HW1 8897   5.702   4.017   0.991
 2666SOL    HW2 8898   5.835   4.076   0.916
 2667SOL     OW 8899   1.041   6.832   3.944
 2667SOL    HW1 8900   1.073   6.793   3.858
 2667SOL    HW2 8901   1.093   6.794   4.020
 2668SOL     OW 8902   6.967   3.309   4.592
 2668SOL    HW1 8903   0.001   3.352   4.525
 2668SOL    HW2 8904   6.959   3.368   4.672
 2669SOL     OW 8905   2.768   4.358   5.332
 2669SOL    HW1 8906   2.825   4.424   5.283
 2669SOL    HW2 8907   2.807   4.267   5.324
 2670SOL     OW 8908   6.176   3.095   6.433
 2670SOL    HW1 8909   6.163   3.029   6.359
 2670SOL    HW2 8910   6.102   3.162   6.431
 2671SOL     OW 8911   3.685   5.335   6.003
 2671SOL    HW1 8912   3.690   5.241   5.970
 2671SOL    HW2 8913   3.608   5.382   5.959
 2672SOL     OW 8914   1.013   5.069   0.804
 2672SOL    HW1 8915   1.026   5.151   0.749
 2672SOL    HW2 8916   1.048   4.989   0.754
 2673SOL     OW 8917   6.092   0.791   4.223
 2673SOL    HW1 8918   6.021   0.747   4.278
 2673SOL    HW2 8919   6.177   0.798   4.276
 2674SOL     OW 8920   1.322   4.462   3.776
 2674SOL    HW1 8921   1.292   4.551   3.741
 2674SOL    HW2 8922   1.334   4.399   3.699
 2675SOL     OW 8923   6.416   5.352   3.535
 2675SOL    HW1 8924   6.425   5.323   3.630
 2675SOL    HW2 8925   6.349   5.294   3.488
 2676SOL     OW 8926   4.335   2.088   0.749
 2676SOL    HW1 8927   4.331   2.062   0.845
 2676SOL    HW2 8928   4.303   2.011   0.693
 2677SOL     OW 8929   3.143   3.406   0.333
 2677SOL    HW1 8930   3.198   3.444   0.259
 2677SOL    HW2 8931   3.186   3.323   0.369
 2678SOL     OW 8932   0.245   2.623   1.198
 2678SOL    HW1 8933   0.260   2.645   1.294
 2678SOL    HW2 8934   0.332   2.623   1.149
 2679SOL     OW 8935   3.611   4.540   0.903
 2679SOL    HW1 8936   3.644   4.634   0.907
 2679SOL    HW2 8937   3.655   4.492   0.828
 2680SOL     OW 8938   1.048   1.252   0.618
 2680SOL    HW1 8939   1.069   1.214   0.708
 2680SOL    HW2 8940   0.978   1.323   0.627
 2681SOL     OW 8941   1.114   2.760   4.652
 2681SOL    HW1 8942   1.126   2.726   4.745
 2681SOL    HW2 8943   1.102   2.683   4.590
 2682SOL     OW 8944   5.084   4.483   2.400
 2682SOL    HW1 8945   4.996   4.483   2.353
 2682SOL    HW2 8946   5.072   4.518   2.493
 2683SOL     OW 8947   2.891   5.032   1.371
 2683SOL    HW1 8948   2.923   5.074   1.287
 2683SOL    HW2 8949   2.924   4.938   1.376
 2684SOL     OW 8950   4.175   5.477   1.152
 2684SOL    HW1 8951   4.095   5.508   1.203
 2684SOL    HW2 8952   4.173   5.515   1.059
 2685SOL     OW 8953   6.397   6.190   6.542
 2685SOL    HW1 8954   6.383   6.288   6.527
 2685SOL    HW2 8955   6.432   6.175   6.634
 2686SOL     OW 8956   1.660   1.923   5.770
 2686SOL    HW1 8957   1.749   1.879   5.783
 2686SOL    HW2 8958   1.607   1.872   5.702
 2687SOL     OW 8959   4.654   4.310   2.329
 2687SOL    HW1 8960   4.673   4.288   2.425
 2687SOL    HW2 8961   4.712   4.385   2.300
 2688SOL     OW 8962   4.068   4.272   0.088
 2688SOL    HW1 8963   4.047   4.343   0.020
 2688SOL    HW2 8964   4.034   4.184   0.056
 2689SOL     OW 8965   1.437   3.855   3.584
 2689SOL    HW1 8966   1.485   3.930   3.537
 2689SOL    HW2 8967   1.470   3.767   3.549
 2690SOL     OW 8968   3.478   3.556   3.573
 2690SOL    HW1 8969   3.563   3.598   3.605
 2690SOL    HW2 8970   3.484   3.457   3.581
 2691SOL     OW 8971   1.390   5.646   1.951
 2691SOL    HW1 8972   1.311   5.619   2.007
 2691SOL    HW2 8973   1.445   5.565   1.931
 2692SOL     OW 8974   3.285   5.509   2.797
 2692SOL    HW1 8975   3.258   5.595   2.754
 2692SOL    HW2 8976   3.278   5.435   2.730
 2693SOL     OW 8977   2.162   5.520   2.634
 2693SOL    HW1 8978   2.111   5.434   2.625
 2693SOL    HW2 8979   2.244   5.504   2.688
 2694SOL     OW 8980   4.091   6.535   2.922
 2694SOL    HW1 8981   4.035   6.596   2.865
 2694SOL    HW2 8982   4.127   6.585   3.000
 2695SOL     OW 8983   5.115   0.485   2.483
 2695SOL    HW1 8984   5.056   0.543   2.538
 2695SOL    HW2 8985   5.060   0.418   2.434
 2696SOL     OW 8986   3.589   3.607   5.349
 2696SOL    HW1 8987   3.659   3.538   5.368
 2696SOL    HW2 8988   3.633   3.695   5.331
 2697SOL     OW 8989   3.164   1.539   2.803
 2697SOL    HW1 8990   3.078   1.563   2.848
 2697SOL    HW2 8991   3.220   1.622   2.791
 2698SOL     OW 8992   2.355   6.335   0.221
 2698SOL    HW1 8993   2.260   6.312   0.200
 2698SOL    HW2 8994   2.395   6.263   0.277
 2699SOL     OW 8995   2.613   6.843   0.732
 2699SOL    HW1 8996   2.603   6.746   0.713
 2699SOL    HW2 8997   2.708   6.863   0.756
 2700SOL     OW 8998   2.392   3.829   0.495
 2700SOL    HW1 8999   2.476   3.833   0.441
 2700SOL    HW2 9000   2.313   3.814   0.434
 2701SOL     OW 9001   5.717   1.136   6.244
 2701SOL    HW1 9002   5.635   1.192   6.244
 2701SOL    HW2 9003   5.697   1.047   6.286
 2702SOL     OW 9004   0.736   3.274   3.677
 2702SOL    HW1 9005   0.709   3.356   3.627
 2702SOL    HW2 9006   0.703   3.279   3.771
 2703SOL     OW 9007   1.597   0.459   1.527
 2703SOL    HW1 9008   1.529   0.396   1.490
 2703SOL    HW2 9009   1.552   0.525   1.588
 2704SOL     OW 9010   6.916   6.323   1.575
 2704SOL    HW1 9011   6.977   6.402   1.568
 2704SOL    HW2 9012   6.967   6.246   1.614
 2705SOL     OW 9013   6.953   5.484   4.510
 2705SOL    HW1 9014   6.878   5.436   4.557
 2705SOL    HW2 9015   7.005   5.418   4.456
 2706SOL     OW 9016   0.299   6.609   1.664
 2706SOL    HW1 9017   0.392   6.622   1.629
 2706SOL    HW2 9018   0.255   6.698   1.674
 2707SOL     OW 9019   3.494   6.976   4.252
 2707SOL    HW1 9020   3.502   7.016   4.161
 2707SOL    HW2 9021   3.572   7.002   4.308
 2708SOL     OW 9022   0.291   2.332   6.636
 2708SOL    HW1 9023   0.255   2.245   6.668
 2708SOL    HW2 9024   0.291   2.333   6.536
 2709SOL     OW 9025   6.364   6.811   0.308
 2709SOL    HW1 9026   6.404   6.844   0.223
 2709SOL    HW2 9027   6.265   6.821   0.304
 2710SOL     OW 9028   0.848   3.790   3.521
 2710SOL    HW1 9029   0.883   3.730   3.592
 2710SOL    HW2 9030   0.901   3.875   3.521
 2711SOL     OW 9031   2.375   1.297   4.102
 2711SOL    HW1 9032   2.291   1.303   4.047
 2711SOL    HW2 9033   2.431   1.221   4.070
 2712SOL     OW 9034   2.935   4.441   0.706
 2712SOL    HW1 9035   2.918   4.471   0.612
 2712SOL    HW2 9036   2.911   4.345   0.716
 2713SOL     OW 9037   2.304   2.102   4.567
 2713SOL    HW1 9038   2.290   2.008   4.599
 2713SOL    HW2 9039   2.380   2.104   4.501
 2714SOL     OW 9040   4.103   2.481   0.395
 2714SOL    HW1 9041   4.047   2.563   0.402
 2714SOL    HW2 9042   4.187   2.494   0.449
 2715SOL     OW 9043   5.205   1.668   1.293
 2715SOL    HW1 9044   5.187   1.576   1.256
 2715SOL    HW2 9045   5.304   1.684   1.295
 2716SOL     OW 9046   5.175   4.413   2.756
 2716SOL    HW1 9047   5.187   4.497   2.702
 2716SOL    HW2 9048   5.247   4.407   2.825
 2717SOL     OW 9049   1.018   6.329   2.387
 2717SOL    HW1 9050   1.084   6.338   2.313
 2717SOL    HW2 9051   0.998   6.232   2.402
 2718SOL     OW 9052   2.324   1.992   5.379
 2718SOL    HW1 9053   2.293   2.086   5.361
 2718SOL    HW2 9054   2.400   1.994   5.443
 2719SOL     OW 9055   6.672   5.725   0.712
 2719SOL    HW1 9056   6.742   5.764   0.652
 2719SOL    HW2 9057   6.655   5.787   0.788
 2720SOL     OW 9058   1.949   6.320   2.091
 2720SOL    HW1 9059   1.980   6.248   2.153
 2720SOL    HW2 9060   1.850   6.332   2.101
 2721SOL     OW 9061   2.591   0.072   3.716
 2721SOL    HW1 9062   2.621   0.093   3.809
 2721SOL    HW2 9063   2.668   0.085   3.652
 2722SOL     OW 9064   6.685   5.435   1.543
 2722SOL    HW1 9065   6.751   5.362   1.557
 2722SOL    HW2 9066   6.632   5.417   1.459
 2723SOL     OW 9067   0.859   6.711   6.136
 2723SOL    HW1 9068   0.904   6.623   6.133
 2723SOL    HW2 9069   0.778   6.710   6.077
 2724SOL     OW 9070   1.963   6.548   0.053
 2724SOL    HW1 9071   1.901   6.575   7.007
 2724SOL    HW2 9072   2.006   6.630   0.092
 2725SOL     OW 9073   5.163   5.356   4.306
 2725SOL    HW1 9074   5.198   5.372   4.214
 2725SOL    HW2 9075   5.123   5.441   4.341
 2726SOL     OW 9076   6.891   2.625   1.205
 2726SOL    HW1 9077   6.802   2.667   1.221
 2726SOL    HW2 9078   6.913   2.628   1.108
 2727SOL     OW 9079   0.149   5.203   3.150
 2727SOL    HW1 9080   0.074   5.244   3.097
 2727SOL    HW2 9081   0.235   5.217   3.101
 2728SOL     OW 9082   4.683   6.323   5.824
 2728SOL    HW1 9083   4.759   6.360   5.770
 2728SOL    HW2 9084   4.642   6.396   5.879
 2729SOL     OW 9085   6.729   6.091   1.227
 2729SOL    HW1 9086   6.809   6.151   1.224
 2729SOL    HW2 9087   6.648   6.142   1.199
 2730SOL     OW 9088   1.406   5.451   1.399
 2730SOL    HW1 9089   1.358   5.383   1.344
 2730SOL    HW2 9090   1.434   5.527   1.341
 2731SOL     OW 9091   3.936   3.412   2.816
 2731SOL    HW1 9092   3.997   3.351   2.764
 2731SOL    HW2 9093   3.936   3.385   2.912
 2732SOL     OW 9094   5.384   2.226   1.605
 2732SOL    HW1 9095   5.389   2.306   1.545
 2732SOL    HW2 9096   5.477   2.194   1.625
 2733SOL     OW 9097   7.008   0.006   4.386
 2733SOL    HW1 9098   6.924   6.992   4.349
 2733SOL    HW2 9099   0.029   0.054   4.313
 2734SOL     OW 9100   2.374   6.668   1.844
 2734SOL    HW1 9101   2.371   6.767   1.855
 2734SOL    HW2 9102   2.287   6.636   1.806
 2735SOL     OW 9103   1.232   3.183   2.944
 2735SOL    HW1 9104   1.271   3.168   3.035
 2735SOL    HW2 9105   1.241   3.280   2.920
 2736SOL     OW 9106   4.776   6.734   5.174
 2736SOL    HW1 9107   4.869   6.758   5.201
 2736SOL    HW2 9108   4.755   6.773   5.084
 2737SOL     OW 9109   3.432   3.703   5.578
 2737SOL    HW1 9110   3.392   3.762   5.508
 2737SOL    HW2 9111   3.467   3.619   5.536
 2738SOL     OW 9112   5.204   5.594   2.656
 2738SOL    HW1 9113   5.250   5.613   2.569
 2738SOL    HW2 9114   5.196   5.679   2.708
 2739SOL     OW 9115   0.151   5.032   1.043
 2739SOL    HW1 9116   0.107   5.086   0.972
 2739SOL    HW2 9117   0.237   5.075   1.070
 2740SOL     OW 9118   6.662   3.752   2.309
 2740SOL    HW1 9119   6.569   3.773   2.337
 2740SOL    HW2 9120   6.669   3.759   2.209
 2741SOL     OW 9121   6.431   0.359   5.190
 2741SOL    HW1 9122   6.454   0.279   5.134
 2741SOL    HW2 9123   6.332   0.363   5.202
 2742SOL     OW 9124   1.960   5.443   6.442
 2742SOL    HW1 9125   2.011   5.479   6.520
 2742SOL    HW2 9126   1.943   5.345   6.455
 2743SOL     OW 9127   6.812   4.892   2.105
 2743SOL    HW1 9128   6.910   4.872   2.102
 2743SOL    HW2 9129   6.797   4.977   2.156
 2744SOL     OW 9130   5.215   1.646   6.280
 2744SOL    HW1 9131   5.148   1.720   6.270
 2744SOL    HW2 9132   5.266   1.660   6.365
 2745SOL     OW 9133   6.927   6.830   5.923
 2745SOL    HW1 9134   6.949   6.859   6.016
 2745SOL    HW2 9135   6.873   6.746   5.926
 2746SOL     OW 9136   2.474   2.162   4.175
 2746SOL    HW1 9137   2.532   2.146   4.096
 2746SOL    HW2 9138   2.389   2.109   4.167
 2747SOL     OW 9139   6.057   4.129   6.371
 2747SOL    HW1 9140   6.066   4.046   6.317
 2747SOL    HW2 9141   5.999   4.111   6.451
 2748SOL     OW 9142   5.656   1.399   1.120
 2748SOL    HW1 9143   5.703   1.487   1.120
 2748SOL    HW2 9144   5.674   1.351   1.206
 2749SOL     OW 9145   6.738   5.121   2.739
 2749SOL    HW1 9146   6.757   5.034   2.693
 2749SOL    HW2 9147   6.777   5.120   2.830
 2750SOL     OW 9148   0.820   5.056   1.209
 2750SOL    HW1 9149   0.749   5.123   1.229
 2750SOL    HW2 9150   0.892   5.063   1.278
 2751SOL     OW 9151   0.661   5.915   1.496
 2751SOL    HW1 9152   0.629   5.985   1.559
 2751SOL    HW2 9153   0.753   5.938   1.464
 2752SOL     OW 9154   4.234   4.970   5.785
 2752SOL    HW1 9155   4.151   4.970   5.728
 2752SOL    HW2 9156   4.311   5.004   5.732
 2753SOL     OW 9157   0.662   6.418   5.349
 2753SOL    HW1 9158   0.711   6.339   5.386
 2753SOL    HW2 9159   0.596   6.387   5.280
 2754SOL     OW 9160   0.367   0.935   3.120
 2754SOL    HW1 9161   0.410   0.899   3.203
 2754SOL    HW2 9162   0.416   1.017   3.090
 2755SOL     OW 9163   2.060   6.720   3.242
 2755SOL    HW1 9164   2.043   6.805   3.291
 2755SOL    HW2 9165   2.143   6.730   3.187
 2756SOL     OW 9166   5.833   4.486   6.479
 2756SOL    HW1 9167   5.769   4.434   6.535
 2756SOL    HW2 9168   5.865   4.566   6.529
 2757SOL     OW 9169   1.990   0.423   6.462
 2757SOL    HW1 9170   2.089   0.419   6.454
 2757SOL    HW2 9171   1.953   0.330   6.465
 2758SOL     OW 9172   4.661   6.310   3.134
 2758SOL    HW1 9173   4.584   6.245   3.130
 2758SOL    HW2 9174   4.741   6.264   3.171
 2759SOL     OW 9175   5.034   5.365   5.451
 2759SOL    HW1 9176   5.104   5.304   5.414
 2759SOL    HW2 9177   5.070   5.411   5.532
 2760SOL     OW 9178   0.265   6.123   2.661
 2760SOL    HW1 9179   0.174   6.126   2.619
 2760SOL    HW2 9180   0.260   6.155   2.755
 2761SOL     OW 9181   1.751   4.466   4.862
 2761SOL    HW1 9182   1.683   4.491   4.931
 2761SOL    HW2 9183   1.710   4.404   4.795
 2762SOL     OW 9184   2.116   0.032   6.506
 2762SOL    HW1 9185   2.173   0.014   6.426
 2762SOL    HW2 9186   2.030   0.073   6.477
 2763SOL     OW 9187   4.774   2.464   4.734
 2763SOL    HW1 9188   4.804   2.450   4.828
 2763SOL    HW2 9189   4.841   2.424   4.671
 2764SOL     OW 9190   6.559   1.192   1.385
 2764SOL    HW1 9191   6.540   1.259   1.456
 2764SOL    HW2 9192   6.542   1.100   1.420
 2765SOL     OW 9193   6.459   6.679   0.516
 2765SOL    HW1 9194   6.452   6.746   0.590
 2765SOL    HW2 9195   6.417   6.717   0.433
 2766SOL     OW 9196   4.904   2.892   0.371
 2766SOL    HW1 9197   4.958   2.863   0.291
 2766SOL    HW2 9198   4.911   2.823   0.442
 2767SOL     OW 9199   6.290   5.168   0.068
 2767SOL    HW1 9200   6.298   5.090   0.129
 2767SOL    HW2 9201   6.276   5.135   7.001
 2768SOL     OW 9202   4.576   0.404   1.009
 2768SOL    HW1 9203   4.658   0.349   1.021
 2768SOL    HW2 9204   4.528   0.375   0.926
 2769SOL     OW 9205   1.693   4.478   6.411
 2769SOL    HW1 9206   1.760   4.501   6.340
 2769SOL    HW2 9207   1.647   4.393   6.387
 2770SOL     OW 9208   4.366   5.568   6.096
 2770SOL    HW1 9209   4.388   5.603   6.188
 2770SOL    HW2 9210   4.323   5.478   6.105
 2771SOL     OW 9211   6.013   1.070   4.058
 2771SOL    HW1 9212   6.077   1.015   4.112
 2771SOL    HW2 9213   6.043   1.072   3.963
 2772SOL     OW 9214   3.958   1.584   0.775
 2772SOL    HW1 9215   3.923   1.496   0.741
 2772SOL    HW2 9216   4.001   1.634   0.700
 2773SOL     OW 9217   6.075   2.146   4.838
 2773SOL    HW1 9218   6.018   2.076   4.882
 2773SOL    HW2 9219   6.121   2.106   4.759
 2774SOL     OW 9220   5.418   2.707   3.206
 2774SOL    HW1 9221   5.360   2.775   3.251
 2774SOL    HW2 9222   5.457   2.646   3.275
 2775SOL     OW 9223   6.949   3.910   5.483
 2775SOL    HW1 9224   6.858   3.884   5.516
 2775SOL    HW2 9225   6.941   3.989   5.421
 2776SOL     OW 9226   4.684   4.246   6.003
 2776SOL    HW1 9227   4.694   4.306   5.924
 2776SOL    HW2 9228   4.600   4.269   6.052
 2777SOL     OW 9229   2.707   1.947   1.390
 2777SOL    HW1 9230   2.669   2.028   1.436
 2777SOL    HW2 9231   2.633   1.895   1.347
 2778SOL     OW 9232   1.925   6.834   5.583
 2778SOL    HW1 9233   1.855   6.893   5.542
 2778SOL    HW2 9234   1.897   6.739   5.573
 2779SOL     OW 9235   5.093   6.187   2.423
 2779SOL    HW1 9236   5.111   6.246   2.502
 2779SOL    HW2 9237   5.121   6.093   2.445
 2780SOL     OW 9238   0.579   6.853   6.466
 2780SOL    HW1 9239   0.669   6.839   6.507
 2780SOL    HW2 9240   0.554   6.773   6.411
 2781SOL     OW 9241   6.066   0.390   2.136
 2781SOL    HW1 9242   6.133   0.346   2.195
 2781SOL    HW2 9243   6.004   0.445   2.191
 2782SOL     OW 9244   4.766   1.160   5.226
 2782SOL    HW1 9245   4.819   1.235   5.266
 2782SOL    HW2 9246   4.711   1.116   5.298
 2783SOL     OW 9247   4.780   4.021   2.719
 2783SOL    HW1 9248   4.853   4.087   2.699
 2783SOL    HW2 9249   4.807   3.930   2.689
 2784SOL     OW 9250   3.531   1.386   2.315
 2784SOL    HW1 9251   3.536   1.466   2.255
 2784SOL    HW2 9252   3.499   1.414   2.405
 2785SOL     OW 9253   5.802   2.501   0.958
 2785SOL    HW1 9254   5.786   2.467   1.051
 2785SOL    HW2 9255   5.892   2.544   0.954
 2786SOL     OW 9256   5.021   7.006   2.359
 2786SOL    HW1 9257   5.013   0.014   2.452
 2786SOL    HW2 9258   5.033   6.907   2.361
 2787SOL     OW 9259   5.423   6.548   5.685
 2787SOL    HW1 9260   5.458   6.629   5.637
 2787SOL    HW2 9261   5.431   6.563   5.783
 2788SOL     OW 9262   2.316   6.230   5.813
 2788SOL    HW1 9263   2.281   6.319   5.841
 2788SOL    HW2 9264   2.399   6.242   5.759
 2789SOL     OW 9265   1.548   2.207   4.048
 2789SOL    HW1 9266   1.624   2.227   3.986
 2789SOL    HW2 9267   1.495   2.129   4.012
 2790SOL     OW 9268   3.394   5.875   2.043
 2790SOL    HW1 9269   3.350   5.909   2.126
 2790SOL    HW2 9270   3.487   5.844   2.065
 2791SOL     OW 9271   0.537   2.764   2.574
 2791SOL    HW1 9272   0.636   2.757   2.591
 2791SOL    HW2 9273   0.505   2.855   2.602
 2792SOL     OW 9274   1.930   0.560   3.806
 2792SOL    HW1 9275   1.831   0.560   3.820
 2792SOL    HW2 9276   1.955   0.487   3.743
 2793SOL     OW 9277   5.358   3.813   1.384
 2793SOL    HW1 9278   5.270   3.769   1.362
 2793SOL    HW2 9279   5.427   3.782   1.319
 2794SOL     OW 9280   6.613   1.706   6.584
 2794SOL    HW1 9281   6.549   1.781   6.567
 2794SOL    HW2 9282   6.689   1.739   6.640
 2795SOL     OW 9283   0.758   3.334   1.067
 2795SOL    HW1 9284   0.658   3.342   1.062
 2795SOL    HW2 9285   0.799   3.424   1.052
 2796SOL     OW 9286   0.182   6.272   2.905
 2796SOL    HW1 9287   0.091   6.315   2.906
 2796SOL    HW2 9288   0.252   6.341   2.918
 2797SOL     OW 9289   5.144   5.239   5.231
 2797SOL    HW1 9290   5.077   5.279   5.168
 2797SOL    HW2 9291   5.234   5.278   5.213
 2798SOL     OW 9292   6.736   5.375   2.598
 2798SOL    HW1 9293   6.639   5.396   2.586
 2798SOL    HW2 9294   6.746   5.292   2.653
 2799SOL     OW 9295   5.769   5.053   5.788
 2799SOL    HW1 9296   5.715   5.054   5.872
 2799SOL    HW2 9297   5.709   5.039   5.709
 2800SOL     OW 9298   4.598   6.535   6.223
 2800SOL    HW1 9299   4.684   6.487   6.242
 2800SOL    HW2 9300   4.521   6.475   6.246
 2801SOL     OW 9301   6.647   5.033   5.750
 2801SOL    HW1 9302   6.568   5.020   5.809
 2801SOL    HW2 9303   6.633   5.114   5.693
 2802SOL     OW 9304   5.462   6.371   5.397
 2802SOL    HW1 9305   5.438   6.277   5.419
 2802SOL    HW2 9306   5.562   6.382   5.401
 2803SOL     OW 9307   4.287   5.334   6.597
 2803SOL    HW1 9308   4.259   5.397   6.524
 2803SOL    HW2 9309   4.318   5.249   6.556
 2804SOL     OW 9310   0.758   4.298   5.189
 2804SOL    HW1 9311   0.766   4.253   5.278
 2804SOL    HW2 9312   0.764   4.230   5.116
 2805SOL     OW 9313   5.682   3.395   2.709
 2805SOL    HW1 9314   5.606   3.339   2.676
 2805SOL    HW2 9315   5.763   3.375   2.654
 2806SOL     OW 9316   1.552   4.242   5.744
 2806SOL    HW1 9317   1.594   4.246   5.653
 2806SOL    HW2 9318   1.564   4.151   5.782
 2807SOL     OW 9319   3.835   6.819   4.205
 2807SOL    HW1 9320   3.903   6.749   4.224
 2807SOL    HW2 9321   3.879   6.901   4.170
 2808SOL     OW 9322   6.194   5.498   2.159
 2808SOL    HW1 9323   6.221   5.567   2.226
 2808SOL    HW2 9324   6.252   5.417   2.168
 2809SOL     OW 9325   5.402   2.770   0.858
 2809SOL    HW1 9326   5.461   2.728   0.926
 2809SOL    HW2 9327   5.393   2.868   0.878
 2810SOL     OW 9328   2.346   5.578   2.865
 2810SOL    HW1 9329   2.308   5.485   2.867
 2810SOL    HW2 9330   2.272   5.644   2.856
 2811SOL     OW 9331   1.638   1.848   4.063
 2811SOL    HW1 9332   1.558   1.880   4.012
 2811SOL    HW2 9333   1.619   1.852   4.161
 2812SOL     OW 9334   5.566   3.273   0.238
 2812SOL    HW1 9335   5.585   3.214   0.316
 2812SOL    HW2 9336   5.508   3.224   0.172
 2813SOL     OW 9337   1.005   0.408   6.470
 2813SOL    HW1 9338   1.072   0.462   6.521
 2813SOL    HW2 9339   0.957   0.467   6.406
 2814SOL     OW 9340   3.598   4.225   5.062
 2814SOL    HW1 9341   3.603   4.288   4.986
 2814SOL    HW2 9342   3.583   4.132   5.028
 2815SOL     OW 9343   6.797   5.478   6.121
 2815SOL    HW1 9344   6.870   5.520   6.175
 2815SOL    HW2 9345   6.801   5.379   6.131
 2816SOL     OW 9346   6.500   5.842   3.435
 2816SOL    HW1 9347   6.461   5.861   3.345
 2816SOL    HW2 9348   6.467   5.754   3.469
 2817SOL     OW 9349   2.740   0.101   1.720
 2817SOL    HW1 9350   2.733   0.198   1.742
 2817SOL    HW2 9351   2.808   0.058   1.779
 2818SOL     OW 9352   0.140   0.787   2.545
 2818SOL    HW1 9353   0.092   0.862   2.498
 2818SOL    HW2 9354   0.181   0.821   2.629
 2819SOL     OW 9355   2.371   0.655   1.695
 2819SOL    HW1 9356   2.339   0.660   1.790
 2819SOL    HW2 9357   2.348   0.740   1.647
 2820SOL     OW 9358   1.377   2.164   3.761
 2820SOL    HW1 9359   1.343   2.111   3.683
 2820SOL    HW2 9360   1.389   2.103   3.839
 2821SOL     OW 9361   3.934   5.027   5.920
 2821SOL    HW1 9362   3.963   5.020   5.825
 2821SOL    HW2 9363   3.834   5.021   5.925
 2822SOL     OW 9364   3.990   1.675   0.065
 2822SOL    HW1 9365   3.951   1.766   0.071
 2822SOL    HW2 9366   4.089   1.681   0.055
 2823SOL     OW 9367   5.212   1.064   1.133
 2823SOL    HW1 9368   5.135   1.125   1.151
 2823SOL    HW2 9369   5.296   1.106   1.165
 2824SOL     OW 9370   1.826   1.882   4.815
 2824SOL    HW1 9371   1.864   1.955   4.758
 2824SOL    HW2 9372   1.886   1.802   4.811
 2825SOL     OW 9373   4.983   6.066   6.534
 2825SOL    HW1 9374   5.008   6.160   6.556
 2825SOL    HW2 9375   4.891   6.064   6.495
 2826SOL     OW 9376   4.697   2.047   6.867
 2826SOL    HW1 9377   4.785   2.000   6.865
 2826SOL    HW2 9378   4.692   2.105   6.949
 2827SOL     OW 9379   0.504   1.196   6.538
 2827SOL    HW1 9380   0.436   1.251   6.490
 2827SOL    HW2 9381   0.483   1.194   6.635
 2828SOL     OW 9382   2.405   2.326   0.451
 2828SOL    HW1 9383   2.485   2.266   0.453
 2828SOL    HW2 9384   2.343   2.297   0.378
 2829SOL     OW 9385   3.264   3.037   3.883
 2829SOL    HW1 9386   3.361   3.015   3.895
 2829SOL    HW2 9387   3.255   3.134   3.861
 2830SOL     OW 9388   2.868   3.966   5.073
 2830SOL    HW1 9389   2.824   4.008   4.993
 2830SOL    HW2 9390   2.890   3.870   5.051
 2831SOL     OW 9391   0.531   3.570   2.879
 2831SOL    HW1 9392   0.477   3.641   2.834
 2831SOL    HW2 9393   0.477   3.487   2.889
 2832SOL     OW 9394   0.576   2.926   1.976
 2832SOL    HW1 9395   0.620   2.999   1.924
 2832SOL    HW2 9396   0.613   2.924   2.069
 2833SOL     OW 9397   2.876   1.465   2.674
 2833SOL    HW1 9398   2.955   1.407   2.658
 2833SOL    HW2 9399   2.798   1.430   2.622
 2834SOL     OW 9400   4.066   6.151   5.966
 2834SOL    HW1 9401   4.062   6.204   5.881
 2834SOL    HW2 9402   4.157   6.112   5.977
 2835SOL     OW 9403   0.293   6.384   1.213
 2835SOL    HW1 9404   0.345   6.450   1.267
 2835SOL    HW2 9405   0.339   6.370   1.126
 2836SOL     OW 9406   0.578   6.824   1.774
 2836SOL    HW1 9407   0.576   6.900   1.708
 2836SOL    HW2 9408   0.537   6.854   1.860
 2837SOL     OW 9409   4.660   4.263   2.654
 2837SOL    HW1 9410   4.697   4.335   2.714
 2837SOL    HW2 9411   4.626   4.188   2.710
 2838SOL     OW 9412   4.075   3.877   0.867
 2838SOL    HW1 9413   4.110   3.951   0.810
 2838SOL    HW2 9414   3.994   3.837   0.824
 2839SOL     OW 9415   0.050   2.211   3.362
 2839SOL    HW1 9416   0.023   2.115   3.354
 2839SOL    HW2 9417   0.110   2.235   3.285
 2840SOL     OW 9418   2.049   0.451   2.023
 2840SOL    HW1 9419   2.106   0.374   2.054
 2840SOL    HW2 9420   1.955   0.437   2.053
 2841SOL     OW 9421   6.101   2.036   6.417
 2841SOL    HW1 9422   6.155   1.954   6.434
 2841SOL    HW2 9423   6.150   2.097   6.356
 2842SOL     OW 9424   0.209   4.664   4.155
 2842SOL    HW1 9425   0.276   4.738   4.155
 2842SOL    HW2 9426   0.157   4.666   4.070
 2843SOL     OW 9427   2.466   2.379   2.986
 2843SOL    HW1 9428   2.417   2.293   2.993
 2843SOL    HW2 9429   2.512   2.398   3.073
 2844SOL     OW 9430   6.369   5.400   0.243
 2844SOL    HW1 9431   6.344   5.486   0.198
 2844SOL    HW2 9432   6.338   5.323   0.187
 2845SOL     OW 9433   5.517   3.117   2.275
 2845SOL    HW1 9434   5.447   3.050   2.300
 2845SOL    HW2 9435   5.485   3.169   2.195
 2846SOL     OW 9436   4.382   0.512   0.567
 2846SOL    HW1 9437   4.308   0.510   0.634
 2846SOL    HW2 9438   4.470   0.519   0.614
 2847SOL     OW 9439   5.461   4.151   2.867
 2847SOL    HW1 9440   5.406   4.074   2.836
 2847SOL    HW2 9441   5.402   4.227   2.893
 2848SOL     OW 9442   2.290   2.214   4.933
 2848SOL    HW1 9443   2.222   2.236   5.002
 2848SOL    HW2 9444   2.245   2.202   4.844
 2849SOL     OW 9445   3.829   0.653   0.608
 2849SOL    HW1 9446   3.756   0.587   0.599
 2849SOL    HW2 9447   3.871   0.645   0.699
 2850SOL     OW 9448   1.863   0.483   2.807
 2850SOL    HW1 9449   1.783   0.435   2.771
 2850SOL    HW2 9450   1.835   0.574   2.838
 2851SOL     OW 9451   5.602   2.298   6.097
 2851SOL    HW1 9452   5.509   2.333   6.103
 2851SOL    HW2 9453   5.652   2.320   6.181
 2852SOL     OW 9454   6.961   4.079   6.895
 2852SOL    HW1 9455   7.022   4.101   6.972
 2852SOL    HW2 9456   6.866   4.086   6.925
 2853SOL     OW 9457   1.507   1.994   6.001
 2853SOL    HW1 9458   1.587   1.955   5.955
 2853SOL    HW2 9459   1.431   1.997   5.936
 2854SOL     OW 9460   4.365   1.031   5.725
 2854SOL    HW1 9461   4.285   1.092   5.725
 2854SOL    HW2 9462   4.342   0.946   5.772
 2855SOL     OW 9463   1.897   1.778   5.731
 2855SOL    HW1 9464   1.972   1.844   5.737
 2855SOL    HW2 9465   1.866   1.770   5.636
 2856SOL     OW 9466   0.561   3.597   4.987
 2856SOL    HW1 9467   0.507   3.533   5.041
 2856SOL    HW2 9468   0.510   3.682   4.975
 2857SOL     OW 9469   1.239   2.513   1.044
 2857SOL    HW1 9470   1.333   2.544   1.034
 2857SOL    HW2 9471   1.212   2.459   0.964
 2858SOL     OW 9472   4.328   5.134   2.368
 2858SOL    HW1 9473   4.292   5.061   2.426
 2858SOL    HW2 9474   4.257   5.166   2.306
 2859SOL     OW 9475   6.530   6.992   6.814
 2859SOL    HW1 9476   6.629   6.993   6.829
 2859SOL    HW2 9477   6.509   6.951   6.726
 2860SOL     OW 9478   1.816   1.462   2.453
 2860SOL    HW1 9479   1.900   1.413   2.428
 2860SOL    HW2 9480   1.821   1.490   2.549
 2861SOL     OW 9481   2.927   5.366   5.659
 2861SOL    HW1 9482   2.856   5.336   5.723
 2861SOL    HW2 9483   2.894   5.446   5.608
 2862SOL     OW 9484   4.713   1.874   1.406
 2862SOL    HW1 9485   4.631   1.842   1.360
 2862SOL    HW2 9486   4.700   1.868   1.505
 2863SOL     OW 9487   4.516   1.574   6.701
 2863SOL    HW1 9488   4.428   1.583   6.747
 2863SOL    HW2 9489   4.521   1.485   6.655
 2864SOL     OW 9490   4.950   2.282   1.143
 2864SOL    HW1 9491   4.960   2.207   1.078
 2864SOL    HW2 9492   4.989   2.366   1.103
 2865SOL     OW 9493   4.412   6.216   4.271
 2865SOL    HW1 9494   4.419   6.161   4.187
 2865SOL    HW2 9495   4.315   6.226   4.296
 2866SOL     OW 9496   5.612   4.823   6.469
 2866SOL    HW1 9497   5.573   4.914   6.480
 2866SOL    HW2 9498   5.678   4.824   6.394
 2867SOL     OW 9499   5.994   6.022   3.127
 2867SOL    HW1 9500   6.089   6.051   3.117
 2867SOL    HW2 9501   5.975   5.948   3.062
 2868SOL     OW 9502   1.760   1.100   6.000
 2868SOL    HW1 9503   1.670   1.112   6.042
 2868SOL    HW2 9504   1.789   1.187   5.959
 2869SOL     OW 9505   6.720   1.062   2.858
 2869SOL    HW1 9506   6.661   0.991   2.821
 2869SOL    HW2 9507   6.753   1.120   2.784
 2870SOL     OW 9508   0.696   1.593   5.636
 2870SOL    HW1 9509   0.685   1.627   5.729
 2870SOL    HW2 9510   0.614   1.542   5.609
 2871SOL     OW 9511   5.850   0.904   6.850
 2871SOL    HW1 9512   5.886   0.939   6.936
 2871SOL    HW2 9513   5.750   0.900   6.854
 2872SOL     OW 9514   2.518   2.201   1.581
 2872SOL    HW1 9515   2.492   2.163   1.492
 2872SOL    HW2 9516   2.602   2.157   1.613
 2873SOL     OW 9517   6.455   6.331   2.225
 2873SOL    HW1 9518   6.411   6.248   2.194
 2873SOL    HW2 9519   6.550   6.334   2.192
 2874SOL     OW 9520   4.172   6.591   2.534
 2874SOL    HW1 9521   4.242   6.556   2.597
 2874SOL    HW2 9522   4.114   6.657   2.582
 2875SOL     OW 9523   5.486   0.041   1.315
 2875SOL    HW1 9524   5.540   6.998   1.269
 2875SOL    HW2 9525   5.431   7.026   1.387
 2876SOL     OW 9526   2.159   0.597   2.564
 2876SOL    HW1 9527   2.157   0.562   2.658
 2876SOL    HW2 9528   2.079   0.654   2.548
 2877SOL     OW 9529   2.961   1.454   5.571
 2877SOL    HW1 9530   2.935   1.546   5.544
 2877SOL    HW2 9531   3.055   1.455   5.605
 2878SOL     OW 9532   3.402   4.153   5.276
 2878SOL    HW1 9533   3.458   4.188   5.201
 2878SOL    HW2 9534   3.323   4.212   5.289
 2879SOL     OW 9535   5.163   5.273   6.407
 2879SOL    HW1 9536   5.214   5.214   6.344
 2879SOL    HW2 9537   5.098   5.217   6.459
 2880SOL     OW 9538   0.456   2.216   2.649
 2880SOL    HW1 9539   0.368   2.170   2.637
 2880SOL    HW2 9540   0.521   2.180   2.582
 2881SOL     OW 9541   4.473   5.935   6.972
 2881SOL    HW1 9542   4.434   5.845   6.950
 2881SOL    HW2 9543   4.573   5.929   6.971
 2882SOL     OW 9544   6.951   5.655   1.602
 2882SOL    HW1 9545   6.965   5.590   1.527
 2882SOL    HW2 9546   6.855   5.652   1.630
 2883SOL     OW 9547   5.827   0.126   3.943
 2883SOL    HW1 9548   5.796   0.051   3.885
 2883SOL    HW2 9549   5.903   0.173   3.899
 2884SOL     OW 9550   0.639   6.832   3.192
 2884SOL    HW1 9551   0.618   6.734   3.193
 2884SOL    HW2 9552   0.554   6.884   3.181
 2885SOL     OW 9553   1.684   3.528   3.885
 2885SOL    HW1 9554   1.680   3.533   3.786
 2885SOL    HW2 9555   1.611   3.467   3.919
 2886SOL     OW 9556   1.396   3.144   6.389
 2886SOL    HW1 9557   1.370   3.087   6.311
 2886SOL    HW2 9558   1.416   3.085   6.468
 2887SOL     OW 9559   0.828   6.561   5.554
 2887SOL    HW1 9560   0.816   6.659   5.565
 2887SOL    HW2 9561   0.765   6.526   5.484
 2888SOL     OW 9562   0.028   4.030   6.427
 2888SOL    HW1 9563   0.017   4.008   6.524
 2888SOL    HW2 9564   0.076   4.117   6.419
 2889SOL     OW 9565   2.928   5.879   2.426
 2889SOL    HW1 9566   2.929   5.952   2.358
 2889SOL    HW2 9567   2.847   5.822   2.413
 2890SOL     OW 9568   1.599   6.236   0.574
 2890SOL    HW1 9569   1.660   6.315   0.578
 2890SOL    HW2 9570   1.641   6.160   0.624
 2891SOL     OW 9571   0.739   4.509   3.090
 2891SOL    HW1 9572   0.798   4.555   3.156
 2891SOL    HW2 9573   0.761   4.411   3.087
 2892SOL     OW 9574   6.404   2.875   0.927
 2892SOL    HW1 9575   6.448   2.936   0.994
 2892SOL    HW2 9576   6.398   2.921   0.839
 2893SOL     OW 9577   0.639   5.256   4.275
 2893SOL    HW1 9578   0.582   5.338   4.272
 2893SOL    HW2 9579   0.735   5.282   4.281
 2894SOL     OW 9580   0.099   3.024   2.137
 2894SOL    HW1 9581   0.164   2.992   2.068
 2894SOL    HW2 9582   0.123   2.986   2.226
 2895SOL     OW 9583   5.025   1.213   5.585
 2895SOL    HW1 9584   5.062   1.300   5.615
 2895SOL    HW2 9585   5.092   1.141   5.600
 2896SOL     OW 9586   4.499   6.568   5.560
 2896SOL    HW1 9587   4.486   6.603   5.653
 2896SOL    HW2 9588   4.419   6.591   5.504
 2897SOL     OW 9589   4.058   5.145   2.907
 2897SOL    HW1 9590   4.148   5.104   2.890
 2897SOL    HW2 9591   4.022   5.181   2.821
 2898SOL     OW 9592   4.585   4.487   4.629
 2898SOL    HW1 9593   4.674   4.499   4.584
 2898SOL    HW2 9594   4.513   4.528   4.573
 2899SOL     OW 9595   0.555   1.849   0.603
 2899SOL    HW1 9596   0.583   1.882   0.512
 2899SOL    HW2 9597   0.490   1.774   0.592
 2900SOL     OW 9598   2.878   4.440   6.572
 2900SOL    HW1 9599   2.812   4.477   6.637
 2900SOL    HW2 9600   2.971   4.461   6.603
 2901SOL     OW 9601   2.688   4.926   2.999
 2901SOL    HW1 9602   2.734   4.889   2.919
 2901SOL    HW2 9603   2.721   4.879   3.081
 2902SOL     OW 9604   5.914   5.589   3.302
 2902SOL    HW1 9605   5.974   5.557   3.375
 2902SOL    HW2 9606   5.964   5.652   3.243
 2903SOL     OW 9607   4.435   6.671   0.603
 2903SOL    HW1 9608   4.486   6.602   0.552
 2903SOL    HW2 9609   4.494   6.749   0.623
 2904SOL     OW 9610   2.728   5.200   4.369
 2904SOL    HW1 9611   2.647   5.257   4.354
 2904SOL    HW2 9612   2.754   5.205   4.465
 2905SOL     OW 9613   1.455   3.654   4.651
 2905SOL    HW1 9614   1.486   3.641   4.745
 2905SOL    HW2 9615   1.509   3.725   4.607
 2906SOL     OW 9616   4.590   4.867   2.456
 2906SOL    HW1 9617   4.653   4.805   2.504
 2906SOL    HW2 9618   4.640   4.949   2.427
 2907SOL     OW 9619   0.222   1.806   3.828
 2907SOL    HW1 9620   0.238   1.707   3.826
 2907SOL    HW2 9621   0.203   1.838   3.735
 2908SOL     OW 9622   5.311   6.316   3.324
 2908SOL    HW1 9623   5.251   6.315   3.244
 2908SOL    HW2 9624   5.405   6.304   3.295
 2909SOL     OW 9625   1.542   5.762   3.693
 2909SOL    HW1 9626   1.562   5.838   3.632
 2909SOL    HW2 9627   1.510   5.797   3.781
 2910SOL     OW 9628   5.515   1.045   4.222
 2910SOL    HW1 9629   5.506   0.949   4.248
 2910SOL    HW2 9630   5.606   1.078   4.247
 2911SOL     OW 9631   1.730   5.990   3.410
 2911SOL    HW1 9632   1.792   6.025   3.339
 2911SOL    HW2 9633   1.767   5.905   3.447
 2912SOL     OW 9634   5.679   6.648   0.285
 2912SOL    HW1 9635   5.589   6.637   0.243
 2912SOL    HW2 9636   5.731   6.564   0.274
 2913SOL     OW 9637   3.418   5.127   2.041
 2913SOL    HW1 9638   3.470   5.075   1.973
 2913SOL    HW2 9639   3.349   5.068   2.083
 2914SOL     OW 9640   6.975   5.959   6.394
 2914SOL    HW1 9641   7.000   5.966   6.491
 2914SOL    HW2 9642   0.029   5.942   6.339
 2915SOL     OW 9643   3.645   1.911   3.788
 2915SOL    HW1 9644   3.731   1.894   3.740
 2915SOL    HW2 9645   3.578   1.948   3.724
 2916SOL     OW 9646   1.321   5.568   0.390
 2916SOL    HW1 9647   1.342   5.538   0.297
 2916SOL    HW2 9648   1.363   5.506   0.456
 2917SOL     OW 9649   2.464   0.207   3.355
 2917SOL    HW1 9650   2.413   0.122   3.370
 2917SOL    HW2 9651   2.561   0.187   3.342
 2918SOL     OW 9652   6.435   4.326   5.277
 2918SOL    HW1 9653   6.387   4.294   5.358
 2918SOL    HW2 9654   6.393   4.285   5.195
 2919SOL     OW 9655   5.543   0.463   2.209
 2919SOL    HW1 9656   5.480   0.523   2.258
 2919SOL    HW2 9657   5.600   0.518   2.148
 2920SOL     OW 9658   3.093   1.141   0.910
 2920SOL    HW1 9659   3.183   1.136   0.954
 2920SOL    HW2 9660   3.051   1.229   0.930
 2921SOL     OW 9661   0.679   6.477   4.663
 2921SOL    HW1 9662   0.601   6.466   4.600
 2921SOL    HW2 9663   0.730   6.559   4.638
 2922SOL     OW 9664   4.373   0.063   1.441
 2922SOL    HW1 9665   4.385   7.023   1.514
 2922SOL    HW2 9666   4.291   0.041   1.388
 2923SOL     OW 9667   6.055   5.292   3.248
 2923SOL    HW1 9668   6.085   5.388   3.250
 2923SOL    HW2 9669   6.124   5.235   3.290
 2924SOL     OW 9670   6.744   2.301   5.824
 2924SOL    HW1 9671   6.765   2.387   5.779
 2924SOL    HW2 9672   6.663   2.312   5.881
 2925SOL     OW 9673   5.509   2.409   0.888
 2925SOL    HW1 9674   5.566   2.461   0.825
 2925SOL    HW2 9675   5.565   2.378   0.965
 2926SOL     OW 9676   6.046   1.718   6.352
 2926SOL    HW1 9677   6.014   1.775   6.275
 2926SOL    HW2 9678   5.967   1.680   6.400
 2927SOL     OW 9679   1.249   4.074   1.635
 2927SOL    HW1 9680   1.270   4.053   1.730
 2927SOL    HW2 9681   1.275   3.998   1.577
 2928SOL     OW 9682   0.660   0.793   0.095
 2928SOL    HW1 9683   0.725   0.861   0.129
 2928SOL    HW2 9684   0.567   0.829   0.103
 2929SOL     OW 9685   1.256   2.560   6.515
 2929SOL    HW1 9686   1.161   2.533   6.502
 2929SOL    HW2 9687   1.304   2.558   6.427
 2930SOL     OW 9688   5.341   6.632   5.358
 2930SOL    HW1 9689   5.390   6.683   5.429
 2930SOL    HW2 9690   5.367   6.536   5.363
 2931SOL     OW 9691   5.267   5.046   0.079
 2931SOL    HW1 9692   5.307   4.974   0.135
 2931SOL    HW2 9693   5.177   5.070   0.115
 2932SOL     OW 9694   0.996   6.058   2.294
 2932SOL    HW1 9695   1.068   5.988   2.293
 2932SOL    HW2 9696   1.002   6.113   2.211
 2933SOL     OW 9697   1.172   5.855   2.495
 2933SOL    HW1 9698   1.119   5.933   2.528
 2933SOL    HW2 9699   1.207   5.875   2.404
 2934SOL     OW 9700   4.952   1.490   6.649
 2934SOL    HW1 9701   4.952   1.575   6.700
 2934SOL    HW2 9702   4.992   1.417   6.705
 2935SOL     OW 9703   0.286   2.607   6.554
 2935SOL    HW1 9704   0.226   2.687   6.564
 2935SOL    HW2 9705   0.287   2.556   6.640
 2936SOL     OW 9706   4.668   6.330   0.622
 2936SOL    HW1 9707   4.625   6.356   0.708
 2936SOL    HW2 9708   4.664   6.231   0.611
 2937SOL     OW 9709   5.692   4.603   1.699
 2937SOL    HW1 9710   5.659   4.510   1.682
 2937SOL    HW2 9711   5.616   4.660   1.730
 2938SOL     OW 9712   4.653   5.145   6.610
 2938SOL    HW1 9713   4.678   5.048   6.620
 2938SOL    HW2 9714   4.636   5.184   6.700
 2939SOL     OW 9715   2.474   0.842   2.413
 2939SOL    HW1 9716   2.385   0.821   2.372
 2939SOL    HW2 9717   2.547   0.818   2.350
 2940SOL     OW 9718   5.817   4.737   5.630
 2940SOL    HW1 9719   5.739   4.692   5.585
 2940SOL    HW2 9720   5.805   4.836   5.627
 2941SOL     OW 9721   1.684   2.282   4.348
 2941SOL    HW1 9722   1.774   2.239   4.339
 2941SOL    HW2 9723   1.613   2.213   4.334
 2942SOL     OW 9724   3.929   2.214   0.678
 2942SOL    HW1 9725   3.889   2.146   0.740
 2942SOL    HW2 9726   4.010   2.175   0.635
 2943SOL     OW 9727   5.466   4.215   3.821
 2943SOL    HW1 9728   5.413   4.264   3.889
 2943SOL    HW2 9729   5.407   4.190   3.744
 2944SOL     OW 9730   2.889   6.215   4.380
 2944SOL    HW1 9731   2.850   6.242   4.292
 2944SOL    HW2 9732   2.938   6.128   4.369
 2945SOL     OW 9733   3.372   3.624   2.760
 2945SOL    HW1 9734   3.452   3.566   2.768
 2945SOL    HW2 9735   3.293   3.568   2.734
 2946SOL     OW 9736   1.710   4.999   5.820
 2946SOL    HW1 9737   1.739   5.018   5.726
 2946SOL    HW2 9738   1.788   4.967   5.873
 2947SOL     OW 9739   6.947   4.945   1.174
 2947SOL    HW1 9740   7.020   4.958   1.107
 2947SOL    HW2 9741   6.986   4.914   1.261
 2948SOL     OW 9742   0.155   3.867   4.322
 2948SOL    HW1 9743   0.137   3.965   4.315
 2948SOL    HW2 9744   0.253   3.850   4.309
 2949SOL     OW 9745   1.667   5.388   0.709
 2949SOL    HW1 9746   1.638   5.447   0.634
 2949SOL    HW2 9747   1.729   5.317   0.674
 2950SOL     OW 9748   5.392   5.238   4.471
 2950SOL    HW1 9749   5.434   5.185   4.397
 2950SOL    HW2 9750   5.298   5.259   4.447
 2951SOL     OW 9751   5.275   1.418   2.534
 2951SOL    HW1 9752   5.372   1.438   2.547
 2951SOL    HW2 9753   5.264   1.354   2.458
 2952SOL     OW 9754   6.731   5.214   4.794
 2952SOL    HW1 9755   6.787   5.138   4.827
 2952SOL    HW2 9756   6.640   5.209   4.836
 2953SOL     OW 9757   5.992   4.231   2.398
 2953SOL    HW1 9758   5.996   4.241   2.498
 2953SOL    HW2 9759   5.960   4.317   2.358
 2954SOL     OW 9760   1.214   5.085   1.893
 2954SOL    HW1 9761   1.218   5.147   1.970
 2954SOL    HW2 9762   1.120   5.055   1.878
 2955SOL     OW 9763   0.604   3.976   1.894
 2955SOL    HW1 9764   0.515   3.944   1.861
 2955SOL    HW2 9765   0.650   4.027   1.822
 2956SOL     OW 9766   5.677   6.095   2.815
 2956SOL    HW1 9767   5.704   6.001   2.799
 2956SOL    HW2 9768   5.622   6.100   2.899
 2957SOL     OW 9769   5.221   4.444   1.367
 2957SOL    HW1 9770   5.269   4.531   1.354
 2957SOL    HW2 9771   5.215   4.423   1.465
 2958SOL     OW 9772   2.174   4.040   3.339
 2958SOL    HW1 9773   2.193   4.138   3.343
 2958SOL    HW2 9774   2.145   4.016   3.246
 2959SOL     OW 9775   4.890   3.587   0.931
 2959SOL    HW1 9776   4.975   3.596   0.983
 2959SOL    HW2 9777   4.812   3.604   0.991
 2960SOL     OW 9778   3.134   0.827   0.446
 2960SOL    HW1 9779   3.084   0.879   0.376
 2960SOL    HW2 9780   3.095   0.736   0.453
 2961SOL     OW 9781   5.919   4.896   3.041
 2961SOL    HW1 9782   5.838   4.838   3.055
 2961SOL    HW2 9783   5.977   4.891   3.122
 2962SOL     OW 9784   4.432   6.853   2.918
 2962SOL    HW1 9785   4.512   6.896   2.875
 2962SOL    HW2 9786   4.460   6.766   2.959
 2963SOL     OW 9787   1.991   1.062   6.182
 2963SOL    HW1 9788   1.944   1.116   6.113
 2963SOL    HW2 9789   2.010   1.119   6.262
 2964SOL     OW 9790   0.069   1.255   4.787
 2964SOL    HW1 9791   0.057   1.172   4.733
 2964SOL    HW2 9792   0.145   1.308   4.751
 2965SOL     OW 9793   0.494   0.880   4.554
 2965SOL    HW1 9794   0.572   0.875   4.617
 2965SOL    HW2 9795   0.501   0.806   4.487
 2966SOL     OW 9796   4.304   4.838   3.620
 2966SOL    HW1 9797   4.393   4.798   3.645
 2966SOL    HW2 9798   4.261   4.783   3.549
 2967SOL     OW 9799   6.552   0.996   4.996
 2967SOL    HW1 9800   6.456   0.991   4.969
 2967SOL    HW2 9801   6.604   1.043   4.924
 2968SOL     OW 9802   0.918   2.685   0.936
 2968SOL    HW1 9803   1.010   2.710   0.908
 2968SOL    HW2 9804   0.908   2.696   1.035
 2969SOL     OW 9805   5.373   2.902   4.606
 2969SOL    HW1 9806   5.363   2.860   4.515
 2969SOL    HW2 9807   5.450   2.966   4.605
 2970SOL     OW 9808   2.812   2.623   5.341
 2970SOL    HW1 9809   2.767   2.544   5.297
 2970SOL    HW2 9810   2.757   2.705   5.326
 2971SOL     OW 9811   5.359   4.012   0.309
 2971SOL    HW1 9812   5.365   3.960   0.394
 2971SOL    HW2 9813   5.353   3.949   0.231
 2972SOL     OW 9814   7.026   4.720   6.264
 2972SOL    HW1 9815   0.067   4.736   6.194
 2972SOL    HW2 9816   7.015   4.621   6.278
 2973SOL     OW 9817   5.296   6.046   2.136
 2973SOL    HW1 9818   5.306   6.144   2.122
 2973SOL    HW2 9819   5.249   6.029   2.223
 2974SOL     OW 9820   0.786   4.483   3.608
 2974SOL    HW1 9821   0.844   4.544   3.661
 2974SOL    HW2 9822   0.837   4.399   3.587
 2975SOL     OW 9823   5.338   3.663   4.068
 2975SOL    HW1 9824   5.325   3.612   3.982
 2975SOL    HW2 9825   5.313   3.604   4.145
 2976SOL     OW 9826   3.935   2.085   2.979
 2976SOL    HW1 9827   3.875   2.113   3.053
 2976SOL    HW2 9828   3.883   2.032   2.912
 2977SOL     OW 9829   1.639   0.323   2.695
 2977SOL    HW1 9830   1.587   0.290   2.774
 2977SOL    HW2 9831   1.693   0.248   2.658
 2978SOL     OW 9832   4.205   5.135   0.115
 2978SOL    HW1 9833   4.153   5.068   0.063
 2978SOL    HW2 9834   4.188   5.121   0.213
 2979SOL     OW 9835   3.628   1.273   3.918
 2979SOL    HW1 9836   3.602   1.290   4.013
 2979SOL    HW2 9837   3.708   1.213   3.915
 2980SOL     OW 9838   1.389   5.153   5.033
 2980SOL    HW1 9839   1.470   5.100   5.058
 2980SOL    HW2 9840   1.396   5.245   5.070
 2981SOL     OW 9841   2.918   1.294   6.068
 2981SOL    HW1 9842   2.958   1.224   6.009
 2981SOL    HW2 9843   2.901   1.377   6.015
 2982SOL     OW 9844   2.797   5.621   2.125
 2982SOL    HW1 9845   2.830   5.694   2.065
 2982SOL    HW2 9846   2.839   5.534   2.099
 2983SOL     OW 9847   6.261   2.277   2.855
 2983SOL    HW1 9848   6.195   2.309   2.923
 2983SOL    HW2 9849   6.344   2.247   2.900
 2984SOL     OW 9850   6.049   4.338   0.079
 2984SOL    HW1 9851   6.062   4.244   0.109
 2984SOL    HW2 9852   5.969   4.342   0.018
 2985SOL     OW 9853   1.836   2.714   4.836
 2985SOL    HW1 9854   1.823   2.680   4.743
 2985SOL    HW2 9855   1.895   2.795   4.834
 2986SOL     OW 9856   3.550   4.159   3.182
 2986SOL    HW1 9857   3.531   4.151   3.280
 2986SOL    HW2 9858   3.643   4.127   3.164
 2987SOL     OW 9859   0.859   1.589   3.955
 2987SOL    HW1 9860   0.911   1.620   4.034
 2987SOL    HW2 9861   0.778   1.539   3.986
 2988SOL     OW 9862   2.030   6.360   2.864
 2988SOL    HW1 9863   2.130   6.355   2.865
 2988SOL    HW2 9864   2.001   6.422   2.792
 2989SOL     OW 9865   5.379   5.462   5.581
 2989SOL    HW1 9866   5.443   5.523   5.628
 2989SOL    HW2 9867   5.401   5.367   5.601
 2990SOL     OW 9868   3.606   2.098   4.751
 2990SOL    HW1 9869   3.570   2.037   4.681
 2990SOL    HW2 9870   3.535   2.117   4.819
 2991SOL     OW 9871   6.685   3.826   5.546
 2991SOL    HW1 9872   6.602   3.841   5.493
 2991SOL    HW2 9873   6.671   3.859   5.639
 2992SOL     OW 9874   1.347   5.496   4.308
 2992SOL    HW1 9875   1.376   5.472   4.400
 2992SOL    HW2 9876   1.362   5.419   4.247
 2993SOL     OW 9877   0.520   4.862   1.197
 2993SOL    HW1 9878   0.585   4.931   1.228
 2993SOL    HW2 9879   0.520   4.858   1.097
 2994SOL     OW 9880   3.743   6.573   6.755
 2994SOL    HW1 9881   3.822   6.562   6.815
 2994SOL    HW2 9882   3.678   6.636   6.796
 2995SOL     OW 9883   2.985   1.103   6.685
 2995SOL    HW1 9884   2.989   1.131   6.781
 2995SOL    HW2 9885   2.946   1.177   6.631
 2996SOL     OW 9886   1.181   1.200   5.175
 2996SOL    HW1 9887   1.174   1.268   5.249
 2996SOL    HW2 9888   1.269   1.153   5.182
 2997SOL     OW 9889   5.588   0.244   2.670
 2997SOL    HW1 9890   5.618   0.268   2.578
 2997SOL    HW2 9891   5.488   0.242   2.673
 2998SOL     OW 9892   5.192   6.732   3.413
 2998SOL    HW1 9893   5.133   6.770   3.484
 2998SOL    HW2 9894   5.238   6.650   3.447
 2999SOL     OW 9895   2.131   5.212   5.001
 2999SOL    HW1 9896   2.200   5.141   4.991
 2999SOL    HW2 9897   2.043   5.169   5.025
 3000SOL     OW 9898   3.216   3.913   6.342
 3000SOL    HW1 9899   3.277   3.850   6.294
 3000SOL    HW2 9900   3.142   3.941   6.280
 3001SOL     OW 9901   0.263   0.696   6.210
 3001SOL    HW1 9902   0.298   0.787   6.233
 3001SOL    HW2 9903   0.314   0.660   6.132
 3002SOL     OW 9904   3.070   1.762   6.852
 3002SOL    HW1 9905   3.068   1.848   6.903
 3002SOL    HW2 9906   3.035   1.778   6.760
 3003SOL     OW 9907   1.561   6.966   0.871
 3003SOL    HW1 9908   1.658   6.987   0.882
 3003SOL    HW2 9909   1.516   0.013   0.820
 3004SOL     OW 9910   0.625   3.828   2.977
 3004SOL    HW1 9911   0.549   3.829   2.912
 3004SOL    HW2 9912   0.659   3.734   2.987
 3005SOL     OW 9913   1.742   2.701   6.831
 3005SOL    HW1 9914   1.718   2.619   6.883
 3005SOL    HW2 9915   1.693   2.701   6.744
 3006SOL     OW 9916   5.347   1.517   4.436
 3006SOL    HW1 9917   5.310   1.444   4.379
 3006SOL    HW2 9918   5.290   1.528   4.518
 3007SOL     OW 9919   5.299   3.926   0.923
 3007SOL    HW1 9920   5.207   3.962   0.936
 3007SOL    HW2 9921   5.295   3.844   0.867
 3008SOL     OW 9922   3.487   2.062   6.073
 3008SOL    HW1 9923   3.471   2.159   6.053
 3008SOL    HW2 9924   3.432   2.006   6.010
 3009SOL     OW 9925   6.742   2.351   2.961
 3009SOL    HW1 9926   6.681   2.427   2.985
 3009SOL    HW2 9927   6.837   2.383   2.960
 3010SOL     OW 9928   3.032   6.007   3.230
 3010SOL    HW1 9929   3.064   5.915   3.210
 3010SOL    HW2 9930   3.051   6.028   3.326
 3011SOL     OW 9931   6.152   1.714   2.739
 3011SOL    HW1 9932   6.160   1.776   2.817
 3011SOL    HW2 9933   6.139   1.768   2.655
 3012SOL     OW 9934   1.916   3.741   6.325
 3012SOL    HW1 9935   1.965   3.654   6.324
 3012SOL    HW2 9936   1.955   3.800   6.396
 3013SOL     OW 9937   5.315   5.723   3.842
 3013SOL    HW1 9938   5.277   5.771   3.921
 3013SOL    HW2 9939   5.248   5.657   3.808
 3014SOL     OW 9940   4.839   2.627   5.102
 3014SOL    HW1 9941   4.755   2.677   5.081
 3014SOL    HW2 9942   4.852   2.554   5.035
 3015SOL     OW 9943   2.894   2.034   0.167
 3015SOL    HW1 9944   2.940   2.104   0.221
 3015SOL    HW2 9945   2.802   2.018   0.203
 3016SOL     OW 9946   2.972   6.447   4.030
 3016SOL    HW1 9947   2.887   6.396   4.038
 3016SOL    HW2 9948   2.957   6.541   4.062
 3017SOL     OW 9949   6.018   5.634   2.032
 3017SOL    HW1 9950   6.079   5.557   2.048
 3017SOL    HW2 9951   5.938   5.603   1.981
 3018SOL     OW 9952   2.566   6.968   5.746
 3018SOL    HW1 9953   2.561   6.871   5.721
 3018SOL    HW2 9954   2.600   7.021   5.668
 3019SOL     OW 9955   0.546   6.857   6.818
 3019SOL    HW1 9956   0.465   6.882   6.765
 3019SOL    HW2 9957   0.611   6.809   6.759
 3020SOL     OW 9958   3.975   2.459   1.195
 3020SOL    HW1 9959   4.050   2.431   1.254
 3020SOL    HW2 9960   3.985   2.417   1.105
 3021SOL     OW 9961   3.068   0.081   5.991
 3021SOL    HW1 9962   3.073   0.129   5.904
 3021SOL    HW2 9963   2.993   0.015   5.988
 3022SOL     OW 9964   4.039   5.314   4.872
 3022SOL    HW1 9965   4.077   5.390   4.926
 3022SOL    HW2 9966   4.113   5.257   4.838
 3023SOL     OW 9967   4.146   6.700   3.124
 3023SOL    HW1 9968   4.165   6.796   3.104
 3023SOL    HW2 9969   4.107   6.692   3.216
 3024SOL     OW 9970   4.959   6.299   4.935
 3024SOL    HW1 9971   5.045   6.339   4.966
 3024SOL    HW2 9972   4.882   6.350   4.974
 3025SOL     OW 9973   4.575   6.350   0.882
 3025SOL    HW1 9974   4.585   6.396   0.969
 3025SOL    HW2 9975   4.500   6.283   0.888
 3026SOL     OW 9976   1.442   0.853   6.023
 3026SOL    HW1 9977   1.488   0.940   6.045
 3026SOL    HW2 9978   1.361   0.872   5.968
 3027SOL     OW 9979   4.545   1.369   2.944
 3027SOL    HW1 9980   4.580   1.277   2.925
 3027SOL    HW2 9981   4.495   1.402   2.864
 3028SOL     OW 9982   1.600   3.691   5.840
 3028SOL    HW1 9983   1.614   3.775   5.789
 3028SOL    HW2 9984   1.554   3.623   5.782
 3029SOL     OW 9985   0.507   2.837   5.140
 3029SOL    HW1 9986   0.576   2.905   5.115
 3029SOL    HW2 9987   0.512   2.761   5.075
 3030SOL     OW 9988   0.509   3.405   0.411
 3030SOL    HW1 9989   0.522   3.306   0.407
 3030SOL    HW2 9990   0.564   3.443   0.485
 3031SOL     OW 9991   0.153   4.869   1.443
 3031SOL    HW1 9992   0.241   4.823   1.430
 3031SOL    HW2 9993   0.163   4.941   1.512
 3032SOL     OW 9994   2.715   6.736   1.324
 3032SOL    HW1 9995   2.730   6.793   1.243
 3032SOL    HW2 9996   2.644   6.777   1.380
 3033SOL     OW 9997   5.521   1.379   1.706
 3033SOL    HW1 9998   5.540   1.473   1.679
 3033SOL    HW2 9999   5.427   1.355   1.681
 3034SOL     OW10000   0.856   0.061   2.883
 3034SOL    HW110001   0.925   0.133   2.883
 3034SOL    HW210002   0.794   0.074   2.960
 3035SOL     OW10003   0.397   2.782   6.011
 3035SOL    HW110004   0.423   2.744   5.922
 3035SOL    HW210005   0.325   2.726   6.051
 3036SOL     OW10006   2.202   1.472   5.992
 3036SOL    HW110007   2.270   1.521   5.937
 3036SOL    HW210008   2.238   1.457   6.084
 3037SOL     OW10009   6.078   5.587   6.244
 3037SOL    HW110010   6.036   5.561   6.331
 3037SOL    HW210011   6.168   5.545   6.237
 3038SOL     OW10012   5.256   5.597   5.911
 3038SOL    HW110013   5.230   5.522   5.972
 3038SOL    HW210014   5.354   5.593   5.893
 3039SOL     OW10015   0.223   3.585   0.954
 3039SOL    HW110016   0.241   3.488   0.972
 3039SOL    HW210017   0.288   3.619   0.887
 3040SOL     OW10018   3.269   4.121   5.966
 3040SOL    HW110019   3.217   4.125   5.881
 3040SOL    HW210020   3.217   4.166   6.039
 3041SOL     OW10021   2.322   3.285   5.249
 3041SOL    HW110022   2.376   3.369   5.258
 3041SOL    HW210023   2.382   3.210   5.222
 3042SOL     OW10024   5.563   5.482   2.939
 3042SOL    HW110025   5.586   5.537   3.019
 3042SOL    HW210026   5.578   5.535   2.856
 3043SOL     OW10027   2.748   4.163   1.663
 3043SOL    HW110028   2.751   4.158   1.563
 3043SOL    HW210029   2.832   4.124   1.701
 3044SOL     OW10030   3.667   4.614   5.954
 3044SOL    HW110031   3.742   4.652   6.007
 3044SOL    HW210032   3.596   4.580   6.016
 3045SOL     OW10033   4.770   0.079   3.188
 3045SOL    HW110034   4.826   0.161   3.195
 3045SOL    HW210035   4.823   0.000   3.220
 3046SOL     OW10036   2.756   0.831   5.794
 3046SOL    HW110037   2.717   0.757   5.740
 3046SOL    HW210038   2.849   0.808   5.821
 3047SOL     OW10039   5.800   0.525   1.501
 3047SOL    HW110040   5.776   0.572   1.416
 3047SOL    HW210041   5.749   0.566   1.577
 3048SOL     OW10042   3.984   2.126   1.471
 3048SOL    HW110043   3.960   2.042   1.520
 3048SOL    HW210044   3.966   2.205   1.529
 3049SOL     OW10045   1.033   0.263   2.947
 3049SOL    HW110046   0.987   0.272   3.035
 3049SOL    HW210047   1.024   0.348   2.896
 3050SOL     OW10048   3.284   1.671   2.029
 3050SOL    HW110049   3.304   1.761   1.988
 3050SOL    HW210050   3.247   1.611   1.958
 3051SOL     OW10051   2.104   5.531   6.206
 3051SOL    HW110052   2.042   5.524   6.284
 3051SOL    HW210053   2.108   5.626   6.175
 3052SOL     OW10054   4.932   5.574   1.836
 3052SOL    HW110055   4.914   5.493   1.891
 3052SOL    HW210056   5.005   5.555   1.770
 3053SOL     OW10057   6.894   2.249   0.730
 3053SOL    HW110058   6.852   2.274   0.642
 3053SOL    HW210059   6.853   2.304   0.803
 3054SOL     OW10060   6.432   2.345   1.148
 3054SOL    HW110061   6.379   2.352   1.064
 3054SOL    HW210062   6.460   2.436   1.178
 3055SOL     OW10063   5.036   0.039   4.997
 3055SOL    HW110064   4.958   0.056   5.057
 3055SOL    HW210065   5.114   0.007   5.051
 3056SOL     OW10066   6.180   0.763   5.551
 3056SOL    HW110067   6.131   0.850   5.551
 3056SOL    HW210068   6.278   0.780   5.540
 3057SOL     OW10069   4.452   5.524   3.589
 3057SOL    HW110070   4.372   5.517   3.648
 3057SOL    HW210071   4.422   5.535   3.494
 3058SOL     OW10072   0.210   4.451   1.374
 3058SOL    HW110073   0.256   4.535   1.344
 3058SOL    HW210074   0.273   4.374   1.368
 3059SOL     OW10075   2.906   2.268   4.300
 3059SOL    HW110076   2.824   2.317   4.328
 3059SOL    HW210077   2.983   2.295   4.359
 3060SOL     OW10078   1.286   4.980   0.267
 3060SOL    HW110079   1.272   5.045   0.193
 3060SOL    HW210080   1.383   4.972   0.287
 3061SOL     OW10081   6.896   5.530   5.735
 3061SOL    HW110082   6.870   5.444   5.691
 3061SOL    HW210083   6.996   5.539   5.732
 3062SOL     OW10084   2.575   0.599   0.995
 3062SOL    HW110085   2.549   0.685   1.037
 3062SOL    HW210086   2.495   0.556   0.953
 3063SOL     OW10087   1.665   5.439   2.110
 3063SOL    HW110088   1.753   5.405   2.143
 3063SOL    HW210089   1.611   5.473   2.187
 3064SOL     OW10090   4.944   3.387   1.239
 3064SOL    HW110091   4.910   3.467   1.288
 3064SOL    HW210092   5.043   3.379   1.253
 3065SOL     OW10093   1.776   1.994   6.409
 3065SOL    HW110094   1.678   2.006   6.394
 3065SOL    HW210095   1.797   2.006   6.506
 3066SOL     OW10096   5.067   4.697   0.463
 3066SOL    HW110097   4.982   4.649   0.484
 3066SOL    HW210098   5.134   4.681   0.536
 3067SOL     OW10099   4.280   0.742   5.946
 3067SOL    HW110100   4.289   0.701   6.037
 3067SOL    HW210101   4.183   0.746   5.921
 3068SOL     OW10102   0.093   6.746   0.845
 3068SOL    HW110103   0.123   6.702   0.929
 3068SOL    HW210104   0.117   6.689   0.766
 3069SOL     OW10105   0.010   6.398   1.963
 3069SOL    HW110106   0.029   6.426   2.057
 3069SOL    HW210107   6.939   6.404   1.946
 3070SOL     OW10108   2.974   1.302   7.010
 3070SOL    HW110109   2.909   1.263   0.048
 3070SOL    HW210110   3.067   1.274   0.007
 3071SOL     OW10111   6.985   6.465   3.696
 3071SOL    HW110112   0.030   6.470   3.628
 3071SOL    HW210113   6.954   6.370   3.705
 3072SOL     OW10114   2.513   5.790   6.117
 3072SOL    HW110115   2.501   5.856   6.191
 3072SOL    HW210116   2.553   5.706   6.153
 3073SOL     OW10117   6.569   3.604   4.588
 3073SOL    HW110118   6.546   3.577   4.681
 3073SOL    HW210119   6.580   3.523   4.531
 3074SOL     OW10120   6.388   3.718   1.479
 3074SOL    HW110121   6.351   3.736   1.388
 3074SOL    HW210122   6.458   3.647   1.474
 3075SOL     OW10123   2.453   5.342   1.487
 3075SOL    HW110124   2.485   5.292   1.406
 3075SOL    HW210125   2.531   5.377   1.538
 3076SOL     OW10126   6.122   0.793   3.567
 3076SOL    HW110127   6.209   0.764   3.608
 3076SOL    HW210128   6.078   0.716   3.522
 3077SOL     OW10129   5.934   4.627   1.834
 3077SOL    HW110130   5.976   4.717   1.843
 3077SOL    HW210131   5.851   4.635   1.779
 3078SOL     OW10132   6.955   3.140   2.893
 3078SOL    HW110133   7.013   3.080   2.837
 3078SOL    HW210134   6.872   3.091   2.918
 3079SOL     OW10135   2.633   2.368   2.735
 3079SOL    HW110136   2.574   2.419   2.799
 3079SOL    HW210137   2.578   2.301   2.685
 3080SOL     OW10138   5.329   5.358   2.165
 3080SOL    HW110139   5.355   5.401   2.079
 3080SOL    HW210140   5.229   5.353   2.170
 3081SOL     OW10141   1.223   2.763   5.846
 3081SOL    HW110142   1.191   2.854   5.872
 3081SOL    HW210143   1.207   2.749   5.748
 3082SOL     OW10144   1.833   5.560   4.106
 3082SOL    HW110145   1.824   5.571   4.007
 3082SOL    HW210146   1.761   5.500   4.140
 3083SOL     OW10147   3.087   6.051   3.745
 3083SOL    HW110148   3.140   5.966   3.754
 3083SOL    HW210149   3.103   6.108   3.826
 3084SOL     OW10150   6.751   3.990   4.726
 3084SOL    HW110151   6.839   3.955   4.695
 3084SOL    HW210152   6.678   3.947   4.674
 3085SOL     OW10153   5.673   3.975   0.293
 3085SOL    HW110154   5.618   4.036   0.350
 3085SOL    HW210155   5.753   4.025   0.258
 3086SOL     OW10156   5.426   1.468   1.414
 3086SOL    HW110157   5.357   1.489   1.483
 3086SOL    HW210158   5.470   1.552   1.384
 3087SOL     OW10159   1.735   6.026   3.741
 3087SOL    HW110160   1.781   5.989   3.661
 3087SOL    HW210161   1.756   5.970   3.821
 3088SOL     OW10162   2.343   5.047   4.950
 3088SOL    HW110163   2.422   5.071   4.894
 3088SOL    HW210164   2.316   4.952   4.930
 3089SOL     OW10165   3.065   1.986   5.453
 3089SOL    HW110166   3.120   1.933   5.389
 3089SOL    HW210167   3.031   2.068   5.406
 3090SOL     OW10168   2.465   1.593   1.880
 3090SOL    HW110169   2.523   1.562   1.955
 3090SOL    HW210170   2.438   1.687   1.896
 3091SOL     OW10171   1.680   1.044   1.363
 3091SOL    HW110172   1.646   1.004   1.448
 3091SOL    HW210173   1.778   1.059   1.370
 3092SOL     OW10174   5.721   1.179   0.869
 3092SOL    HW110175   5.625   1.152   0.874
 3092SOL    HW210176   5.728   1.271   0.831
 3093SOL     OW10177   5.704   6.317   6.634
 3093SOL    HW110178   5.648   6.294   6.555
 3093SOL    HW210179   5.700   6.243   6.701
 3094SOL     OW10180   2.551   0.454   4.373
 3094SOL    HW110181   2.587   0.368   4.409
 3094SOL    HW210182   2.566   0.527   4.440
 3095SOL     OW10183   2.133   4.661   5.791
 3095SOL    HW110184   2.153   4.717   5.872
 3095SOL    HW210185   2.048   4.611   5.805
 3096SOL     OW10186   1.012   5.070   5.449
 3096SOL    HW110187   1.072   5.071   5.368
 3096SOL    HW210188   1.031   5.150   5.505
 3097SOL     OW10189   5.646   2.990   6.868
 3097SOL    HW110190   5.693   2.903   6.857
 3097SOL    HW210191   5.712   3.061   6.892
 3098SOL     OW10192   2.093   2.064   1.327
 3098SOL    HW110193   2.032   1.988   1.304
 3098SOL    HW210194   2.039   2.145   1.348
 3099SOL     OW10195   0.834   6.719   4.166
 3099SOL    HW110196   0.877   6.648   4.222
 3099SOL    HW210197   0.884   6.727   4.080
 3100SOL     OW10198   0.012   6.894   3.684
 3100SOL    HW110199   0.093   6.875   3.628
 3100SOL    HW210200   6.990   6.972   3.645
 3101SOL     OW10201   6.379   5.974   6.873
 3101SOL    HW110202   6.441   5.974   6.952
 3101SOL    HW210203   6.318   6.053   6.880
 3102SOL     OW10204   6.423   5.881   2.056
 3102SOL    HW110205   6.328   5.867   2.031
 3102SOL    HW210206   6.430   5.902   2.153
 3103SOL     OW10207   4.164   0.994   1.878
 3103SOL    HW110208   4.159   0.928   1.803
 3103SOL    HW210209   4.260   1.009   1.902
 3104SOL     OW10210   4.794   0.709   5.462
 3104SOL    HW110211   4.775   0.778   5.392
 3104SOL    HW210212   4.708   0.668   5.494
 3105SOL     OW10213   6.111   4.274   1.191
 3105SOL    HW110214   6.156   4.334   1.257
 3105SOL    HW210215   6.022   4.312   1.165
 3106SOL     OW10216   5.185   0.189   3.790
 3106SOL    HW110217   5.229   0.271   3.827
 3106SOL    HW210218   5.233   0.160   3.707
 3107SOL     OW10219   4.299   0.997   5.108
 3107SOL    HW110220   4.379   1.036   5.153
 3107SOL    HW210221   4.225   0.985   5.175
 3108SOL     OW10222   1.530   5.777   4.132
 3108SOL    HW110223   1.605   5.804   4.072
 3108SOL    HW210224   1.560   5.786   4.227
 3109SOL     OW10225   5.392   6.295   3.641
 3109SOL    HW110226   5.310   6.307   3.586
 3109SOL    HW210227   5.370   6.308   3.738
 3110SOL     OW10228   1.040   3.318   3.189
 3110SOL    HW110229   1.097   3.376   3.247
 3110SOL    HW210230   1.056   3.342   3.093
 3111SOL     OW10231   0.085   4.616   3.080
 3111SOL    HW110232   0.048   4.700   3.042
 3111SOL    HW210233   0.095   4.548   3.007
 3112SOL     OW10234   3.947   2.859   6.971
 3112SOL    HW110235   4.037   2.902   6.985
 3112SOL    HW210236   3.958   2.777   6.914
 3113SOL     OW10237   2.658   4.853   3.761
 3113SOL    HW110238   2.571   4.811   3.735
 3113SOL    HW210239   2.656   4.951   3.741
 3114SOL     OW10240   3.836   2.053   0.867
 3114SOL    HW110241   3.812   1.957   0.857
 3114SOL    HW210242   3.900   2.063   0.944
 3115SOL     OW10243   4.439   4.563   6.260
 3115SOL    HW110244   4.352   4.609   6.277
 3115SOL    HW210245   4.503   4.627   6.216
 3116SOL     OW10246   6.277   2.665   0.495
 3116SOL    HW110247   6.245   2.570   0.488
 3116SOL    HW210248   6.210   2.726   0.453
 3117SOL     OW10249   4.656   3.744   5.376
 3117SOL    HW110250   4.618   3.674   5.316
 3117SOL    HW210251   4.731   3.791   5.329
 3118SOL     OW10252   0.384   5.622   2.592
 3118SOL    HW110253   0.337   5.706   2.564
 3118SOL    HW210254   0.454   5.599   2.524
 3119SOL     OW10255   2.482   2.956   0.040
 3119SOL    HW110256   2.423   2.993   0.111
 3119SOL    HW210257   2.440   2.969   6.978
 3120SOL     OW10258   2.802   0.103   6.371
 3120SOL    HW110259   2.887   0.131   6.328
 3120SOL    HW210260   2.725   0.130   6.314
 3121SOL     OW10261   6.898   1.292   4.182
 3121SOL    HW110262   6.876   1.357   4.254
 3121SOL    HW210263   6.860   1.203   4.204
 3122SOL     OW10264   3.843   5.417   6.622
 3122SOL    HW110265   3.861   5.351   6.695
 3122SOL    HW210266   3.757   5.465   6.640
 3123SOL     OW10267   2.032   2.079   3.102
 3123SOL    HW110268   2.066   2.032   3.021
 3123SOL    HW210269   2.093   2.155   3.125
 3124SOL     OW10270   5.052   6.432   4.495
 3124SOL    HW110271   4.960   6.409   4.465
 3124SOL    HW210272   5.048   6.509   4.559
 3125SOL     OW10273   1.174   3.115   5.049
 3125SOL    HW110274   1.180   3.174   4.968
 3125SOL    HW210275   1.142   3.024   5.021
 3126SOL     OW10276   6.071   4.027   5.547
 3126SOL    HW110277   6.105   3.989   5.633
 3126SOL    HW210278   6.081   4.127   5.549
 3127SOL     OW10279   1.684   2.687   5.950
 3127SOL    HW110280   1.607   2.624   5.961
 3127SOL    HW210281   1.766   2.635   5.925
 3128SOL     OW10282   2.467   0.286   6.425
 3128SOL    HW110283   2.503   0.247   6.340
 3128SOL    HW210284   2.539   0.285   6.495
 3129SOL     OW10285   6.534   3.566   7.001
 3129SOL    HW110286   6.509   3.568   6.905
 3129SOL    HW210287   6.568   3.474   7.025
 3130SOL     OW10288   2.035   4.476   2.100
 3130SOL    HW110289   2.044   4.393   2.045
 3130SOL    HW210290   2.082   4.463   2.187
 3131SOL     OW10291   0.016   3.070   1.593
 3131SOL    HW110292   6.987   3.139   1.638
 3131SOL    HW210293   7.017   3.063   1.497
 3132SOL     OW10294   4.141   5.644   6.743
 3132SOL    HW110295   4.217   5.582   6.763
 3132SOL    HW210296   4.144   5.671   6.646
 3133SOL     OW10297   3.009   1.119   3.272
 3133SOL    HW110298   3.085   1.077   3.222
 3133SOL    HW210299   3.015   1.094   3.368
 3134SOL     OW10300   4.485   3.810   1.629
 3134SOL    HW110301   4.388   3.786   1.632
 3134SOL    HW210302   4.495   3.909   1.627
 3135SOL     OW10303   4.591   0.363   5.808
 3135SOL    HW110304   4.587   0.339   5.711
 3135SOL    HW210305   4.605   0.281   5.863
 3136SOL     OW10306   5.425   0.666   2.344
 3136SOL    HW110307   5.478   0.729   2.286
 3136SOL    HW210308   5.328   0.684   2.331
 3137SOL     OW10309   6.263   0.598   2.040
 3137SOL    HW110310   6.201   0.527   2.073
 3137SOL    HW210311   6.337   0.611   2.107
 3138SOL     OW10312   6.480   4.982   3.457
 3138SOL    HW110313   6.531   4.896   3.458
 3138SOL    HW210314   6.489   5.026   3.368
 3139SOL     OW10315   4.615   5.504   0.663
 3139SOL    HW110316   4.616   5.595   0.621
 3139SOL    HW210317   4.699   5.491   0.716
 3140SOL     OW10318   6.726   6.938   0.293
 3140SOL    HW110319   6.638   6.960   0.250
 3140SOL    HW210320   6.789   6.903   0.224
 3141SOL     OW10321   0.904   6.976   6.791
 3141SOL    HW110322   0.881   0.044   6.773
 3141SOL    HW210323   0.850   6.917   6.731
 3142SOL     OW10324   3.439   0.152   2.347
 3142SOL    HW110325   3.370   0.099   2.296
 3142SOL    HW210326   3.423   0.143   2.445
 3143SOL     OW10327   6.701   1.787   0.634
 3143SOL    HW110328   6.703   1.872   0.686
 3143SOL    HW210329   6.710   1.808   0.536
 3144SOL     OW10330   3.979   3.713   1.114
 3144SOL    HW110331   3.959   3.782   1.045
 3144SOL    HW210332   3.956   3.622   1.078
 3145SOL     OW10333   2.429   6.134   1.920
 3145SOL    HW110334   2.458   6.056   1.864
 3145SOL    HW210335   2.351   6.107   1.977
 3146SOL     OW10336   1.562   1.242   4.901
 3146SOL    HW110337   1.470   1.268   4.873
 3146SOL    HW210338   1.620   1.323   4.906
 3147SOL     OW10339   3.232   5.493   1.026
 3147SOL    HW110340   3.160   5.478   1.094
 3147SOL    HW210341   3.305   5.426   1.041
 3148SOL     OW10342   6.135   6.928   3.397
 3148SOL    HW110343   6.119   6.994   3.470
 3148SOL    HW210344   6.118   6.972   3.309
 3149SOL     OW10345   3.264   0.578   5.511
 3149SOL    HW110346   3.351   0.621   5.488
 3149SOL    HW210347   3.221   0.543   5.428
 3150SOL     OW10348   6.359   5.569   4.817
 3150SOL    HW110349   6.443   5.623   4.827
 3150SOL    HW210350   6.373   5.477   4.855
 3151SOL     OW10351   6.731   0.806   4.917
 3151SOL    HW110352   6.726   0.709   4.940
 3151SOL    HW210353   6.647   0.852   4.944
 3152SOL     OW10354   0.925   5.322   1.115
 3152SOL    HW110355   0.990   5.336   1.189
 3152SOL    HW210356   0.874   5.238   1.130
 3153SOL     OW10357   6.285   5.418   0.664
 3153SOL    HW110358   6.268   5.340   0.724
 3153SOL    HW210359   6.380   5.415   0.633
 3154SOL     OW10360   0.424   1.761   6.689
 3154SOL    HW110361   0.474   1.685   6.650
 3154SOL    HW210362   0.391   1.737   6.780
 3155SOL     OW10363   6.472   4.054   0.295
 3155SOL    HW110364   6.509   4.108   0.220
 3155SOL    HW210365   6.522   3.967   0.301
 3156SOL     OW10366   3.611   2.973   2.870
 3156SOL    HW110367   3.574   2.928   2.952
 3156SOL    HW210368   3.576   3.066   2.866
 3157SOL     OW10369   2.717   2.004   5.150
 3157SOL    HW110370   2.808   2.044   5.139
 3157SOL    HW210371   2.656   2.040   5.078
 3158SOL     OW10372   3.369   1.449   3.630
 3158SOL    HW110373   3.277   1.435   3.594
 3158SOL    HW210374   3.382   1.392   3.711
 3159SOL     OW10375   6.410   0.767   0.422
 3159SOL    HW110376   6.447   0.675   0.427
 3159SOL    HW210377   6.311   0.763   0.405
 3160SOL     OW10378   0.598   5.974   5.717
 3160SOL    HW110379   0.671   6.018   5.770
 3160SOL    HW210380   0.581   6.027   5.634
 3161SOL     OW10381   2.406   2.562   2.795
 3161SOL    HW110382   2.407   2.506   2.878
 3161SOL    HW210383   2.342   2.638   2.806
 3162SOL     OW10384   1.257   6.198   1.566
 3162SOL    HW110385   1.331   6.213   1.631
 3162SOL    HW210386   1.216   6.108   1.582
 3163SOL     OW10387   4.710   2.901   6.454
 3163SOL    HW110388   4.710   2.981   6.394
 3163SOL    HW210389   4.619   2.859   6.453
 3164SOL     OW10390   4.183   5.762   1.346
 3164SOL    HW110391   4.137   5.794   1.429
 3164SOL    HW210392   4.114   5.732   1.280
 3165SOL     OW10393   1.105   6.963   0.932
 3165SOL    HW110394   1.009   6.989   0.917
 3165SOL    HW210395   1.127   6.973   1.029
 3166SOL     OW10396   4.130   2.003   4.272
 3166SOL    HW110397   4.228   1.987   4.257
 3166SOL    HW210398   4.090   1.923   4.317
 3167SOL     OW10399   6.723   4.497   0.553
 3167SOL    HW110400   6.685   4.457   0.636
 3167SOL    HW210401   6.819   4.471   0.544
 3168SOL     OW10402   5.025   2.792   0.148
 3168SOL    HW110403   5.016   2.864   0.078
 3168SOL    HW210404   5.118   2.794   0.184
 3169SOL     OW10405   1.924   4.167   3.992
 3169SOL    HW110406   2.006   4.116   3.966
 3169SOL    HW210407   1.851   4.149   3.927
 3170SOL     OW10408   4.605   6.188   1.479
 3170SOL    HW110409   4.592   6.256   1.407
 3170SOL    HW210410   4.591   6.231   1.568
 3171SOL     OW10411   0.064   0.726   2.223
 3171SOL    HW110412   0.030   0.772   2.305
 3171SOL    HW210413   7.018   0.723   2.154
 3172SOL     OW10414   0.094   5.618   0.497
 3172SOL    HW110415   0.016   5.603   0.437
 3172SOL    HW210416   0.147   5.533   0.505
 3173SOL     OW10417   2.838   2.112   0.571
 3173SOL    HW110418   2.840   2.157   0.661
 3173SOL    HW210419   2.932   2.101   0.538
 3174SOL     OW10420   3.260   2.432   0.410
 3174SOL    HW110421   3.164   2.438   0.438
 3174SOL    HW210422   3.317   2.418   0.491
 3175SOL     OW10423   6.194   1.197   1.499
 3175SOL    HW110424   6.192   1.124   1.567
 3175SOL    HW210425   6.176   1.160   1.409
 3176SOL     OW10426   1.529   4.012   5.893
 3176SOL    HW110427   1.624   4.014   5.862
 3176SOL    HW210428   1.526   3.995   5.992
 3177SOL     OW10429   5.125   3.945   4.065
 3177SOL    HW110430   5.213   3.970   4.025
 3177SOL    HW210431   5.140   3.899   4.152
 3178SOL     OW10432   6.340   1.991   0.731
 3178SOL    HW110433   6.440   1.996   0.725
 3178SOL    HW210434   6.313   1.982   0.827
 3179SOL     OW10435   0.640   3.237   2.118
 3179SOL    HW110436   0.570   3.300   2.150
 3179SOL    HW210437   0.619   3.145   2.151
 3180SOL     OW10438   4.872   1.056   6.506
 3180SOL    HW110439   4.809   1.103   6.445
 3180SOL    HW210440   4.839   0.963   6.525
 3181SOL     OW10441   7.008   2.176   3.636
 3181SOL    HW110442   0.038   2.246   3.678
 3181SOL    HW210443   7.018   2.179   3.536
 3182SOL     OW10444   2.683   0.243   6.623
 3182SOL    HW110445   2.700   0.247   6.721
 3182SOL    HW210446   2.734   0.166   6.583
 3183SOL     OW10447   4.686   4.169   1.728
 3183SOL    HW110448   4.615   4.142   1.664
 3183SOL    HW210449   4.651   4.238   1.791
 3184SOL     OW10450   0.887   3.737   2.826
 3184SOL    HW110451   0.924   3.655   2.870
 3184SOL    HW210452   0.813   3.711   2.764
 3185SOL     OW10453   5.460   6.027   6.580
 3185SOL    HW110454   5.475   5.978   6.666
 3185SOL    HW210455   5.374   5.996   6.539
 3186SOL     OW10456   3.519   1.976   1.587
 3186SOL    HW110457   3.529   2.066   1.545
 3186SOL    HW210458   3.565   1.908   1.531
 3187SOL     OW10459   4.623   4.500   0.968
 3187SOL    HW110460   4.528   4.478   0.989
 3187SOL    HW210461   4.674   4.415   0.950
 3188SOL     OW10462   2.088   0.522   4.209
 3188SOL    HW110463   2.094   0.619   4.187
 3188SOL    HW210464   2.171   0.476   4.178
 3189SOL     OW10465   1.674   1.340   1.662
 3189SOL    HW110466   1.626   1.334   1.574
 3189SOL    HW210467   1.619   1.299   1.734
 3190SOL     OW10468   0.506   5.702   0.534
 3190SOL    HW110469   0.425   5.689   0.476
 3190SOL    HW210470   0.513   5.798   0.561
 3191SOL     OW10471   4.967   5.834   1.248
 3191SOL    HW110472   4.929   5.751   1.290
 3191SOL    HW210473   4.904   5.911   1.263
 3192SOL     OW10474   0.361   2.550   1.705
 3192SOL    HW110475   0.440   2.506   1.746
 3192SOL    HW210476   0.283   2.488   1.706
 3193SOL     OW10477   3.608   1.032   6.782
 3193SOL    HW110478   3.512   1.013   6.803
 3193SOL    HW210479   3.629   1.127   6.803
 3194SOL     OW10480   1.985   2.231   6.283
 3194SOL    HW110481   1.928   2.163   6.330
 3194SOL    HW210482   1.929   2.312   6.262
 3195SOL     OW10483   3.248   1.473   3.244
 3195SOL    HW110484   3.337   1.486   3.201
 3195SOL    HW210485   3.188   1.550   3.220
 3196SOL     OW10486   0.610   0.902   6.476
 3196SOL    HW110487   0.677   0.964   6.437
 3196SOL    HW210488   0.608   0.912   6.575
 3197SOL     OW10489   2.747   6.541   3.346
 3197SOL    HW110490   2.801   6.483   3.407
 3197SOL    HW210491   2.794   6.628   3.332
 3198SOL     OW10492   6.150   2.914   4.807
 3198SOL    HW110493   6.053   2.935   4.816
 3198SOL    HW210494   6.181   2.867   4.889
 3199SOL     OW10495   4.905   3.988   2.256
 3199SOL    HW110496   4.838   4.018   2.188
 3199SOL    HW210497   4.997   3.993   2.216
 3200SOL     OW10498   6.032   3.101   1.765
 3200SOL    HW110499   6.003   3.129   1.856
 3200SOL    HW210500   6.043   3.002   1.762
 3201SOL     OW10501   5.828   4.855   4.246
 3201SOL    HW110502   5.913   4.829   4.293
 3201SOL    HW210503   5.753   4.859   4.312
 3202SOL     OW10504   0.557   4.677   1.983
 3202SOL    HW110505   0.597   4.766   2.004
 3202SOL    HW210506   0.593   4.609   2.047
 3203SOL     OW10507   6.380   2.369   0.292
 3203SOL    HW110508   6.363   2.445   0.228
 3203SOL    HW210509   6.315   2.374   0.367
 3204SOL     OW10510   4.411   6.417   3.033
 3204SOL    HW110511   4.388   6.513   3.020
 3204SOL    HW210512   4.503   6.409   3.071
 3205SOL     OW10513   6.200   2.874   6.261
 3205SOL    HW110514   6.269   2.844   6.196
 3205SOL    HW210515   6.155   2.794   6.301
 3206SOL     OW10516   1.260   5.716   6.283
 3206SOL    HW110517   1.335   5.659   6.318
 3206SOL    HW210518   1.172   5.674   6.306
 3207SOL     OW10519   0.808   0.412   6.025
 3207SOL    HW110520   0.843   0.380   5.936
 3207SOL    HW210521   0.719   0.370   6.042
 3208SOL     OW10522   4.939   5.630   6.085
 3208SOL    HW110523   4.914   5.718   6.045
 3208SOL    HW210524   4.984   5.573   6.016
 3209SOL     OW10525   4.571   5.850   3.238
 3209SOL    HW110526   4.504   5.873   3.309
 3209SOL    HW210527   4.599   5.934   3.191
 3210SOL     OW10528   0.895   4.811   1.587
 3210SOL    HW110529   0.796   4.808   1.573
 3210SOL    HW210530   0.914   4.827   1.683
 3211SOL     OW10531   1.716   3.797   0.886
 3211SOL    HW110532   1.681   3.840   0.969
 3211SOL    HW210533   1.814   3.815   0.878
 3212SOL     OW10534   3.206   0.660   1.226
 3212SOL    HW110535   3.192   0.715   1.144
 3212SOL    HW210536   3.243   0.571   1.201
 3213SOL     OW10537   1.082   5.961   1.335
 3213SOL    HW110538   1.168   5.924   1.299
 3213SOL    HW210539   1.023   5.989   1.260
 3214SOL     OW10540   4.828   5.116   0.776
 3214SOL    HW110541   4.896   5.175   0.819
 3214SOL    HW210542   4.870   5.030   0.749
 3215SOL     OW10543   6.929   2.544   0.945
 3215SOL    HW110544   6.981   2.461   0.924
 3215SOL    HW210545   6.844   2.544   0.893
 3216SOL     OW10546   6.157   5.134   0.462
 3216SOL    HW110547   6.141   5.225   0.424
 3216SOL    HW210548   6.072   5.100   0.503
 3217SOL     OW10549   7.013   5.460   2.249
 3217SOL    HW110550   0.069   5.407   2.234
 3217SOL    HW210551   6.970   5.480   2.161
 3218SOL     OW10552   4.564   2.007   3.651
 3218SOL    HW110553   4.605   2.090   3.690
 3218SOL    HW210554   4.636   1.950   3.612
 3219SOL     OW10555   0.339   2.364   3.955
 3219SOL    HW110556   0.377   2.417   3.879
 3219SOL    HW210557   0.414   2.315   4.001
 3220SOL     OW10558   6.775   5.511   6.446
 3220SOL    HW110559   6.750   5.556   6.532
 3220SOL    HW210560   6.702   5.526   6.379
 3221SOL     OW10561   3.829   0.527   1.584
 3221SOL    HW110562   3.870   0.513   1.494
 3221SOL    HW210563   3.819   0.439   1.631
 3222SOL     OW10564   3.568   1.759   2.374
 3222SOL    HW110565   3.485   1.721   2.415
 3222SOL    HW210566   3.594   1.704   2.294
 3223SOL     OW10567   2.070   6.688   6.244
 3223SOL    HW110568   1.985   6.718   6.288
 3223SOL    HW210569   2.139   6.671   6.315
 3224SOL     OW10570   4.412   3.691   6.058
 3224SOL    HW110571   4.408   3.638   6.142
 3224SOL    HW210572   4.410   3.789   6.079
 3225SOL     OW10573   5.124   2.688   6.695
 3225SOL    HW110574   5.124   2.599   6.650
 3225SOL    HW210575   5.063   2.750   6.646
 3226SOL     OW10576   2.018   1.419   3.399
 3226SOL    HW110577   2.118   1.421   3.397
 3226SOL    HW210578   1.983   1.508   3.427
 3227SOL     OW10579   3.531   2.720   0.243
 3227SOL    HW110580   3.585   2.662   0.183
 3227SOL    HW210581   3.581   2.805   0.261
 3228SOL     OW10582   6.696   4.436   2.644
 3228SOL    HW110583   6.722   4.340   2.637
 3228SOL    HW210584   6.719   4.471   2.734
 3229SOL     OW10585   4.047   6.770   4.846
 3229SOL    HW110586   3.963   6.748   4.798
 3229SOL    HW210587   4.125   6.760   4.784
 3230SOL     OW10588   2.179   3.554   4.943
 3230SOL    HW110589   2.170   3.560   4.843
 3230SOL    HW210590   2.201   3.460   4.969
 3231SOL     OW10591   2.488   1.155   1.354
 3231SOL    HW110592   2.564   1.219   1.370
 3231SOL    HW210593   2.452   1.168   1.262
 3232SOL     OW10594   4.987   5.330   5.036
 3232SOL    HW110595   4.894   5.292   5.043
 3232SOL    HW210596   4.983   5.420   4.993
 3233SOL     OW10597   0.786   2.950   1.468
 3233SOL    HW110598   0.767   3.013   1.392
 3233SOL    HW210599   0.878   2.966   1.502
 3234SOL     OW10600   6.839   1.820   0.063
 3234SOL    HW110601   6.784   1.745   0.099
 3234SOL    HW210602   6.886   1.867   0.138
 3235SOL     OW10603   5.630   0.967   1.953
 3235SOL    HW110604   5.553   1.026   1.931
 3235SOL    HW210605   5.605   0.906   2.029
 3236SOL     OW10606   1.586   3.138   0.658
 3236SOL    HW110607   1.572   3.232   0.687
 3236SOL    HW210608   1.580   3.133   0.558
 3237SOL     OW10609   5.141   1.751   4.254
 3237SOL    HW110610   5.108   1.833   4.206
 3237SOL    HW210611   5.152   1.677   4.188
 3238SOL     OW10612   6.616   5.327   0.856
 3238SOL    HW110613   6.668   5.353   0.775
 3238SOL    HW210614   6.586   5.232   0.847
 3239SOL     OW10615   6.799   1.756   1.875
 3239SOL    HW110616   6.830   1.721   1.964
 3239SOL    HW210617   6.706   1.791   1.884
 3240SOL     OW10618   0.040   0.207   6.620
 3240SOL    HW110619   0.038   0.271   6.543
 3240SOL    HW210620   7.006   0.130   6.600
 3241SOL     OW10621   4.475   2.066   5.272
 3241SOL    HW110622   4.391   2.109   5.304
 3241SOL    HW210623   4.542   2.137   5.249
 3242SOL     OW10624   3.711   4.512   7.001
 3242SOL    HW110625   3.797   4.517   6.950
 3242SOL    HW210626   3.644   4.574   6.961
 3243SOL     OW10627   4.353   4.475   0.384
 3243SOL    HW110628   4.312   4.566   0.397
 3243SOL    HW210629   4.281   4.406   0.385
 3244SOL     OW10630   5.106   5.352   0.650
 3244SOL    HW110631   5.185   5.397   0.608
 3244SOL    HW210632   5.029   5.354   0.586
 3245SOL     OW10633   5.176   3.260   5.043
 3245SOL    HW110634   5.184   3.319   5.123
 3245SOL    HW210635   5.126   3.308   4.971
 3246SOL     OW10636   5.666   0.324   2.418
 3246SOL    HW110637   5.681   0.227   2.398
 3246SOL    HW210638   5.646   0.373   2.333
 3247SOL     OW10639   5.882   5.042   2.439
 3247SOL    HW110640   5.883   5.078   2.532
 3247SOL    HW210641   5.823   5.098   2.382
 3248SOL     OW10642   6.566   3.531   0.902
 3248SOL    HW110643   6.626   3.515   0.980
 3248SOL    HW210644   6.526   3.444   0.872
 3249SOL     OW10645   4.004   3.196   4.458
 3249SOL    HW110646   3.996   3.276   4.518
 3249SOL    HW210647   4.072   3.215   4.387
 3250SOL     OW10648   5.766   6.678   2.031
 3250SOL    HW110649   5.748   6.583   2.007
 3250SOL    HW210650   5.796   6.684   2.126
 3251SOL     OW10651   2.973   0.864   3.552
 3251SOL    HW110652   2.879   0.893   3.570
 3251SOL    HW210653   2.977   0.820   3.463
 3252SOL     OW10654   2.223   1.654   3.153
 3252SOL    HW110655   2.182   1.745   3.157
 3252SOL    HW210656   2.151   1.585   3.145
 3253SOL     OW10657   5.288   4.221   2.084
 3253SOL    HW110658   5.374   4.171   2.096
 3253SOL    HW210659   5.239   4.223   2.171
 3254SOL     OW10660   5.407   5.298   5.137
 3254SOL    HW110661   5.497   5.273   5.101
 3254SOL    HW210662   5.407   5.394   5.165
 3255SOL     OW10663   5.785   5.857   0.463
 3255SOL    HW110664   5.734   5.771   0.456
 3255SOL    HW210665   5.730   5.932   0.426
 3256SOL     OW10666   2.644   1.044   6.975
 3256SOL    HW110667   2.678   0.962   6.929
 3256SOL    HW210668   2.626   1.115   6.906
 3257SOL     OW10669   1.763   1.392   2.104
 3257SOL    HW110670   1.672   1.386   2.061
 3257SOL    HW210671   1.776   1.483   2.143
 3258SOL     OW10672   4.267   4.610   1.913
 3258SOL    HW110673   4.282   4.580   2.007
 3258SOL    HW210674   4.286   4.534   1.850
 3259SOL     OW10675   4.924   5.463   4.133
 3259SOL    HW110676   4.888   5.399   4.201
 3259SOL    HW210677   4.959   5.544   4.178
 3260SOL     OW10678   2.151   1.748   0.629
 3260SOL    HW110679   2.236   1.800   0.625
 3260SOL    HW210680   2.106   1.766   0.717
 3261SOL     OW10681   5.400   6.855   0.898
 3261SOL    HW110682   5.339   6.847   0.819
 3261SOL    HW210683   5.347   6.848   0.982
 3262SOL     OW10684   3.321   2.067   2.842
 3262SOL    HW110685   3.340   2.113   2.755
 3262SOL    HW210686   3.407   2.034   2.882
 3263SOL     OW10687   2.491   0.807   3.760
 3263SOL    HW110688   2.424   0.778   3.692
 3263SOL    HW210689   2.516   0.902   3.745
 3264SOL     OW10690   1.459   3.898   1.278
 3264SOL    HW110691   1.530   3.967   1.264
 3264SOL    HW210692   1.431   3.897   1.373
 3265SOL     OW10693   5.474   0.440   6.505
 3265SOL    HW110694   5.395   0.498   6.523
 3265SOL    HW210695   5.542   0.490   6.452
 3266SOL     OW10696   1.828   3.789   0.566
 3266SOL    HW110697   1.819   3.816   0.470
 3266SOL    HW210698   1.820   3.869   0.625
 3267SOL     OW10699   3.760   7.014   0.490
 3267SOL    HW110700   3.684   6.956   0.520
 3267SOL    HW210701   3.824   7.027   0.566
 3268SOL     OW10702   0.888   3.559   1.041
 3268SOL    HW110703   0.954   3.580   1.113
 3268SOL    HW210704   0.876   3.640   0.983
 3269SOL     OW10705   4.420   5.746   2.408
 3269SOL    HW110706   4.338   5.764   2.462
 3269SOL    HW210707   4.472   5.671   2.451
 3270SOL     OW10708   0.705   4.389   6.131
 3270SOL    HW110709   0.762   4.339   6.066
 3270SOL    HW210710   0.745   4.480   6.146
 3271SOL     OW10711   6.064   3.895   2.948
 3271SOL    HW110712   6.163   3.898   2.931
 3271SOL    HW210713   6.016   3.893   2.860
 3272SOL     OW10714   3.448   4.578   6.133
 3272SOL    HW110715   3.419   4.511   6.202
 3272SOL    HW210716   3.372   4.640   6.113
 3273SOL     OW10717   0.676   6.459   0.890
 3273SOL    HW110718   0.765   6.442   0.933
 3273SOL    HW210719   0.652   6.555   0.901
 3274SOL     OW10720   4.384   0.819   1.085
 3274SOL    HW110721   4.435   0.897   1.121
 3274SOL    HW210722   4.425   0.734   1.118
 3275SOL     OW10723   6.751   1.400   0.011
 3275SOL    HW110724   6.698   1.483   0.030
 3275SOL    HW210725   6.704   1.322   0.051
 3276SOL     OW10726   1.870   5.931   0.334
 3276SOL    HW110727   1.802   5.954   0.404
 3276SOL    HW210728   1.881   5.832   0.329
 3277SOL     OW10729   4.158   6.741   0.000
 3277SOL    HW110730   4.189   6.704   0.088
 3277SOL    HW210731   4.237   6.758   6.969
 3278SOL     OW10732   1.133   1.109   5.824
 3278SOL    HW110733   1.146   1.016   5.857
 3278SOL    HW210734   1.142   1.174   5.900
 3279SOL     OW10735   5.618   0.635   6.971
 3279SOL    HW110736   5.541   0.585   6.932
 3279SOL    HW210737   5.601   0.733   6.966
 3280SOL     OW10738   3.827   5.310   4.199
 3280SOL    HW110739   3.840   5.389   4.259
 3280SOL    HW210740   3.772   5.242   4.246
 3281SOL     OW10741   2.122   5.903   1.642
 3281SOL    HW110742   2.090   5.996   1.623
 3281SOL    HW210743   2.043   5.845   1.666
 3282SOL     OW10744   0.304   4.883   5.622
 3282SOL    HW110745   0.348   4.907   5.536
 3282SOL    HW210746   0.210   4.855   5.605
 3283SOL     OW10747   3.872   1.323   0.709
 3283SOL    HW110748   3.838   1.354   0.620
 3283SOL    HW210749   3.821   1.241   0.737
 3284SOL     OW10750   0.124   5.131   0.029
 3284SOL    HW110751   0.163   5.220   0.005
 3284SOL    HW210752   0.140   5.112   0.125
 3285SOL     OW10753   4.942   2.954   3.328
 3285SOL    HW110754   4.987   3.037   3.361
 3285SOL    HW210755   4.873   2.924   3.395
 3286SOL     OW10756   3.796   3.352   2.570
 3286SOL    HW110757   3.802   3.252   2.563
 3286SOL    HW210758   3.821   3.380   2.662
 3287SOL     OW10759   0.885   0.260   6.949
 3287SOL    HW110760   0.883   0.342   7.006
 3287SOL    HW210761   0.792   0.226   6.936
 3288SOL     OW10762   0.749   5.325   6.478
 3288SOL    HW110763   0.679   5.275   6.427
 3288SOL    HW210764   0.748   5.422   6.452
 3289SOL     OW10765   2.595   6.659   5.618
 3289SOL    HW110766   2.509   6.697   5.651
 3289SOL    HW210767   2.651   6.629   5.695
 3290SOL     OW10768   0.647   0.093   2.089
 3290SOL    HW110769   0.703   0.094   2.172
 3290SOL    HW210770   0.628   0.187   2.061
 3291SOL     OW10771   2.188   0.078   1.238
 3291SOL    HW110772   2.185   0.126   1.326
 3291SOL    HW210773   2.181   0.144   1.163
 3292SOL     OW10774   0.714   0.960   1.123
 3292SOL    HW110775   0.692   1.042   1.070
 3292SOL    HW210776   0.644   0.945   1.192
 3293SOL     OW10777   0.285   3.616   2.536
 3293SOL    HW110778   0.200   3.654   2.497
 3293SOL    HW210779   0.305   3.529   2.491
 3294SOL     OW10780   6.398   1.881   6.497
 3294SOL    HW110781   6.430   1.876   6.402
 3294SOL    HW210782   6.338   1.804   6.516
 3295SOL     OW10783   1.209   2.766   2.115
 3295SOL    HW110784   1.219   2.818   2.200
 3295SOL    HW210785   1.273   2.689   2.116
 3296SOL     OW10786   1.440   6.865   2.098
 3296SOL    HW110787   1.459   6.963   2.100
 3296SOL    HW210788   1.526   6.815   2.087
 3297SOL     OW10789   3.034   0.721   4.498
 3297SOL    HW110790   3.084   0.783   4.437
 3297SOL    HW210791   3.095   0.648   4.528
 3298SOL     OW10792   5.919   1.454   5.057
 3298SOL    HW110793   5.860   1.521   5.102
 3298SOL    HW210794   5.998   1.501   5.017
 3299SOL     OW10795   2.648   5.310   3.232
 3299SOL    HW110796   2.582   5.352   3.295
 3299SOL    HW210797   2.712   5.380   3.200
 3300SOL     OW10798   6.988   0.590   5.558
 3300SOL    HW110799   6.995   0.563   5.462
 3300SOL    HW210800   6.922   0.665   5.566
 3301SOL     OW10801   1.724   3.317   3.529
 3301SOL    HW110802   1.722   3.393   3.464
 3301SOL    HW210803   1.804   3.325   3.589
 3302SOL     OW10804   6.836   4.457   5.460
 3302SOL    HW110805   6.862   4.484   5.553
 3302SOL    HW210806   6.743   4.487   5.441
 3303SOL     OW10807   3.561   3.433   1.482
 3303SOL    HW110808   3.634   3.408   1.545
 3303SOL    HW210809   3.539   3.355   1.423
 3304SOL     OW10810   0.750   5.958   4.416
 3304SOL    HW110811   0.813   5.916   4.481
 3304SOL    HW210812   0.692   5.888   4.375
 3305SOL     OW10813   2.017   1.485   3.087
 3305SOL    HW110814   1.930   1.511   3.047
 3305SOL    HW210815   2.012   1.390   3.118
 3306SOL     OW10816   1.827   5.446   5.090
 3306SOL    HW110817   1.807   5.526   5.147
 3306SOL    HW210818   1.924   5.445   5.066
 3307SOL     OW10819   0.134   5.928   0.091
 3307SOL    HW110820   0.052   5.876   0.071
 3307SOL    HW210821   0.210   5.865   0.109
 3308SOL     OW10822   2.753   6.218   0.534
 3308SOL    HW110823   2.834   6.232   0.591
 3308SOL    HW210824   2.700   6.141   0.570
 3309SOL     OW10825   6.857   6.010   2.631
 3309SOL    HW110826   6.909   5.933   2.666
 3309SOL    HW210827   6.919   6.083   2.603
 3310SOL     OW10828   0.117   3.213   6.102
 3310SOL    HW110829   0.195   3.151   6.095
 3310SOL    HW210830   0.042   3.178   6.045
 3311SOL     OW10831   2.101   4.357   1.735
 3311SOL    HW110832   2.040   4.284   1.704
 3311SOL    HW210833   2.178   4.366   1.672
 3312SOL     OW10834   4.096   4.541   5.942
 3312SOL    HW110835   4.186   4.574   5.969
 3312SOL    HW210836   4.026   4.607   5.969
 3313SOL     OW10837   0.218   5.537   3.149
 3313SOL    HW110838   0.240   5.623   3.102
 3313SOL    HW210839   0.181   5.471   3.083
 3314SOL     OW10840   3.112   1.400   3.487
 3314SOL    HW110841   3.073   1.489   3.466
 3314SOL    HW210842   3.182   1.377   3.419
 3315SOL     OW10843   7.000   3.305   5.182
 3315SOL    HW110844   0.063   3.294   5.140
 3315SOL    HW210845   7.001   3.264   5.274
 3316SOL     OW10846   5.165   1.398   6.233
 3316SOL    HW110847   5.189   1.496   6.233
 3316SOL    HW210848   5.088   1.383   6.295
 3317SOL     OW10849   4.400   3.130   1.677
 3317SOL    HW110850   4.349   3.214   1.697
 3317SOL    HW210851   4.475   3.121   1.742
 3318SOL     OW10852   2.671   1.168   0.847
 3318SOL    HW110853   2.628   1.208   0.766
 3318SOL    HW210854   2.704   1.241   0.907
 3319SOL     OW10855   6.690   1.015   3.999
 3319SOL    HW110856   6.719   1.020   4.095
 3319SOL    HW210857   6.756   0.961   3.947
 3320SOL     OW10858   5.520   0.258   4.532
 3320SOL    HW110859   5.449   0.272   4.602
 3320SOL    HW210860   5.514   0.164   4.498
 3321SOL     OW10861   4.730   1.585   0.500
 3321SOL    HW110862   4.656   1.521   0.479
 3321SOL    HW210863   4.795   1.541   0.563
 3322SOL     OW10864   5.765   3.343   0.608
 3322SOL    HW110865   5.722   3.266   0.561
 3322SOL    HW210866   5.750   3.427   0.555
 3323SOL     OW10867   2.889   3.287   0.327
 3323SOL    HW110868   2.977   3.332   0.309
 3323SOL    HW210869   2.862   3.233   0.248
 3324SOL     OW10870   3.208   5.358   0.159
 3324SOL    HW110871   3.300   5.327   0.139
 3324SOL    HW210872   3.182   5.430   0.095
 3325SOL     OW10873   1.487   3.219   6.781
 3325SOL    HW110874   1.453   3.311   6.760
 3325SOL    HW210875   1.474   3.160   6.701
 3326SOL     OW10876   4.880   2.325   2.221
 3326SOL    HW110877   4.967   2.360   2.256
 3326SOL    HW210878   4.846   2.386   2.149
 3327SOL     OW10879   2.563   5.956   1.739
 3327SOL    HW110880   2.540   5.988   1.646
 3327SOL    HW210881   2.557   5.857   1.742
 3328SOL     OW10882   4.527   1.432   0.948
 3328SOL    HW110883   4.602   1.477   0.996
 3328SOL    HW210884   4.500   1.486   0.868
 3329SOL     OW10885   4.937   6.721   4.345
 3329SOL    HW110886   4.889   6.735   4.258
 3329SOL    HW210887   5.035   6.712   4.327
 3330SOL     OW10888   6.207   4.931   1.302
 3330SOL    HW110889   6.136   4.921   1.372
 3330SOL    HW210890   6.235   4.841   1.269
 3331SOL     OW10891   1.919   3.270   0.973
 3331SOL    HW110892   1.912   3.312   1.064
 3331SOL    HW210893   2.015   3.253   0.952
 3332SOL     OW10894   6.630   4.808   0.009
 3332SOL    HW110895   6.716   4.761   0.029
 3332SOL    HW210896   6.626   4.893   0.061
 3333SOL     OW10897   3.618   3.793   6.812
 3333SOL    HW110898   3.646   3.886   6.788
 3333SOL    HW210899   3.697   3.731   6.804
 3334SOL     OW10900   2.596   3.852   1.235
 3334SOL    HW110901   2.563   3.859   1.141
 3334SOL    HW210902   2.559   3.927   1.290
 3335SOL     OW10903   5.100   6.565   5.279
 3335SOL    HW110904   5.187   6.596   5.317
 3335SOL    HW210905   5.034   6.640   5.283
 3336SOL     OW10906   2.102   6.512   4.005
 3336SOL    HW110907   2.150   6.424   4.004
 3336SOL    HW210908   2.117   6.557   4.093
 3337SOL     OW10909   2.880   3.658   1.966
 3337SOL    HW110910   2.882   3.715   2.048
 3337SOL    HW210911   2.959   3.597   1.965
 3338SOL     OW10912   5.791   3.017   2.405
 3338SOL    HW110913   5.720   3.031   2.335
 3338SOL    HW210914   5.758   2.949   2.471
 3339SOL     OW10915   0.563   0.355   6.556
 3339SOL    HW110916   0.653   0.389   6.529
 3339SOL    HW210917   0.533   0.285   6.491
 3340SOL     OW10918   3.872   1.773   3.291
 3340SOL    HW110919   3.837   1.696   3.345
 3340SOL    HW210920   3.802   1.802   3.225
 3341SOL     OW10921   0.642   5.119   3.089
 3341SOL    HW110922   0.722   5.139   3.145
 3341SOL    HW210923   0.663   5.044   3.027
 3342SOL     OW10924   1.658   6.289   3.718
 3342SOL    HW110925   1.673   6.193   3.742
 3342SOL    HW210926   1.731   6.346   3.757
 3343SOL     OW10927   5.063   3.577   0.338
 3343SOL    HW110928   5.108   3.665   0.320
 3343SOL    HW210929   4.967   3.583   0.309
 3344SOL     OW10930   5.613   3.377   3.683
 3344SOL    HW110931   5.573   3.295   3.642
 3344SOL    HW210932   5.624   3.362   3.781
 3345SOL     OW10933   1.879   3.010   5.746
 3345SOL    HW110934   1.942   3.062   5.804
 3345SOL    HW210935   1.889   3.041   5.651
 3346SOL     OW10936   1.521   1.551   7.016
 3346SOL    HW110937   1.509   1.454   0.008
 3346SOL    HW210938   1.436   1.600   0.008
 3347SOL     OW10939   0.874   2.907   5.655
 3347SOL    HW110940   0.950   2.968   5.681
 3347SOL    HW210941   0.844   2.857   5.736
 3348SOL     OW10942   3.538   3.930   4.391
 3348SOL    HW110943   3.512   4.003   4.455
 3348SOL    HW210944   3.463   3.865   4.384
 3349SOL     OW10945   1.514   5.381   3.124
 3349SOL    HW110946   1.516   5.372   3.224
 3349SOL    HW210947   1.553   5.298   3.083
 3350SOL     OW10948   0.641   2.392   5.971
 3350SOL    HW110949   0.681   2.483   5.982
 3350SOL    HW210950   0.658   2.359   5.878
 3351SOL     OW10951   4.624   0.751   2.773
 3351SOL    HW110952   4.664   0.843   2.774
 3351SOL    HW210953   4.613   0.721   2.678
 3352SOL     OW10954   6.585   2.550   0.359
 3352SOL    HW110955   6.512   2.497   0.317
 3352SOL    HW210956   6.634   2.602   0.289
 3353SOL     OW10957   2.655   5.700   1.461
 3353SOL    HW110958   2.649   5.604   1.434
 3353SOL    HW210959   2.727   5.710   1.530
 3354SOL     OW10960   4.965   2.653   5.635
 3354SOL    HW110961   4.972   2.658   5.535
 3354SOL    HW210962   5.018   2.575   5.668
 3355SOL     OW10963   2.506   1.935   6.056
 3355SOL    HW110964   2.572   1.974   5.991
 3355SOL    HW210965   2.546   1.854   6.099
 3356SOL     OW10966   0.370   4.993   5.392
 3356SOL    HW110967   0.290   4.971   5.337
 3356SOL    HW210968   0.452   4.984   5.336
 3357SOL     OW10969   2.068   3.796   1.995
 3357SOL    HW110970   2.077   3.822   2.091
 3357SOL    HW210971   2.115   3.709   1.980
 3358SOL     OW10972   4.924   1.584   1.036
 3358SOL    HW110973   4.986   1.507   1.020
 3358SOL    HW210974   4.903   1.589   1.134
 3359SOL     OW10975   0.088   6.735   2.601
 3359SOL    HW110976   0.057   6.745   2.696
 3359SOL    HW210977   0.185   6.757   2.596
 3360SOL     OW10978   1.777   1.598   0.330
 3360SOL    HW110979   1.697   1.539   0.318
 3360SOL    HW210980   1.816   1.582   0.421
 3361SOL     OW10981   0.624   4.982   4.266
 3361SOL    HW110982   0.713   4.936   4.266
 3361SOL    HW210983   0.638   5.081   4.277
 3362SOL     OW10984   3.490   1.448   2.667
 3362SOL    HW110985   3.530   1.540   2.675
 3362SOL    HW210986   3.393   1.453   2.688
 3363SOL     OW10987   6.590   0.163   1.996
 3363SOL    HW110988   6.543   0.096   2.053
 3363SOL    HW210989   6.556   0.254   2.016
 3364SOL     OW10990   1.364   4.951   3.901
 3364SOL    HW110991   1.436   4.973   3.835
 3364SOL    HW210992   1.394   4.978   3.993
 3365SOL     OW10993   6.941   2.218   5.121
 3365SOL    HW110994   6.863   2.184   5.068
 3365SOL    HW210995   6.932   2.190   5.216
 3366SOL     OW10996   5.991   5.627   5.098
 3366SOL    HW110997   6.037   5.667   5.177
 3366SOL    HW210998   5.912   5.573   5.129
 3367SOL     OW10999   3.823   3.089   2.442
 3367SOL    HW111000   3.743   3.061   2.389
 3367SOL    HW211001   3.822   3.043   2.530
 3368SOL     OW11002   0.946   5.735   6.589
 3368SOL    HW111003   0.913   5.716   6.682
 3368SOL    HW211004   1.003   5.817   6.591
 3369SOL     OW11005   3.670   1.934   0.446
 3369SOL    HW111006   3.685   1.868   0.520
 3369SOL    HW211007   3.575   1.929   0.415
 3370SOL     OW11008   0.141   6.086   0.571
 3370SOL    HW111009   0.101   6.019   0.633
 3370SOL    HW211010   0.091   6.085   0.484
 3371SOL     OW11011   2.485   2.525   1.904
 3371SOL    HW111012   2.426   2.599   1.873
 3371SOL    HW211013   2.466   2.505   2.000
 3372SOL     OW11014   0.185   2.200   1.460
 3372SOL    HW111015   0.132   2.126   1.418
 3372SOL    HW211016   0.220   2.261   1.389
 3373SOL     OW11017   0.134   1.513   3.856
 3373SOL    HW111018   0.074   1.468   3.790
 3373SOL    HW211019   0.121   1.472   3.946
 3374SOL     OW11020   1.393   6.175   4.640
 3374SOL    HW111021   1.317   6.148   4.699
 3374SOL    HW211022   1.357   6.211   4.554
 3375SOL     OW11023   0.311   4.702   6.713
 3375SOL    HW111024   0.275   4.654   6.794
 3375SOL    HW211025   0.236   4.750   6.667
 3376SOL     OW11026   4.142   3.569   4.216
 3376SOL    HW111027   4.162   3.661   4.181
 3376SOL    HW211028   4.190   3.556   4.303
 3377SOL     OW11029   0.079   5.666   6.315
 3377SOL    HW111030   0.008   5.632   6.376
 3377SOL    HW211031   0.129   5.740   6.360
 3378SOL     OW11032   0.629   1.253   0.969
 3378SOL    HW111033   0.704   1.245   1.036
 3378SOL    HW211034   0.602   1.349   0.962
 3379SOL     OW11035   0.187   0.303   6.104
 3379SOL    HW111036   0.090   0.277   6.100
 3379SOL    HW211037   0.239   0.228   6.145
 3380SOL     OW11038   5.635   6.306   4.756
 3380SOL    HW111039   5.683   6.248   4.822
 3380SOL    HW211040   5.694   6.381   4.729
 3381SOL     OW11041   0.746   2.651   1.478
 3381SOL    HW111042   0.670   2.617   1.423
 3381SOL    HW211043   0.753   2.750   1.468
 3382SOL     OW11044   1.017   2.518   0.531
 3382SOL    HW111045   1.052   2.475   0.448
 3382SOL    HW211046   1.090   2.523   0.599
 3383SOL     OW11047   4.636   5.902   1.563
 3383SOL    HW111048   4.630   5.995   1.527
 3383SOL    HW211049   4.732   5.881   1.584
 3384SOL     OW11050   2.654   3.078   6.469
 3384SOL    HW111051   2.691   3.155   6.522
 3384SOL    HW211052   2.645   2.998   6.528
 3385SOL     OW11053   6.951   3.041   4.531
 3385SOL    HW111054   6.975   3.123   4.583
 3385SOL    HW211055   7.024   2.973   4.540
 3386SOL     OW11056   5.527   4.283   6.945
 3386SOL    HW111057   5.445   4.241   6.984
 3386SOL    HW211058   5.501   4.356   6.883
 3387SOL     OW11059   2.503   0.329   2.659
 3387SOL    HW111060   2.490   0.268   2.581
 3387SOL    HW211061   2.473   0.422   2.634
 3388SOL     OW11062   5.365   2.794   1.484
 3388SOL    HW111063   5.381   2.893   1.488
 3388SOL    HW211064   5.308   2.766   1.561
 3389SOL     OW11065   5.732   5.115   6.517
 3389SOL    HW111066   5.650   5.124   6.573
 3389SOL    HW211067   5.813   5.126   6.575
 3390SOL     OW11068   6.050   6.277   6.531
 3390SOL    HW111069   6.078   6.216   6.606
 3390SOL    HW211070   5.967   6.326   6.558
 3391SOL     OW11071   4.841   2.952   4.818
 3391SOL    HW111072   4.841   3.006   4.734
 3391SOL    HW211073   4.840   2.855   4.795
 3392SOL     OW11074   2.710   0.703   3.942
 3392SOL    HW111075   2.653   0.759   3.881
 3392SOL    HW211076   2.792   0.674   3.894
 3393SOL     OW11077   0.494   6.203   0.570
 3393SOL    HW111078   0.431   6.174   0.642
 3393SOL    HW211079   0.446   6.265   0.507
 3394SOL     OW11080   5.764   3.319   1.444
 3394SOL    HW111081   5.712   3.260   1.382
 3394SOL    HW211082   5.758   3.283   1.537
 3395SOL     OW11083   5.228   3.556   3.318
 3395SOL    HW111084   5.248   3.550   3.221
 3395SOL    HW211085   5.213   3.464   3.355
 3396SOL     OW11086   5.239   1.540   3.327
 3396SOL    HW111087   5.154   1.519   3.279
 3396SOL    HW211088   5.304   1.582   3.264
 3397SOL     OW11089   3.003   6.467   5.827
 3397SOL    HW111090   2.996   6.416   5.741
 3397SOL    HW211091   3.054   6.413   5.893
 3398SOL     OW11092   1.202   6.604   4.720
 3398SOL    HW111093   1.267   6.621   4.795
 3398SOL    HW211094   1.110   6.626   4.750
 3399SOL     OW11095   5.286   4.037   3.532
 3399SOL    HW111096   5.254   3.947   3.500
 3399SOL    HW211097   5.385   4.042   3.519
 3400SOL     OW11098   4.173   3.355   5.852
 3400SOL    HW111099   4.150   3.307   5.768
 3400SOL    HW211100   4.176   3.454   5.834
 3401SOL     OW11101   0.490   2.633   1.126
 3401SOL    HW111102   0.539   2.563   1.075
 3401SOL    HW211103   0.552   2.709   1.148
 3402SOL     OW11104   4.477   5.610   0.010
 3402SOL    HW111105   4.458   5.601   0.107
 3402SOL    HW211106   4.432   5.535   6.988
 3403SOL     OW11107   3.166   5.529   5.387
 3403SOL    HW111108   3.106   5.470   5.441
 3403SOL    HW211109   3.182   5.614   5.436
 3404SOL     OW11110   5.127   1.393   0.134
 3404SOL    HW111111   5.132   1.492   0.130
 3404SOL    HW211112   5.210   1.357   0.175
 3405SOL     OW11113   6.703   4.046   6.026
 3405SOL    HW111114   6.771   4.021   6.095
 3405SOL    HW211115   6.718   4.140   5.996
 3406SOL     OW11116   0.775   3.777   2.030
 3406SOL    HW111117   0.701   3.841   2.015
 3406SOL    HW211118   0.862   3.827   2.037
 3407SOL     OW11119   1.499   4.722   6.451
 3407SOL    HW111120   1.417   4.698   6.400
 3407SOL    HW211121   1.577   4.670   6.416
 3408SOL     OW11122   5.015   3.644   4.675
 3408SOL    HW111123   4.982   3.641   4.581
 3408SOL    HW211124   5.090   3.711   4.682
 3409SOL     OW11125   3.424   6.241   6.618
 3409SOL    HW111126   3.430   6.332   6.579
 3409SOL    HW211127   3.500   6.185   6.585
 3410SOL     OW11128   6.793   6.895   1.146
 3410SOL    HW111129   6.698   6.921   1.160
 3410SOL    HW211130   6.829   6.942   1.065
 3411SOL     OW11131   0.336   3.373   1.949
 3411SOL    HW111132   0.367   3.280   1.969
 3411SOL    HW211133   0.359   3.396   1.854
 3412SOL     OW11134   4.732   2.740   0.748
 3412SOL    HW111135   4.663   2.783   0.807
 3412SOL    HW211136   4.822   2.779   0.769
 3413SOL     OW11137   5.962   1.543   0.819
 3413SOL    HW111138   5.972   1.620   0.882
 3413SOL    HW211139   6.041   1.540   0.758
 3414SOL     OW11140   3.577   1.418   6.605
 3414SOL    HW111141   3.518   1.338   6.592
 3414SOL    HW211142   3.522   1.501   6.599
 3415SOL     OW11143   1.769   3.847   4.278
 3415SOL    HW111144   1.758   3.946   4.286
 3415SOL    HW211145   1.859   3.825   4.242
 3416SOL     OW11146   6.608   6.002   0.687
 3416SOL    HW111147   6.701   5.972   0.666
 3416SOL    HW211148   6.585   6.082   0.631
 3417SOL     OW11149   0.348   6.691   3.082
 3417SOL    HW111150   0.441   6.662   3.104
 3417SOL    HW211151   0.323   6.659   2.991
 3418SOL     OW11152   3.374   6.025   3.536
 3418SOL    HW111153   3.351   6.068   3.449
 3418SOL    HW211154   3.449   5.960   3.523
 3419SOL     OW11155   2.865   6.332   5.582
 3419SOL    HW111156   2.869   6.232   5.593
 3419SOL    HW211157   2.770   6.361   5.578
 3420SOL     OW11158   5.966   3.378   4.077
 3420SOL    HW111159   6.011   3.452   4.028
 3420SOL    HW211160   5.932   3.411   4.165
 3421SOL     OW11161   4.547   1.537   5.272
 3421SOL    HW111162   4.559   1.481   5.190
 3421SOL    HW211163   4.493   1.618   5.250
 3422SOL     OW11164   2.551   0.360   0.609
 3422SOL    HW111165   2.454   0.362   0.631
 3422SOL    HW211166   2.603   0.332   0.691
 3423SOL     OW11167   0.592   4.623   6.349
 3423SOL    HW111168   0.590   4.627   6.449
 3423SOL    HW211169   0.687   4.629   6.317
 3424SOL     OW11170   2.812   6.504   0.921
 3424SOL    HW111171   2.719   6.540   0.923
 3424SOL    HW211172   2.815   6.417   0.971
 3425SOL     OW11173   5.020   5.351   2.295
 3425SOL    HW111174   4.937   5.401   2.321
 3425SOL    HW211175   5.065   5.316   2.378
 3426SOL     OW11176   4.261   3.045   0.528
 3426SOL    HW111177   4.352   3.081   0.510
 3426SOL    HW211178   4.233   2.985   0.453
 3427SOL     OW11179   0.157   1.315   0.431
 3427SOL    HW111180   0.110   1.314   0.343
 3427SOL    HW211181   0.090   1.335   0.503
 3428SOL     OW11182   2.156   5.927   0.054
 3428SOL    HW111183   2.194   6.013   0.021
 3428SOL    HW211184   2.071   5.945   0.104
 3429SOL     OW11185   0.791   1.886   0.751
 3429SOL    HW111186   0.726   1.846   0.686
 3429SOL    HW211187   0.758   1.975   0.781
 3430SOL     OW11188   1.592   6.396   5.290
 3430SOL    HW111189   1.656   6.471   5.309
 3430SOL    HW211190   1.552   6.363   5.375
 3431SOL     OW11191   1.804   0.127   1.761
 3431SOL    HW111192   1.903   0.133   1.774
 3431SOL    HW211193   1.784   0.077   1.676
 3432SOL     OW11194   1.972   3.138   6.257
 3432SOL    HW111195   2.050   3.182   6.211
 3432SOL    HW211196   1.936   3.066   6.199
 3433SOL     OW11197   1.344   6.901   5.086
 3433SOL    HW111198   1.281   6.968   5.123
 3433SOL    HW211199   1.428   6.901   5.140
 3434SOL     OW11200   4.548   1.211   1.695
 3434SOL    HW111201   4.456   1.206   1.731
 3434SOL    HW211202   4.572   1.123   1.653
 3435SOL     OW11203   1.430   1.463   1.273
 3435SOL    HW111204   1.386   1.528   1.335
 3435SOL    HW211205   1.490   1.511   1.210
 3436SOL     OW11206   3.983   6.591   6.886
 3436SOL    HW111207   4.038   6.654   6.940
 3436SOL    HW211208   4.040   6.514   6.856
 3437SOL     OW11209   2.290   0.150   5.500
 3437SOL    HW111210   2.261   0.228   5.556
 3437SOL    HW211211   2.231   0.072   5.519
 3438SOL     OW11212   1.718   3.127   0.074
 3438SOL    HW111213   1.648   3.124   0.003
 3438SOL    HW211214   1.731   3.036   0.112
 3439SOL     OW11215   2.114   6.174   4.521
 3439SOL    HW111216   2.176   6.130   4.456
 3439SOL    HW211217   2.151   6.167   4.613
 3440SOL     OW11218   3.143   3.506   0.969
 3440SOL    HW111219   3.242   3.522   0.973
 3440SOL    HW211220   3.106   3.502   1.062
 3441SOL     OW11221   5.875   5.201   5.540
 3441SOL    HW111222   5.864   5.148   5.456
 3441SOL    HW211223   5.939   5.154   5.601
 3442SOL     OW11224   2.152   4.747   2.057
 3442SOL    HW111225   2.221   4.733   2.129
 3442SOL    HW211226   2.102   4.662   2.042
 3443SOL     OW11227   3.716   6.263   1.448
 3443SOL    HW111228   3.638   6.322   1.430
 3443SOL    HW211229   3.795   6.295   1.396
 3444SOL     OW11230   5.668   5.169   0.245
 3444SOL    HW111231   5.759   5.129   0.253
 3444SOL    HW211232   5.664   5.227   0.164
 3445SOL     OW11233   6.289   5.485   3.093
 3445SOL    HW111234   6.250   5.425   3.023
 3445SOL    HW211235   6.338   5.430   3.160
 3446SOL     OW11236   6.667   1.474   1.748
 3446SOL    HW111237   6.573   1.489   1.776
 3446SOL    HW211238   6.712   1.562   1.732
 3447SOL     OW11239   5.563   5.215   0.717
 3447SOL    HW111240   5.505   5.202   0.638
 3447SOL    HW211241   5.569   5.130   0.769
 3448SOL     OW11242   3.593   0.588   6.874
 3448SOL    HW111243   3.559   0.682   6.863
 3448SOL    HW211244   3.584   0.561   6.970
 3449SOL     OW11245   5.394   5.707   5.004
 3449SOL    HW111246   5.398   5.790   4.950
 3449SOL    HW211247   5.342   5.637   4.955
 3450SOL     OW11248   6.951   2.738   6.746
 3450SOL    HW111249   6.963   2.835   6.767
 3450SOL    HW211250   6.858   2.710   6.769
 3451SOL     OW11251   2.402   6.125   0.585
 3451SOL    HW111252   2.413   6.112   0.487
 3451SOL    HW211253   2.436   6.046   0.635
 3452SOL     OW11254   5.972   0.983   6.179
 3452SOL    HW111255   5.979   1.081   6.199
 3452SOL    HW211256   5.997   0.930   6.260
 3453SOL     OW11257   6.722   5.904   7.008
 3453SOL    HW111258   6.671   5.819   6.991
 3453SOL    HW211259   6.708   5.967   6.932
 3454SOL     OW11260   1.092   2.855   4.959
 3454SOL    HW111261   1.000   2.866   4.921
 3454SOL    HW211262   1.110   2.758   4.972
 3455SOL     OW11263   2.664   1.880   4.435
 3455SOL    HW111264   2.762   1.899   4.430
 3455SOL    HW211265   2.614   1.954   4.390
 3456SOL     OW11266   5.459   5.349   1.917
 3456SOL    HW111267   5.505   5.320   1.833
 3456SOL    HW211268   5.425   5.268   1.966
 3457SOL     OW11269   2.848   5.486   3.122
 3457SOL    HW111270   2.796   5.503   3.038
 3457SOL    HW211271   2.940   5.453   3.098
 3458SOL     OW11272   4.365   1.075   2.064
 3458SOL    HW111273   4.420   1.158   2.077
 3458SOL    HW211274   4.316   1.054   2.148
 3459SOL     OW11275   5.553   3.667   2.554
 3459SOL    HW111276   5.491   3.593   2.532
 3459SOL    HW211277   5.644   3.630   2.575
 3460SOL     OW11278   2.700   2.638   0.357
 3460SOL    HW111279   2.767   2.698   0.401
 3460SOL    HW211280   2.614   2.642   0.408
 3461SOL     OW11281   5.048   4.561   5.328
 3461SOL    HW111282   5.049   4.466   5.361
 3461SOL    HW211283   5.141   4.591   5.308
 3462SOL     OW11284   0.245   4.866   3.230
 3462SOL    HW111285   0.162   4.846   3.177
 3462SOL    HW211286   0.291   4.780   3.254
 3463SOL     OW11287   1.307   4.105   2.223
 3463SOL    HW111288   1.391   4.104   2.169
 3463SOL    HW211289   1.230   4.134   2.166
 3464SOL     OW11290   6.700   4.150   5.602
 3464SOL    HW111291   6.623   4.164   5.541
 3464SOL    HW211292   6.669   4.100   5.683
 3465SOL     OW11293   1.554   1.933   2.155
 3465SOL    HW111294   1.567   1.836   2.136
 3465SOL    HW211295   1.482   1.944   2.223
 3466SOL     OW11296   6.975   4.690   6.811
 3466SOL    HW111297   6.907   4.760   6.832
 3466SOL    HW211298   0.008   4.724   6.739
 3467SOL     OW11299   2.154   2.808   0.212
 3467SOL    HW111300   2.142   2.754   0.296
 3467SOL    HW211301   2.227   2.875   0.224
 3468SOL     OW11302   4.790   6.487   2.927
 3468SOL    HW111303   4.732   6.438   2.863
 3468SOL    HW211304   4.763   6.465   3.021
 3469SOL     OW11305   5.191   0.840   2.594
 3469SOL    HW111306   5.236   0.920   2.633
 3469SOL    HW211307   5.246   0.758   2.611
 3470SOL     OW11308   5.991   3.950   1.147
 3470SOL    HW111309   5.907   3.913   1.187
 3470SOL    HW211310   6.006   4.043   1.181
 3471SOL     OW11311   4.153   5.150   4.042
 3471SOL    HW111312   4.246   5.113   4.047
 3471SOL    HW211313   4.145   5.229   4.102
 3472SOL     OW11314   2.628   1.089   2.279
 3472SOL    HW111315   2.661   0.996   2.262
 3472SOL    HW211316   2.532   1.085   2.308
 3473SOL     OW11317   0.328   2.304   1.012
 3473SOL    HW111318   0.319   2.317   1.111
 3473SOL    HW211319   0.408   2.353   0.979
 3474SOL     OW11320   1.507   5.465   2.402
 3474SOL    HW111321   1.416   5.497   2.429
 3474SOL    HW211322   1.530   5.383   2.454
 3475SOL     OW11323   0.557   5.263   4.013
 3475SOL    HW111324   0.602   5.226   4.095
 3475SOL    HW211325   0.587   5.211   3.933
 3476SOL     OW11326   3.160   1.763   3.462
 3476SOL    HW111327   3.159   1.844   3.403
 3476SOL    HW211328   3.068   1.723   3.466
 3477SOL     OW11329   2.706   4.949   1.061
 3477SOL    HW111330   2.727   4.868   1.115
 3477SOL    HW211331   2.629   4.998   1.102
 3478SOL     OW11332   2.218   5.970   4.987
 3478SOL    HW111333   2.119   5.959   4.975
 3478SOL    HW211334   2.251   6.043   4.926
 3479SOL     OW11335   1.810   0.724   2.929
 3479SOL    HW111336   1.751   0.780   2.871
 3479SOL    HW211337   1.781   0.733   3.024
 3480SOL     OW11338   0.241   6.679   5.307
 3480SOL    HW111339   0.230   6.756   5.370
 3480SOL    HW211340   0.168   6.680   5.238
 3481SOL     OW11341   4.625   0.185   0.340
 3481SOL    HW111342   4.655   0.176   0.245
 3481SOL    HW211343   4.526   0.203   0.341
 3482SOL     OW11344   5.912   1.516   1.776
 3482SOL    HW111345   5.822   1.481   1.799
 3482SOL    HW211346   5.982   1.448   1.801
 3483SOL     OW11347   4.869   1.643   1.334
 3483SOL    HW111348   4.861   1.602   1.425
 3483SOL    HW211349   4.845   1.740   1.339
 3484SOL     OW11350   2.157   3.556   0.989
 3484SOL    HW111351   2.236   3.495   0.978
 3484SOL    HW211352   2.086   3.510   1.041
 3485SOL     OW11353   1.834   0.892   4.086
 3485SOL    HW111354   1.917   0.877   4.032
 3485SOL    HW211355   1.855   0.951   4.164
 3486SOL     OW11356   2.846   1.322   3.140
 3486SOL    HW111357   2.914   1.296   3.209
 3486SOL    HW211358   2.827   1.243   3.081
 3487SOL     OW11359   5.524   2.613   5.708
 3487SOL    HW111360   5.473   2.539   5.750
 3487SOL    HW211361   5.617   2.615   5.746
 3488SOL     OW11362   6.104   1.540   4.635
 3488SOL    HW111363   6.011   1.515   4.660
 3488SOL    HW211364   6.122   1.635   4.663
 3489SOL     OW11365   2.994   6.983   0.546
 3489SOL    HW111366   2.958   6.974   0.639
 3489SOL    HW211367   3.031   6.895   0.515
 3490SOL     OW11368   4.015   4.706   0.137
 3490SOL    HW111369   3.948   4.637   0.164
 3490SOL    HW211370   4.096   4.661   0.100
 3491SOL     OW11371   5.705   3.156   5.396
 3491SOL    HW111372   5.648   3.095   5.341
 3491SOL    HW211373   5.666   3.248   5.395
 3492SOL     OW11374   0.519   5.712   1.386
 3492SOL    HW111375   0.565   5.782   1.439
 3492SOL    HW211376   0.586   5.643   1.356
 3493SOL     OW11377   5.355   4.272   6.417
 3493SOL    HW111378   5.260   4.245   6.396
 3493SOL    HW211379   5.373   4.362   6.379
 3494SOL     OW11380   3.909   0.764   1.625
 3494SOL    HW111381   4.008   0.778   1.630
 3494SOL    HW211382   3.890   0.666   1.628
 3495SOL     OW11383   4.712   5.065   2.331
 3495SOL    HW111384   4.671   5.155   2.322
 3495SOL    HW211385   4.757   5.040   2.244
 3496SOL     OW11386   6.857   4.051   0.413
 3496SOL    HW111387   6.826   3.981   0.478
 3496SOL    HW211388   6.836   4.022   0.320
 3497SOL     OW11389   3.100   0.767   3.303
 3497SOL    HW111390   3.133   0.695   3.243
 3497SOL    HW211391   3.177   0.809   3.352
 3498SOL     OW11392   2.259   2.234   0.943
 3498SOL    HW111393   2.321   2.211   0.868
 3498SOL    HW211394   2.222   2.326   0.929
 3499SOL     OW11395   4.809   2.831   4.218
 3499SOL    HW111396   4.735   2.766   4.197
 3499SOL    HW211397   4.818   2.839   4.317
 3500SOL     OW11398   1.675   3.361   5.394
 3500SOL    HW111399   1.628   3.445   5.367
 3500SOL    HW211400   1.762   3.354   5.344
 3501SOL     OW11401   1.730   5.272   4.304
 3501SOL    HW111402   1.702   5.302   4.213
 3501SOL    HW211403   1.681   5.188   4.328
 3502SOL     OW11404   6.305   2.690   2.358
 3502SOL    HW111405   6.242   2.657   2.288
 3502SOL    HW211406   6.316   2.789   2.349
 3503SOL     OW11407   6.581   6.455   4.882
 3503SOL    HW111408   6.643   6.421   4.953
 3503SOL    HW211409   6.538   6.378   4.836
 3504SOL     OW11410   1.819   1.999   1.227
 3504SOL    HW111411   1.858   1.953   1.307
 3504SOL    HW211412   1.744   1.943   1.190
 3505SOL     OW11413   5.238   4.936   4.884
 3505SOL    HW111414   5.286   4.977   4.806
 3505SOL    HW211415   5.188   4.855   4.853
 3506SOL     OW11416   4.948   5.491   6.362
 3506SOL    HW111417   4.969   5.525   6.271
 3506SOL    HW211418   5.007   5.413   6.383
 3507SOL     OW11419   2.291   0.859   0.454
 3507SOL    HW111420   2.218   0.830   0.392
 3507SOL    HW211421   2.370   0.799   0.442
 3508SOL     OW11422   3.231   2.474   5.895
 3508SOL    HW111423   3.303   2.424   5.943
 3508SOL    HW211424   3.265   2.564   5.868
 3509SOL     OW11425   5.759   6.839   5.776
 3509SOL    HW111426   5.850   6.851   5.736
 3509SOL    HW211427   5.731   6.923   5.822
 3510SOL     OW11428   1.704   2.255   1.515
 3510SOL    HW111429   1.669   2.333   1.566
 3510SOL    HW211430   1.749   2.287   1.432
 3511SOL     OW11431   1.941   4.698   0.891
 3511SOL    HW111432   1.987   4.722   0.805
 3511SOL    HW211433   1.899   4.608   0.882
 3512SOL     OW11434   0.327   4.901   0.551
 3512SOL    HW111435   0.378   4.818   0.528
 3512SOL    HW211436   0.239   4.902   0.502
 3513SOL     OW11437   6.000   3.585   0.467
 3513SOL    HW111438   6.052   3.513   0.421
 3513SOL    HW211439   5.984   3.558   0.562
 3514SOL     OW11440   0.492   1.567   2.048
 3514SOL    HW111441   0.415   1.601   1.995
 3514SOL    HW211442   0.459   1.514   2.126
 3515SOL     OW11443   4.155   6.165   3.138
 3515SOL    HW111444   4.130   6.076   3.177
 3515SOL    HW211445   4.084   6.195   3.074
 3516SOL     OW11446   4.649   6.888   0.846
 3516SOL    HW111447   4.692   6.804   0.878
 3516SOL    HW211448   4.657   6.958   0.917
 3517SOL     OW11449   0.733   2.169   0.795
 3517SOL    HW111450   0.751   2.227   0.874
 3517SOL    HW211451   0.797   2.191   0.722
 3518SOL     OW11452   5.817   4.008   4.899
 3518SOL    HW111453   5.727   3.997   4.940
 3518SOL    HW211454   5.808   4.034   4.803
 3519SOL     OW11455   0.975   0.878   6.186
 3519SOL    HW111456   0.990   0.845   6.279
 3519SOL    HW211457   0.954   0.801   6.126
 3520SOL     OW11458   3.134   5.514   6.975
 3520SOL    HW111459   3.036   5.533   6.975
 3520SOL    HW211460   3.181   5.580   6.915
 3521SOL     OW11461   5.352   3.406   0.402
 3521SOL    HW111462   5.297   3.478   0.359
 3521SOL    HW211463   5.421   3.374   0.337
 3522SOL     OW11464   5.961   5.142   1.737
 3522SOL    HW111465   6.021   5.096   1.803
 3522SOL    HW211466   5.952   5.239   1.762
 3523SOL     OW11467   2.947   4.846   5.790
 3523SOL    HW111468   3.045   4.857   5.776
 3523SOL    HW211469   2.903   4.821   5.704
 3524SOL     OW11470   3.355   1.173   0.994
 3524SOL    HW111471   3.409   1.225   0.927
 3524SOL    HW211472   3.388   1.079   0.998
 3525SOL     OW11473   1.064   4.183   2.100
 3525SOL    HW111474   1.104   4.243   2.030
 3525SOL    HW211475   0.984   4.137   2.062
 3526SOL     OW11476   2.849   6.405   3.575
 3526SOL    HW111477   2.799   6.322   3.601
 3526SOL    HW211478   2.947   6.388   3.580
 3527SOL     OW11479   6.272   3.573   6.151
 3527SOL    HW111480   6.275   3.483   6.107
 3527SOL    HW211481   6.177   3.604   6.157
 3528SOL     OW11482   0.903   5.154   3.775
 3528SOL    HW111483   0.807   5.164   3.751
 3528SOL    HW211484   0.911   5.107   3.863
 3529SOL     OW11485   5.151   6.628   6.379
 3529SOL    HW111486   5.118   6.711   6.424
 3529SOL    HW211487   5.228   6.592   6.430
 3530SOL     OW11488   1.469   5.348   3.404
 3530SOL    HW111489   1.387   5.331   3.459
 3530SOL    HW211490   1.521   5.423   3.445
 3531SOL     OW11491   4.519   3.963   1.288
 3531SOL    HW111492   4.570   4.039   1.328
 3531SOL    HW211493   4.430   3.956   1.332
 3532SOL     OW11494   2.457   1.023   0.899
 3532SOL    HW111495   2.390   1.068   0.840
 3532SOL    HW211496   2.549   1.057   0.878
 3533SOL     OW11497   1.680   1.772   2.429
 3533SOL    HW111498   1.769   1.814   2.450
 3533SOL    HW211499   1.612   1.844   2.416
 3534SOL     OW11500   5.694   0.957   5.139
 3534SOL    HW111501   5.638   1.037   5.117
 3534SOL    HW211502   5.638   0.889   5.187
 3535SOL     OW11503   0.714   6.013   0.613
 3535SOL    HW111504   0.621   6.019   0.649
 3535SOL    HW211505   0.753   6.105   0.606
 3536SOL     OW11506   2.003   1.921   4.380
 3536SOL    HW111507   2.100   1.943   4.377
 3536SOL    HW211508   1.990   1.824   4.360
 3537SOL     OW11509   2.524   5.256   0.568
 3537SOL    HW111510   2.455   5.189   0.540
 3537SOL    HW211511   2.487   5.348   0.559
 3538SOL     OW11512   1.550   0.361   5.181
 3538SOL    HW111513   1.507   0.437   5.131
 3538SOL    HW211514   1.552   0.280   5.123
 3539SOL     OW11515   5.580   3.569   6.561
 3539SOL    HW111516   5.516   3.640   6.590
 3539SOL    HW211517   5.529   3.494   6.518
 3540SOL     OW11518   2.111   2.237   5.554
 3540SOL    HW111519   2.116   2.303   5.629
 3540SOL    HW211520   2.016   2.228   5.524
 3541SOL     OW11521   2.326   2.437   6.050
 3541SOL    HW111522   2.272   2.353   6.053
 3541SOL    HW211523   2.266   2.514   6.027
 3542SOL     OW11524   0.335   3.924   1.700
 3542SOL    HW111525   0.272   3.855   1.664
 3542SOL    HW211526   0.310   4.013   1.663
 3543SOL     OW11527   0.815   3.553   5.904
 3543SOL    HW111528   0.822   3.641   5.951
 3543SOL    HW211529   0.878   3.553   5.826
 3544SOL     OW11530   2.145   4.737   6.339
 3544SOL    HW111531   2.116   4.764   6.247
 3544SOL    HW211532   2.243   4.754   6.350
 3545SOL     OW11533   3.802   5.081   0.755
 3545SOL    HW111534   3.727   5.034   0.708
 3545SOL    HW211535   3.854   5.015   0.809
 3546SOL     OW11536   0.108   4.492   2.793
 3546SOL    HW111537   0.203   4.521   2.785
 3546SOL    HW211538   0.053   4.536   2.722
 3547SOL     OW11539   6.031   4.440   4.517
 3547SOL    HW111540   5.953   4.444   4.454
 3547SOL    HW211541   6.072   4.349   4.513
 3548SOL     OW11542   4.962   0.364   5.380
 3548SOL    HW111543   5.010   0.338   5.296
 3548SOL    HW211544   4.864   0.364   5.364
 3549SOL     OW11545   0.332   4.470   6.440
 3549SOL    HW111546   0.307   4.535   6.512
 3549SOL    HW211547   0.421   4.495   6.402
 3550SOL     OW11548   6.009   2.964   4.277
 3550SOL    HW111549   5.944   3.011   4.337
 3550SOL    HW211550   6.000   2.865   4.289
 3551SOL     OW11551   3.578   1.661   3.949
 3551SOL    HW111552   3.621   1.741   3.907
 3551SOL    HW211553   3.580   1.585   3.883
 3552SOL     OW11554   6.075   0.130   1.395
 3552SOL    HW111555   6.087   0.218   1.348
 3552SOL    HW211556   6.047   0.146   1.490
 3553SOL     OW11557   3.863   5.512   0.545
 3553SOL    HW111558   3.860   5.412   0.540
 3553SOL    HW211559   3.927   5.547   0.476
 3554SOL     OW11560   4.652   2.322   0.834
 3554SOL    HW111561   4.687   2.399   0.781
 3554SOL    HW211562   4.701   2.239   0.808
 3555SOL     OW11563   0.767   3.883   4.949
 3555SOL    HW111564   0.754   3.942   4.870
 3555SOL    HW211565   0.679   3.860   4.990
 3556SOL     OW11566   4.139   0.490   3.956
 3556SOL    HW111567   4.120   0.536   4.043
 3556SOL    HW211568   4.169   0.396   3.974
 3557SOL     OW11569   1.353   0.498   3.733
 3557SOL    HW111570   1.374   0.456   3.645
 3557SOL    HW211571   1.289   0.439   3.784
 3558SOL     OW11572   1.310   6.226   2.599
 3558SOL    HW111573   1.229   6.285   2.603
 3558SOL    HW211574   1.362   6.235   2.683
 3559SOL     OW11575   0.770   6.135   5.448
 3559SOL    HW111576   0.678   6.143   5.488
 3559SOL    HW211577   0.765   6.078   5.366
 3560SOL     OW11578   2.380   5.134   2.356
 3560SOL    HW111579   2.392   5.214   2.298
 3560SOL    HW211580   2.446   5.137   2.432
 3561SOL     OW11581   4.598   4.035   5.441
 3561SOL    HW111582   4.638   4.037   5.350
 3561SOL    HW211583   4.502   4.007   5.435
 3562SOL     OW11584   3.742   0.888   2.812
 3562SOL    HW111585   3.770   0.953   2.883
 3562SOL    HW211586   3.753   0.931   2.722
 3563SOL     OW11587   6.152   1.839   0.619
 3563SOL    HW111588   6.197   1.922   0.652
 3563SOL    HW211589   6.130   1.780   0.697
 3564SOL     OW11590   1.183   4.502   3.029
 3564SOL    HW111591   1.110   4.469   2.969
 3564SOL    HW211592   1.152   4.586   3.075
 3565SOL     OW11593   3.089   6.404   4.471
 3565SOL    HW111594   3.005   6.357   4.446
 3565SOL    HW211595   3.110   6.475   4.404
 3566SOL     OW11596   6.463   3.389   6.763
 3566SOL    HW111597   6.449   3.308   6.819
 3566SOL    HW211598   6.376   3.439   6.754
 3567SOL     OW11599   0.456   1.955   6.510
 3567SOL    HW111600   0.447   1.885   6.581
 3567SOL    HW211601   0.551   1.961   6.480
 3568SOL     OW11602   4.868   4.024   4.235
 3568SOL    HW111603   4.960   3.993   4.211
 3568SOL    HW211604   4.852   4.010   4.332
 3569SOL     OW11605   2.231   1.965   6.106
 3569SOL    HW111606   2.193   1.949   6.197
 3569SOL    HW211607   2.330   1.959   6.110
 3570SOL     OW11608   5.076   0.159   6.088
 3570SOL    HW111609   5.131   0.227   6.039
 3570SOL    HW211610   5.035   0.096   6.022
 3571SOL     OW11611   1.113   5.181   5.818
 3571SOL    HW111612   1.092   5.208   5.724
 3571SOL    HW211613   1.098   5.259   5.880
 3572SOL     OW11614   6.198   4.225   2.629
 3572SOL    HW111615   6.117   4.175   2.660
 3572SOL    HW211616   6.199   4.228   2.529
 3573SOL     OW11617   0.261   5.143   3.632
 3573SOL    HW111618   0.217   5.146   3.543
 3573SOL    HW211619   0.358   5.164   3.622
 3574SOL     OW11620   0.395   3.787   1.291
 3574SOL    HW111621   0.494   3.782   1.281
 3574SOL    HW211622   0.356   3.695   1.281
 3575SOL     OW11623   4.905   4.861   2.772
 3575SOL    HW111624   4.859   4.861   2.861
 3575SOL    HW211625   4.855   4.802   2.709
 3576SOL     OW11626   0.180   1.972   5.874
 3576SOL    HW111627   0.131   2.051   5.837
 3576SOL    HW211628   0.237   1.931   5.803
 3577SOL     OW11629   1.898   2.078   5.960
 3577SOL    HW111630   1.885   1.989   6.004
 3577SOL    HW211631   1.822   2.139   5.983
 3578SOL     OW11632   3.508   2.351   0.524
 3578SOL    HW111633   3.502   2.412   0.603
 3578SOL    HW211634   3.583   2.380   0.465
 3579SOL     OW11635   6.819   2.774   4.214
 3579SOL    HW111636   6.759   2.813   4.145
 3579SOL    HW211637   6.849   2.683   4.186
 3580SOL     OW11638   5.411   3.473   1.841
 3580SOL    HW111639   5.339   3.541   1.854
 3580SOL    HW211640   5.500   3.518   1.836
 3581SOL     OW11641   0.665   6.384   3.603
 3581SOL    HW111642   0.722   6.438   3.665
 3581SOL    HW211643   0.711   6.373   3.515
 3582SOL     OW11644   1.131   2.511   5.633
 3582SOL    HW111645   1.204   2.467   5.684
 3582SOL    HW211646   1.164   2.598   5.596
 3583SOL     OW11647   0.949   3.956   6.583
 3583SOL    HW111648   0.867   3.916   6.624
 3583SOL    HW211649   0.968   3.911   6.496
 3584SOL     OW11650   6.011   5.311   6.702
 3584SOL    HW111651   5.971   5.229   6.743
 3584SOL    HW211652   5.997   5.310   6.603
 3585SOL     OW11653   3.686   0.001   4.780
 3585SOL    HW111654   3.674   6.935   4.813
 3585SOL    HW211655   3.624   0.019   4.704
 3586SOL     OW11656   0.066   1.598   4.795
 3586SOL    HW111657   0.151   1.588   4.848
 3586SOL    HW211658   0.060   1.524   4.729
 3587SOL     OW11659   2.832   5.484   6.838
 3587SOL    HW111660   2.849   5.493   6.936
 3587SOL    HW211661   2.744   5.439   6.824
 3588SOL     OW11662   1.691   2.228   6.045
 3588SOL    HW111663   1.608   2.172   6.057
 3588SOL    HW211664   1.684   2.280   5.959
 3589SOL     OW11665   3.706   1.401   4.787
 3589SOL    HW111666   3.800   1.370   4.775
 3589SOL    HW211667   3.691   1.485   4.736
 3590SOL     OW11668   0.942   2.857   6.770
 3590SOL    HW111669   1.009   2.784   6.786
 3590SOL    HW211670   0.972   2.912   6.691
 3591SOL     OW11671   5.050   3.633   6.419
 3591SOL    HW111672   4.958   3.602   6.395
 3591SOL    HW211673   5.085   3.580   6.496
 3592SOL     OW11674   6.998   4.689   1.557
 3592SOL    HW111675   0.024   4.608   1.581
 3592SOL    HW211676   0.030   4.754   1.507
 3593SOL     OW11677   0.812   6.115   4.935
 3593SOL    HW111678   0.728   6.126   4.881
 3593SOL    HW211679   0.888   6.094   4.874
 3594SOL     OW11680   4.254   0.240   3.242
 3594SOL    HW111681   4.188   0.311   3.265
 3594SOL    HW211682   4.205   0.156   3.218
 3595SOL     OW11683   3.511   5.836   0.218
 3595SOL    HW111684   3.599   5.790   0.202
 3595SOL    HW211685   3.519   5.893   0.300
 3596SOL     OW11686   6.208   3.091   3.353
 3596SOL    HW111687   6.298   3.131   3.331
 3596SOL    HW211688   6.139   3.163   3.355
 3597SOL     OW11689   1.663   2.130   4.834
 3597SOL    HW111690   1.688   2.036   4.854
 3597SOL    HW211691   1.610   2.134   4.750
 3598SOL     OW11692   0.811   5.452   6.020
 3598SOL    HW111693   0.902   5.412   6.028
 3598SOL    HW211694   0.808   5.538   6.070
 3599SOL     OW11695   6.727   2.157   6.215
 3599SOL    HW111696   6.801   2.090   6.225
 3599SOL    HW211697   6.703   2.194   6.305
 3600SOL     OW11698   0.794   3.288   1.443
 3600SOL    HW111699   0.703   3.255   1.420
 3600SOL    HW211700   0.861   3.250   1.378
 3601SOL     OW11701   5.432   4.630   6.526
 3601SOL    HW111702   5.473   4.719   6.507
 3601SOL    HW211703   5.407   4.587   6.439
 3602SOL     OW11704   1.893   2.670   0.686
 3602SOL    HW111705   1.871   2.590   0.630
 3602SOL    HW211706   1.843   2.665   0.773
 3603SOL     OW11707   3.225   0.485   3.446
 3603SOL    HW111708   3.215   0.385   3.438
 3603SOL    HW211709   3.319   0.510   3.424
 3604SOL     OW11710   6.555   5.329   3.175
 3604SOL    HW111711   6.587   5.325   3.081
 3604SOL    HW211712   6.618   5.384   3.229
 3605SOL     OW11713   6.652   3.676   5.044
 3605SOL    HW111714   6.726   3.625   5.090
 3605SOL    HW211715   6.626   3.628   4.960
 3606SOL     OW11716   6.951   0.089   4.646
 3606SOL    HW111717   7.024   0.131   4.701
 3606SOL    HW211718   6.983   0.077   4.552
 3607SOL     OW11719   5.795   5.608   1.874
 3607SOL    HW111720   5.714   5.550   1.867
 3607SOL    HW211721   5.816   5.645   1.784
 3608SOL     OW11722   5.789   2.392   3.724
 3608SOL    HW111723   5.866   2.337   3.755
 3608SOL    HW211724   5.782   2.474   3.780
 3609SOL     OW11725   1.456   6.813   4.209
 3609SOL    HW111726   1.510   6.774   4.284
 3609SOL    HW211727   1.508   6.806   4.124
 3610SOL     OW11728   1.520   6.866   5.277
 3610SOL    HW111729   1.603   6.815   5.256
 3610SOL    HW211730   1.466   6.816   5.344
 3611SOL     OW11731   4.386   5.728   5.437
 3611SOL    HW111732   4.466   5.742   5.495
 3611SOL    HW211733   4.305   5.715   5.494
 3612SOL     OW11734   6.546   7.002   0.079
 3612SOL    HW111735   6.626   6.995   0.019
 3612SOL    HW211736   6.479   0.037   0.039
 3613SOL     OW11737   4.547   5.321   2.073
 3613SOL    HW111738   4.571   5.307   2.169
 3613SOL    HW211739   4.630   5.339   2.021
 3614SOL     OW11740   4.229   3.278   1.431
 3614SOL    HW111741   4.268   3.361   1.471
 3614SOL    HW211742   4.203   3.214   1.504
 3615SOL     OW11743   5.038   5.625   6.898
 3615SOL    HW111744   5.070   5.619   6.804
 3615SOL    HW211745   5.001   5.716   6.915
 3616SOL     OW11746   0.764   2.250   6.928
 3616SOL    HW111747   0.691   2.316   6.946
 3616SOL    HW211748   0.828   2.248   7.005
 3617SOL     OW11749   3.858   1.568   6.879
 3617SOL    HW111750   3.915   1.618   6.944
 3617SOL    HW211751   3.762   1.576   6.905
 3618SOL     OW11752   2.110   2.493   5.258
 3618SOL    HW111753   2.113   2.581   5.305
 3618SOL    HW211754   2.146   2.503   5.165
 3619SOL     OW11755   5.947   3.160   4.640
 3619SOL    HW111756   5.886   3.125   4.569
 3619SOL    HW211757   6.042   3.146   4.613
 3620SOL     OW11758   6.289   6.363   6.062
 3620SOL    HW111759   6.275   6.307   6.143
 3620SOL    HW211760   6.354   6.318   6.001
 3621SOL     OW11761   3.496   2.906   5.071
 3621SOL    HW111762   3.591   2.883   5.093
 3621SOL    HW211763   3.441   2.904   5.154
 3622SOL     OW11764   1.880   1.871   5.456
 3622SOL    HW111765   1.849   1.844   5.365
 3622SOL    HW211766   1.978   1.851   5.465
 3623SOL     OW11767   6.144   5.757   4.291
 3623SOL    HW111768   6.056   5.761   4.243
 3623SOL    HW211769   6.213   5.804   4.236
 3624SOL     OW11770   1.561   6.615   1.577
 3624SOL    HW111771   1.477   6.611   1.631
 3624SOL    HW211772   1.589   6.522   1.551
 3625SOL     OW11773   6.285   2.820   6.850
 3625SOL    HW111774   6.196   2.773   6.845
 3625SOL    HW211775   6.278   2.910   6.807
 3626SOL     OW11776   1.221   1.847   6.040
 3626SOL    HW111777   1.311   1.803   6.052
 3626SOL    HW211778   1.220   1.897   5.954
 3627SOL     OW11779   3.570   2.987   2.587
 3627SOL    HW111780   3.565   3.086   2.574
 3627SOL    HW211781   3.602   2.967   2.680
 3628SOL     OW11782   1.741   1.050   2.004
 3628SOL    HW111783   1.788   1.130   1.967
 3628SOL    HW211784   1.652   1.040   1.959
 3629SOL     OW11785   0.067   1.000   5.565
 3629SOL    HW111786   0.016   1.007   5.651
 3629SOL    HW211787   0.142   0.935   5.576
 3630SOL     OW11788   5.010   2.785   4.020
 3630SOL    HW111789   5.026   2.699   3.973
 3630SOL    HW211790   4.936   2.773   4.086
 3631SOL     OW11791   2.098   0.984   3.531
 3631SOL    HW111792   2.189   1.013   3.562
 3631SOL    HW211793   2.107   0.902   3.476
 3632SOL     OW11794   5.628   5.873   1.511
 3632SOL    HW111795   5.578   5.958   1.523
 3632SOL    HW211796   5.602   5.808   1.582
 3633SOL     OW11797   4.096   1.692   6.158
 3633SOL    HW111798   4.040   1.762   6.111
 3633SOL    HW211799   4.193   1.708   6.138
 3634SOL     OW11800   1.628   4.258   4.617
 3634SOL    HW111801   1.668   4.167   4.623
 3634SOL    HW211802   1.538   4.258   4.662
 3635SOL     OW11803   3.679   0.263   0.412
 3635SOL    HW111804   3.730   0.178   0.428
 3635SOL    HW211805   3.723   0.316   0.339
 3636SOL     OW11806   0.314   5.604   0.749
 3636SOL    HW111807   0.400   5.653   0.734
 3636SOL    HW211808   0.237   5.663   0.728
 3637SOL     OW11809   0.082   1.815   2.374
 3637SOL    HW111810   0.126   1.727   2.356
 3637SOL    HW211811   0.033   1.846   2.293
 3638SOL     OW11812   0.797   4.601   3.350
 3638SOL    HW111813   0.800   4.566   3.444
 3638SOL    HW211814   0.786   4.700   3.352
 3639SOL     OW11815   3.387   4.824   0.723
 3639SOL    HW111816   3.411   4.743   0.670
 3639SOL    HW211817   3.305   4.866   0.684
 3640SOL     OW11818   4.613   0.606   0.677
 3640SOL    HW111819   4.629   0.659   0.760
 3640SOL    HW211820   4.698   0.597   0.625
 3641SOL     OW11821   5.183   3.907   2.271
 3641SOL    HW111822   5.177   3.841   2.347
 3641SOL    HW211823   5.277   3.941   2.264
 3642SOL     OW11824   5.564   0.923   6.898
 3642SOL    HW111825   5.549   0.973   6.984
 3642SOL    HW211826   5.529   0.977   6.822
 3643SOL     OW11827   3.304   5.895   4.522
 3643SOL    HW111828   3.245   5.824   4.486
 3643SOL    HW211829   3.254   5.982   4.524
 3644SOL     OW11830   0.153   1.011   1.476
 3644SOL    HW111831   0.131   1.059   1.561
 3644SOL    HW211832   0.190   0.921   1.498
 3645SOL     OW11833   0.441   2.742   3.736
 3645SOL    HW111834   0.393   2.805   3.797
 3645SOL    HW211835   0.516   2.791   3.690
 3646SOL     OW11836   0.892   3.958   6.238
 3646SOL    HW111837   0.817   4.017   6.269
 3646SOL    HW211838   0.857   3.865   6.225
 3647SOL     OW11839   2.711   5.291   5.827
 3647SOL    HW111840   2.734   5.198   5.854
 3647SOL    HW211841   2.612   5.305   5.839
 3648SOL     OW11842   3.903   4.880   1.950
 3648SOL    HW111843   3.810   4.846   1.935
 3648SOL    HW211844   3.903   4.980   1.945
 3649SOL     OW11845   5.174   3.228   1.695
 3649SOL    HW111846   5.175   3.324   1.667
 3649SOL    HW211847   5.268   3.197   1.709
 3650SOL     OW11848   6.498   5.757   1.458
 3650SOL    HW111849   6.571   5.825   1.459
 3650SOL    HW211850   6.488   5.718   1.549
 3651SOL     OW11851   0.963   6.862   4.658
 3651SOL    HW111852   0.902   6.868   4.737
 3651SOL    HW211853   0.995   6.954   4.634
 3652SOL     OW11854   5.582   6.591   3.152
 3652SOL    HW111855   5.549   6.661   3.088
 3652SOL    HW211856   5.671   6.620   3.189
 3653SOL     OW11857   0.830   1.606   3.706
 3653SOL    HW111858   0.856   1.603   3.803
 3653SOL    HW211859   0.799   1.698   3.683
 3654SOL     OW11860   3.280   4.214   0.603
 3654SOL    HW111861   3.206   4.147   0.602
 3654SOL    HW211862   3.261   4.285   0.670
 3655SOL     OW11863   1.971   5.804   4.145
 3655SOL    HW111864   1.935   5.714   4.122
 3655SOL    HW211865   2.043   5.828   4.080
 3656SOL     OW11866   0.334   4.193   1.306
 3656SOL    HW111867   0.359   4.211   1.211
 3656SOL    HW211868   0.319   4.095   1.319
 3657SOL     OW11869   5.538   5.873   5.854
 3657SOL    HW111870   5.539   5.902   5.950
 3657SOL    HW211871   5.496   5.944   5.798
 3658SOL     OW11872   1.898   5.145   6.048
 3658SOL    HW111873   1.984   5.169   6.094
 3658SOL    HW211874   1.899   5.047   6.026
 3659SOL     OW11875   2.308   3.838   6.433
 3659SOL    HW111876   2.272   3.931   6.443
 3659SOL    HW211877   2.312   3.814   6.336
 3660SOL     OW11878   5.618   6.204   3.485
 3660SOL    HW111879   5.546   6.232   3.548
 3660SOL    HW211880   5.615   6.104   3.474
 3661SOL     OW11881   5.812   0.376   5.073
 3661SOL    HW111882   5.884   0.331   5.020
 3661SOL    HW211883   5.741   0.309   5.096
 3662SOL     OW11884   3.441   0.655   3.831
 3662SOL    HW111885   3.440   0.694   3.739
 3662SOL    HW211886   3.423   0.727   3.898
 3663SOL     OW11887   1.933   2.048   0.035
 3663SOL    HW111888   2.011   2.080   0.090
 3663SOL    HW211889   1.967   2.017   6.973
 3664SOL     OW11890   4.946   2.611   1.616
 3664SOL    HW111891   4.975   2.693   1.567
 3664SOL    HW211892   4.961   2.623   1.714
 3665SOL     OW11893   1.638   6.578   4.925
 3665SOL    HW111894   1.644   6.507   4.855
 3665SOL    HW211895   1.542   6.590   4.952
 3666SOL     OW11896   0.704   3.428   3.270
 3666SOL    HW111897   0.723   3.330   3.277
 3666SOL    HW211898   0.686   3.464   3.361
 3667SOL     OW11899   0.940   1.483   3.509
 3667SOL    HW111900   0.898   1.524   3.590
 3667SOL    HW211901   1.034   1.517   3.499
 3668SOL     OW11902   1.411   1.115   0.900
 3668SOL    HW111903   1.328   1.064   0.924
 3668SOL    HW211904   1.489   1.078   0.952
 3669SOL     OW11905   5.268   1.587   3.630
 3669SOL    HW111906   5.197   1.609   3.696
 3669SOL    HW211907   5.230   1.525   3.561
 3670SOL     OW11908   1.955   5.354   0.154
 3670SOL    HW111909   2.042   5.356   0.203
 3670SOL    HW211910   1.881   5.377   0.216
 3671SOL     OW11911   7.009   2.220   4.145
 3671SOL    HW111912   0.061   2.210   4.084
 3671SOL    HW211913   7.011   2.148   4.214
 3672SOL     OW11914   4.966   1.773   1.639
 3672SOL    HW111915   5.043   1.765   1.704
 3672SOL    HW211916   4.958   1.868   1.609
 3673SOL     OW11917   3.721   6.287   6.822
 3673SOL    HW111918   3.641   6.253   6.870
 3673SOL    HW211919   3.710   6.385   6.802
 3674SOL     OW11920   1.466   5.187   6.129
 3674SOL    HW111921   1.500   5.100   6.164
 3674SOL    HW211922   1.432   5.176   6.036
 3675SOL     OW11923   2.182   3.160   4.088
 3675SOL    HW111924   2.172   3.121   4.179
 3675SOL    HW211925   2.163   3.259   4.092
 3676SOL     OW11926   5.665   4.759   3.034
 3676SOL    HW111927   5.630   4.766   3.127
 3676SOL    HW211928   5.629   4.677   2.991
 3677SOL     OW11929   2.575   6.267   3.834
 3677SOL    HW111930   2.533   6.321   3.907
 3677SOL    HW211931   2.640   6.202   3.874
 3678SOL     OW11932   0.197   1.670   4.498
 3678SOL    HW111933   0.149   1.758   4.495
 3678SOL    HW211934   0.293   1.685   4.523
 3679SOL     OW11935   0.542   0.562   3.710
 3679SOL    HW111936   0.564   0.543   3.806
 3679SOL    HW211937   0.479   0.639   3.705
 3680SOL     OW11938   5.216   3.200   3.914
 3680SOL    HW111939   5.266   3.224   3.997
 3680SOL    HW211940   5.215   3.100   3.903
 3681SOL     OW11941   0.284   1.034   6.493
 3681SOL    HW111942   0.232   1.057   6.575
 3681SOL    HW211943   0.377   1.067   6.502
 3682SOL     OW11944   5.287   2.226   6.753
 3682SOL    HW111945   5.382   2.234   6.783
 3682SOL    HW211946   5.226   2.258   6.825
 3683SOL     OW11947   6.767   1.528   3.731
 3683SOL    HW111948   6.769   1.471   3.813
 3683SOL    HW211949   6.820   1.611   3.746
 3684SOL     OW11950   1.265   4.718   0.089
 3684SOL    HW111951   1.314   4.632   0.103
 3684SOL    HW211952   1.322   4.780   0.035
 3685SOL     OW11953   1.594   6.088   6.361
 3685SOL    HW111954   1.643   6.163   6.405
 3685SOL    HW211955   1.519   6.124   6.305
 3686SOL     OW11956   5.047   5.694   4.181
 3686SOL    HW111957   5.028   5.782   4.224
 3686SOL    HW211958   5.018   5.698   4.085
 3687SOL     OW11959   3.588   6.071   4.649
 3687SOL    HW111960   3.523   6.024   4.708
 3687SOL    HW211961   3.681   6.043   4.672
 3688SOL     OW11962   0.620   3.567   6.648
 3688SOL    HW111963   0.712   3.604   6.648
 3688SOL    HW211964   0.555   3.639   6.619
 3689SOL     OW11965   2.179   6.943   5.580
 3689SOL    HW111966   2.247   6.882   5.541
 3689SOL    HW211967   2.090   6.896   5.583
 3690SOL     OW11968   4.493   6.019   0.255
 3690SOL    HW111969   4.581   6.000   0.298
 3690SOL    HW211970   4.437   5.936   0.254
 3691SOL     OW11971   2.428   1.540   5.837
 3691SOL    HW111972   2.483   1.612   5.879
 3691SOL    HW211973   2.465   1.451   5.862
 3692SOL     OW11974   6.911   5.504   5.293
 3692SOL    HW111975   6.930   5.414   5.254
 3692SOL    HW211976   6.882   5.566   5.220
 3693SOL     OW11977   2.150   3.693   3.081
 3693SOL    HW111978   2.142   3.636   2.999
 3693SOL    HW211979   2.181   3.636   3.157
 3694SOL     OW11980   1.264   6.657   2.581
 3694SOL    HW111981   1.339   6.670   2.515
 3694SOL    HW211982   1.196   6.730   2.569
 3695SOL     OW11983   5.726   3.606   2.100
 3695SOL    HW111984   5.711   3.508   2.117
 3695SOL    HW211985   5.767   3.617   2.009
 3696SOL     OW11986   3.942   6.483   4.482
 3696SOL    HW111987   3.862   6.540   4.465
 3696SOL    HW211988   3.913   6.395   4.518
 3697SOL     OW11989   0.014   6.440   2.532
 3697SOL    HW111990   0.076   6.510   2.567
 3697SOL    HW211991   6.947   6.464   2.555
 3698SOL     OW11992   3.046   0.955   4.332
 3698SOL    HW111993   3.008   0.893   4.263
 3698SOL    HW211994   2.972   0.988   4.391
 3699SOL     OW11995   1.507   2.594   4.249
 3699SOL    HW111996   1.461   2.605   4.337
 3699SOL    HW211997   1.473   2.512   4.204
 3700SOL     OW11998   0.813   4.834   4.620
 3700SOL    HW111999   0.887   4.791   4.672
 3700SOL    HW212000   0.800   4.786   4.534
 3701SOL     OW12001   1.465   1.191   4.381
 3701SOL    HW112002   1.509   1.247   4.310
 3701SOL    HW212003   1.367   1.209   4.381
 3702SOL     OW12004   5.683   7.019   3.182
 3702SOL    HW112005   5.765   0.042   3.209
 3702SOL    HW212006   5.658   0.018   3.089
 3703SOL     OW12007   5.650   0.453   5.472
 3703SOL    HW112008   5.730   0.483   5.420
 3703SOL    HW212009   5.647   0.353   5.475
 3704SOL     OW12010   3.682   1.473   0.940
 3704SOL    HW112011   3.676   1.395   0.878
 3704SOL    HW212012   3.737   1.545   0.898
 3705SOL     OW12013   4.782   4.512   4.436
 3705SOL    HW112014   4.726   4.591   4.410
 3705SOL    HW212015   4.875   4.525   4.404
 3706SOL     OW12016   1.445   4.037   0.251
 3706SOL    HW112017   1.495   4.063   0.168
 3706SOL    HW212018   1.381   4.110   0.276
 3707SOL     OW12019   5.281   4.527   3.838
 3707SOL    HW112020   5.232   4.460   3.782
 3707SOL    HW212021   5.365   4.555   3.792
 3708SOL     OW12022   6.695   0.933   6.526
 3708SOL    HW112023   6.687   0.886   6.614
 3708SOL    HW212024   6.701   0.865   6.453
 3709SOL     OW12025   3.627   0.831   1.256
 3709SOL    HW112026   3.706   0.892   1.263
 3709SOL    HW212027   3.564   0.850   1.332
 3710SOL     OW12028   6.209   5.492   5.369
 3710SOL    HW112029   6.307   5.475   5.367
 3710SOL    HW212030   6.190   5.586   5.340
 3711SOL     OW12031   0.838   6.661   4.537
 3711SOL    HW112032   0.878   6.620   4.456
 3711SOL    HW212033   0.897   6.734   4.572
 3712SOL     OW12034   0.580   5.077   5.641
 3712SOL    HW112035   0.513   5.151   5.639
 3712SOL    HW212036   0.533   4.990   5.628
 3713SOL     OW12037   0.839   6.442   5.998
 3713SOL    HW112038   0.924   6.390   6.002
 3713SOL    HW212039   0.765   6.382   5.967
 3714SOL     OW12040   5.789   5.760   6.088
 3714SOL    HW112041   5.784   5.852   6.126
 3714SOL    HW212042   5.824   5.764   5.994
 3715SOL     OW12043   0.772   4.073   2.094
 3715SOL    HW112044   0.757   4.172   2.101
 3715SOL    HW212045   0.705   4.034   2.031
 3716SOL     OW12046   6.022   6.777   4.105
 3716SOL    HW112047   5.987   6.858   4.151
 3716SOL    HW212048   6.122   6.781   4.101
 3717SOL     OW12049   0.218   6.674   6.762
 3717SOL    HW112050   0.306   6.630   6.742
 3717SOL    HW212051   0.158   6.668   6.683
 3718SOL     OW12052   0.974   0.746   6.798
 3718SOL    HW112053   0.979   0.718   6.894
 3718SOL    HW212054   1.033   0.826   6.783
 3719SOL     OW12055   5.176   4.015   1.474
 3719SOL    HW112056   5.190   3.927   1.429
 3719SOL    HW212057   5.193   4.006   1.572
 3720SOL     OW12058   5.931   2.801   6.533
 3720SOL    HW112059   5.846   2.837   6.494
 3720SOL    HW212060   5.964   2.863   6.604
 3721SOL     OW12061   6.134   4.483   1.382
 3721SOL    HW112062   6.039   4.514   1.375
 3721SOL    HW212063   6.178   4.529   1.459
 3722SOL     OW12064   5.895   6.016   0.671
 3722SOL    HW112065   5.987   6.044   0.644
 3722SOL    HW212066   5.858   5.953   0.603
 3723SOL     OW12067   5.619   5.367   1.241
 3723SOL    HW112068   5.575   5.377   1.152
 3723SOL    HW212069   5.683   5.291   1.239
 3724SOL     OW12070   2.016   4.421   4.698
 3724SOL    HW112071   2.061   4.338   4.731
 3724SOL    HW212072   1.934   4.438   4.753
 3725SOL     OW12073   6.938   5.608   0.318
 3725SOL    HW112074   6.991   5.526   0.295
 3725SOL    HW212075   6.929   5.665   0.237
 3726SOL     OW12076   5.996   3.188   0.615
 3726SOL    HW112077   5.955   3.106   0.656
 3726SOL    HW212078   5.928   3.261   0.612
 3727SOL     OW12079   6.582   1.400   5.132
 3727SOL    HW112080   6.678   1.416   5.151
 3727SOL    HW212081   6.555   1.310   5.165
 3728SOL     OW12082   1.503   3.573   6.338
 3728SOL    HW112083   1.539   3.533   6.253
 3728SOL    HW212084   1.546   3.662   6.354
 3729SOL     OW12085   1.387   2.365   4.192
 3729SOL    HW112086   1.304   2.395   4.146
 3729SOL    HW212087   1.426   2.287   4.143
 3730SOL     OW12088   2.647   5.412   5.300
 3730SOL    HW112089   2.552   5.428   5.324
 3730SOL    HW212090   2.652   5.359   5.216
 3731SOL     OW12091   0.573   1.376   0.595
 3731SOL    HW112092   0.638   1.330   0.655
 3731SOL    HW212093   0.484   1.384   0.640
 3732SOL     OW12094   2.936   1.742   0.257
 3732SOL    HW112095   2.950   1.691   0.172
 3732SOL    HW212096   2.932   1.840   0.236
 3733SOL     OW12097   1.632   3.338   3.121
 3733SOL    HW112098   1.562   3.406   3.140
 3733SOL    HW212099   1.591   3.247   3.125
 3734SOL     OW12100   5.229   0.512   1.200
 3734SOL    HW112101   5.257   0.599   1.160
 3734SOL    HW212102   5.130   0.510   1.211
 3735SOL     OW12103   2.440   1.345   2.980
 3735SOL    HW112104   2.489   1.272   2.932
 3735SOL    HW212105   2.359   1.370   2.927
 3736SOL     OW12106   6.845   2.125   1.074
 3736SOL    HW112107   6.916   2.196   1.081
 3736SOL    HW212108   6.885   2.041   1.037
 3737SOL     OW12109   5.641   1.302   4.044
 3737SOL    HW112110   5.688   1.219   4.014
 3737SOL    HW212111   5.542   1.288   4.039
 3738SOL     OW12112   0.376   0.358   2.211
 3738SOL    HW112113   0.434   0.393   2.284
 3738SOL    HW212114   0.285   0.400   2.218
 3739SOL     OW12115   1.839   5.234   0.573
 3739SOL    HW112116   1.922   5.178   0.582
 3739SOL    HW212117   1.798   5.218   0.484
 3740SOL     OW12118   6.458   0.930   0.656
 3740SOL    HW112119   6.437   0.862   0.726
 3740SOL    HW212120   6.434   0.894   0.566
 3741SOL     OW12121   5.459   3.139   6.702
 3741SOL    HW112122   5.543   3.099   6.741
 3741SOL    HW212123   5.410   3.188   6.774
 3742SOL     OW12124   2.571   2.199   6.695
 3742SOL    HW112125   2.588   2.282   6.748
 3742SOL    HW212126   2.540   2.224   6.603
 3743SOL     OW12127   5.574   3.577   0.742
 3743SOL    HW112128   5.539   3.483   0.736
 3743SOL    HW212129   5.614   3.603   0.654
 3744SOL     OW12130   1.687   6.069   2.058
 3744SOL    HW112131   1.721   6.056   1.965
 3744SOL    HW212132   1.693   6.166   2.082
 3745SOL     OW12133   4.273   4.899   1.908
 3745SOL    HW112134   4.311   4.982   1.867
 3745SOL    HW212135   4.269   4.910   2.008
 3746SOL     OW12136   5.598   0.646   3.774
 3746SOL    HW112137   5.681   0.688   3.737
 3746SOL    HW212138   5.551   0.595   3.702
 3747SOL     OW12139   2.467   6.118   5.189
 3747SOL    HW112140   2.565   6.119   5.213
 3747SOL    HW212141   2.428   6.029   5.213
 3748SOL     OW12142   5.710   1.182   1.618
 3748SOL    HW112143   5.767   1.146   1.692
 3748SOL    HW212144   5.643   1.245   1.655
 3749SOL     OW12145   2.169   5.302   3.666
 3749SOL    HW112146   2.095   5.366   3.645
 3749SOL    HW212147   2.208   5.325   3.755
 3750SOL     OW12148   6.959   4.587   1.091
 3750SOL    HW112149   7.025   4.662   1.092
 3750SOL    HW212150   6.966   4.536   1.177
 3751SOL     OW12151   6.284   3.323   1.325
 3751SOL    HW112152   6.346   3.390   1.366
 3751SOL    HW212153   6.193   3.332   1.367
 3752SOL     OW12154   6.009   6.800   0.568
 3752SOL    HW112155   5.914   6.826   0.551
 3752SOL    HW212156   6.037   6.835   0.657
 3753SOL     OW12157   6.697   0.467   4.054
 3753SOL    HW112158   6.636   0.397   4.017
 3753SOL    HW212159   6.709   0.540   3.987
 3754SOL     OW12160   3.495   0.251   1.004
 3754SOL    HW112161   3.578   0.199   1.024
 3754SOL    HW212162   3.517   0.326   0.941
 3755SOL     OW12163   4.690   5.177   4.452
 3755SOL    HW112164   4.769   5.138   4.499
 3755SOL    HW212165   4.695   5.277   4.455
 3756SOL     OW12166   2.518   5.602   6.934
 3756SOL    HW112167   2.561   5.656   6.862
 3756SOL    HW212168   2.423   5.630   6.944
 3757SOL     OW12169   4.708   6.334   6.699
 3757SOL    HW112170   4.762   6.275   6.639
 3757SOL    HW212171   4.699   6.291   6.789
 3758SOL     OW12172   2.398   1.235   4.985
 3758SOL    HW112173   2.443   1.315   5.026
 3758SOL    HW212174   2.300   1.240   5.002
 3759SOL     OW12175   4.819   6.337   6.329
 3759SOL    HW112176   4.770   6.262   6.374
 3759SOL    HW212177   4.917   6.318   6.329
 3760SOL     OW12178   2.013   0.798   4.422
 3760SOL    HW112179   1.950   0.720   4.422
 3760SOL    HW212180   2.025   0.830   4.516
 3761SOL     OW12181   1.237   1.017   4.814
 3761SOL    HW112182   1.245   1.116   4.828
 3761SOL    HW212183   1.245   0.996   4.717
 3762SOL     OW12184   0.975   3.972   1.018
 3762SOL    HW112185   1.052   3.949   1.078
 3762SOL    HW212186   1.003   4.042   0.952
 3763SOL     OW12187   6.866   3.869   0.982
 3763SOL    HW112188   6.932   3.801   0.951
 3763SOL    HW212189   6.776   3.848   0.946
 3764SOL     OW12190   1.824   0.114   2.593
 3764SOL    HW112191   1.905   0.166   2.620
 3764SOL    HW212192   1.833   0.084   2.498
 3765SOL     OW12193   5.282   1.335   0.707
 3765SOL    HW112194   5.279   1.261   0.640
 3765SOL    HW212195   5.377   1.358   0.729
 3766SOL     OW12196   1.617   1.215   4.155
 3766SOL    HW112197   1.701   1.260   4.183
 3766SOL    HW212198   1.633   1.162   4.072
 3767SOL     OW12199   1.944   4.634   0.028
 3767SOL    HW112200   1.974   4.578   0.106
 3767SOL    HW212201   1.848   4.613   0.008
 3768SOL     OW12202   1.724   6.598   4.454
 3768SOL    HW112203   1.727   6.685   4.502
 3768SOL    HW212204   1.813   6.577   4.415
 3769SOL     OW12205   6.566   6.372   5.292
 3769SOL    HW112206   6.652   6.322   5.276
 3769SOL    HW212207   6.587   6.469   5.304
 3770SOL     OW12208   1.499   1.309   6.258
 3770SOL    HW112209   1.562   1.387   6.250
 3770SOL    HW212210   1.463   1.304   6.351
 3771SOL     OW12211   5.341   3.172   0.124
 3771SOL    HW112212   5.364   3.094   0.066
 3771SOL    HW212213   5.269   3.226   0.080
 3772SOL     OW12214   0.342   1.400   6.442
 3772SOL    HW112215   0.245   1.375   6.450
 3772SOL    HW212216   0.363   1.416   6.346
 3773SOL     OW12217   6.061   3.138   6.044
 3773SOL    HW112218   6.131   3.090   5.992
 3773SOL    HW212219   6.019   3.075   6.109
 3774SOL     OW12220   6.983   5.790   0.906
 3774SOL    HW112221   6.907   5.777   0.969
 3774SOL    HW212222   7.018   5.883   0.914
 3775SOL     OW12223   4.330   5.448   2.167
 3775SOL    HW112224   4.255   5.396   2.207
 3775SOL    HW212225   4.391   5.387   2.117
 3776SOL     OW12226   4.478   1.364   0.164
 3776SOL    HW112227   4.381   1.345   0.151
 3776SOL    HW212228   4.532   1.284   0.139
 3777SOL     OW12229   3.609   5.686   3.793
 3777SOL    HW112230   3.644   5.693   3.699
 3777SOL    HW212231   3.669   5.625   3.846
 3778SOL     OW12232   3.176   4.907   2.413
 3778SOL    HW112233   3.104   4.902   2.344
 3778SOL    HW212234   3.142   4.868   2.499
 3779SOL     OW12235   1.428   4.275   0.610
 3779SOL    HW112236   1.356   4.234   0.553
 3779SOL    HW212237   1.416   4.245   0.705
 3780SOL     OW12238   5.955   4.887   4.926
 3780SOL    HW112239   6.044   4.865   4.966
 3780SOL    HW212240   5.944   4.838   4.839
 3781SOL     OW12241   0.878   5.649   4.486
 3781SOL    HW112242   0.916   5.703   4.412
 3781SOL    HW212243   0.918   5.557   4.485
 3782SOL     OW12244   2.396   0.235   3.831
 3782SOL    HW112245   2.456   0.191   3.763
 3782SOL    HW212246   2.438   0.226   3.922
 3783SOL     OW12247   5.654   5.601   3.173
 3783SOL    HW112248   5.752   5.585   3.189
 3783SOL    HW212249   5.635   5.699   3.182
 3784SOL     OW12250   4.853   2.751   3.073
 3784SOL    HW112251   4.793   2.673   3.056
 3784SOL    HW212252   4.862   2.766   3.172
 3785SOL     OW12253   2.164   2.709   6.078
 3785SOL    HW112254   2.216   2.738   6.158
 3785SOL    HW212255   2.208   2.743   5.995
 3786SOL     OW12256   2.205   5.290   3.067
 3786SOL    HW112257   2.119   5.258   3.106
 3786SOL    HW212258   2.264   5.324   3.140
 3787SOL     OW12259   5.909   1.484   2.733
 3787SOL    HW112260   5.963   1.533   2.665
 3787SOL    HW212261   5.900   1.540   2.815
 3788SOL     OW12262   0.543   4.638   4.448
 3788SOL    HW112263   0.584   4.690   4.373
 3788SOL    HW212264   0.603   4.562   4.473
 3789SOL     OW12265   0.174   2.694   4.933
 3789SOL    HW112266   0.112   2.629   4.890
 3789SOL    HW212267   0.268   2.662   4.926
 3790SOL     OW12268   1.254   4.539   5.586
 3790SOL    HW112269   1.222   4.621   5.634
 3790SOL    HW212270   1.302   4.479   5.650
 3791SOL     OW12271   5.181   1.100   6.467
 3791SOL    HW112272   5.191   1.010   6.509
 3791SOL    HW212273   5.085   1.117   6.445
 3792SOL     OW12274   1.120   2.454   4.929
 3792SOL    HW112275   1.047   2.488   4.871
 3792SOL    HW212276   1.081   2.406   5.008
 3793SOL     OW12277   5.005   6.731   2.398
 3793SOL    HW112278   4.979   6.725   2.494
 3793SOL    HW212279   4.928   6.704   2.341
 3794SOL     OW12280   2.372   3.382   0.968
 3794SOL    HW112281   2.434   3.426   0.903
 3794SOL    HW212282   2.395   3.412   1.061
 3795SOL     OW12283   4.139   6.377   6.832
 3795SOL    HW112284   4.238   6.390   6.842
 3795SOL    HW212285   4.119   6.339   6.742
 3796SOL     OW12286   3.283   2.087   2.540
 3796SOL    HW112287   3.263   2.052   2.448
 3796SOL    HW212288   3.199   2.088   2.594
 3797SOL     OW12289   6.751   3.602   1.574
 3797SOL    HW112290   6.764   3.699   1.598
 3797SOL    HW212291   6.811   3.578   1.498
 3798SOL     OW12292   2.761   5.549   2.796
 3798SOL    HW112293   2.811   5.462   2.797
 3798SOL    HW212294   2.782   5.598   2.711
 3799SOL     OW12295   6.808   2.757   3.889
 3799SOL    HW112296   6.902   2.744   3.922
 3799SOL    HW212297   6.787   2.688   3.820
 3800SOL     OW12298   5.936   3.770   3.872
 3800SOL    HW112299   5.881   3.744   3.792
 3800SOL    HW212300   6.004   3.700   3.891
 3801SOL     OW12301   6.015   0.167   2.373
 3801SOL    HW112302   6.101   0.193   2.330
 3801SOL    HW212303   5.950   0.139   2.302
 3802SOL     OW12304   1.150   2.089   2.504
 3802SOL    HW112305   1.064   2.075   2.554
 3802SOL    HW212306   1.135   2.071   2.407
 3803SOL     OW12307   3.448   2.500   1.577
 3803SOL    HW112308   3.389   2.576   1.548
 3803SOL    HW212309   3.527   2.536   1.626
 3804SOL     OW12310   4.728   1.588   4.165
 3804SOL    HW112311   4.756   1.610   4.258
 3804SOL    HW212312   4.715   1.489   4.156
 3805SOL     OW12313   2.765   2.751   1.611
 3805SOL    HW112314   2.742   2.672   1.667
 3805SOL    HW212315   2.701   2.757   1.534
 3806SOL     OW12316   3.116   3.644   6.450
 3806SOL    HW112317   3.150   3.731   6.413
 3806SOL    HW212318   3.179   3.571   6.426
 3807SOL     OW12319   1.502   6.149   3.056
 3807SOL    HW112320   1.455   6.064   3.081
 3807SOL    HW212321   1.508   6.208   3.136
 3808SOL     OW12322   4.731   1.037   0.774
 3808SOL    HW112323   4.773   1.049   0.684
 3808SOL    HW212324   4.713   0.940   0.791
 3809SOL     OW12325   5.263   3.039   1.273
 3809SOL    HW112326   5.195   3.061   1.344
 3809SOL    HW212327   5.287   2.942   1.279
 3810SOL     OW12328   4.529   2.367   3.557
 3810SOL    HW112329   4.448   2.357   3.500
 3810SOL    HW212330   4.570   2.457   3.541
 3811SOL     OW12331   1.117   4.547   4.315
 3811SOL    HW112332   1.123   4.518   4.410
 3811SOL    HW212333   1.106   4.647   4.311
 3812SOL     OW12334   5.080   5.992   4.610
 3812SOL    HW112335   5.075   5.893   4.604
 3812SOL    HW212336   5.056   6.022   4.703
 3813SOL     OW12337   4.602   3.930   1.000
 3813SOL    HW112338   4.601   3.919   0.901
 3813SOL    HW212339   4.622   3.842   1.043
 3814SOL     OW12340   0.015   0.151   6.877
 3814SOL    HW112341   0.012   0.191   6.785
 3814SOL    HW212342   0.108   0.121   6.896
 3815SOL     OW12343   4.547   2.358   0.471
 3815SOL    HW112344   4.545   2.259   0.459
 3815SOL    HW212345   4.496   2.383   0.553
 3816SOL     OW12346   0.941   6.012   0.224
 3816SOL    HW112347   1.010   5.955   0.270
 3816SOL    HW212348   0.981   6.100   0.200
 3817SOL     OW12349   5.138   4.127   2.750
 3817SOL    HW112350   5.149   4.226   2.760
 3817SOL    HW212351   5.119   4.105   2.654
 3818SOL     OW12352   6.312   0.960   6.663
 3818SOL    HW112353   6.213   0.965   6.651
 3818SOL    HW212354   6.346   1.049   6.693
 3819SOL     OW12355   5.334   5.090   2.009
 3819SOL    HW112356   5.404   5.021   2.027
 3819SOL    HW212357   5.263   5.084   2.079
 3820SOL     OW12358   5.168   6.637   3.818
 3820SOL    HW112359   5.180   6.705   3.891
 3820SOL    HW212360   5.254   6.626   3.768
 3821SOL     OW12361   2.234   1.470   1.119
 3821SOL    HW112362   2.271   1.377   1.115
 3821SOL    HW212363   2.150   1.474   1.066
 3822SOL     OW12364   1.986   0.543   1.141
 3822SOL    HW112365   2.005   0.638   1.115
 3822SOL    HW212366   2.013   0.527   1.235
 3823SOL     OW12367   3.416   3.389   6.074
 3823SOL    HW112368   3.406   3.483   6.039
 3823SOL    HW212369   3.325   3.352   6.095
 3824SOL     OW12370   6.602   2.020   0.737
 3824SOL    HW112371   6.618   2.077   0.656
 3824SOL    HW212372   6.603   2.077   0.819
 3825SOL     OW12373   0.662   5.909   0.963
 3825SOL    HW112374   0.718   5.826   0.964
 3825SOL    HW212375   0.573   5.890   1.005
 3826SOL     OW12376   1.013   3.002   6.573
 3826SOL    HW112377   1.088   2.965   6.518
 3826SOL    HW212378   0.986   3.092   6.536
 3827SOL     OW12379   2.176   1.911   1.542
 3827SOL    HW112380   2.153   1.986   1.480
 3827SOL    HW212381   2.276   1.906   1.551
 3828SOL     OW12382   3.892   2.987   1.848
 3828SOL    HW112383   3.865   2.930   1.925
 3828SOL    HW212384   3.890   3.083   1.875
 3829SOL     OW12385   1.757   4.555   3.560
 3829SOL    HW112386   1.776   4.490   3.634
 3829SOL    HW212387   1.676   4.525   3.510
 3830SOL     OW12388   0.725   1.594   4.489
 3830SOL    HW112389   0.742   1.527   4.562
 3830SOL    HW212390   0.669   1.552   4.418
 3831SOL     OW12391   4.793   2.096   1.788
 3831SOL    HW112392   4.854   2.162   1.743
 3831SOL    HW212393   4.810   2.096   1.886
 3832SOL     OW12394   5.798   1.026   2.617
 3832SOL    HW112395   5.868   1.098   2.626
 3832SOL    HW212396   5.744   1.022   2.700
 3833SOL     OW12397   0.646   6.298   5.870
 3833SOL    HW112398   0.710   6.233   5.830
 3833SOL    HW212399   0.552   6.271   5.848
 3834SOL     OW12400   4.892   4.012   1.924
 3834SOL    HW112401   4.915   4.015   1.826
 3834SOL    HW212402   4.808   4.064   1.940
 3835SOL     OW12403   3.568   5.491   4.426
 3835SOL    HW112404   3.502   5.417   4.443
 3835SOL    HW212405   3.584   5.542   4.510
 3836SOL     OW12406   1.763   4.182   6.084
 3836SOL    HW112407   1.776   4.244   6.007
 3836SOL    HW212408   1.673   4.200   6.126
 3837SOL     OW12409   4.783   4.875   6.277
 3837SOL    HW112410   4.688   4.864   6.247
 3837SOL    HW212411   4.810   4.970   6.265
 3838SOL     OW12412   7.015   3.869   4.610
 3838SOL    HW112413   6.997   3.796   4.544
 3838SOL    HW212414   0.080   3.905   4.596
 3839SOL     OW12415   4.805   0.814   3.236
 3839SOL    HW112416   4.873   0.787   3.167
 3839SOL    HW212417   4.722   0.846   3.190
 3840SOL     OW12418   2.112   0.729   5.956
 3840SOL    HW112419   2.125   0.698   5.862
 3840SOL    HW212420   2.128   0.827   5.962
 3841SOL     OW12421   0.246   3.111   5.439
 3841SOL    HW112422   0.230   3.208   5.459
 3841SOL    HW212423   0.299   3.070   5.513
 3842SOL     OW12424   1.850   3.515   6.756
 3842SOL    HW112425   1.810   3.549   6.671
 3842SOL    HW212426   1.944   3.484   6.738
 3843SOL     OW12427   6.389   4.285   2.835
 3843SOL    HW112428   6.302   4.284   2.785
 3843SOL    HW212429   6.373   4.258   2.930
 3844SOL     OW12430   0.925   2.590   6.305
 3844SOL    HW112431   0.838   2.623   6.270
 3844SOL    HW212432   0.957   2.515   6.247
 3845SOL     OW12433   3.813   3.507   4.197
 3845SOL    HW112434   3.912   3.504   4.209
 3845SOL    HW212435   3.778   3.595   4.228
 3846SOL     OW12436   0.561   5.538   3.865
 3846SOL    HW112437   0.561   5.439   3.878
 3846SOL    HW212438   0.470   5.568   3.837
 3847SOL     OW12439   6.313   0.844   4.392
 3847SOL    HW112440   6.391   0.895   4.355
 3847SOL    HW212441   6.346   0.770   4.450
 3848SOL     OW12442   3.354   5.609   3.065
 3848SOL    HW112443   3.307   5.580   2.981
 3848SOL    HW212444   3.375   5.528   3.121
 3849SOL     OW12445   1.258   1.647   5.490
 3849SOL    HW112446   1.306   1.687   5.568
 3849SOL    HW212447   1.196   1.715   5.451
 3850SOL     OW12448   2.683   3.236   0.883
 3850SOL    HW112449   2.623   3.175   0.935
 3850SOL    HW212450   2.778   3.209   0.896
 3851SOL     OW12451   1.911   4.505   2.705
 3851SOL    HW112452   1.932   4.435   2.636
 3851SOL    HW212453   1.834   4.560   2.674
 3852SOL     OW12454   4.335   6.898   3.825
 3852SOL    HW112455   4.384   6.814   3.848
 3852SOL    HW212456   4.251   6.903   3.879
 3853SOL     OW12457   0.907   3.590   3.177
 3853SOL    HW112458   0.864   3.680   3.164
 3853SOL    HW212459   0.837   3.523   3.202
 3854SOL     OW12460   1.380   3.213   2.115
 3854SOL    HW112461   1.393   3.234   2.019
 3854SOL    HW212462   1.470   3.199   2.158
 3855SOL     OW12463   5.305   6.302   6.576
 3855SOL    HW112464   5.375   6.237   6.547
 3855SOL    HW212465   5.337   6.395   6.558
 3856SOL     OW12466   0.131   6.330   5.313
 3856SOL    HW112467   0.168   6.324   5.406
 3856SOL    HW212468   0.054   6.394   5.312
 3857SOL     OW12469   0.824   5.699   6.191
 3857SOL    HW112470   0.774   5.745   6.117
 3857SOL    HW212471   0.882   5.765   6.238
 3858SOL     OW12472   1.569   6.894   5.779
 3858SOL    HW112473   1.603   6.988   5.774
 3858SOL    HW212474   1.470   6.895   5.794
 3859SOL     OW12475   6.540   2.040   3.457
 3859SOL    HW112476   6.551   2.097   3.539
 3859SOL    HW212477   6.531   2.099   3.377
 3860SOL     OW12478   2.140   0.376   5.609
 3860SOL    HW112479   2.056   0.384   5.555
 3860SOL    HW212480   2.151   0.458   5.665
 3861SOL     OW12481   4.571   4.422   3.520
 3861SOL    HW112482   4.509   4.470   3.458
 3861SOL    HW212483   4.616   4.348   3.472
 3862SOL     OW12484   1.265   0.206   4.768
 3862SOL    HW112485   1.306   0.230   4.680
 3862SOL    HW212486   1.244   0.290   4.819
 3863SOL     OW12487   4.286   2.963   5.992
 3863SOL    HW112488   4.313   3.054   5.962
 3863SOL    HW212489   4.351   2.929   6.060
 3864SOL     OW12490   2.638   0.631   5.626
 3864SOL    HW112491   2.577   0.704   5.596
 3864SOL    HW212492   2.594   0.578   5.698
 3865SOL     OW12493   3.437   6.500   0.141
 3865SOL    HW112494   3.447   6.559   0.062
 3865SOL    HW212495   3.341   6.491   0.165
 3866SOL     OW12496   4.028   1.223   1.681
 3866SOL    HW112497   3.951   1.174   1.722
 3866SOL    HW212498   4.001   1.318   1.665
 3867SOL     OW12499   1.537   4.149   4.054
 3867SOL    HW112500   1.496   4.087   3.986
 3867SOL    HW212501   1.521   4.244   4.027
 3868SOL     OW12502   3.452   6.895   0.490
 3868SOL    HW112503   3.476   6.854   0.402
 3868SOL    HW212504   3.446   6.994   0.481
 3869SOL     OW12505   6.677   3.377   5.475
 3869SOL    HW112506   6.617   3.405   5.550
 3869SOL    HW212507   6.632   3.397   5.387
 3870SOL     OW12508   4.392   5.296   0.331
 3870SOL    HW112509   4.348   5.352   0.261
 3870SOL    HW212510   4.328   5.224   0.361
 3871SOL     OW12511   3.940   0.349   2.711
 3871SOL    HW112512   3.987   0.437   2.706
 3871SOL    HW212513   3.995   0.284   2.763
 3872SOL     OW12514   3.714   3.467   2.350
 3872SOL    HW112515   3.726   3.418   2.263
 3872SOL    HW212516   3.737   3.407   2.426
 3873SOL     OW12517   6.585   4.002   1.201
 3873SOL    HW112518   6.666   4.059   1.210
 3873SOL    HW212519   6.524   4.040   1.132
 3874SOL     OW12520   3.999   5.890   6.367
 3874SOL    HW112521   3.903   5.904   6.341
 3874SOL    HW212522   4.050   5.975   6.351
 3875SOL     OW12523   1.640   2.846   1.625
 3875SOL    HW112524   1.540   2.848   1.629
 3875SOL    HW212525   1.678   2.883   1.710
 3876SOL     OW12526   5.996   4.610   0.269
 3876SOL    HW112527   6.069   4.676   0.252
 3876SOL    HW212528   5.924   4.622   0.201
 3877SOL     OW12529   6.741   2.693   0.191
 3877SOL    HW112530   6.802   2.768   0.218
 3877SOL    HW212531   6.682   2.722   0.117
 3878SOL     OW12532   2.426   6.389   4.991
 3878SOL    HW112533   2.372   6.469   4.967
 3878SOL    HW212534   2.367   6.308   4.996
 3879SOL     OW12535   5.305   6.883   1.446
 3879SOL    HW112536   5.308   6.814   1.518
 3879SOL    HW212537   5.270   6.969   1.483
 3880SOL     OW12538   6.220   4.963   3.538
 3880SOL    HW112539   6.297   4.939   3.479
 3880SOL    HW212540   6.237   4.931   3.631
 3881SOL     OW12541   1.102   4.735   1.092
 3881SOL    HW112542   1.044   4.744   1.173
 3881SOL    HW212543   1.133   4.826   1.063
 3882SOL     OW12544   6.628   1.509   4.590
 3882SOL    HW112545   6.639   1.432   4.528
 3882SOL    HW212546   6.534   1.543   4.586
 3883SOL     OW12547   4.556   1.625   3.506
 3883SOL    HW112548   4.643   1.585   3.477
 3883SOL    HW212549   4.483   1.557   3.495
 3884SOL     OW12550   1.040   5.667   3.741
 3884SOL    HW112551   0.943   5.675   3.763
 3884SOL    HW212552   1.088   5.625   3.818
 3885SOL     OW12553   6.373   0.748   3.657
 3885SOL    HW112554   6.452   0.786   3.609
 3885SOL    HW212555   6.401   0.711   3.745
 3886SOL     OW12556   6.643   5.306   5.188
 3886SOL    HW112557   6.739   5.305   5.160
 3886SOL    HW212558   6.605   5.398   5.176
 3887SOL     OW12559   5.863   1.096   5.303
 3887SOL    HW112560   5.813   1.049   5.231
 3887SOL    HW212561   5.846   1.195   5.297
 3888SOL     OW12562   0.792   0.640   6.633
 3888SOL    HW112563   0.708   0.608   6.676
 3888SOL    HW212564   0.850   0.684   6.702
 3889SOL     OW12565   6.959   2.465   6.478
 3889SOL    HW112566   6.928   2.557   6.454
 3889SOL    HW212567   6.889   2.399   6.453
 3890SOL     OW12568   5.917   5.605   2.730
 3890SOL    HW112569   5.880   5.528   2.678
 3890SOL    HW212570   5.986   5.652   2.674
 3891SOL     OW12571   5.477   5.110   4.248
 3891SOL    HW112572   5.406   5.109   4.177
 3891SOL    HW212573   5.472   5.026   4.301
 3892SOL     OW12574   0.264   2.200   2.236
 3892SOL    HW112575   0.287   2.103   2.232
 3892SOL    HW212576   0.325   2.247   2.300
 3893SOL     OW12577   2.794   5.699   1.719
 3893SOL    HW112578   2.825   5.717   1.812
 3893SOL    HW212579   2.717   5.635   1.721
 3894SOL     OW12580   2.635   2.156   0.765
 3894SOL    HW112581   2.661   2.121   0.855
 3894SOL    HW212582   2.683   2.242   0.748
 3895SOL     OW12583   1.428   0.097   5.358
 3895SOL    HW112584   1.465   0.006   5.336
 3895SOL    HW212585   1.351   0.117   5.298
 3896SOL     OW12586   0.226   2.125   6.413
 3896SOL    HW112587   0.157   2.076   6.466
 3896SOL    HW212588   0.314   2.078   6.422
 3897SOL     OW12589   3.678   7.021   1.981
 3897SOL    HW112590   3.590   0.030   2.012
 3897SOL    HW212591   3.723   6.974   2.057
 3898SOL     OW12592   3.477   3.882   3.660
 3898SOL    HW112593   3.519   3.791   3.664
 3898SOL    HW212594   3.385   3.874   3.621
 3899SOL     OW12595   4.774   0.829   4.189
 3899SOL    HW112596   4.795   0.894   4.117
 3899SOL    HW212597   4.678   0.838   4.216
 3900SOL     OW12598   5.129   2.778   3.011
 3900SOL    HW112599   5.166   2.767   3.103
 3900SOL    HW212600   5.030   2.762   3.014
 3901SOL     OW12601   2.751   6.602   5.838
 3901SOL    HW112602   2.838   6.556   5.818
 3901SOL    HW212603   2.761   6.659   5.920
 3902SOL     OW12604   5.877   3.493   1.770
 3902SOL    HW112605   5.905   3.473   1.864
 3902SOL    HW212606   5.958   3.520   1.717
 3903SOL     OW12607   4.923   4.086   6.550
 3903SOL    HW112608   4.969   4.008   6.592
 3903SOL    HW212609   4.882   4.057   6.463
 3904SOL     OW12610   2.267   6.933   6.088
 3904SOL    HW112611   2.273   6.965   5.993
 3904SOL    HW212612   2.175   6.951   6.123
 3905SOL     OW12613   5.881   6.721   6.153
 3905SOL    HW112614   5.928   6.647   6.103
 3905SOL    HW212615   5.912   6.722   6.248
 3906SOL     OW12616   1.825   4.960   5.577
 3906SOL    HW112617   1.885   4.936   5.501
 3906SOL    HW212618   1.809   4.879   5.634
 3907SOL     OW12619   6.433   0.544   4.195
 3907SOL    HW112620   6.529   0.519   4.188
 3907SOL    HW212621   6.386   0.479   4.255
 3908SOL     OW12622   1.915   1.188   0.005
 3908SOL    HW112623   1.973   1.221   0.079
 3908SOL    HW212624   1.866   1.266   6.992
 3909SOL     OW12625   0.092   4.496   6.590
 3909SOL    HW112626   0.086   4.397   6.581
 3909SOL    HW212627   0.009   4.530   6.636
 3910SOL     OW12628   3.306   3.841   1.965
 3910SOL    HW112629   3.362   3.848   1.882
 3910SOL    HW212630   3.234   3.773   1.952
 3911SOL     OW12631   5.367   1.251   0.229
 3911SOL    HW112632   5.449   1.305   0.210
 3911SOL    HW212633   5.371   1.216   0.323
 3912SOL     OW12634   3.803   1.077   6.218
 3912SOL    HW112635   3.810   1.006   6.288
 3912SOL    HW212636   3.707   1.106   6.210
 3913SOL     OW12637   2.687   6.257   0.054
 3913SOL    HW112638   2.785   6.237   0.042
 3913SOL    HW212639   2.663   6.336   7.024
 3914SOL     OW12640   4.982   1.182   1.229
 3914SOL    HW112641   4.886   1.183   1.257
 3914SOL    HW212642   5.040   1.170   1.310
 3915SOL     OW12643   4.616   6.670   0.176
 3915SOL    HW112644   4.683   6.607   0.136
 3915SOL    HW212645   4.548   6.618   0.227
 3916SOL     OW12646   2.484   6.795   2.604
 3916SOL    HW112647   2.465   6.770   2.509
 3916SOL    HW212648   2.449   6.887   2.622
 3917SOL     OW12649   1.026   4.222   1.509
 3917SOL    HW112650   1.121   4.197   1.531
 3917SOL    HW212651   1.026   4.300   1.446
 3918SOL     OW12652   3.779   6.614   1.251
 3918SOL    HW112653   3.689   6.574   1.268
 3918SOL    HW212654   3.809   6.665   1.332
 3919SOL     OW12655   3.266   0.203   6.863
 3919SOL    HW112656   3.285   0.105   6.861
 3919SOL    HW212657   3.181   0.220   6.913
 3920SOL     OW12658   3.083   0.676   6.408
 3920SOL    HW112659   3.005   0.694   6.348
 3920SOL    HW212660   3.074   0.731   6.492
 3921SOL     OW12661   7.010   2.119   6.986
 3921SOL    HW112662   0.078   2.098   7.008
 3921SOL    HW212663   6.996   2.218   6.987
 3922SOL     OW12664   4.487   5.142   1.565
 3922SOL    HW112665   4.541   5.191   1.635
 3922SOL    HW212666   4.434   5.209   1.512
 3923SOL     OW12667   5.877   2.086   0.593
 3923SOL    HW112668   5.806   2.120   0.532
 3923SOL    HW212669   5.873   1.987   0.598
 3924SOL     OW12670   0.473   5.296   2.941
 3924SOL    HW112671   0.479   5.215   2.999
 3924SOL    HW212672   0.455   5.377   2.998
 3925SOL     OW12673   4.202   4.651   1.145
 3925SOL    HW112674   4.186   4.748   1.165
 3925SOL    HW212675   4.187   4.597   1.229
 3926SOL     OW12676   0.195   0.121   4.874
 3926SOL    HW112677   0.251   0.084   4.800
 3926SOL    HW212678   0.227   0.213   4.898
 3927SOL     OW12679   0.016   2.489   4.912
 3927SOL    HW112680   0.078   2.462   4.985
 3927SOL    HW212681   0.009   2.414   4.845
 3928SOL     OW12682   3.248   5.717   3.523
 3928SOL    HW112683   3.323   5.678   3.470
 3928SOL    HW212684   3.285   5.774   3.596
 3929SOL     OW12685   6.992   1.593   6.545
 3929SOL    HW112686   0.008   1.682   6.561
 3929SOL    HW212687   6.934   1.570   6.623
 3930SOL     OW12688   0.987   2.156   3.688
 3930SOL    HW112689   0.916   2.137   3.621
 3930SOL    HW212690   0.996   2.079   3.751
 3931SOL     OW12691   1.887   1.677   2.250
 3931SOL    HW112692   1.812   1.689   2.315
 3931SOL    HW212693   1.973   1.664   2.299
 3932SOL     OW12694   2.109   4.805   3.815
 3932SOL    HW112695   2.134   4.894   3.854
 3932SOL    HW212696   2.013   4.808   3.784
 3933SOL     OW12697   1.741   6.864   0.078
 3933SOL    HW112698   1.757   6.806   0.158
 3933SOL    HW212699   1.730   6.959   0.107
 3934SOL     OW12700   6.692   1.338   2.707
 3934SOL    HW112701   6.624   1.306   2.773
 3934SOL    HW212702   6.738   1.419   2.743
 3935SOL     OW12703   1.151   1.538   5.793
 3935SOL    HW112704   1.221   1.604   5.766
 3935SOL    HW212705   1.068   1.587   5.819
 3936SOL     OW12706   7.017   5.933   5.045
 3936SOL    HW112707   0.061   5.875   5.005
 3936SOL    HW212708   0.028   5.986   5.120
 3937SOL     OW12709   6.718   6.314   2.183
 3937SOL    HW112710   6.746   6.394   2.236
 3937SOL    HW212711   6.784   6.240   2.196
 3938SOL     OW12712   6.184   4.320   4.177
 3938SOL    HW112713   6.099   4.354   4.219
 3938SOL    HW212714   6.186   4.345   4.080
 3939SOL     OW12715   2.941   1.609   3.386
 3939SOL    HW112716   2.881   1.673   3.339
 3939SOL    HW212717   2.887   1.535   3.425
 3940SOL     OW12718   2.826   4.815   1.668
 3940SOL    HW112719   2.763   4.754   1.716
 3940SOL    HW212720   2.842   4.780   1.575
 3941SOL     OW12721   5.958   0.168   4.696
 3941SOL    HW112722   5.910   0.226   4.630
 3941SOL    HW212723   6.014   0.102   4.648
 3942SOL     OW12724   0.506   6.186   5.551
 3942SOL    HW112725   0.481   6.211   5.644
 3942SOL    HW212726   0.426   6.151   5.503
 3943SOL     OW12727   0.661   3.263   2.409
 3943SOL    HW112728   0.721   3.287   2.486
 3943SOL    HW212729   0.714   3.267   2.324
 3944SOL     OW12730   6.008   3.897   6.235
 3944SOL    HW112731   5.939   3.928   6.169
 3944SOL    HW212732   5.989   3.802   6.261
 3945SOL     OW12733   1.171   2.508   3.146
 3945SOL    HW112734   1.150   2.410   3.148
 3945SOL    HW212735   1.137   2.547   3.060
 3946SOL     OW12736   0.400   3.799   6.725
 3946SOL    HW112737   0.304   3.778   6.704
 3946SOL    HW212738   0.409   3.815   6.823
 3947SOL     OW12739   5.920   5.046   0.570
 3947SOL    HW112740   5.891   5.126   0.621
 3947SOL    HW212741   5.877   4.964   0.609
 3948SOL     OW12742   1.473   3.805   6.944
 3948SOL    HW112743   1.475   3.762   0.007
 3948SOL    HW212744   1.467   3.735   6.873
 3949SOL     OW12745   6.836   0.057   3.656
 3949SOL    HW112746   6.771   7.025   3.610
 3949SOL    HW212747   6.815   0.061   3.754
 3950SOL     OW12748   3.990   4.105   1.576
 3950SOL    HW112749   3.925   4.036   1.545
 3950SOL    HW212750   4.059   4.061   1.633
 3951SOL     OW12751   0.471   1.242   6.839
 3951SOL    HW112752   0.450   1.299   6.918
 3951SOL    HW212753   0.457   1.146   6.863
 3952SOL     OW12754   6.385   3.240   4.204
 3952SOL    HW112755   6.386   3.242   4.104
 3952SOL    HW212756   6.433   3.158   4.236
 3953SOL     OW12757   3.567   3.920   6.447
 3953SOL    HW112758   3.572   3.821   6.434
 3953SOL    HW212759   3.519   3.961   6.370
 3954SOL     OW12760   5.677   4.976   5.535
 3954SOL    HW112761   5.598   5.029   5.507
 3954SOL    HW212762   5.751   4.987   5.469
 3955SOL     OW12763   5.006   6.614   0.106
 3955SOL    HW112764   4.963   6.599   0.195
 3955SOL    HW212765   5.022   6.712   0.093
 3956SOL     OW12766   1.016   2.287   5.117
 3956SOL    HW112767   1.061   2.272   5.205
 3956SOL    HW212768   0.918   2.302   5.133
 3957SOL     OW12769   3.737   6.337   3.315
 3957SOL    HW112770   3.696   6.262   3.263
 3957SOL    HW212771   3.836   6.338   3.301
 3958SOL     OW12772   6.488   6.244   6.799
 3958SOL    HW112773   6.535   6.314   6.855
 3958SOL    HW212774   6.403   6.217   6.844
 3959SOL     OW12775   3.529   6.526   1.294
 3959SOL    HW112776   3.487   6.480   1.372
 3959SOL    HW212777   3.465   6.591   1.255
 3960SOL     OW12778   5.705   2.546   5.934
 3960SOL    HW112779   5.642   2.488   5.986
 3960SOL    HW212780   5.688   2.642   5.956
 3961SOL     OW12781   5.191   1.737   1.789
 3961SOL    HW112782   5.257   1.788   1.845
 3961SOL    HW212783   5.173   1.648   1.831
 3962SOL     OW12784   0.604   5.983   7.020
 3962SOL    HW112785   0.694   5.941   7.010
 3962SOL    HW212786   0.584   5.997   0.089
 3963SOL     OW12787   5.450   5.225   3.444
 3963SOL    HW112788   5.388   5.155   3.408
 3963SOL    HW212789   5.429   5.313   3.401
 3964SOL     OW12790   4.155   4.881   4.728
 3964SOL    HW112791   4.244   4.848   4.758
 3964SOL    HW212792   4.091   4.880   4.806
 3965SOL     OW12793   3.642   4.562   6.334
 3965SOL    HW112794   3.693   4.644   6.360
 3965SOL    HW212795   3.587   4.582   6.253
 3966SOL     OW12796   6.447   4.668   0.165
 3966SOL    HW112797   6.513   4.702   0.099
 3966SOL    HW212798   6.375   4.618   0.118
 3967SOL     OW12799   0.849   5.058   2.555
 3967SOL    HW112800   0.763   5.068   2.604
 3967SOL    HW212801   0.892   5.148   2.544
 3968SOL     OW12802   6.214   1.064   1.143
 3968SOL    HW112803   6.236   1.039   1.048
 3968SOL    HW212804   6.116   1.053   1.158
 3969SOL     OW12805   0.436   4.126   2.560
 3969SOL    HW112806   0.534   4.124   2.539
 3969SOL    HW212807   0.395   4.038   2.536
 3970SOL     OW12808   5.019   5.284   3.704
 3970SOL    HW112809   5.035   5.269   3.801
 3970SOL    HW212810   4.920   5.290   3.687
 3971SOL     OW12811   2.700   5.237   1.854
 3971SOL    HW112812   2.648   5.264   1.935
 3971SOL    HW212813   2.779   5.183   1.882
 3972SOL     OW12814   0.944   5.668   1.410
 3972SOL    HW112815   1.030   5.620   1.395
 3972SOL    HW212816   0.962   5.767   1.414
 3973SOL     OW12817   3.013   3.164   4.962
 3973SOL    HW112818   3.093   3.108   4.984
 3973SOL    HW212819   2.972   3.133   4.877
 3974SOL     OW12820   0.918   0.527   5.731
 3974SOL    HW112821   0.829   0.487   5.713
 3974SOL    HW212822   0.990   0.461   5.706
 3975SOL     OW12823   5.982   0.382   6.076
 3975SOL    HW112824   5.982   0.387   5.976
 3975SOL    HW212825   6.000   0.287   6.104
 3976SOL     OW12826   1.422   5.071   0.950
 3976SOL    HW112827   1.502   5.073   1.011
 3976SOL    HW212828   1.415   5.158   0.902
 3977SOL     OW12829   3.282   4.794   6.021
 3977SOL    HW112830   3.303   4.863   5.952
 3977SOL    HW212831   3.246   4.712   5.978
 3978SOL     OW12832   5.111   6.946   4.485
 3978SOL    HW112833   5.026   6.948   4.538
 3978SOL    HW212834   5.095   6.985   4.395
 3979SOL     OW12835   2.075   6.178   1.548
 3979SOL    HW112836   2.135   6.149   1.473
 3979SOL    HW212837   2.127   6.235   1.612
 3980SOL     OW12838   6.995   4.491   5.951
 3980SOL    HW112839   6.914   4.443   5.981
 3980SOL    HW212840   0.025   4.514   6.030
 3981SOL     OW12841   1.143   2.044   6.246
 3981SOL    HW112842   1.154   1.960   6.193
 3981SOL    HW212843   1.225   2.099   6.240
 3982SOL     OW12844   2.736   0.458   4.141
 3982SOL    HW112845   2.741   0.551   4.104
 3982SOL    HW212846   2.654   0.448   4.196
 3983SOL     OW12847   3.297   5.896   4.203
 3983SOL    HW112848   3.352   5.841   4.140
 3983SOL    HW212849   3.290   5.849   4.291
 3984SOL     OW12850   2.251   0.869   2.044
 3984SOL    HW112851   2.341   0.871   2.001
 3984SOL    HW212852   2.196   0.944   2.007
 3985SOL     OW12853   2.559   4.122   0.167
 3985SOL    HW112854   2.583   4.219   0.175
 3985SOL    HW212855   2.636   4.071   0.129
 3986SOL     OW12856   0.524   1.900   3.297
 3986SOL    HW112857   0.476   1.985   3.319
 3986SOL    HW212858   0.518   1.836   3.374
 3987SOL     OW12859   1.330   5.169   4.753
 3987SOL    HW112860   1.337   5.162   4.853
 3987SOL    HW212861   1.371   5.256   4.723
 3988SOL     OW12862   3.786   1.980   5.657
 3988SOL    HW112863   3.781   1.901   5.719
 3988SOL    HW212864   3.786   1.947   5.562
 3989SOL     OW12865   6.049   0.900   6.469
 3989SOL    HW112866   6.067   0.807   6.502
 3989SOL    HW212867   5.955   0.926   6.494
 3990SOL     OW12868   6.111   1.778   3.921
 3990SOL    HW112869   6.211   1.769   3.916
 3990SOL    HW212870   6.086   1.819   4.009
 3991SOL     OW12871   6.793   2.399   3.852
 3991SOL    HW112872   6.719   2.431   3.912
 3991SOL    HW212873   6.801   2.299   3.861
 3992SOL     OW12874   4.600   1.841   6.322
 3992SOL    HW112875   4.635   1.809   6.410
 3992SOL    HW212876   4.649   1.923   6.293
 3993SOL     OW12877   1.949   1.578   3.700
 3993SOL    HW112878   1.866   1.564   3.755
 3993SOL    HW212879   1.922   1.604   3.607
 3994SOL     OW12880   1.676   2.407   4.626
 3994SOL    HW112881   1.600   2.416   4.690
 3994SOL    HW212882   1.644   2.362   4.543
 3995SOL     OW12883   2.395   4.363   3.948
 3995SOL    HW112884   2.340   4.444   3.925
 3995SOL    HW212885   2.469   4.390   4.010
 3996SOL     OW12886   1.390   0.858   5.015
 3996SOL    HW112887   1.323   0.862   5.088
 3996SOL    HW212888   1.357   0.909   4.936
 3997SOL     OW12889   5.033   3.655   3.801
 3997SOL    HW112890   5.119   3.696   3.832
 3997SOL    HW212891   4.957   3.697   3.851
 3998SOL     OW12892   5.325   1.605   2.260
 3998SOL    HW112893   5.235   1.649   2.260
 3998SOL    HW212894   5.350   1.581   2.354
 3999SOL     OW12895   5.622   3.817   2.968
 3999SOL    HW112896   5.654   3.722   2.974
 3999SOL    HW212897   5.621   3.857   3.060
 4000SOL     OW12898   3.233   5.727   2.686
 4000SOL    HW112899   3.233   5.754   2.590
 4000SOL    HW212900   3.213   5.807   2.743
 4001SOL     OW12901   2.476   2.505   4.806
 4001SOL    HW112902   2.401   2.462   4.755
 4001SOL    HW212903   2.523   2.571   4.747
 4002SOL     OW12904   3.604   3.654   6.323
 4002SOL    HW112905   3.561   3.570   6.290
 4002SOL    HW212906   3.584   3.729   6.259
 4003SOL     OW12907   2.438   0.617   6.048
 4003SOL    HW112908   2.373   0.618   6.123
 4003SOL    HW212909   2.507   0.689   6.063
 4004SOL     OW12910   6.090   3.145   4.083
 4004SOL    HW112911   6.029   3.225   4.091
 4004SOL    HW212912   6.078   3.086   4.163
 4005SOL     OW12913   4.986   4.964   1.378
 4005SOL    HW112914   5.001   5.031   1.305
 4005SOL    HW212915   5.061   4.970   1.444
 4006SOL     OW12916   4.521   4.749   2.200
 4006SOL    HW112917   4.469   4.664   2.209
 4006SOL    HW212918   4.531   4.791   2.291
 4007SOL     OW12919   0.544   2.668   2.012
 4007SOL    HW112920   0.462   2.636   2.060
 4007SOL    HW212921   0.542   2.767   2.006
 4008SOL     OW12922   3.910   1.295   5.826
 4008SOL    HW112923   3.934   1.337   5.738
 4008SOL    HW212924   3.957   1.343   5.900
 4009SOL     OW12925   4.541   2.686   0.557
 4009SOL    HW112926   4.579   2.723   0.472
 4009SOL    HW212927   4.606   2.700   0.631
 4010SOL     OW12928   2.217   3.093   1.567
 4010SOL    HW112929   2.317   3.093   1.563
 4010SOL    HW212930   2.180   3.140   1.487
 4011SOL     OW12931   1.043   6.915   2.280
 4011SOL    HW112932   1.026   6.864   2.196
 4011SOL    HW212933   1.012   6.861   2.358
 4012SOL     OW12934   4.524   5.309   2.350
 4012SOL    HW112935   4.503   5.403   2.379
 4012SOL    HW212936   4.445   5.251   2.364
 4013SOL     OW12937   3.139   0.541   0.888
 4013SOL    HW112938   3.099   0.588   0.810
 4013SOL    HW212939   3.077   0.469   0.920
 4014SOL     OW12940   3.909   5.428   3.975
 4014SOL    HW112941   3.869   5.368   4.045
 4014SOL    HW212942   3.881   5.522   3.992
 4015SOL     OW12943   4.192   4.653   6.328
 4015SOL    HW112944   4.121   4.585   6.313
 4015SOL    HW212945   4.163   4.741   6.290
 4016SOL     OW12946   1.835   5.215   6.989
 4016SOL    HW112947   1.877   5.238   0.050
 4016SOL    HW212948   1.750   5.265   6.978
 4017SOL     OW12949   0.462   6.210   6.577
 4017SOL    HW112950   0.477   6.115   6.605
 4017SOL    HW212951   0.540   6.266   6.606
 4018SOL     OW12952   5.276   6.325   1.298
 4018SOL    HW112953   5.363   6.358   1.335
 4018SOL    HW212954   5.230   6.398   1.249
 4019SOL     OW12955   6.464   3.838   2.648
 4019SOL    HW112956   6.464   3.937   2.630
 4019SOL    HW212957   6.440   3.823   2.744
 4020SOL     OW12958   0.455   2.718   5.747
 4020SOL    HW112959   0.549   2.688   5.763
 4020SOL    HW212960   0.394   2.639   5.751
 4021SOL     OW12961   2.942   3.653   5.093
 4021SOL    HW112962   2.928   3.554   5.092
 4021SOL    HW212963   2.976   3.683   5.004
 4022SOL     OW12964   4.575   7.018   6.521
 4022SOL    HW112965   4.581   6.921   6.545
 4022SOL    HW212966   4.658   0.019   6.473
 4023SOL     OW12967   6.901   0.660   4.114
 4023SOL    HW112968   6.830   0.711   4.066
 4023SOL    HW212969   6.930   0.582   4.058
 4024SOL     OW12970   1.961   5.590   4.407
 4024SOL    HW112971   1.970   5.497   4.442
 4024SOL    HW212972   1.901   5.590   4.326
 4025SOL     OW12973   0.494   6.393   4.428
 4025SOL    HW112974   0.483   6.294   4.435
 4025SOL    HW212975   0.584   6.414   4.392
 4026SOL     OW12976   6.391   0.114   2.961
 4026SOL    HW112977   6.342   0.042   2.912
 4026SOL    HW212978   6.482   0.081   2.987
 4027SOL     OW12979   3.032   2.559   0.855
 4027SOL    HW112980   3.077   2.643   0.824
 4027SOL    HW212981   2.939   2.580   0.885
 4028SOL     OW12982   2.764   2.148   2.966
 4028SOL    HW112983   2.674   2.192   2.963
 4028SOL    HW212984   2.820   2.180   2.890
 4029SOL     OW12985   3.215   4.848   5.594
 4029SOL    HW112986   3.144   4.879   5.531
 4029SOL    HW212987   3.257   4.764   5.558
 4030SOL     OW12988   1.316   1.548   1.641
 4030SOL    HW112989   1.349   1.605   1.717
 4030SOL    HW212990   1.307   1.604   1.559
 4031SOL     OW12991   5.067   6.140   3.430
 4031SOL    HW112992   5.062   6.185   3.519
 4031SOL    HW212993   5.129   6.062   3.436
 4032SOL     OW12994   6.138   0.405   2.727
 4032SOL    HW112995   6.055   0.430   2.677
 4032SOL    HW212996   6.168   0.314   2.698
 4033SOL     OW12997   2.267   3.483   1.347
 4033SOL    HW112998   2.224   3.527   1.427
 4033SOL    HW212999   2.341   3.540   1.313
 4034SOL     OW13000   6.613   1.269   4.393
 4034SOL    HW113001   6.526   1.275   4.345
 4034SOL    HW213002   6.622   1.180   4.437
 4035SOL     OW13003   6.173   2.416   0.470
 4035SOL    HW113004   6.186   2.319   0.487
 4035SOL    HW213005   6.076   2.435   0.454
 4036SOL     OW13006   4.728   5.853   2.556
 4036SOL    HW113007   4.745   5.891   2.465
 4036SOL    HW213008   4.745   5.755   2.555
 4037SOL     OW13009   2.523   1.626   0.466
 4037SOL    HW113010   2.602   1.685   0.474
 4037SOL    HW213011   2.518   1.588   0.374
 4038SOL     OW13012   4.631   3.379   1.693
 4038SOL    HW113013   4.717   3.385   1.744
 4038SOL    HW213014   4.647   3.333   1.606
 4039SOL     OW13015   4.894   4.343   1.621
 4039SOL    HW113016   4.902   4.420   1.684
 4039SOL    HW213017   4.819   4.284   1.650
 4040SOL     OW13018   3.661   6.939   6.030
 4040SOL    HW113019   3.693   0.001   6.062
 4040SOL    HW213020   3.621   6.889   6.106
 4041SOL     OW13021   1.476   4.847   1.432
 4041SOL    HW113022   1.549   4.794   1.387
 4041SOL    HW213023   1.403   4.864   1.366
 4042SOL     OW13024   6.395   5.802   3.182
 4042SOL    HW113025   6.312   5.750   3.202
 4042SOL    HW213026   6.462   5.741   3.138
 4043SOL     OW13027   5.605   1.546   4.540
 4043SOL    HW113028   5.531   1.543   4.473
 4043SOL    HW213029   5.645   1.637   4.541
 4044SOL     OW13030   4.663   0.170   3.498
 4044SOL    HW113031   4.638   0.172   3.401
 4044SOL    HW213032   4.581   0.185   3.553
 4045SOL     OW13033   3.008   5.799   5.456
 4045SOL    HW113034   3.044   5.859   5.384
 4045SOL    HW213035   2.938   5.739   5.418
 4046SOL     OW13036   1.098   1.976   4.139
 4046SOL    HW113037   1.105   2.010   4.233
 4046SOL    HW213038   1.069   2.051   4.079
 4047SOL     OW13039   1.579   2.172   0.868
 4047SOL    HW113040   1.640   2.214   0.935
 4047SOL    HW213041   1.537   2.090   0.908
 4048SOL     OW13042   5.323   1.953   1.987
 4048SOL    HW113043   5.251   2.018   1.964
 4048SOL    HW213044   5.297   1.903   2.069
 4049SOL     OW13045   5.979   4.987   6.080
 4049SOL    HW113046   6.079   4.985   6.073
 4049SOL    HW213047   5.943   5.063   6.025
 4050SOL     OW13048   1.155   6.694   1.327
 4050SOL    HW113049   1.160   6.663   1.232
 4050SOL    HW213050   1.176   6.617   1.388
 4051SOL     OW13051   3.948   2.154   6.668
 4051SOL    HW113052   4.043   2.131   6.647
 4051SOL    HW213053   3.891   2.133   6.589
 4052SOL     OW13054   6.929   1.157   2.646
 4052SOL    HW113055   6.887   1.241   2.611
 4052SOL    HW213056   6.968   1.105   2.569
 4053SOL     OW13057   3.086   5.602   4.133
 4053SOL    HW113058   3.178   5.567   4.115
 4053SOL    HW213059   3.030   5.528   4.171
 4054SOL     OW13060   6.282   3.519   1.841
 4054SOL    HW113061   6.318   3.605   1.803
 4054SOL    HW213062   6.235   3.468   1.769
 4055SOL     OW13063   2.963   2.985   6.442
 4055SOL    HW113064   3.011   2.897   6.438
 4055SOL    HW213065   2.866   2.969   6.459
 4056SOL     OW13066   3.457   4.176   1.032
 4056SOL    HW113067   3.527   4.160   0.962
 4056SOL    HW213068   3.416   4.089   1.059
 4057SOL     OW13069   5.697   2.620   1.690
 4057SOL    HW113070   5.758   2.602   1.767
 4057SOL    HW213071   5.696   2.718   1.670
 4058SOL     OW13072   2.048   0.233   3.923
 4058SOL    HW113073   2.102   0.279   3.852
 4058SOL    HW213074   1.965   0.285   3.940
 4059SOL     OW13075   1.192   2.356   3.516
 4059SOL    HW113076   1.132   2.399   3.583
 4059SOL    HW213077   1.265   2.308   3.563
 4060SOL     OW13078   5.363   5.780   4.596
 4060SOL    HW113079   5.327   5.694   4.633
 4060SOL    HW213080   5.353   5.853   4.663
 4061SOL     OW13081   3.036   5.006   1.711
 4061SOL    HW113082   2.965   4.954   1.663
 4061SOL    HW213083   3.126   4.970   1.687
 4062SOL     OW13084   2.121   2.481   2.042
 4062SOL    HW113085   2.054   2.518   2.105
 4062SOL    HW213086   2.211   2.478   2.087
 4063SOL     OW13087   6.415   5.660   5.861
 4063SOL    HW113088   6.483   5.588   5.863
 4063SOL    HW213089   6.427   5.716   5.779
 4064SOL     OW13090   2.194   6.580   3.678
 4064SOL    HW113091   2.180   6.541   3.769
 4064SOL    HW213092   2.127   6.653   3.663
 4065SOL     OW13093   0.315   0.071   1.017
 4065SOL    HW113094   0.237   0.057   0.955
 4065SOL    HW213095   0.389   0.117   0.967
 4066SOL     OW13096   5.265   6.016   3.160
 4066SOL    HW113097   5.238   6.031   3.255
 4066SOL    HW213098   5.244   5.921   3.134
 4067SOL     OW13099   6.428   3.177   3.236
 4067SOL    HW113100   6.370   3.199   3.158
 4067SOL    HW213101   6.497   3.111   3.208
 4068SOL     OW13102   3.260   0.819   4.803
 4068SOL    HW113103   3.339   0.827   4.864
 4068SOL    HW213104   3.266   0.890   4.733
 4069SOL     OW13105   3.267   5.025   5.832
 4069SOL    HW113106   3.264   4.948   5.768
 4069SOL    HW213107   3.193   5.089   5.811
 4070SOL     OW13108   0.364   3.099   1.970
 4070SOL    HW113109   0.327   3.093   1.878
 4070SOL    HW213110   0.436   3.031   1.983
 4071SOL     OW13111   1.317   0.566   5.409
 4071SOL    HW113112   1.255   0.629   5.361
 4071SOL    HW213113   1.329   0.597   5.504
 4072SOL     OW13114   0.331   5.921   4.390
 4072SOL    HW113115   0.300   5.969   4.308
 4072SOL    HW213116   0.270   5.943   4.466
 4073SOL     OW13117   2.157   6.184   6.023
 4073SOL    HW113118   2.209   6.192   5.938
 4073SOL    HW213119   2.061   6.165   6.001
 4074SOL     OW13120   6.867   2.735   1.948
 4074SOL    HW113121   6.783   2.738   2.002
 4074SOL    HW213122   6.847   2.702   1.856
 4075SOL     OW13123   4.071   1.872   2.631
 4075SOL    HW113124   4.031   1.961   2.609
 4075SOL    HW213125   4.010   1.823   2.693
 4076SOL     OW13126   2.778   3.019   5.631
 4076SOL    HW113127   2.841   2.959   5.681
 4076SOL    HW213128   2.830   3.088   5.582
 4077SOL     OW13129   4.055   0.593   0.439
 4077SOL    HW113130   4.120   0.669   0.432
 4077SOL    HW213131   3.984   0.616   0.505
 4078SOL     OW13132   6.738   5.796   2.052
 4078SOL    HW113133   6.650   5.779   2.008
 4078SOL    HW213134   6.811   5.755   1.998
 4079SOL     OW13135   1.032   2.259   4.206
 4079SOL    HW113136   0.989   2.347   4.227
 4079SOL    HW213137   0.969   2.185   4.228
 4080SOL     OW13138   2.983   3.880   6.585
 4080SOL    HW113139   3.013   3.784   6.578
 4080SOL    HW213140   2.919   3.901   6.511
 4081SOL     OW13141   2.325   1.851   4.681
 4081SOL    HW113142   2.304   1.837   4.585
 4081SOL    HW213143   2.385   1.778   4.713
 4082SOL     OW13144   1.935   3.236   0.195
 4082SOL    HW113145   1.945   3.170   0.269
 4082SOL    HW213146   1.848   3.222   0.149
 4083SOL     OW13147   6.938   4.459   1.796
 4083SOL    HW113148   6.903   4.366   1.799
 4083SOL    HW213149   7.019   4.463   1.738
 4084SOL     OW13150   4.488   2.396   3.138
 4084SOL    HW113151   4.399   2.363   3.106
 4084SOL    HW213152   4.515   2.347   3.220
 4085SOL     OW13153   2.453   5.902   0.735
 4085SOL    HW113154   2.433   5.906   0.833
 4085SOL    HW213155   2.465   5.807   0.707
 4086SOL     OW13156   0.667   5.201   1.824
 4086SOL    HW113157   0.683   5.240   1.733
 4086SOL    HW213158   0.607   5.263   1.875
 4087SOL     OW13159   1.628   1.827   3.250
 4087SOL    HW113160   1.621   1.732   3.279
 4087SOL    HW213161   1.631   1.887   3.330
 4088SOL     OW13162   6.262   0.789   6.879
 4088SOL    HW113163   6.308   0.848   6.812
 4088SOL    HW213164   6.283   0.820   6.972
 4089SOL     OW13165   5.498   4.625   3.725
 4089SOL    HW113166   5.581   4.622   3.669
 4089SOL    HW213167   5.506   4.700   3.791
 4090SOL     OW13168   1.147   5.039   5.193
 4090SOL    HW113169   1.150   4.940   5.182
 4090SOL    HW213170   1.163   5.083   5.104
 4091SOL     OW13171   0.666   6.369   6.667
 4091SOL    HW113172   0.702   6.427   6.594
 4091SOL    HW213173   0.742   6.330   6.720
 4092SOL     OW13174   5.680   2.890   4.271
 4092SOL    HW113175   5.744   2.813   4.264
 4092SOL    HW213176   5.597   2.861   4.319
 4093SOL     OW13177   4.848   6.120   1.975
 4093SOL    HW113178   4.917   6.163   2.034
 4093SOL    HW213179   4.862   6.022   1.973
 4094SOL     OW13180   1.846   5.309   5.830
 4094SOL    HW113181   1.933   5.332   5.788
 4094SOL    HW213182   1.861   5.254   5.912
 4095SOL     OW13183   0.549   4.462   0.741
 4095SOL    HW113184   0.463   4.440   0.786
 4095SOL    HW213185   0.537   4.543   0.683
 4096SOL     OW13186   5.030   0.702   6.236
 4096SOL    HW113187   4.964   0.669   6.304
 4096SOL    HW213188   4.995   0.785   6.193
 4097SOL     OW13189   3.955   4.870   4.482
 4097SOL    HW113190   4.002   4.807   4.421
 4097SOL    HW213191   4.000   4.870   4.571
 4098SOL     OW13192   0.470   2.248   2.028
 4098SOL    HW113193   0.522   2.162   2.033
 4098SOL    HW213194   0.392   2.244   2.090
 4099SOL     OW13195   3.772   5.078   1.479
 4099SOL    HW113196   3.849   5.099   1.419
 4099SOL    HW213197   3.686   5.082   1.427
 4100SOL     OW13198   6.987   6.644   4.371
 4100SOL    HW113199   7.008   6.546   4.368
 4100SOL    HW213200   6.902   6.661   4.321
 4101SOL     OW13201   6.760   0.976   6.896
 4101SOL    HW113202   6.695   1.052   6.891
 4101SOL    HW213203   6.822   0.990   6.973
 4102SOL     OW13204   0.296   1.084   0.525
 4102SOL    HW113205   0.394   1.077   0.504
 4102SOL    HW213206   0.256   1.160   0.475
 4103SOL     OW13207   0.378   6.839   0.252
 4103SOL    HW113208   0.444   6.863   0.181
 4103SOL    HW213209   0.426   6.812   0.335
 4104SOL     OW13210   6.955   5.338   3.007
 4104SOL    HW113211   6.969   5.344   2.909
 4104SOL    HW213212   6.923   5.426   3.042
 4105SOL     OW13213   5.281   0.072   2.048
 4105SOL    HW113214   5.237   0.138   2.109
 4105SOL    HW213215   5.253   7.006   2.074
 4106SOL     OW13216   6.705   3.000   2.921
 4106SOL    HW113217   6.662   3.009   3.011
 4106SOL    HW213218   6.637   3.018   2.850
 4107SOL     OW13219   1.159   5.004   1.038
 4107SOL    HW113220   1.254   5.013   1.011
 4107SOL    HW213221   1.100   5.027   0.960
 4108SOL     OW13222   6.478   5.494   4.497
 4108SOL    HW113223   6.480   5.513   4.399
 4108SOL    HW213224   6.386   5.511   4.533
 4109SOL     OW13225   6.588   6.533   4.520
 4109SOL    HW113226   6.593   6.572   4.612
 4109SOL    HW213227   6.494   6.505   4.502
 4110SOL     OW13228   4.231   3.944   5.268
 4110SOL    HW113229   4.292   3.882   5.319
 4110SOL    HW213230   4.200   4.017   5.329
 4111SOL     OW13231   5.288   4.046   6.792
 4111SOL    HW113232   5.387   4.050   6.804
 4111SOL    HW213233   5.246   4.129   6.831
 4112SOL     OW13234   4.921   6.050   4.823
 4112SOL    HW113235   4.962   6.132   4.863
 4112SOL    HW213236   4.858   6.009   4.889
 4113SOL     OW13237   5.357   5.556   5.241
 4113SOL    HW113238   5.400   5.617   5.174
 4113SOL    HW213239   5.384   5.582   5.333
 4114SOL     OW13240   4.403   2.441   4.236
 4114SOL    HW113241   4.304   2.434   4.251
 4114SOL    HW213242   4.440   2.352   4.212
 4115SOL     OW13243   2.920   5.360   2.043
 4115SOL    HW113244   2.861   5.318   2.113
 4115SOL    HW213245   2.995   5.298   2.021
 4116SOL     OW13246   3.693   1.643   2.632
 4116SOL    HW113247   3.770   1.665   2.691
 4116SOL    HW213248   3.697   1.698   2.549
 4117SOL     OW13249   1.355   3.428   2.570
 4117SOL    HW113250   1.365   3.331   2.549
 4117SOL    HW213251   1.441   3.464   2.605
 4118SOL     OW13252   4.936   5.866   0.832
 4118SOL    HW113253   4.917   5.818   0.917
 4118SOL    HW213254   5.017   5.825   0.789
 4119SOL     OW13255   3.914   1.582   4.040
 4119SOL    HW113256   3.876   1.654   4.098
 4119SOL    HW213257   3.864   1.578   3.954
 4120SOL     OW13258   4.272   0.424   6.364
 4120SOL    HW113259   4.185   0.405   6.410
 4120SOL    HW213260   4.275   0.378   6.276
 4121SOL     OW13261   6.422   0.233   4.221
 4121SOL    HW113262   6.337   0.270   4.260
 4121SOL    HW213263   6.498   0.257   4.281
 4122SOL     OW13264   1.160   6.142   4.162
 4122SOL    HW113265   1.075   6.124   4.211
 4122SOL    HW213266   1.141   6.152   4.064
 4123SOL     OW13267   4.463   4.641   5.476
 4123SOL    HW113268   4.443   4.739   5.479
 4123SOL    HW213269   4.391   4.591   5.524
 4124SOL     OW13270   6.857   6.632   0.737
 4124SOL    HW113271   6.886   6.686   0.658
 4124SOL    HW213272   6.847   6.693   0.816
 4125SOL     OW13273   4.615   1.708   2.317
 4125SOL    HW113274   4.617   1.795   2.268
 4125SOL    HW213275   4.706   1.690   2.355
 4126SOL     OW13276   1.912   3.740   3.825
 4126SOL    HW113277   1.864   3.652   3.833
 4126SOL    HW213278   1.853   3.806   3.778
 4127SOL     OW13279   5.542   4.428   5.288
 4127SOL    HW113280   5.615   4.395   5.228
 4127SOL    HW213281   5.487   4.351   5.318
 4128SOL     OW13282   0.732   2.774   1.208
 4128SOL    HW113283   0.774   2.863   1.224
 4128SOL    HW213284   0.787   2.703   1.253
 4129SOL     OW13285   3.806   0.948   6.942
 4129SOL    HW113286   3.886   0.904   6.900
 4129SOL    HW213287   3.738   0.969   6.871
 4130SOL     OW13288   6.232   2.643   0.787
 4130SOL    HW113289   6.217   2.629   0.690
 4130SOL    HW213290   6.326   2.674   0.803
 4131SOL     OW13291   0.072   1.713   4.232
 4131SOL    HW113292   0.043   1.653   4.158
 4131SOL    HW213293   0.095   1.659   4.313
 4132SOL     OW13294   4.691   4.161   3.692
 4132SOL    HW113295   4.644   4.184   3.607
 4132SOL    HW213296   4.698   4.242   3.749
 4133SOL     OW13297   3.259   6.146   1.257
 4133SOL    HW113298   3.268   6.046   1.251
 4133SOL    HW213299   3.172   6.168   1.301
 4134SOL     OW13300   2.541   4.078   1.396
 4134SOL    HW113301   2.640   4.075   1.389
 4134SOL    HW213302   2.513   4.050   1.488
 4135SOL     OW13303   0.647   2.206   2.470
 4135SOL    HW113304   0.652   2.287   2.410
 4135SOL    HW213305   0.670   2.125   2.417
 4136SOL     OW13306   1.513   3.097   3.179
 4136SOL    HW113307   1.536   3.055   3.266
 4136SOL    HW213308   1.443   3.042   3.133
 4137SOL     OW13309   0.984   3.565   1.836
 4137SOL    HW113310   0.974   3.561   1.936
 4137SOL    HW213311   0.930   3.642   1.801
 4138SOL     OW13312   4.429   5.911   2.813
 4138SOL    HW113313   4.460   5.851   2.886
 4138SOL    HW213314   4.352   5.870   2.766
 4139SOL     OW13315   2.322   1.826   5.893
 4139SOL    HW113316   2.228   1.847   5.920
 4139SOL    HW213317   2.386   1.862   5.960
 4140SOL     OW13318   3.082   0.245   5.782
 4140SOL    HW113319   3.109   0.188   5.704
 4140SOL    HW213320   3.130   0.333   5.776
 4141SOL     OW13321   5.109   6.811   1.265
 4141SOL    HW113322   5.053   6.740   1.307
 4141SOL    HW213323   5.184   6.836   1.326
 4142SOL     OW13324   6.800   4.831   0.744
 4142SOL    HW113325   6.744   4.898   0.696
 4142SOL    HW213326   6.760   4.812   0.833
 4143SOL     OW13327   5.253   1.667   0.924
 4143SOL    HW113328   5.210   1.640   0.838
 4143SOL    HW213329   5.218   1.757   0.952
 4144SOL     OW13330   5.297   1.615   0.359
 4144SOL    HW113331   5.377   1.589   0.306
 4144SOL    HW213332   5.221   1.633   0.297
 4145SOL     OW13333   0.246   6.380   1.837
 4145SOL    HW113334   0.279   6.466   1.798
 4145SOL    HW213335   0.148   6.385   1.852
 4146SOL     OW13336   6.803   0.687   2.826
 4146SOL    HW113337   6.819   0.742   2.908
 4146SOL    HW213338   6.745   0.737   2.763
 4147SOL     OW13339   5.021   4.690   6.197
 4147SOL    HW113340   4.994   4.602   6.236
 4147SOL    HW213341   4.956   4.760   6.224
 4148SOL     OW13342   1.469   0.559   5.022
 4148SOL    HW113343   1.459   0.658   5.015
 4148SOL    HW213344   1.523   0.525   4.945
 4149SOL     OW13345   0.021   4.036   1.124
 4149SOL    HW113346   0.110   3.999   1.152
 4149SOL    HW213347   6.997   3.965   1.075
 4150SOL     OW13348   0.761   0.039   6.119
 4150SOL    HW113349   0.837   0.093   6.157
 4150SOL    HW213350   0.763   0.046   6.019
 4151SOL     OW13351   3.289   6.547   5.878
 4151SOL    HW113352   3.214   6.591   5.830
 4151SOL    HW213353   3.299   6.453   5.846
 4152SOL     OW13354   4.453   5.937   0.781
 4152SOL    HW113355   4.425   6.031   0.801
 4152SOL    HW213356   4.466   5.887   0.867
 4153SOL     OW13357   5.443   5.126   0.477
 4153SOL    HW113358   5.480   5.115   0.384
 4153SOL    HW213359   5.344   5.144   0.471
 4154SOL     OW13360   0.121   5.140   3.400
 4154SOL    HW113361   0.076   5.051   3.398
 4154SOL    HW213362   0.141   5.170   3.307
 4155SOL     OW13363   0.027   1.514   2.497
 4155SOL    HW113364   0.020   1.559   2.586
 4155SOL    HW213365   6.964   1.481   2.470
 4156SOL     OW13366   5.725   5.936   4.781
 4156SOL    HW113367   5.778   5.905   4.703
 4156SOL    HW213368   5.772   5.912   4.866
 4157SOL     OW13369   5.014   5.232   3.998
 4157SOL    HW113370   4.980   5.322   4.024
 4157SOL    HW213371   5.027   5.176   4.080
 4158SOL     OW13372   6.785   3.327   1.371
 4158SOL    HW113373   6.730   3.275   1.436
 4158SOL    HW213374   6.753   3.307   1.278
 4159SOL     OW13375   2.032   3.457   3.358
 4159SOL    HW113376   2.096   3.398   3.308
 4159SOL    HW213377   2.032   3.431   3.455
 4160SOL     OW13378   5.966   0.669   0.284
 4160SOL    HW113379   5.906   0.603   0.330
 4160SOL    HW213380   5.923   0.759   0.285
 4161SOL     OW13381   0.945   1.803   0.959
 4161SOL    HW113382   0.970   1.873   1.026
 4161SOL    HW213383   0.885   1.844   0.890
 4162SOL     OW13384   6.791   5.950   0.249
 4162SOL    HW113385   6.714   5.991   0.298
 4162SOL    HW213386   6.768   5.940   0.153
 4163SOL     OW13387   4.510   0.156   3.259
 4163SOL    HW113388   4.423   0.206   3.251
 4163SOL    HW213389   4.533   0.116   3.170
 4164SOL     OW13390   1.622   6.711   5.575
 4164SOL    HW113391   1.672   6.651   5.638
 4164SOL    HW213392   1.579   6.785   5.628
 4165SOL     OW13393   4.179   0.231   6.018
 4165SOL    HW113394   4.172   0.241   5.918
 4165SOL    HW213395   4.262   0.275   6.050
 4166SOL     OW13396   5.327   2.566   0.548
 4166SOL    HW113397   5.422   2.594   0.568
 4166SOL    HW213398   5.268   2.646   0.552
 4167SOL     OW13399   1.591   4.157   1.094
 4167SOL    HW113400   1.609   4.157   0.996
 4167SOL    HW213401   1.586   4.252   1.127
 4168SOL     OW13402   0.119   4.287   1.080
 4168SOL    HW113403   0.099   4.189   1.071
 4168SOL    HW213404   0.177   4.302   1.160
 4169SOL     OW13405   6.116   4.238   4.831
 4169SOL    HW113406   6.027   4.284   4.831
 4169SOL    HW213407   6.156   4.243   4.739
 4170SOL     OW13408   4.253   3.822   5.699
 4170SOL    HW113409   4.174   3.808   5.639
 4170SOL    HW213410   4.266   3.919   5.714
 4171SOL     OW13411   5.965   6.378   0.864
 4171SOL    HW113412   6.007   6.400   0.775
 4171SOL    HW213413   5.965   6.460   0.921
 4172SOL     OW13414   1.398   1.657   5.760
 4172SOL    HW113415   1.456   1.589   5.803
 4172SOL    HW213416   1.447   1.701   5.685
 4173SOL     OW13417   5.086   4.092   5.093
 4173SOL    HW113418   5.033   4.156   5.036
 4173SOL    HW213419   5.090   4.127   5.186
 4174SOL     OW13420   4.965   1.529   3.211
 4174SOL    HW113421   4.994   1.433   3.209
 4174SOL    HW213422   4.889   1.542   3.148
 4175SOL     OW13423   2.185   5.539   4.701
 4175SOL    HW113424   2.121   5.477   4.657
 4175SOL    HW213425   2.211   5.503   4.791
 4176SOL     OW13426   2.903   5.811   1.950
 4176SOL    HW113427   2.989   5.842   1.910
 4176SOL    HW213428   2.843   5.890   1.967
 4177SOL     OW13429   6.422   4.679   5.107
 4177SOL    HW113430   6.518   4.704   5.117
 4177SOL    HW213431   6.416   4.585   5.072
 4178SOL     OW13432   4.717   0.467   4.106
 4178SOL    HW113433   4.800   0.517   4.081
 4178SOL    HW213434   4.742   0.374   4.134
 4179SOL     OW13435   5.063   3.184   3.407
 4179SOL    HW113436   5.023   3.227   3.488
 4179SOL    HW213437   5.160   3.169   3.421
 4180SOL     OW13438   5.293   4.582   0.905
 4180SOL    HW113439   5.206   4.549   0.868
 4180SOL    HW213440   5.368   4.530   0.865
 4181SOL     OW13441   2.550   1.312   0.610
 4181SOL    HW113442   2.501   1.386   0.564
 4181SOL    HW213443   2.642   1.344   0.633
 4182SOL     OW13444   1.012   6.856   3.612
 4182SOL    HW113445   0.946   6.801   3.560
 4182SOL    HW213446   1.068   6.796   3.668
 4183SOL     OW13447   2.958   1.592   0.050
 4183SOL    HW113448   3.004   1.640   7.002
 4183SOL    HW213449   2.949   1.495   0.027
 4184SOL     OW13450   4.865   5.782   1.603
 4184SOL    HW113451   4.878   5.723   1.523
 4184SOL    HW213452   4.852   5.725   1.684
 4185SOL     OW13453   0.340   4.954   2.274
 4185SOL    HW113454   0.262   4.997   2.319
 4185SOL    HW213455   0.339   4.856   2.294
 4186SOL     OW13456   2.261   5.041   7.000
 4186SOL    HW113457   2.247   5.069   6.905
 4186SOL    HW213458   2.231   4.947   7.012
 4187SOL     OW13459   3.398   2.958   5.715
 4187SOL    HW113460   3.343   2.964   5.631
 4187SOL    HW213461   3.386   3.041   5.769
 4188SOL     OW13462   4.673   6.755   4.746
 4188SOL    HW113463   4.645   6.683   4.810
 4188SOL    HW213464   4.621   6.745   4.661
 4189SOL     OW13465   2.466   5.086   5.470
 4189SOL    HW113466   2.421   5.050   5.389
 4189SOL    HW213467   2.442   5.183   5.481
 4190SOL     OW13468   0.959   0.755   0.059
 4190SOL    HW113469   1.040   0.697   0.063
 4190SOL    HW213470   0.881   0.707   0.098
 4191SOL     OW13471   4.684   4.235   3.346
 4191SOL    HW113472   4.740   4.281   3.278
 4191SOL    HW213473   4.710   4.138   3.351
 4192SOL     OW13474   1.031   0.737   4.322
 4192SOL    HW113475   0.960   0.714   4.255
 4192SOL    HW213476   1.115   0.762   4.274
 4193SOL     OW13477   0.910   1.129   1.823
 4193SOL    HW113478   0.810   1.124   1.828
 4193SOL    HW213479   0.937   1.155   1.730
 4194SOL     OW13480   5.342   0.728   4.579
 4194SOL    HW113481   5.365   0.760   4.671
 4194SOL    HW213482   5.347   0.804   4.515
 4195SOL     OW13483   3.602   6.678   2.031
 4195SOL    HW113484   3.678   6.714   1.978
 4195SOL    HW213485   3.620   6.582   2.054
 4196SOL     OW13486   5.465   2.148   3.596
 4196SOL    HW113487   5.495   2.153   3.691
 4196SOL    HW213488   5.446   2.240   3.562
 4197SOL     OW13489   5.116   5.769   6.269
 4197SOL    HW113490   5.177   5.701   6.311
 4197SOL    HW213491   5.154   5.799   6.182
 4198SOL     OW13492   5.698   2.251   0.048
 4198SOL    HW113493   5.699   2.174   7.012
 4198SOL    HW213494   5.608   2.295   0.045
 4199SOL     OW13495   2.270   2.786   5.809
 4199SOL    HW113496   2.317   2.842   5.742
 4199SOL    HW213497   2.284   2.689   5.787
 4200SOL     OW13498   3.903   6.590   6.059
 4200SOL    HW113499   3.879   6.583   6.156
 4200SOL    HW213500   3.832   6.547   6.004
 4201SOL     OW13501   5.734   5.935   3.684
 4201SOL    HW113502   5.797   6.006   3.653
 4201SOL    HW213503   5.783   5.849   3.699
 4202SOL     OW13504   4.215   5.299   6.126
 4202SOL    HW113505   4.214   5.354   6.209
 4202SOL    HW213506   4.167   5.212   6.143
 4203SOL     OW13507   4.791   5.058   0.391
 4203SOL    HW113508   4.718   5.027   0.330
 4203SOL    HW213509   4.843   4.978   0.423
 4204SOL     OW13510   4.026   3.829   2.620
 4204SOL    HW113511   4.060   3.903   2.562
 4204SOL    HW213512   4.039   3.742   2.572
 4205SOL     OW13513   3.731   5.770   3.497
 4205SOL    HW113514   3.774   5.687   3.533
 4205SOL    HW213515   3.654   5.745   3.438
 4206SOL     OW13516   6.936   0.204   6.060
 4206SOL    HW113517   6.854   0.223   6.007
 4206SOL    HW213518   6.963   0.109   6.048
 4207SOL     OW13519   1.591   1.607   0.722
 4207SOL    HW113520   1.515   1.650   0.672
 4207SOL    HW213521   1.653   1.678   0.756
 4208SOL     OW13522   0.661   3.273   5.877
 4208SOL    HW113523   0.690   3.360   5.916
 4208SOL    HW213524   0.648   3.207   5.951
 4209SOL     OW13525   0.560   0.656   4.942
 4209SOL    HW113526   0.465   0.687   4.936
 4209SOL    HW213527   0.564   0.559   4.917
 4210SOL     OW13528   3.034   3.154   2.508
 4210SOL    HW113529   3.109   3.115   2.454
 4210SOL    HW213530   2.957   3.090   2.509
 4211SOL     OW13531   4.235   5.830   6.018
 4211SOL    HW113532   4.288   5.746   6.009
 4211SOL    HW213533   4.294   5.909   6.002
 4212SOL     OW13534   5.736   1.945   3.025
 4212SOL    HW113535   5.671   1.994   2.966
 4212SOL    HW213536   5.829   1.970   2.999
 4213SOL     OW13537   2.369   1.022   1.748
 4213SOL    HW113538   2.330   1.091   1.809
 4213SOL    HW213539   2.295   0.971   1.704
 4214SOL     OW13540   1.558   4.568   5.012
 4214SOL    HW113541   1.498   4.492   5.036
 4214SOL    HW213542   1.503   4.649   4.993
 4215SOL     OW13543   6.476   5.840   5.113
 4215SOL    HW113544   6.395   5.896   5.096
 4215SOL    HW213545   6.535   5.885   5.179
 4216SOL     OW13546   0.987   1.565   2.677
 4216SOL    HW113547   0.967   1.474   2.712
 4216SOL    HW213548   1.085   1.584   2.684
 4217SOL     OW13549   0.873   0.706   2.141
 4217SOL    HW113550   0.885   0.718   2.240
 4217SOL    HW213551   0.787   0.748   2.113
 4218SOL     OW13552   4.569   0.952   1.625
 4218SOL    HW113553   4.510   0.881   1.587
 4218SOL    HW213554   4.564   0.951   1.725
 4219SOL     OW13555   3.356   5.240   3.857
 4219SOL    HW113556   3.389   5.328   3.822
 4219SOL    HW213557   3.321   5.185   3.781
 4220SOL     OW13558   5.211   2.937   3.907
 4220SOL    HW113559   5.122   2.938   3.952
 4220SOL    HW213560   5.264   2.858   3.940
 4221SOL     OW13561   6.286   5.348   6.607
 4221SOL    HW113562   6.188   5.347   6.623
 4221SOL    HW213563   6.307   5.296   6.524
 4222SOL     OW13564   6.028   1.538   3.364
 4222SOL    HW113565   6.020   1.627   3.320
 4222SOL    HW213566   5.937   1.497   3.373
 4223SOL     OW13567   3.653   3.344   6.241
 4223SOL    HW113568   3.575   3.362   6.180
 4223SOL    HW213569   3.619   3.328   6.333
 4224SOL     OW13570   5.301   3.428   3.559
 4224SOL    HW113571   5.330   3.335   3.536
 4224SOL    HW213572   5.201   3.432   3.563
 4225SOL     OW13573   3.954   0.690   5.964
 4225SOL    HW113574   3.938   0.654   6.056
 4225SOL    HW213575   3.913   0.781   5.957
 4226SOL     OW13576   0.785   0.409   2.417
 4226SOL    HW113577   0.810   0.452   2.504
 4226SOL    HW213578   0.853   0.434   2.348
 4227SOL     OW13579   3.603   4.559   0.415
 4227SOL    HW113580   3.543   4.612   0.355
 4227SOL    HW213581   3.579   4.578   0.511
 4228SOL     OW13582   0.831   3.603   4.997
 4228SOL    HW113583   0.834   3.700   4.974
 4228SOL    HW213584   0.736   3.574   5.011
 4229SOL     OW13585   4.984   5.423   5.856
 4229SOL    HW113586   5.041   5.473   5.791
 4229SOL    HW213587   4.889   5.428   5.829
 4230SOL     OW13588   1.183   6.919   3.124
 4230SOL    HW113589   1.110   6.903   3.190
 4230SOL    HW213590   1.272   6.909   3.170
 4231SOL     OW13591   6.357   6.136   5.378
 4231SOL    HW113592   6.449   6.175   5.365
 4231SOL    HW213593   6.322   6.164   5.467
 4232SOL     OW13594   6.630   4.778   2.521
 4232SOL    HW113595   6.645   4.735   2.432
 4232SOL    HW213596   6.718   4.789   2.567
 4233SOL     OW13597   6.903   6.992   6.386
 4233SOL    HW113598   6.889   6.946   6.474
 4233SOL    HW213599   6.839   0.042   6.379
 4234SOL     OW13600   2.376   6.826   5.442
 4234SOL    HW113601   2.441   6.901   5.430
 4234SOL    HW213602   2.390   6.759   5.369
 4235SOL     OW13603   5.860   3.427   6.186
 4235SOL    HW113604   5.770   3.408   6.224
 4235SOL    HW213605   5.852   3.445   6.088
 4236SOL     OW13606   7.026   3.777   2.797
 4236SOL    HW113607   6.944   3.800   2.744
 4236SOL    HW213608   7.026   3.829   2.883
 4237SOL     OW13609   6.095   5.408   2.898
 4237SOL    HW113610   6.105   5.471   2.822
 4237SOL    HW213611   6.006   5.363   2.893
 4238SOL     OW13612   3.132   5.287   2.618
 4238SOL    HW113613   3.094   5.328   2.535
 4238SOL    HW213614   3.070   5.304   2.695
 4239SOL     OW13615   5.411   1.637   3.144
 4239SOL    HW113616   5.388   1.715   3.086
 4239SOL    HW213617   5.507   1.644   3.171
 4240SOL     OW13618   2.340   0.081   0.429
 4240SOL    HW113619   2.307   0.128   0.511
 4240SOL    HW213620   2.338   7.009   0.444
 4241SOL     OW13621   6.075   0.569   0.051
 4241SOL    HW113622   6.024   0.627   7.014
 4241SOL    HW213623   6.046   0.589   0.144
 4242SOL     OW13624   2.117   0.553   3.190
 4242SOL    HW113625   2.027   0.559   3.232
 4242SOL    HW213626   2.123   0.618   3.115
 4243SOL     OW13627   6.326   3.462   3.425
 4243SOL    HW113628   6.419   3.452   3.389
 4243SOL    HW213629   6.325   3.436   3.521
 4244SOL     OW13630   4.917   4.571   1.759
 4244SOL    HW113631   4.833   4.577   1.813
 4244SOL    HW213632   4.944   4.662   1.728
 4245SOL     OW13633   6.619   0.921   6.012
 4245SOL    HW113634   6.522   0.919   5.988
 4245SOL    HW213635   6.668   0.855   5.955
 4246SOL     OW13636   6.290   3.385   2.602
 4246SOL    HW113637   6.301   3.484   2.588
 4246SOL    HW213638   6.357   3.354   2.669
 4247SOL     OW13639   2.308   4.616   3.447
 4247SOL    HW113640   2.226   4.566   3.474
 4247SOL    HW213641   2.296   4.714   3.466
 4248SOL     OW13642   2.227   1.508   3.769
 4248SOL    HW113643   2.279   1.503   3.684
 4248SOL    HW213644   2.129   1.515   3.747
 4249SOL     OW13645   5.473   1.730   4.326
 4249SOL    HW113646   5.410   1.657   4.352
 4249SOL    HW213647   5.517   1.706   4.239
 4250SOL     OW13648   0.065   5.897   3.910
 4250SOL    HW113649   0.023   5.986   3.927
 4250SOL    HW213650   0.056   5.873   3.814
 4251SOL     OW13651   5.833   3.746   1.486
 4251SOL    HW113652   5.777   3.799   1.423
 4251SOL    HW213653   5.792   3.656   1.500
 4252SOL     OW13654   6.593   6.781   6.388
 4252SOL    HW113655   6.572   6.741   6.299
 4252SOL    HW213656   6.609   6.708   6.454
 4253SOL     OW13657   2.967   6.487   0.702
 4253SOL    HW113658   3.007   6.396   0.715
 4253SOL    HW213659   2.904   6.507   0.777
 4254SOL     OW13660   1.074   3.286   2.534
 4254SOL    HW113661   1.137   3.364   2.537
 4254SOL    HW213662   1.104   3.222   2.462
 4255SOL     OW13663   6.787   4.577   3.939
 4255SOL    HW113664   6.879   4.574   3.899
 4255SOL    HW213665   6.790   4.624   4.027
 4256SOL     OW13666   1.635   6.246   0.967
 4256SOL    HW113667   1.564   6.315   0.979
 4256SOL    HW213668   1.618   6.194   0.884
 4257SOL     OW13669   3.413   0.743   4.100
 4257SOL    HW113670   3.371   0.829   4.127
 4257SOL    HW213671   3.396   0.674   4.170
 4258SOL     OW13672   3.375   5.877   1.332
 4258SOL    HW113673   3.458   5.931   1.340
 4258SOL    HW213674   3.378   5.822   1.249
 4259SOL     OW13675   1.948   0.497   0.856
 4259SOL    HW113676   1.893   0.544   0.787
 4259SOL    HW213677   1.919   0.526   0.947
 4260SOL     OW13678   5.926   0.370   2.530
 4260SOL    HW113679   5.955   0.293   2.473
 4260SOL    HW213680   5.829   0.387   2.517
 4261SOL     OW13681   1.856   1.052   2.599
 4261SOL    HW113682   1.890   1.104   2.677
 4261SOL    HW213683   1.816   1.115   2.532
 4262SOL     OW13684   0.741   3.882   6.760
 4262SOL    HW113685   0.685   3.932   6.827
 4262SOL    HW213686   0.764   3.792   6.797
 4263SOL     OW13687   2.677   0.678   2.863
 4263SOL    HW113688   2.613   0.752   2.844
 4263SOL    HW213689   2.750   0.712   2.923
 4264SOL     OW13690   6.200   1.946   4.369
 4264SOL    HW113691   6.199   1.847   4.355
 4264SOL    HW213692   6.294   1.980   4.361
 4265SOL     OW13693   4.254   0.819   0.381
 4265SOL    HW113694   4.221   0.910   0.358
 4265SOL    HW213695   4.350   0.810   0.355
 4266SOL     OW13696   1.510   6.372   6.444
 4266SOL    HW113697   1.444   6.446   6.431
 4266SOL    HW213698   1.601   6.402   6.416
 4267SOL     OW13699   2.153   3.758   3.703
 4267SOL    HW113700   2.073   3.750   3.763
 4267SOL    HW213701   2.129   3.728   3.611
 4268SOL     OW13702   1.539   5.930   6.661
 4268SOL    HW113703   1.543   5.987   6.743
 4268SOL    HW213704   1.509   5.986   6.583
 4269SOL     OW13705   3.069   0.266   2.287
 4269SOL    HW113706   3.042   0.361   2.306
 4269SOL    HW213707   3.011   0.204   2.339
 4270SOL     OW13708   4.088   3.642   2.909
 4270SOL    HW113709   4.080   3.739   2.884
 4270SOL    HW213710   4.073   3.585   2.829
 4271SOL     OW13711   6.370   1.200   0.024
 4271SOL    HW113712   6.321   1.135   0.082
 4271SOL    HW213713   6.305   1.251   6.995
 4272SOL     OW13714   6.714   1.868   4.591
 4272SOL    HW113715   6.682   1.901   4.502
 4272SOL    HW213716   6.700   1.769   4.597
 4273SOL     OW13717   3.738   6.789   5.341
 4273SOL    HW113718   3.813   6.724   5.345
 4273SOL    HW213719   3.748   6.848   5.261
 4274SOL     OW13720   1.186   0.387   1.373
 4274SOL    HW113721   1.152   0.354   1.285
 4274SOL    HW213722   1.110   0.424   1.427
 4275SOL     OW13723   6.316   2.040   4.669
 4275SOL    HW113724   6.348   2.013   4.578
 4275SOL    HW213725   6.362   1.985   4.738
 4276SOL     OW13726   2.515   5.425   3.766
 4276SOL    HW113727   2.423   5.396   3.790
 4276SOL    HW213728   2.529   5.521   3.793
 4277SOL     OW13729   6.246   4.657   3.326
 4277SOL    HW113730   6.306   4.648   3.247
 4277SOL    HW213731   6.188   4.738   3.316
 4278SOL     OW13732   0.315   6.730   4.788
 4278SOL    HW113733   0.334   6.640   4.826
 4278SOL    HW213734   0.242   6.723   4.720
 4279SOL     OW13735   3.291   1.153   3.467
 4279SOL    HW113736   3.207   1.130   3.517
 4279SOL    HW213737   3.366   1.096   3.501
 4280SOL     OW13738   5.605   0.011   5.936
 4280SOL    HW113739   5.700   0.020   5.968
 4280SOL    HW213740   5.572   6.946   5.955
 4281SOL     OW13741   6.726   4.604   2.873
 4281SOL    HW113742   6.734   4.702   2.855
 4281SOL    HW213743   6.762   4.584   2.964
 4282SOL     OW13744   3.456   4.632   0.189
 4282SOL    HW113745   3.414   4.718   0.161
 4282SOL    HW213746   3.552   4.632   0.165
 4283SOL     OW13747   1.891   0.605   3.363
 4283SOL    HW113748   1.889   0.696   3.406
 4283SOL    HW213749   1.813   0.595   3.302
 4284SOL     OW13750   3.716   3.672   1.434
 4284SOL    HW113751   3.620   3.649   1.420
 4284SOL    HW213752   3.764   3.594   1.474
 4285SOL     OW13753   1.757   0.645   5.696
 4285SOL    HW113754   1.660   0.656   5.673
 4285SOL    HW213755   1.773   0.677   5.790
 4286SOL     OW13756   5.582   6.302   5.730
 4286SOL    HW113757   5.533   6.386   5.708
 4286SOL    HW213758   5.516   6.229   5.750
 4287SOL     OW13759   5.571   0.540   6.043
 4287SOL    HW113760   5.502   0.607   6.017
 4287SOL    HW213761   5.623   0.512   5.962
 4288SOL     OW13762   0.501   5.890   2.792
 4288SOL    HW113763   0.568   5.936   2.851
 4288SOL    HW213764   0.515   5.918   2.697
 4289SOL     OW13765   6.540   3.274   6.499
 4289SOL    HW113766   6.448   3.314   6.495
 4289SOL    HW213767   6.583   3.297   6.586
 4290SOL     OW13768   1.629   6.602   3.781
 4290SOL    HW113769   1.713   6.549   3.789
 4290SOL    HW213770   1.587   6.585   3.691
 4291SOL     OW13771   4.508   4.174   0.274
 4291SOL    HW113772   4.463   4.215   0.195
 4291SOL    HW213773   4.539   4.081   0.251
 4292SOL     OW13774   5.778   2.954   0.307
 4292SOL    HW113775   5.765   2.855   0.300
 4292SOL    HW213776   5.858   2.981   0.254
 4293SOL     OW13777   3.040   3.014   6.871
 4293SOL    HW113778   2.986   2.935   6.842
 4293SOL    HW213779   3.014   3.094   6.816
 4294SOL     OW13780   2.282   1.587   6.302
 4294SOL    HW113781   2.264   1.595   6.400
 4294SOL    HW213782   2.361   1.527   6.288
 4295SOL     OW13783   3.454   6.047   5.032
 4295SOL    HW113784   3.409   6.036   4.944
 4295SOL    HW213785   3.398   6.007   5.104
 4296SOL     OW13786   3.313   6.788   0.726
 4296SOL    HW113787   3.302   6.855   0.800
 4296SOL    HW213788   3.366   6.829   0.652
 4297SOL     OW13789   5.282   0.372   0.944
 4297SOL    HW113790   5.270   0.400   1.039
 4297SOL    HW213791   5.244   0.280   0.931
 4298SOL     OW13792   4.392   5.267   0.900
 4298SOL    HW113793   4.444   5.224   0.974
 4298SOL    HW213794   4.438   5.252   0.813
 4299SOL     OW13795   1.582   3.299   6.515
 4299SOL    HW113796   1.533   3.228   6.464
 4299SOL    HW213797   1.651   3.257   6.573
 4300SOL     OW13798   3.142   6.675   0.335
 4300SOL    HW113799   3.108   6.688   0.429
 4300SOL    HW213800   3.228   6.726   0.324
 4301SOL     OW13801   4.530   0.441   1.462
 4301SOL    HW113802   4.563   0.346   1.458
 4301SOL    HW213803   4.560   0.483   1.547
 4302SOL     OW13804   0.330   0.098   5.906
 4302SOL    HW113805   0.256   0.155   5.868
 4302SOL    HW213806   0.338   0.116   6.004
 4303SOL     OW13807   6.923   4.917   3.913
 4303SOL    HW113808   7.012   4.898   3.872
 4303SOL    HW213809   6.880   4.994   3.866
 4304SOL     OW13810   3.272   2.918   2.577
 4304SOL    HW113811   3.251   2.848   2.645
 4304SOL    HW213812   3.370   2.936   2.577
 4305SOL     OW13813   0.485   6.707   6.021
 4305SOL    HW113814   0.427   6.751   5.952
 4305SOL    HW213815   0.536   6.632   5.979
 4306SOL     OW13816   4.407   4.886   5.185
 4306SOL    HW113817   4.479   4.890   5.116
 4306SOL    HW213818   4.321   4.860   5.141
 4307SOL     OW13819   5.894   3.759   5.829
 4307SOL    HW113820   5.830   3.728   5.900
 4307SOL    HW213821   5.888   3.697   5.751
 4308SOL     OW13822   5.961   4.844   1.002
 4308SOL    HW113823   5.906   4.855   1.085
 4308SOL    HW213824   6.015   4.927   0.986
 4309SOL     OW13825   0.987   1.296   0.289
 4309SOL    HW113826   1.051   1.286   0.365
 4309SOL    HW213827   0.914   1.360   0.314
 4310SOL     OW13828   1.610   2.657   1.945
 4310SOL    HW113829   1.679   2.729   1.937
 4310SOL    HW213830   1.653   2.574   1.982
 4311SOL     OW13831   1.691   6.459   2.693
 4311SOL    HW113832   1.639   6.488   2.614
 4311SOL    HW213833   1.789   6.464   2.673
 4312SOL     OW13834   1.207   6.134   1.972
 4312SOL    HW113835   1.249   6.054   1.929
 4312SOL    HW213836   1.111   6.115   1.993
 4313SOL     OW13837   5.004   1.810   0.896
 4313SOL    HW113838   4.994   1.715   0.926
 4313SOL    HW213839   4.981   1.816   0.799
 4314SOL     OW13840   5.774   1.115   4.278
 4314SOL    HW113841   5.849   1.152   4.223
 4314SOL    HW213842   5.761   1.173   4.359
 4315SOL     OW13843   2.327   0.248   3.118
 4315SOL    HW113844   2.410   0.192   3.122
 4315SOL    HW213845   2.283   0.249   3.208
 4316SOL     OW13846   4.981   1.098   1.736
 4316SOL    HW113847   5.035   1.073   1.656
 4316SOL    HW213848   4.929   1.181   1.717
 4317SOL     OW13849   5.405   2.393   5.507
 4317SOL    HW113850   5.481   2.439   5.462
 4317SOL    HW213851   5.318   2.430   5.472
 4318SOL     OW13852   0.159   2.148   4.997
 4318SOL    HW113853   0.152   2.083   4.921
 4318SOL    HW213854   0.070   2.155   5.043
 4319SOL     OW13855   1.887   1.267   0.493
 4319SOL    HW113856   1.829   1.211   0.552
 4319SOL    HW213857   1.840   1.352   0.471
 4320SOL     OW13858   4.344   4.878   0.923
 4320SOL    HW113859   4.294   4.942   0.864
 4320SOL    HW213860   4.292   4.865   1.007
 4321SOL     OW13861   0.475   5.340   5.492
 4321SOL    HW113862   0.486   5.435   5.463
 4321SOL    HW213863   0.379   5.321   5.513
 4322SOL     OW13864   6.056   2.972   0.148
 4322SOL    HW113865   6.086   3.065   0.170
 4322SOL    HW213866   6.106   2.938   0.069
 4323SOL     OW13867   4.657   3.793   6.943
 4323SOL    HW113868   4.605   3.714   6.914
 4323SOL    HW213869   4.595   3.865   6.974
 4324SOL     OW13870   6.056   4.538   6.736
 4324SOL    HW113871   6.037   4.441   6.748
 4324SOL    HW213872   6.021   4.568   6.647
 4325SOL     OW13873   2.665   1.484   1.387
 4325SOL    HW113874   2.756   1.522   1.400
 4325SOL    HW213875   2.656   1.450   1.294
 4326SOL     OW13876   4.420   4.568   3.067
 4326SOL    HW113877   4.436   4.545   2.971
 4326SOL    HW213878   4.500   4.614   3.105
 4327SOL     OW13879   5.628   5.835   1.998
 4327SOL    HW113880   5.666   5.869   2.084
 4327SOL    HW213881   5.686   5.761   1.963
 4328SOL     OW13882   4.235   4.304   5.936
 4328SOL    HW113883   4.187   4.392   5.924
 4328SOL    HW213884   4.327   4.321   5.970
 4329SOL     OW13885   4.762   2.421   5.398
 4329SOL    HW113886   4.785   2.357   5.472
 4329SOL    HW213887   4.825   2.498   5.400
 4330SOL     OW13888   1.670   6.090   4.637
 4330SOL    HW113889   1.650   5.993   4.647
 4330SOL    HW213890   1.592   6.136   4.594
 4331SOL     OW13891   6.385   1.572   1.768
 4331SOL    HW113892   6.299   1.616   1.794
 4331SOL    HW213893   6.373   1.523   1.682
 4332SOL     OW13894   5.085   2.843   2.591
 4332SOL    HW113895   5.116   2.913   2.655
 4332SOL    HW213896   5.012   2.881   2.534
 4333SOL     OW13897   4.728   1.216   5.595
 4333SOL    HW113898   4.686   1.212   5.686
 4333SOL    HW213899   4.824   1.244   5.604
 4334SOL     OW13900   1.618   2.076   2.707
 4334SOL    HW113901   1.670   2.087   2.622
 4334SOL    HW213902   1.588   1.981   2.715
 4335SOL     OW13903   3.066   3.960   2.455
 4335SOL    HW113904   3.043   3.888   2.389
 4335SOL    HW213905   3.056   4.049   2.411
 4336SOL     OW13906   3.341   6.675   6.130
 4336SOL    HW113907   3.324   6.640   6.038
 4336SOL    HW213908   3.272   6.743   6.153
 4337SOL     OW13909   1.078   4.328   0.681
 4337SOL    HW113910   1.056   4.418   0.645
 4337SOL    HW213911   1.161   4.293   0.638
 4338SOL     OW13912   6.286   6.769   6.258
 4338SOL    HW113913   6.366   6.793   6.314
 4338SOL    HW213914   6.313   6.768   6.162
 4339SOL     OW13915   4.270   3.212   5.646
 4339SOL    HW113916   4.194   3.166   5.599
 4339SOL    HW213917   4.356   3.166   5.623
 4340SOL     OW13918   6.345   3.185   1.081
 4340SOL    HW113919   6.336   3.232   1.169
 4340SOL    HW213920   6.259   3.194   1.031
 4341SOL     OW13921   1.032   5.385   1.630
 4341SOL    HW113922   1.125   5.412   1.608
 4341SOL    HW213923   0.985   5.461   1.676
 4342SOL     OW13924   4.955   3.747   3.225
 4342SOL    HW113925   4.956   3.722   3.128
 4342SOL    HW213926   4.973   3.666   3.281
 4343SOL     OW13927   3.086   6.238   5.063
 4343SOL    HW113928   3.034   6.152   5.059
 4343SOL    HW213929   3.102   6.272   4.971
 4344SOL     OW13930   0.320   4.203   2.216
 4344SOL    HW113931   0.347   4.111   2.244
 4344SOL    HW213932   0.350   4.220   2.122
 4345SOL     OW13933   3.502   4.499   5.510
 4345SOL    HW113934   3.538   4.420   5.560
 4345SOL    HW213935   3.531   4.583   5.556
 4346SOL     OW13936   1.860   3.766   2.896
 4346SOL    HW113937   1.908   3.683   2.924
 4346SOL    HW213938   1.849   3.767   2.797
 4347SOL     OW13939   5.847   0.103   2.170
 4347SOL    HW113940   5.777   0.033   2.171
 4347SOL    HW213941   5.838   0.158   2.086
 4348SOL     OW13942   0.136   5.300   3.803
 4348SOL    HW113943   0.175   5.227   3.747
 4348SOL    HW213944   0.205   5.330   3.870
 4349SOL     OW13945   5.853   2.095   3.257
 4349SOL    HW113946   5.844   2.192   3.232
 4349SOL    HW213947   5.828   2.039   3.178
 4350SOL     OW13948   3.391   1.799   4.126
 4350SOL    HW113949   3.432   1.878   4.172
 4350SOL    HW213950   3.459   1.757   4.066
 4351SOL     OW13951   1.342   6.157   1.288
 4351SOL    HW113952   1.304   6.092   1.223
 4351SOL    HW213953   1.284   6.162   1.369
 4352SOL     OW13954   6.182   3.921   2.467
 4352SOL    HW113955   6.274   3.944   2.434
 4352SOL    HW213956   6.150   3.838   2.421
 4353SOL     OW13957   4.220   2.796   6.356
 4353SOL    HW113958   4.131   2.833   6.328
 4353SOL    HW213959   4.214   2.696   6.358
 4354SOL     OW13960   2.187   0.988   6.012
 4354SOL    HW113961   2.122   1.009   6.086
 4354SOL    HW213962   2.277   0.969   6.052
 4355SOL     OW13963   2.427   0.567   2.522
 4355SOL    HW113964   2.459   0.660   2.503
 4355SOL    HW213965   2.327   0.566   2.520
 4356SOL     OW13966   5.235   3.572   0.103
 4356SOL    HW113967   5.158   3.514   0.132
 4356SOL    HW213968   5.271   3.621   0.182
 4357SOL     OW13969   6.914   0.939   1.396
 4357SOL    HW113970   6.948   0.877   1.325
 4357SOL    HW213971   6.992   0.987   1.437
 4358SOL     OW13972   6.810   0.780   0.980
 4358SOL    HW113973   6.832   0.834   0.899
 4358SOL    HW213974   6.740   0.827   1.033
 4359SOL     OW13975   1.304   1.496   6.127
 4359SOL    HW113976   1.327   1.589   6.155
 4359SOL    HW213977   1.363   1.431   6.175
 4360SOL     OW13978   0.577   3.787   3.717
 4360SOL    HW113979   0.618   3.871   3.679
 4360SOL    HW213980   0.483   3.778   3.686
 4361SOL     OW13981   1.946   3.731   1.670
 4361SOL    HW113982   1.954   3.664   1.596
 4361SOL    HW213983   1.915   3.684   1.753
 4362SOL     OW13984   6.757   5.184   3.482
 4362SOL    HW113985   6.658   5.194   3.474
 4362SOL    HW213986   6.799   5.274   3.478
 4363SOL     OW13987   5.119   2.387   0.783
 4363SOL    HW113988   5.066   2.327   0.843
 4363SOL    HW213989   5.206   2.344   0.760
 4364SOL     OW13990   3.109   4.071   3.740
 4364SOL    HW113991   3.056   3.987   3.729
 4364SOL    HW213992   3.058   4.137   3.794
 4365SOL     OW13993   3.202   0.724   1.671
 4365SOL    HW113994   3.289   0.736   1.718
 4365SOL    HW213995   3.149   0.653   1.716
 4366SOL     OW13996   6.812   6.923   6.889
 4366SOL    HW113997   6.820   7.016   6.924
 4366SOL    HW213998   6.886   6.904   6.825
 4367SOL     OW13999   2.638   4.681   4.280
 4367SOL    HW114000   2.636   4.699   4.181
 4367SOL    HW214001   2.574   4.607   4.301
 4368SOL     OW14002   4.068   6.153   1.410
 4368SOL    HW114003   4.023   6.103   1.484
 4368SOL    HW214004   4.024   6.241   1.397
 4369SOL     OW14005   4.525   5.054   3.082
 4369SOL    HW114006   4.595   5.126   3.074
 4369SOL    HW214007   4.459   5.079   3.153
 4370SOL     OW14008   3.698   4.638   1.618
 4370SOL    HW114009   3.652   4.684   1.542
 4370SOL    HW214010   3.641   4.643   1.700
 4371SOL     OW14011   1.744   2.079   2.281
 4371SOL    HW114012   1.671   2.017   2.257
 4371SOL    HW214013   1.829   2.050   2.238
 4372SOL     OW14014   2.529   2.131   4.440
 4372SOL    HW114015   2.594   2.196   4.480
 4372SOL    HW214016   2.515   2.153   4.344
 4373SOL     OW14017   5.160   1.670   6.905
 4373SOL    HW114018   5.257   1.645   6.902
 4373SOL    HW214019   5.104   1.588   6.889
 4374SOL     OW14020   1.080   1.581   1.192
 4374SOL    HW114021   1.153   1.571   1.125
 4374SOL    HW214022   0.998   1.617   1.147
 4375SOL     OW14023   4.013   6.403   3.294
 4375SOL    HW114024   3.988   6.497   3.320
 4375SOL    HW214025   4.077   6.407   3.217
 4376SOL     OW14026   6.285   0.185   2.646
 4376SOL    HW114027   6.363   0.197   2.585
 4376SOL    HW214028   6.279   0.089   2.674
 4377SOL     OW14029   5.623   5.719   6.976
 4377SOL    HW114030   5.553   5.752   0.012
 4377SOL    HW214031   5.682   5.654   7.022
 4378SOL     OW14032   2.067   2.748   2.565
 4378SOL    HW114033   2.007   2.816   2.608
 4378SOL    HW214034   2.012   2.682   2.514
 4379SOL     OW14035   2.393   2.162   2.430
 4379SOL    HW114036   2.338   2.241   2.403
 4379SOL    HW214037   2.431   2.177   2.521
 4380SOL     OW14038   1.201   6.652   3.278
 4380SOL    HW114039   1.207   6.751   3.269
 4380SOL    HW214040   1.113   6.620   3.243
 4381SOL     OW14041   2.275   3.671   5.192
 4381SOL    HW114042   2.370   3.694   5.213
 4381SOL    HW214043   2.264   3.664   5.093
 4382SOL     OW14044   5.927   3.703   6.736
 4382SOL    HW114045   5.856   3.756   6.782
 4382SOL    HW214046   6.007   3.761   6.722
 4383SOL     OW14047   0.729   2.231   5.739
 4383SOL    HW114048   0.794   2.300   5.707
 4383SOL    HW214049   0.673   2.199   5.662
 4384SOL     OW14050   5.662   1.535   6.059
 4384SOL    HW114051   5.663   1.623   6.106
 4384SOL    HW214052   5.724   1.540   5.980
 4385SOL     OW14053   6.164   3.054   5.101
 4385SOL    HW114054   6.144   3.108   5.182
 4385SOL    HW214055   6.173   2.958   5.127
 4386SOL     OW14056   2.127   3.626   6.937
 4386SOL    HW114057   2.116   3.543   6.882
 4386SOL    HW214058   2.134   3.600   0.006
 4387SOL     OW14059   6.984   1.038   1.985
 4387SOL    HW114060   6.946   0.985   2.061
 4387SOL    HW214061   7.022   1.124   2.019
 4388SOL     OW14062   5.329   1.546   6.618
 4388SOL    HW114063   5.421   1.569   6.585
 4388SOL    HW214064   5.332   1.529   6.717
 4389SOL     OW14065   0.236   3.962   0.754
 4389SOL    HW114066   0.270   3.964   0.848
 4389SOL    HW214067   0.192   4.049   0.732
 4390SOL     OW14068   3.812   1.135   1.808
 4390SOL    HW114069   3.852   1.060   1.862
 4390SOL    HW214070   3.758   1.194   1.869
 4391SOL     OW14071   1.491   5.658   6.635
 4391SOL    HW114072   1.560   5.614   6.578
 4391SOL    HW214073   1.509   5.756   6.641
 4392SOL     OW14074   6.626   3.034   6.411
 4392SOL    HW114075   6.555   2.968   6.436
 4392SOL    HW214076   6.597   3.126   6.440
 4393SOL     OW14077   5.995   0.564   2.357
 4393SOL    HW114078   5.972   0.483   2.411
 4393SOL    HW214079   5.997   0.644   2.417
 4394SOL     OW14080   5.512   5.746   2.795
 4394SOL    HW114081   5.517   5.696   2.708
 4394SOL    HW214082   5.525   5.843   2.777
 4395SOL     OW14083   3.487   0.054   1.727
 4395SOL    HW114084   3.584   0.028   1.724
 4395SOL    HW214085   3.472   0.133   1.667
 4396SOL     OW14086   1.944   2.546   4.317
 4396SOL    HW114087   1.878   2.560   4.244
 4396SOL    HW214088   1.930   2.455   4.357
 4397SOL     OW14089   0.695   1.123   4.514
 4397SOL    HW114090   0.701   1.119   4.414
 4397SOL    HW214091   0.719   1.034   4.552
 4398SOL     OW14092   0.287   4.602   5.196
 4398SOL    HW114093   0.243   4.559   5.117
 4398SOL    HW214094   0.343   4.679   5.165
 4399SOL     OW14095   1.858   1.135   1.584
 4399SOL    HW114096   1.780   1.195   1.604
 4399SOL    HW214097   1.940   1.170   1.629
 4400SOL     OW14098   3.739   6.434   5.885
 4400SOL    HW114099   3.730   6.463   5.789
 4400SOL    HW214100   3.723   6.336   5.891
 4401SOL     OW14101   4.934   6.586   6.621
 4401SOL    HW114102   4.950   6.654   6.692
 4401SOL    HW214103   4.867   6.621   6.555
 4402SOL     OW14104   2.751   0.122   0.977
 4402SOL    HW114105   2.669   0.081   1.018
 4402SOL    HW214106   2.764   0.214   1.014
 4403SOL     OW14107   0.953   0.446   3.598
 4403SOL    HW114108   0.951   0.400   3.687
 4403SOL    HW214109   0.946   0.378   3.525
 4404SOL     OW14110   0.186   4.150   5.840
 4404SOL    HW114111   0.260   4.117   5.899
 4404SOL    HW214112   0.206   4.244   5.811
 4405SOL     OW14113   1.342   4.428   1.814
 4405SOL    HW114114   1.385   4.367   1.748
 4405SOL    HW214115   1.346   4.522   1.781
 4406SOL     OW14116   0.037   3.832   0.604
 4406SOL    HW114117   0.052   3.813   0.507
 4406SOL    HW214118   0.114   3.883   0.641
 4407SOL     OW14119   6.792   5.047   0.962
 4407SOL    HW114120   6.843   5.116   0.912
 4407SOL    HW214121   6.840   5.023   1.046
 4408SOL     OW14122   3.259   1.553   1.436
 4408SOL    HW114123   3.312   1.516   1.360
 4408SOL    HW214124   3.266   1.653   1.437
 4409SOL     OW14125   4.830   0.235   2.447
 4409SOL    HW114126   4.852   0.172   2.521
 4409SOL    HW214127   4.740   0.212   2.409
 4410SOL     OW14128   1.177   5.808   6.862
 4410SOL    HW114129   1.180   5.708   6.858
 4410SOL    HW214130   1.263   5.842   6.900
 4411SOL     OW14131   3.593   4.179   3.996
 4411SOL    HW114132   3.530   4.163   3.920
 4411SOL    HW214133   3.654   4.255   3.973
 4412SOL     OW14134   4.110   6.525   5.079
 4412SOL    HW114135   4.127   6.451   5.144
 4412SOL    HW214136   4.071   6.488   4.995
 4413SOL     OW14137   5.911   5.920   4.972
 4413SOL    HW114138   5.923   5.828   5.011
 4413SOL    HW214139   6.000   5.963   4.961
 4414SOL     OW14140   3.574   4.124   1.545
 4414SOL    HW114141   3.635   4.203   1.540
 4414SOL    HW214142   3.499   4.143   1.608
 4415SOL     OW14143   3.902   3.168   0.154
 4415SOL    HW114144   3.990   3.186   0.199
 4415SOL    HW214145   3.917   3.156   0.055
 4416SOL     OW14146   2.409   0.584   3.977
 4416SOL    HW114147   2.406   0.528   4.061
 4416SOL    HW214148   2.504   0.595   3.948
 4417SOL     OW14149   5.956   4.530   3.251
 4417SOL    HW114150   6.050   4.560   3.265
 4417SOL    HW214151   5.920   4.494   3.337
 4418SOL     OW14152   5.897   1.672   2.497
 4418SOL    HW114153   5.832   1.619   2.442
 4418SOL    HW214154   5.987   1.670   2.453
 4419SOL     OW14155   6.016   6.054   0.050
 4419SOL    HW114156   5.998   6.049   6.979
 4419SOL    HW214157   6.111   6.081   0.065
 4420SOL     OW14158   5.152   1.246   1.923
 4420SOL    HW114159   5.249   1.232   1.942
 4420SOL    HW214160   5.115   1.166   1.876
 4421SOL     OW14161   1.527   0.725   5.264
 4421SOL    HW114162   1.622   0.716   5.236
 4421SOL    HW214163   1.484   0.634   5.269
 4422SOL     OW14164   3.355   4.386   6.295
 4422SOL    HW114165   3.415   4.306   6.300
 4422SOL    HW214166   3.324   4.410   6.387
 4423SOL     OW14167   1.453   3.052   5.692
 4423SOL    HW114168   1.503   3.005   5.764
 4423SOL    HW214169   1.513   3.118   5.647
 4424SOL     OW14170   5.157   0.980   4.106
 4424SOL    HW114171   5.123   0.954   4.196
 4424SOL    HW214172   5.196   0.900   4.060
 4425SOL     OW14173   3.472   5.054   0.289
 4425SOL    HW114174   3.570   5.038   0.304
 4425SOL    HW214175   3.423   5.040   0.375
 4426SOL     OW14176   0.265   1.034   4.557
 4426SOL    HW114177   0.342   0.970   4.552
 4426SOL    HW214178   0.179   0.982   4.563
 4427SOL     OW14179   0.312   6.282   2.457
 4427SOL    HW114180   0.286   6.249   2.548
 4427SOL    HW214181   0.300   6.208   2.390
 4428SOL     OW14182   2.804   0.069   2.315
 4428SOL    HW114183   2.745   7.016   2.321
 4428SOL    HW214184   2.788   0.116   2.228
 4429SOL     OW14185   2.955   0.199   2.518
 4429SOL    HW114186   2.924   0.119   2.466
 4429SOL    HW214187   2.917   0.196   2.610
 4430SOL     OW14188   5.249   3.711   4.747
 4430SOL    HW114189   5.322   3.773   4.716
 4430SOL    HW214190   5.252   3.704   4.847
 4431SOL     OW14191   2.139   1.025   2.443
 4431SOL    HW114192   2.046   1.033   2.480
 4431SOL    HW214193   2.152   0.933   2.406
 4432SOL     OW14194   3.367   3.600   4.991
 4432SOL    HW114195   3.299   3.553   4.934
 4432SOL    HW214196   3.430   3.534   5.030
 4433SOL     OW14197   4.411   0.962   4.671
 4433SOL    HW114198   4.508   0.967   4.697
 4433SOL    HW214199   4.403   0.941   4.574
 4434SOL     OW14200   4.550   2.211   4.196
 4434SOL    HW114201   4.637   2.216   4.244
 4434SOL    HW214202   4.565   2.192   4.099
 4435SOL     OW14203   4.598   3.166   1.489
 4435SOL    HW114204   4.510   3.148   1.532
 4435SOL    HW214205   4.667   3.105   1.527
 4436SOL     OW14206   4.570   1.160   0.964
 4436SOL    HW114207   4.603   1.131   0.874
 4436SOL    HW214208   4.544   1.257   0.960
 4437SOL     OW14209   6.113   1.787   3.064
 4437SOL    HW114210   6.089   1.871   3.016
 4437SOL    HW214211   6.089   1.795   3.161
 4438SOL     OW14212   5.351   0.073   0.221
 4438SOL    HW114213   5.379   0.166   0.200
 4438SOL    HW214214   5.272   0.075   0.282
 4439SOL     OW14215   0.501   5.372   1.938
 4439SOL    HW114216   0.432   5.435   1.975
 4439SOL    HW214217   0.554   5.333   2.014
 4440SOL     OW14218   2.077   5.445   0.450
 4440SOL    HW114219   2.031   5.446   0.538
 4440SOL    HW214220   2.020   5.492   0.382
 4441SOL     OW14221   6.869   1.945   3.070
 4441SOL    HW114222   6.856   2.040   3.099
 4441SOL    HW214223   6.787   1.893   3.093
 4442SOL     OW14224   2.711   5.746   4.659
 4442SOL    HW114225   2.755   5.784   4.740
 4442SOL    HW214226   2.619   5.716   4.681
 4443SOL     OW14227   6.949   2.581   0.626
 4443SOL    HW114228   6.906   2.536   0.548
 4443SOL    HW214229   6.880   2.631   0.679
 4444SOL     OW14230   3.129   4.653   6.226
 4444SOL    HW114231   3.173   4.668   6.314
 4444SOL    HW214232   3.170   4.714   6.157
 4445SOL     OW14233   0.302   0.445   1.156
 4445SOL    HW114234   0.208   0.430   1.185
 4445SOL    HW214235   0.354   0.484   1.232
 4446SOL     OW14236   5.789   1.276   2.368
 4446SOL    HW114237   5.798   1.190   2.318
 4446SOL    HW214238   5.870   1.289   2.425
 4447SOL     OW14239   5.248   3.663   6.248
 4447SOL    HW114240   5.174   3.647   6.314
 4447SOL    HW214241   5.312   3.729   6.286
 4448SOL     OW14242   2.854   4.053   1.426
 4448SOL    HW114243   2.858   4.053   1.326
 4448SOL    HW214244   2.910   3.978   1.461
 4449SOL     OW14245   5.562   0.220   5.740
 4449SOL    HW114246   5.492   0.291   5.744
 4449SOL    HW214247   5.536   0.146   5.803
 4450SOL     OW14248   3.807   2.910   4.228
 4450SOL    HW114249   3.824   3.002   4.193
 4450SOL    HW214250   3.807   2.912   4.328
 4451SOL     OW14251   5.932   4.691   3.695
 4451SOL    HW114252   5.935   4.665   3.791
 4451SOL    HW214253   6.013   4.656   3.648
 4452SOL     OW14254   5.644   6.121   4.535
 4452SOL    HW114255   5.597   6.173   4.606
 4452SOL    HW214256   5.588   6.044   4.507
 4453SOL     OW14257   0.595   2.459   1.838
 4453SOL    HW114258   0.576   2.535   1.900
 4453SOL    HW214259   0.579   2.372   1.885
 4454SOL     OW14260   1.264   2.242   7.009
 4454SOL    HW114261   1.270   2.305   6.931
 4454SOL    HW214262   1.283   2.149   6.977
 4455SOL     OW14263   4.155   6.094   6.313
 4455SOL    HW114264   4.249   6.080   6.282
 4455SOL    HW214265   4.125   6.185   6.284
 4456SOL     OW14266   3.651   6.098   2.080
 4456SOL    HW114267   3.588   6.081   2.156
 4456SOL    HW214268   3.632   6.187   2.039
 4457SOL     OW14269   4.946   2.025   1.517
 4457SOL    HW114270   4.908   1.984   1.434
 4457SOL    HW214271   4.904   2.115   1.531
 4458SOL     OW14272   1.298   2.810   6.606
 4458SOL    HW114273   1.311   2.711   6.615
 4458SOL    HW214274   1.243   2.829   6.525
 4459SOL     OW14275   3.749   0.260   4.808
 4459SOL    HW114276   3.809   0.260   4.888
 4459SOL    HW214277   3.708   0.169   4.797
 4460SOL     OW14278   3.399   2.551   5.634
 4460SOL    HW114279   3.360   2.539   5.542
 4460SOL    HW214280   3.496   2.570   5.626
 4461SOL     OW14281   1.506   0.991   1.867
 4461SOL    HW114282   1.515   0.902   1.911
 4461SOL    HW214283   1.411   1.004   1.838
 4462SOL     OW14284   5.933   4.821   2.109
 4462SOL    HW114285   6.014   4.792   2.158
 4462SOL    HW214286   5.867   4.746   2.106
 4463SOL     OW14287   5.760   2.005   6.094
 4463SOL    HW114288   5.735   2.067   6.020
 4463SOL    HW214289   5.686   1.940   6.110
 4464SOL     OW14290   6.592   5.056   0.788
 4464SOL    HW114291   6.514   5.013   0.833
 4464SOL    HW214292   6.671   5.056   0.849
 4465SOL     OW14293   2.735   5.481   1.265
 4465SOL    HW114294   2.658   5.418   1.274
 4465SOL    HW214295   2.734   5.521   1.173
 4466SOL     OW14296   1.772   2.149   3.146
 4466SOL    HW114297   1.865   2.112   3.138
 4466SOL    HW214298   1.774   2.247   3.128
 4467SOL     OW14299   1.916   6.810   2.561
 4467SOL    HW114300   1.819   6.835   2.559
 4467SOL    HW214301   1.962   6.861   2.633
 4468SOL     OW14302   2.253   2.939   0.844
 4468SOL    HW114303   2.222   2.884   0.921
 4468SOL    HW214304   2.196   2.919   0.764
 4469SOL     OW14305   4.241   0.701   1.391
 4469SOL    HW114306   4.222   0.783   1.336
 4469SOL    HW214307   4.195   0.622   1.349
 4470SOL     OW14308   6.111   2.371   2.430
 4470SOL    HW114309   6.038   2.424   2.474
 4470SOL    HW214310   6.141   2.419   2.348
 4471SOL     OW14311   0.556   1.864   6.984
 4471SOL    HW114312   0.549   1.951   6.937
 4471SOL    HW214313   0.498   1.796   6.938
 4472SOL     OW14314   1.211   3.015   3.460
 4472SOL    HW114315   1.231   2.918   3.469
 4472SOL    HW214316   1.283   3.068   3.507
 4473SOL     OW14317   6.580   2.404   4.751
 4473SOL    HW114318   6.644   2.337   4.788
 4473SOL    HW214319   6.615   2.496   4.764
 4474SOL     OW14320   3.108   1.090   1.340
 4474SOL    HW114321   3.155   1.177   1.357
 4474SOL    HW214322   3.162   1.016   1.379
 4475SOL     OW14323   1.446   4.081   2.928
 4475SOL    HW114324   1.447   4.180   2.943
 4475SOL    HW214325   1.426   4.036   3.015
 4476SOL     OW14326   3.636   7.001   3.667
 4476SOL    HW114327   3.540   7.017   3.690
 4476SOL    HW214328   3.643   6.917   3.613
 4477SOL     OW14329   1.741   6.768   5.092
 4477SOL    HW114330   1.720   6.700   5.021
 4477SOL    HW214331   1.748   6.858   5.050
 4478SOL     OW14332   3.757   0.136   2.756
 4478SOL    HW114333   3.795   0.222   2.725
 4478SOL    HW214334   3.717   0.087   2.679
 4479SOL     OW14335   1.175   0.687   1.653
 4479SOL    HW114336   1.148   0.597   1.617
 4479SOL    HW214337   1.100   0.724   1.708
 4480SOL     OW14338   2.140   4.060   5.815
 4480SOL    HW114339   2.116   4.117   5.737
 4480SOL    HW214340   2.078   3.982   5.820
 4481SOL     OW14341   2.602   6.403   5.219
 4481SOL    HW114342   2.686   6.363   5.183
 4481SOL    HW214343   2.527   6.386   5.155
 4482SOL     OW14344   1.003   4.115   4.431
 4482SOL    HW114345   0.975   4.140   4.338
 4482SOL    HW214346   1.074   4.045   4.426
 4483SOL     OW14347   5.435   3.199   1.780
 4483SOL    HW114348   5.513   3.151   1.820
 4483SOL    HW214349   5.437   3.295   1.807
 4484SOL     OW14350   3.154   3.115   5.921
 4484SOL    HW114351   3.079   3.061   5.959
 4484SOL    HW214352   3.236   3.102   5.976
 4485SOL     OW14353   5.399   1.576   5.140
 4485SOL    HW114354   5.328   1.515   5.173
 4485SOL    HW214355   5.374   1.671   5.162
 4486SOL     OW14356   5.390   4.650   4.938
 4486SOL    HW114357   5.402   4.566   4.990
 4486SOL    HW214358   5.311   4.641   4.877
 4487SOL     OW14359   2.255   3.188   6.172
 4487SOL    HW114360   2.316   3.199   6.251
 4487SOL    HW214361   2.299   3.133   6.102
 4488SOL     OW14362   6.409   2.885   6.467
 4488SOL    HW114363   6.363   2.896   6.379
 4488SOL    HW214364   6.357   2.932   6.538
 4489SOL     OW14365   6.035   6.096   3.874
 4489SOL    HW114366   5.982   6.011   3.886
 4489SOL    HW214367   6.103   6.082   3.802
 4490SOL     OW14368   6.193   2.505   3.172
 4490SOL    HW114369   6.240   2.561   3.104
 4490SOL    HW214370   6.115   2.555   3.209
 4491SOL     OW14371   6.587   1.986   4.788
 4491SOL    HW114372   6.623   1.953   4.701
 4491SOL    HW214373   6.617   1.926   4.861
 4492SOL     OW14374   5.751   4.176   1.462
 4492SOL    HW114375   5.736   4.247   1.393
 4492SOL    HW214376   5.732   4.213   1.553
 4493SOL     OW14377   4.561   5.579   5.130
 4493SOL    HW114378   4.560   5.529   5.217
 4493SOL    HW214379   4.542   5.676   5.148
 4494SOL     OW14380   6.737   1.160   6.027
 4494SOL    HW114381   6.836   1.168   6.037
 4494SOL    HW214382   6.710   1.063   6.035
 4495SOL     OW14383   3.923   6.356   4.170
 4495SOL    HW114384   4.005   6.358   4.227
 4495SOL    HW214385   3.842   6.357   4.228
 4496SOL     OW14386   5.734   5.737   1.222
 4496SOL    HW114387   5.682   5.793   1.287
 4496SOL    HW214388   5.831   5.742   1.245
 4497SOL     OW14389   4.543   1.311   6.895
 4497SOL    HW114390   4.572   1.250   6.969
 4497SOL    HW214391   4.452   1.284   6.863
 4498SOL     OW14392   6.941   3.602   0.374
 4498SOL    HW114393   7.018   3.661   0.352
 4498SOL    HW214394   6.873   3.654   0.426
 4499SOL     OW14395   6.519   3.503   4.890
 4499SOL    HW114396   6.422   3.485   4.874
 4499SOL    HW214397   6.564   3.420   4.922
 4500SOL     OW14398   3.310   3.288   3.789
 4500SOL    HW114399   3.373   3.264   3.716
 4500SOL    HW214400   3.338   3.374   3.832
 4501SOL     OW14401   0.480   3.615   4.114
 4501SOL    HW114402   0.544   3.615   4.037
 4501SOL    HW214403   0.471   3.709   4.148
 4502SOL     OW14404   0.858   3.096   6.857
 4502SOL    HW114405   0.881   3.009   6.815
 4502SOL    HW214406   0.788   3.142   6.803
 4503SOL     OW14407   3.289   6.888   1.768
 4503SOL    HW114408   3.361   6.954   1.746
 4503SOL    HW214409   3.200   6.928   1.749
 4504SOL     OW14410   6.607   0.494   4.661
 4504SOL    HW114411   6.696   0.531   4.685
 4504SOL    HW214412   6.614   0.394   4.652
 4505SOL     OW14413   5.660   5.176   1.821
 4505SOL    HW114414   5.665   5.093   1.876
 4505SOL    HW214415   5.745   5.186   1.769
 4506SOL     OW14416   4.327   2.351   3.381
 4506SOL    HW114417   4.327   2.253   3.367
 4506SOL    HW214418   4.282   2.396   3.304
 4507SOL     OW14419   5.211   4.817   2.331
 4507SOL    HW114420   5.281   4.887   2.328
 4507SOL    HW214421   5.245   4.737   2.381
 4508SOL     OW14422   0.887   4.595   6.482
 4508SOL    HW114423   0.930   4.685   6.477
 4508SOL    HW214424   0.912   4.541   6.402
 4509SOL     OW14425   4.818   2.013   2.725
 4509SOL    HW114426   4.751   2.021   2.800
 4509SOL    HW214427   4.784   1.946   2.658
 4510SOL     OW14428   4.000   0.913   3.812
 4510SOL    HW114429   4.060   0.961   3.876
 4510SOL    HW214430   4.053   0.884   3.732
 4511SOL     OW14431   6.903   2.918   0.238
 4511SOL    HW114432   6.876   2.985   0.308
 4511SOL    HW214433   7.000   2.927   0.218
 4512SOL     OW14434   3.153   0.756   5.198
 4512SOL    HW114435   3.129   0.670   5.154
 4512SOL    HW214436   3.079   0.783   5.261
 4513SOL     OW14437   5.914   5.072   0.261
 4513SOL    HW114438   5.960   4.995   0.218
 4513SOL    HW214439   5.932   5.070   0.360
 4514SOL     OW14440   4.219   1.199   6.914
 4514SOL    HW114441   4.222   1.224   7.011
 4514SOL    HW214442   4.132   1.228   6.875
 4515SOL     OW14443   6.950   1.796   5.873
 4515SOL    HW114444   7.022   1.857   5.906
 4515SOL    HW214445   6.870   1.850   5.845
 4516SOL     OW14446   2.250   0.157   0.112
 4516SOL    HW114447   2.302   0.120   0.189
 4516SOL    HW214448   2.312   0.175   0.036
 4517SOL     OW14449   4.265   0.724   6.643
 4517SOL    HW114450   4.252   0.815   6.682
 4517SOL    HW214451   4.362   0.704   6.635
 4518SOL     OW14452   7.009   0.588   2.646
 4518SOL    HW114453   6.932   0.623   2.700
 4518SOL    HW214454   0.031   0.664   2.605
 4519SOL     OW14455   6.544   0.974   1.523
 4519SOL    HW114456   6.452   0.948   1.495
 4519SOL    HW214457   6.599   0.891   1.538
 4520SOL     OW14458   4.624   6.561   4.920
 4520SOL    HW114459   4.525   6.567   4.934
 4520SOL    HW214460   4.644   6.491   4.852
 4521SOL     OW14461   6.037   1.893   4.156
 4521SOL    HW114462   5.970   1.856   4.221
 4521SOL    HW214463   6.124   1.908   4.202
 4522SOL     OW14464   6.541   6.612   3.334
 4522SOL    HW114465   6.510   6.706   3.319
 4522SOL    HW214466   6.464   6.555   3.361
 4523SOL     OW14467   0.632   4.104   0.455
 4523SOL    HW114468   0.570   4.135   0.527
 4523SOL    HW214469   0.657   4.009   0.471
 4524SOL     OW14470   6.142   2.518   3.776
 4524SOL    HW114471   6.232   2.496   3.740
 4524SOL    HW214472   6.098   2.435   3.810
 4525SOL     OW14473   5.040   1.198   4.950
 4525SOL    HW114474   5.096   1.250   5.014
 4525SOL    HW214475   4.994   1.123   4.998
 4526SOL     OW14476   6.427   0.532   1.244
 4526SOL    HW114477   6.354   0.466   1.226
 4526SOL    HW214478   6.463   0.516   1.336
 4527SOL     OW14479   5.206   1.164   3.644
 4527SOL    HW114480   5.267   1.148   3.723
 4527SOL    HW214481   5.170   1.076   3.612
 4528SOL     OW14482   4.974   0.161   0.120
 4528SOL    HW114483   5.011   0.187   0.209
 4528SOL    HW214484   4.875   0.147   0.127
 4529SOL     OW14485   3.237   0.948   5.365
 4529SOL    HW114486   3.243   0.903   5.454
 4529SOL    HW214487   3.236   0.879   5.293
 4530SOL     OW14488   2.102   4.410   6.290
 4530SOL    HW114489   2.033   4.481   6.282
 4530SOL    HW214490   2.063   4.331   6.338
 4531SOL     OW14491   0.169   3.483   4.717
 4531SOL    HW114492   0.073   3.506   4.702
 4531SOL    HW214493   0.183   3.457   4.813
 4532SOL     OW14494   5.901   2.042   3.569
 4532SOL    HW114495   5.822   1.987   3.544
 4532SOL    HW214496   5.961   1.988   3.629
 4533SOL     OW14497   1.224   1.068   1.820
 4533SOL    HW114498   1.125   1.077   1.812
 4533SOL    HW214499   1.269   1.148   1.780
 4534SOL     OW14500   4.878   4.003   4.503
 4534SOL    HW114501   4.813   4.077   4.516
 4534SOL    HW214502   4.915   3.975   4.592
 4535SOL     OW14503   4.183   1.010   2.299
 4535SOL    HW114504   4.219   0.918   2.291
 4535SOL    HW214505   4.191   1.041   2.394
 4536SOL     OW14506   4.107   1.362   3.884
 4536SOL    HW114507   4.033   1.358   3.818
 4536SOL    HW214508   4.153   1.451   3.877
 4537SOL     OW14509   4.155   3.087   6.278
 4537SOL    HW114510   4.113   3.022   6.213
 4537SOL    HW214511   4.184   3.169   6.229
 4538SOL     OW14512   2.348   0.420   4.211
 4538SOL    HW114513   2.430   0.455   4.256
 4538SOL    HW214514   2.320   0.335   4.256
 4539SOL     OW14515   2.633   0.544   5.022
 4539SOL    HW114516   2.651   0.484   4.943
 4539SOL    HW214517   2.692   0.624   5.016
 4540SOL     OW14518   3.388   2.180   5.598
 4540SOL    HW114519   3.417   2.183   5.503
 4540SOL    HW214520   3.301   2.229   5.608
 4541SOL     OW14521   6.158   2.157   0.534
 4541SOL    HW114522   6.177   2.064   0.503
 4541SOL    HW214523   6.061   2.166   0.555
 4542SOL     OW14524   6.807   1.390   2.462
 4542SOL    HW114525   6.752   1.390   2.546
 4542SOL    HW214526   6.748   1.409   2.384
 4543SOL     OW14527   5.034   2.250   1.398
 4543SOL    HW114528   5.025   2.272   1.300
 4543SOL    HW214529   5.118   2.197   1.412
 4544SOL     OW14530   3.058   6.298   6.057
 4544SOL    HW114531   2.984   6.321   6.121
 4544SOL    HW214532   3.143   6.285   6.109
 4545SOL     OW14533   5.201   4.148   4.821
 4545SOL    HW114534   5.185   4.123   4.916
 4545SOL    HW214535   5.290   4.192   4.812
 4546SOL     OW14536   1.474   1.129   6.066
 4546SOL    HW114537   1.451   1.178   5.982
 4546SOL    HW214538   1.464   1.192   6.144
 4547SOL     OW14539   5.674   2.268   3.088
 4547SOL    HW114540   5.617   2.194   3.124
 4547SOL    HW214541   5.686   2.255   2.989
 4548SOL     OW14542   0.805   3.952   4.198
 4548SOL    HW114543   0.764   3.971   4.109
 4548SOL    HW214544   0.868   3.875   4.190
 4549SOL     OW14545   6.491   4.560   1.522
 4549SOL    HW114546   6.590   4.566   1.528
 4549SOL    HW214547   6.465   4.530   1.430
 4550SOL     OW14548   0.908   5.676   3.161
 4550SOL    HW114549   0.889   5.753   3.222
 4550SOL    HW214550   0.822   5.642   3.123
 4551SOL     OW14551   0.283   1.889   5.460
 4551SOL    HW114552   0.299   1.960   5.391
 4551SOL    HW214553   0.187   1.863   5.459
 4552SOL     OW14554   6.458   3.299   0.809
 4552SOL    HW114555   6.507   3.245   0.741
 4552SOL    HW214556   6.371   3.255   0.831
 4553SOL     OW14557   3.598   4.999   6.922
 4553SOL    HW114558   3.519   5.017   6.980
 4553SOL    HW214559   3.581   5.038   6.831
 4554SOL     OW14560   5.534   0.880   1.042
 4554SOL    HW114561   5.553   0.976   1.022
 4554SOL    HW214562   5.620   0.830   1.049
 4555SOL     OW14563   3.092   2.002   6.041
 4555SOL    HW114564   3.010   1.947   6.031
 4555SOL    HW214565   3.084   2.085   5.987
 4556SOL     OW14566   4.910   3.012   3.921
 4556SOL    HW114567   4.828   3.047   3.967
 4556SOL    HW214568   4.943   2.931   3.968
 4557SOL     OW14569   4.612   5.762   5.605
 4557SOL    HW114570   4.576   5.833   5.665
 4557SOL    HW214571   4.660   5.805   5.528
 4558SOL     OW14572   0.672   4.583   4.857
 4558SOL    HW114573   0.678   4.522   4.936
 4558SOL    HW214574   0.577   4.611   4.844
 4559SOL     OW14575   7.001   4.086   1.615
 4559SOL    HW114576   6.957   4.168   1.651
 4559SOL    HW214577   0.073   4.095   1.623
 4560SOL     OW14578   5.134   4.485   1.929
 4560SOL    HW114579   5.097   4.443   2.012
 4560SOL    HW214580   5.067   4.478   1.856
 4561SOL     OW14581   2.141   1.743   2.342
 4561SOL    HW114582   2.165   1.694   2.258
 4561SOL    HW214583   2.204   1.819   2.355
 4562SOL     OW14584   2.957   5.981   5.101
 4562SOL    HW114585   2.923   5.907   5.043
 4562SOL    HW214586   3.030   5.947   5.159
 4563SOL     OW14587   6.901   2.921   1.113
 4563SOL    HW114588   6.990   2.880   1.096
 4563SOL    HW214589   6.843   2.912   1.032
 4564SOL     OW14590   6.866   6.359   1.273
 4564SOL    HW114591   6.811   6.434   1.310
 4564SOL    HW214592   6.933   6.330   1.341
 4565SOL     OW14593   1.018   1.211   5.423
 4565SOL    HW114594   1.057   1.281   5.482
 4565SOL    HW214595   0.986   1.134   5.478
 4566SOL     OW14596   6.605   2.415   0.804
 4566SOL    HW114597   6.531   2.348   0.810
 4566SOL    HW214598   6.598   2.479   0.881
 4567SOL     OW14599   6.231   0.515   6.813
 4567SOL    HW114600   6.146   0.556   6.847
 4567SOL    HW214601   6.303   0.584   6.812
 4568SOL     OW14602   2.419   4.029   5.789
 4568SOL    HW114603   2.339   4.023   5.729
 4568SOL    HW214604   2.398   4.089   5.867
 4569SOL     OW14605   1.837   1.792   3.087
 4569SOL    HW114606   1.771   1.822   3.156
 4569SOL    HW214607   1.914   1.857   3.085
 4570SOL     OW14608   0.665   6.538   3.977
 4570SOL    HW114609   0.675   6.613   3.912
 4570SOL    HW214610   0.635   6.574   4.065
 4571SOL     OW14611   4.170   4.084   6.099
 4571SOL    HW114612   4.127   4.127   6.179
 4571SOL    HW214613   4.188   4.153   6.029
 4572SOL     OW14614   1.405   6.652   6.785
 4572SOL    HW114615   1.385   6.729   6.724
 4572SOL    HW214616   1.432   6.686   6.875
 4573SOL     OW14617   6.408   6.852   0.696
 4573SOL    HW114618   6.419   6.835   0.794
 4573SOL    HW214619   6.327   6.908   0.680
 4574SOL     OW14620   5.963   3.601   0.737
 4574SOL    HW114621   5.883   3.644   0.778
 4574SOL    HW214622   6.041   3.610   0.798
 4575SOL     OW14623   6.268   1.320   5.962
 4575SOL    HW114624   6.219   1.402   5.992
 4575SOL    HW214625   6.350   1.308   6.017
 4576SOL     OW14626   2.480   6.505   5.936
 4576SOL    HW114627   2.466   6.513   6.035
 4576SOL    HW214628   2.566   6.459   5.918
 4577SOL     OW14629   1.113   2.070   4.396
 4577SOL    HW114630   1.085   2.071   4.492
 4577SOL    HW214631   1.114   2.164   4.361
 4578SOL     OW14632   0.631   3.525   4.727
 4578SOL    HW114633   0.607   3.523   4.824
 4578SOL    HW214634   0.725   3.493   4.716
 4579SOL     OW14635   4.158   1.003   2.892
 4579SOL    HW114636   4.093   1.040   2.825
 4579SOL    HW214637   4.169   1.069   2.966
 4580SOL     OW14638   5.145   5.091   0.696
 4580SOL    HW114639   5.132   5.185   0.667
 4580SOL    HW214640   5.118   5.029   0.622
 4581SOL     OW14641   2.468   4.613   2.630
 4581SOL    HW114642   2.475   4.583   2.725
 4581SOL    HW214643   2.375   4.598   2.597
 4582SOL     OW14644   5.685   0.036   4.744
 4582SOL    HW114645   5.608   0.069   4.690
 4582SOL    HW214646   5.766   0.092   4.726
 4583SOL     OW14647   2.533   2.225   5.993
 4583SOL    HW114648   2.556   2.143   6.045
 4583SOL    HW214649   2.472   2.283   6.048
 4584SOL     OW14650   0.051   4.909   5.904
 4584SOL    HW114651   0.105   4.962   5.839
 4584SOL    HW214652   0.112   4.848   5.955
 4585SOL     OW14653   2.682   6.751   2.796
 4585SOL    HW114654   2.775   6.782   2.776
 4585SOL    HW214655   2.626   6.760   2.714
 4586SOL     OW14656   3.334   5.269   0.824
 4586SOL    HW114657   3.278   5.346   0.796
 4586SOL    HW214658   3.431   5.292   0.815
 4587SOL     OW14659   3.499   3.869   2.592
 4587SOL    HW114660   3.455   3.789   2.632
 4587SOL    HW214661   3.447   3.951   2.616
 4588SOL     OW14662   3.393   3.724   5.221
 4588SOL    HW114663   3.462   3.675   5.274
 4588SOL    HW214664   3.394   3.691   5.127
 4589SOL     OW14665   6.098   0.817   2.461
 4589SOL    HW114666   6.098   0.798   2.363
 4589SOL    HW214667   6.005   0.821   2.495
 4590SOL     OW14668   5.405   5.916   1.071
 4590SOL    HW114669   5.456   6.001   1.085
 4590SOL    HW214670   5.368   5.885   1.159
 4591SOL     OW14671   0.870   5.764   4.745
 4591SOL    HW114672   0.852   5.709   4.826
 4591SOL    HW214673   0.874   5.705   4.664
 4592SOL     OW14674   3.091   1.711   1.688
 4592SOL    HW114675   3.106   1.623   1.732
 4592SOL    HW214676   3.173   1.767   1.697
 4593SOL     OW14677   4.429   5.268   3.300
 4593SOL    HW114678   4.481   5.207   3.360
 4593SOL    HW214679   4.469   5.359   3.303
 4594SOL     OW14680   3.114   1.346   2.633
 4594SOL    HW114681   3.146   1.408   2.704
 4594SOL    HW214682   3.192   1.315   2.578
 4595SOL     OW14683   3.954   2.840   6.532
 4595SOL    HW114684   3.923   2.752   6.495
 4595SOL    HW214685   3.889   2.911   6.506
 4596SOL     OW14686   6.246   6.772   2.243
 4596SOL    HW114687   6.170   6.713   2.215
 4596SOL    HW214688   6.333   6.727   2.224
 4597SOL     OW14689   4.095   4.919   6.335
 4597SOL    HW114690   4.080   4.993   6.270
 4597SOL    HW214691   4.043   4.936   6.419
 4598SOL     OW14692   2.428   5.990   6.288
 4598SOL    HW114693   2.369   6.069   6.270
 4598SOL    HW214694   2.371   5.910   6.311
 4599SOL     OW14695   0.708   5.510   1.407
 4599SOL    HW114696   0.789   5.568   1.411
 4599SOL    HW214697   0.691   5.482   1.313
 4600SOL     OW14698   1.335   5.036   5.419
 4600SOL    HW114699   1.306   5.060   5.326
 4600SOL    HW214700   1.435   5.032   5.422
 4601SOL     OW14701   2.212   0.453   5.319
 4601SOL    HW114702   2.163   0.382   5.267
 4601SOL    HW214703   2.203   0.434   5.417
 4602SOL     OW14704   1.547   5.981   1.345
 4602SOL    HW114705   1.502   6.070   1.340
 4602SOL    HW214706   1.603   5.967   1.263
 4603SOL     OW14707   3.009   6.193   0.669
 4603SOL    HW114708   2.984   6.096   0.669
 4603SOL    HW214709   3.103   6.203   0.701
 4604SOL     OW14710   4.415   0.282   0.813
 4604SOL    HW114711   4.435   0.238   0.725
 4604SOL    HW214712   4.317   0.302   0.817
 4605SOL     OW14713   3.102   0.552   3.076
 4605SOL    HW114714   3.111   0.532   2.978
 4605SOL    HW214715   3.010   0.587   3.094
 4606SOL     OW14716   1.059   6.594   1.679
 4606SOL    HW114717   1.061   6.694   1.679
 4606SOL    HW214718   0.968   6.563   1.651
 4607SOL     OW14719   1.947   2.321   1.370
 4607SOL    HW114720   1.930   2.388   1.297
 4607SOL    HW214721   1.990   2.367   1.448
 4608SOL     OW14722   0.796   5.985   3.841
 4608SOL    HW114723   0.775   6.080   3.864
 4608SOL    HW214724   0.716   5.928   3.859
 4609SOL     OW14725   4.603   5.331   6.858
 4609SOL    HW114726   4.676   5.317   6.926
 4609SOL    HW214727   4.633   5.400   6.792
 4610SOL     OW14728   5.193   2.785   0.638
 4610SOL    HW114729   5.205   2.765   0.736
 4610SOL    HW214730   5.213   2.881   0.621
 4611SOL     OW14731   0.583   5.713   5.995
 4611SOL    HW114732   0.602   5.620   5.962
 4611SOL    HW214733   0.523   5.760   5.931
 4612SOL     OW14734   1.435   5.884   6.985
 4612SOL    HW114735   1.491   5.948   0.009
 4612SOL    HW214736   1.470   5.791   6.997
 4613SOL     OW14737   2.591   6.394   1.945
 4613SOL    HW114738   2.530   6.320   1.916
 4613SOL    HW214739   2.631   6.439   1.865
 4614SOL     OW14740   6.873   3.145   4.952
 4614SOL    HW114741   6.965   3.170   4.923
 4614SOL    HW214742   6.854   3.187   5.041
 4615SOL     OW14743   2.037   7.007   0.151
 4615SOL    HW114744   2.060   6.921   0.105
 4615SOL    HW214745   2.113   0.044   0.143
 4616SOL     OW14746   6.910   0.173   5.281
 4616SOL    HW114747   6.836   0.108   5.301
 4616SOL    HW214748   6.927   0.174   5.183
 4617SOL     OW14749   0.814   2.594   2.108
 4617SOL    HW114750   0.870   2.651   2.169
 4617SOL    HW214751   0.741   2.649   2.069
 4618SOL     OW14752   2.150   2.883   5.002
 4618SOL    HW114753   2.214   2.958   5.017
 4618SOL    HW214754   2.189   2.818   4.938
 4619SOL     OW14755   3.327   6.251   3.305
 4619SOL    HW114756   3.396   6.272   3.375
 4619SOL    HW214757   3.254   6.319   3.308
 4620SOL     OW14758   2.040   4.529   0.512
 4620SOL    HW114759   1.968   4.476   0.556
 4620SOL    HW214760   2.000   4.594   0.448
 4621SOL     OW14761   5.523   1.225   2.348
 4621SOL    HW114762   5.618   1.250   2.332
 4621SOL    HW214763   5.467   1.307   2.352
 4622SOL     OW14764   2.075   4.762   0.654
 4622SOL    HW114765   2.074   4.671   0.611
 4622SOL    HW214766   2.169   4.797   0.655
 4623SOL     OW14767   5.388   6.571   0.420
 4623SOL    HW114768   5.347   6.655   0.385
 4623SOL    HW214769   5.442   6.528   0.347
 4624SOL     OW14770   4.750   6.477   3.356
 4624SOL    HW114771   4.775   6.568   3.323
 4624SOL    HW214772   4.702   6.426   3.284
 4625SOL     OW14773   2.188   3.821   1.028
 4625SOL    HW114774   2.190   3.723   1.008
 4625SOL    HW214775   2.139   3.837   1.114
 4626SOL     OW14776   5.136   4.678   2.654
 4626SOL    HW114777   5.167   4.753   2.712
 4626SOL    HW214778   5.042   4.655   2.676
 4627SOL     OW14779   2.355   4.655   4.648
 4627SOL    HW114780   2.370   4.557   4.633
 4627SOL    HW214781   2.341   4.672   4.746
 4628SOL     OW14782   6.188   4.680   3.992
 4628SOL    HW114783   6.288   4.677   3.986
 4628SOL    HW214784   6.160   4.682   4.088
 4629SOL     OW14785   2.078   5.131   5.283
 4629SOL    HW114786   2.059   5.172   5.372
 4629SOL    HW214787   2.115   5.200   5.221
 4630SOL     OW14788   3.085   5.412   2.358
 4630SOL    HW114789   3.107   5.477   2.286
 4630SOL    HW214790   3.134   5.326   2.342
 4631SOL     OW14791   2.156   6.326   2.512
 4631SOL    HW114792   2.238   6.367   2.553
 4631SOL    HW214793   2.157   6.227   2.527
 4632SOL     OW14794   3.466   4.910   2.389
 4632SOL    HW114795   3.494   4.876   2.479
 4632SOL    HW214796   3.369   4.892   2.375
 4633SOL     OW14797   4.852   7.023   4.541
 4633SOL    HW114798   4.885   0.090   4.533
 4633SOL    HW214799   4.841   7.000   4.638
 4634SOL     OW14800   2.805   5.043   5.912
 4634SOL    HW114801   2.852   5.061   5.999
 4634SOL    HW214802   2.854   4.971   5.862
 4635SOL     OW14803   5.374   4.165   1.325
 4635SOL    HW114804   5.318   4.106   1.384
 4635SOL    HW214805   5.321   4.190   1.244
 4636SOL     OW14806   1.564   4.526   6.947
 4636SOL    HW114807   1.539   4.526   0.017
 4636SOL    HW214808   1.593   4.618   6.920
 4637SOL     OW14809   1.120   6.957   0.615
 4637SOL    HW114810   1.067   6.957   0.700
 4637SOL    HW214811   1.092   0.007   0.558
 4638SOL     OW14812   5.316   3.975   6.541
 4638SOL    HW114813   5.288   3.990   6.636
 4638SOL    HW214814   5.295   4.056   6.486
 4639SOL     OW14815   2.945   4.497   6.136
 4639SOL    HW114816   2.892   4.465   6.214
 4639SOL    HW214817   3.020   4.556   6.168
 4640SOL     OW14818   4.835   3.826   3.629
 4640SOL    HW114819   4.869   3.735   3.655
 4640SOL    HW214820   4.841   3.836   3.529
 4641SOL     OW14821   2.037   6.905   5.144
 4641SOL    HW114822   2.062   6.808   5.152
 4641SOL    HW214823   1.963   6.925   5.208
 4642SOL     OW14824   0.307   5.360   4.001
 4642SOL    HW114825   0.396   5.321   4.025
 4642SOL    HW214826   0.254   5.376   4.084
 4643SOL     OW14827   6.227   2.869   1.183
 4643SOL    HW114828   6.182   2.914   1.105
 4643SOL    HW214829   6.249   2.775   1.158
 4644SOL     OW14830   6.864   4.998   4.910
 4644SOL    HW114831   6.955   4.957   4.916
 4644SOL    HW214832   6.798   4.928   4.881
 4645SOL     OW14833   0.960   0.625   4.557
 4645SOL    HW114834   0.979   0.649   4.462
 4645SOL    HW214835   1.017   0.681   4.617
 4646SOL     OW14836   1.891   5.815   3.540
 4646SOL    HW114837   1.960   5.774   3.480
 4646SOL    HW214838   1.929   5.897   3.582
 4647SOL     OW14839   1.721   0.775   3.175
 4647SOL    HW114840   1.625   0.787   3.201
 4647SOL    HW214841   1.780   0.825   3.239
 4648SOL     OW14842   3.809   0.887   2.199
 4648SOL    HW114843   3.870   0.948   2.149
 4648SOL    HW214844   3.839   0.880   2.294
 4649SOL     OW14845   5.683   6.914   6.422
 4649SOL    HW114846   5.679   6.880   6.328
 4649SOL    HW214847   5.662   7.011   6.423
 4650SOL     OW14848   4.379   5.307   2.726
 4650SOL    HW114849   4.434   5.304   2.809
 4650SOL    HW214850   4.384   5.218   2.679
 4651SOL     OW14851   6.732   2.434   0.556
 4651SOL    HW114852   6.676   2.472   0.483
 4651SOL    HW214853   6.684   2.444   0.644
 4652SOL     OW14854   6.527   7.006   3.928
 4652SOL    HW114855   6.614   0.001   3.972
 4652SOL    HW214856   6.524   0.021   3.838
 4653SOL     OW14857   5.820   4.851   0.716
 4653SOL    HW114858   5.861   4.774   0.667
 4653SOL    HW214859   5.743   4.818   0.771
 4654SOL     OW14860   1.086   6.675   0.291
 4654SOL    HW114861   1.019   6.678   0.217
 4654SOL    HW214862   1.167   6.624   0.261
 4655SOL     OW14863   5.180   4.287   1.606
 4655SOL    HW114864   5.084   4.314   1.603
 4655SOL    HW214865   5.197   4.216   1.538
 4656SOL     OW14866   1.238   1.046   3.106
 4656SOL    HW114867   1.239   0.947   3.120
 4656SOL    HW214868   1.306   1.071   3.038
 4657SOL     OW14869   4.933   6.297   1.736
 4657SOL    HW114870   4.924   6.200   1.756
 4657SOL    HW214871   4.960   6.310   1.641
 4658SOL     OW14872   3.750   1.362   2.745
 4658SOL    HW114873   3.699   1.355   2.831
 4658SOL    HW214874   3.694   1.409   2.676
 4659SOL     OW14875   3.079   4.727   5.264
 4659SOL    HW114876   3.101   4.775   5.179
 4659SOL    HW214877   3.001   4.667   5.248
 4660SOL     OW14878   1.206   4.323   6.228
 4660SOL    HW114879   1.288   4.283   6.187
 4660SOL    HW214880   1.161   4.383   6.162
 4661SOL     OW14881   3.356   4.192   5.630
 4661SOL    HW114882   3.442   4.219   5.672
 4661SOL    HW214883   3.370   4.109   5.576
 4662SOL     OW14884   3.349   0.330   5.646
 4662SOL    HW114885   3.325   0.419   5.606
 4662SOL    HW214886   3.282   0.262   5.617
 4663SOL     OW14887   0.273   2.403   2.512
 4663SOL    HW114888   0.339   2.331   2.536
 4663SOL    HW214889   0.181   2.364   2.512
 4664SOL     OW14890   1.580   1.349   1.024
 4664SOL    HW114891   1.543   1.437   1.054
 4664SOL    HW214892   1.538   1.275   1.076
 4665SOL     OW14893   3.281   6.843   6.511
 4665SOL    HW114894   3.351   6.913   6.498
 4665SOL    HW214895   3.231   6.860   6.596
 4666SOL     OW14896   1.349   2.370   0.523
 4666SOL    HW114897   1.402   2.286   0.535
 4666SOL    HW214898   1.389   2.424   0.449
 4667SOL     OW14899   6.172   3.628   2.741
 4667SOL    HW114900   6.247   3.639   2.807
 4667SOL    HW214901   6.119   3.712   2.737
 4668SOL     OW14902   4.307   1.971   2.337
 4668SOL    HW114903   4.207   1.969   2.329
 4668SOL    HW214904   4.332   1.976   2.434
 4669SOL     OW14905   5.217   5.952   6.464
 4669SOL    HW114906   5.190   5.876   6.404
 4669SOL    HW214907   5.136   5.998   6.499
 4670SOL     OW14908   3.065   2.269   5.388
 4670SOL    HW114909   3.119   2.310   5.314
 4670SOL    HW214910   3.089   2.313   5.475
 4671SOL     OW14911   6.523   2.697   1.567
 4671SOL    HW114912   6.451   2.638   1.603
 4671SOL    HW214913   6.499   2.792   1.584
 4672SOL     OW14914   2.651   4.625   6.163
 4672SOL    HW114915   2.707   4.620   6.246
 4672SOL    HW214916   2.708   4.655   6.086
 4673SOL     OW14917   5.057   0.400   1.765
 4673SOL    HW114918   5.153   0.386   1.739
 4673SOL    HW214919   5.010   0.448   1.691
 4674SOL     OW14920   5.428   6.651   5.912
 4674SOL    HW114921   5.381   6.738   5.897
 4674SOL    HW214922   5.508   6.666   5.970
 4675SOL     OW14923   1.660   1.508   6.194
 4675SOL    HW114924   1.655   1.607   6.211
 4675SOL    HW214925   1.748   1.486   6.153
 4676SOL     OW14926   0.419   6.335   3.710
 4676SOL    HW114927   0.448   6.284   3.790
 4676SOL    HW214928   0.493   6.337   3.643
 4677SOL     OW14929   2.598   1.687   6.382
 4677SOL    HW114930   2.548   1.660   6.300
 4677SOL    HW214931   2.691   1.649   6.378
 4678SOL     OW14932   1.480   4.639   3.272
 4678SOL    HW114933   1.574   4.661   3.298
 4678SOL    HW214934   1.468   4.656   3.174
 4679SOL     OW14935   4.138   0.292   0.400
 4679SOL    HW114936   4.094   0.382   0.402
 4679SOL    HW214937   4.113   0.240   0.482
 4680SOL     OW14938   3.170   1.655   0.366
 4680SOL    HW114939   3.251   1.712   0.356
 4680SOL    HW214940   3.092   1.698   0.321
 4681SOL     OW14941   5.166   5.235   6.758
 4681SOL    HW114942   5.236   5.221   6.688
 4681SOL    HW214943   5.210   5.252   6.846
 4682SOL     OW14944   4.770   4.242   5.551
 4682SOL    HW114945   4.688   4.292   5.576
 4682SOL    HW214946   4.749   4.145   5.539
 4683SOL     OW14947   4.271   4.608   2.339
 4683SOL    HW114948   4.274   4.705   2.316
 4683SOL    HW214949   4.186   4.568   2.305
 4684SOL     OW14950   5.900   0.548   5.269
 4684SOL    HW114951   5.927   0.632   5.221
 4684SOL    HW214952   5.867   0.481   5.203
 4685SOL     OW14953   1.001   5.931   5.671
 4685SOL    HW114954   1.029   5.941   5.576
 4685SOL    HW214955   1.080   5.945   5.731
 4686SOL     OW14956   4.371   5.036   0.524
 4686SOL    HW114957   4.413   4.949   0.551
 4686SOL    HW214958   4.413   5.111   0.576
 4687SOL     OW14959   6.329   3.629   4.406
 4687SOL    HW114960   6.322   3.631   4.506
 4687SOL    HW214961   6.417   3.589   4.379
 4688SOL     OW14962   5.832   4.315   4.822
 4688SOL    HW114963   5.746   4.350   4.786
 4688SOL    HW214964   5.842   4.218   4.798
 4689SOL     OW14965   5.196   1.066   0.101
 4689SOL    HW114966   5.236   0.975   0.092
 4689SOL    HW214967   5.262   1.128   0.143
 4690SOL     OW14968   1.308   0.546   6.830
 4690SOL    HW114969   1.265   0.586   6.911
 4690SOL    HW214970   1.347   0.618   6.773
 4691SOL     OW14971   2.660   5.080   1.567
 4691SOL    HW114972   2.731   5.042   1.509
 4691SOL    HW214973   2.699   5.151   1.625
 4692SOL     OW14974   5.894   6.037   1.747
 4692SOL    HW114975   5.940   5.951   1.725
 4692SOL    HW214976   5.837   6.024   1.828
 4693SOL     OW14977   1.200   2.038   3.544
 4693SOL    HW114978   1.209   2.089   3.458
 4693SOL    HW214979   1.114   2.062   3.589
 4694SOL     OW14980   2.144   0.956   0.062
 4694SOL    HW114981   2.065   0.980   0.119
 4694SOL    HW214982   2.123   0.978   6.994
 4695SOL     OW14983   0.885   3.332   2.201
 4695SOL    HW114984   0.830   3.322   2.118
 4695SOL    HW214985   0.916   3.426   2.210
 4696SOL     OW14986   0.283   4.249   0.141
 4696SOL    HW114987   0.289   4.267   0.043
 4696SOL    HW214988   0.361   4.194   0.170
 4697SOL     OW14989   1.556   3.417   0.675
 4697SOL    HW114990   1.589   3.467   0.595
 4697SOL    HW214991   1.609   3.443   0.755
 4698SOL     OW14992   4.499   5.038   2.668
 4698SOL    HW114993   4.509   4.985   2.584
 4698SOL    HW214994   4.581   5.026   2.725
 4699SOL     OW14995   1.552   6.515   2.442
 4699SOL    HW114996   1.500   6.597   2.418
 4699SOL    HW214997   1.540   6.445   2.372
 4700SOL     OW14998   0.038   1.403   3.601
 4700SOL    HW114999   7.015   1.321   3.628
 4700SOL    HW215000   7.001   1.473   3.569
 4701SOL     OW15001   2.473   2.591   0.516
 4701SOL    HW115002   2.395   2.649   0.540
 4701SOL    HW215003   2.440   2.502   0.486
 4702SOL     OW15004   4.859   5.055   0.083
 4702SOL    HW115005   4.809   4.980   0.126
 4702SOL    HW215006   4.937   5.018   0.032
 4703SOL     OW15007   0.642   1.542   1.716
 4703SOL    HW115008   0.627   1.608   1.642
 4703SOL    HW215009   0.578   1.560   1.790
 4704SOL     OW15010   0.559   6.269   7.012
 4704SOL    HW115011   0.619   6.293   0.061
 4704SOL    HW215012   0.570   6.172   6.990
 4705SOL     OW15013   3.599   2.889   1.685
 4705SOL    HW115014   3.557   2.859   1.771
 4705SOL    HW215015   3.649   2.813   1.644
 4706SOL     OW15016   3.268   0.000   0.124
 4706SOL    HW115017   3.181   0.007   0.173
 4706SOL    HW215018   3.320   0.085   0.135
 4707SOL     OW15019   1.779   6.810   1.272
 4707SOL    HW115020   1.749   6.804   1.176
 4707SOL    HW215021   1.701   6.831   1.330
 4708SOL     OW15022   1.243   1.715   6.377
 4708SOL    HW115023   1.157   1.676   6.341
 4708SOL    HW215024   1.222   1.776   6.453
 4709SOL     OW15025   4.669   5.485   5.777
 4709SOL    HW115026   4.683   5.563   5.716
 4709SOL    HW215027   4.684   5.400   5.726
 4710SOL     OW15028   5.004   6.811   5.295
 4710SOL    HW115029   5.061   6.883   5.254
 4710SOL    HW215030   4.977   6.837   5.387
 4711SOL     OW15031   5.941   1.335   1.493
 4711SOL    HW115032   5.919   1.413   1.553
 4711SOL    HW215033   6.040   1.324   1.489
 4712SOL     OW15034   2.868   4.277   0.273
 4712SOL    HW115035   2.960   4.284   0.235
 4712SOL    HW215036   2.802   4.316   0.209
 4713SOL     OW15037   3.823   4.025   1.113
 4713SOL    HW115038   3.916   4.060   1.108
 4713SOL    HW215039   3.776   4.043   1.027
 4714SOL     OW15040   0.414   1.847   6.187
 4714SOL    HW115041   0.397   1.933   6.139
 4714SOL    HW215042   0.452   1.866   6.278
 4715SOL     OW15043   5.694   2.455   2.625
 4715SOL    HW115044   5.655   2.497   2.543
 4715SOL    HW215045   5.623   2.449   2.696
 4716SOL     OW15046   4.317   6.076   6.678
 4716SOL    HW115047   4.249   6.009   6.708
 4716SOL    HW215048   4.348   6.129   6.757
 4717SOL     OW15049   6.784   0.095   3.930
 4717SOL    HW115050   6.847   0.044   3.989
 4717SOL    HW215051   6.815   0.190   3.922
 4718SOL     OW15052   5.198   2.394   1.795
 4718SOL    HW115053   5.248   2.480   1.797
 4718SOL    HW215054   5.254   2.323   1.753
 4719SOL     OW15055   4.829   3.134   1.713
 4719SOL    HW115056   4.766   3.103   1.784
 4719SOL    HW215057   4.850   3.058   1.651
 4720SOL     OW15058   2.457   5.262   6.217
 4720SOL    HW115059   2.506   5.191   6.166
 4720SOL    HW215060   2.452   5.236   6.313
 4721SOL     OW15061   6.493   2.182   2.435
 4721SOL    HW115062   6.525   2.157   2.526
 4721SOL    HW215063   6.451   2.273   2.438
 4722SOL     OW15064   0.906   6.120   6.544
 4722SOL    HW115065   0.837   6.105   6.615
 4722SOL    HW215066   0.971   6.044   6.544
 4723SOL     OW15067   2.640   3.632   5.909
 4723SOL    HW115068   2.729   3.589   5.925
 4723SOL    HW215069   2.653   3.726   5.877
 4724SOL     OW15070   6.007   6.841   2.983
 4724SOL    HW115071   6.019   6.758   2.929
 4724SOL    HW215072   5.987   6.817   3.078
 4725SOL     OW15073   6.237   5.493   1.304
 4725SOL    HW115074   6.329   5.490   1.264
 4725SOL    HW215075   6.243   5.470   1.401
 4726SOL     OW15076   1.197   2.690   6.165
 4726SOL    HW115077   1.253   2.607   6.157
 4726SOL    HW215078   1.115   2.679   6.109
 4727SOL     OW15079   1.267   6.032   1.031
 4727SOL    HW115080   1.275   5.950   1.088
 4727SOL    HW215081   1.339   6.032   0.962
 4728SOL     OW15082   5.811   0.896   1.763
 4728SOL    HW115083   5.737   0.929   1.821
 4728SOL    HW215084   5.887   0.961   1.765
 4729SOL     OW15085   3.561   1.789   0.713
 4729SOL    HW115086   3.592   1.702   0.674
 4729SOL    HW215087   3.470   1.778   0.752
 4730SOL     OW15088   3.441   5.915   5.620
 4730SOL    HW115089   3.476   6.006   5.642
 4730SOL    HW215090   3.504   5.845   5.654
 4731SOL     OW15091   4.138   0.571   6.849
 4731SOL    HW115092   4.043   0.555   6.824
 4731SOL    HW215093   4.185   0.619   6.775
 4732SOL     OW15094   1.273   4.029   5.806
 4732SOL    HW115095   1.212   4.070   5.875
 4732SOL    HW215096   1.368   4.052   5.827
 4733SOL     OW15097   0.974   3.894   3.909
 4733SOL    HW115098   1.037   3.947   3.966
 4733SOL    HW215099   0.915   3.957   3.859
 4734SOL     OW15100   3.753   2.594   0.080
 4734SOL    HW115101   3.726   2.579   7.012
 4734SOL    HW215102   3.851   2.579   0.090
 4735SOL     OW15103   6.196   5.723   3.974
 4735SOL    HW115104   6.100   5.752   3.985
 4735SOL    HW215105   6.215   5.707   3.877
 4736SOL     OW15106   6.497   1.851   5.299
 4736SOL    HW115107   6.525   1.758   5.323
 4736SOL    HW215108   6.521   1.914   5.373
 4737SOL     OW15109   2.586   4.696   1.835
 4737SOL    HW115110   2.554   4.790   1.850
 4737SOL    HW215111   2.663   4.678   1.896
 4738SOL     OW15112   0.790   6.412   2.957
 4738SOL    HW115113   0.746   6.328   2.923
 4738SOL    HW215114   0.853   6.446   2.887
 4739SOL     OW15115   3.888   0.824   3.164
 4739SOL    HW115116   3.976   0.828   3.211
 4739SOL    HW215117   3.880   0.901   3.102
 4740SOL     OW15118   0.889   1.569   1.579
 4740SOL    HW115119   0.817   1.562   1.649
 4740SOL    HW215120   0.864   1.640   1.513
 4741SOL     OW15121   4.825   3.388   0.734
 4741SOL    HW115122   4.734   3.349   0.743
 4741SOL    HW215123   4.855   3.424   0.822
 4742SOL     OW15124   3.173   6.847   6.246
 4742SOL    HW115125   3.232   6.865   6.325
 4742SOL    HW215126   3.105   6.920   6.239
 4743SOL     OW15127   1.868   3.339   4.059
 4743SOL    HW115128   1.872   3.249   4.014
 4743SOL    HW215129   1.829   3.406   3.995
 4744SOL     OW15130   1.909   4.195   0.435
 4744SOL    HW115131   1.954   4.159   0.353
 4744SOL    HW215132   1.835   4.134   0.462
 4745SOL     OW15133   3.126   5.030   0.031
 4745SOL    HW115134   3.174   5.096   7.000
 4745SOL    HW215135   3.058   5.078   0.086
 4746SOL     OW15136   5.210   5.588   2.362
 4746SOL    HW115137   5.172   5.510   2.313
 4746SOL    HW215138   5.310   5.580   2.366
 4747SOL     OW15139   1.525   3.605   6.762
 4747SOL    HW115140   1.530   3.520   6.814
 4747SOL    HW215141   1.603   3.609   6.698
 4748SOL     OW15142   1.311   5.077   0.661
 4748SOL    HW115143   1.232   5.113   0.611
 4748SOL    HW215144   1.336   5.140   0.735
 4749SOL     OW15145   2.541   6.201   5.662
 4749SOL    HW115146   2.564   6.288   5.619
 4749SOL    HW215147   2.621   6.166   5.710
 4750SOL     OW15148   0.344   4.036   3.988
 4750SOL    HW115149   0.402   4.012   3.911
 4750SOL    HW215150   0.248   4.027   3.962
 4751SOL     OW15151   4.199   1.903   2.023
 4751SOL    HW115152   4.103   1.898   1.999
 4751SOL    HW215153   4.214   1.858   2.111
 4752SOL     OW15154   4.290   0.656   6.230
 4752SOL    HW115155   4.257   0.578   6.284
 4752SOL    HW215156   4.248   0.740   6.265
 4753SOL     OW15157   5.473   0.357   4.266
 4753SOL    HW115158   5.512   0.288   4.206
 4753SOL    HW215159   5.466   0.321   4.359
 4754SOL     OW15160   5.790   6.178   4.983
 4754SOL    HW115161   5.835   6.090   4.971
 4754SOL    HW215162   5.725   6.173   5.058
 4755SOL     OW15163   2.315   0.546   0.889
 4755SOL    HW115164   2.327   0.636   0.929
 4755SOL    HW215165   2.221   0.515   0.903
 4756SOL     OW15166   5.746   2.683   0.374
 4756SOL    HW115167   5.843   2.657   0.379
 4756SOL    HW215168   5.700   2.657   0.458
 4757SOL     OW15169   2.337   1.707   0.973
 4757SOL    HW115170   2.317   1.610   0.992
 4757SOL    HW215171   2.430   1.727   1.001
 4758SOL     OW15172   2.145   5.896   3.956
 4758SOL    HW115173   2.138   5.984   3.911
 4758SOL    HW215174   2.181   5.828   3.892
 4759SOL     OW15175   6.228   4.530   5.519
 4759SOL    HW115176   6.237   4.552   5.421
 4759SOL    HW215177   6.155   4.585   5.558
 4760SOL     OW15178   2.131   2.449   0.605
 4760SOL    HW115179   2.178   2.490   0.683
 4760SOL    HW215180   2.035   2.432   0.628
 4761SOL     OW15181   0.748   6.289   0.208
 4761SOL    HW115182   0.731   6.366   0.269
 4761SOL    HW215183   0.843   6.290   0.177
 4762SOL     OW15184   0.502   6.130   2.270
 4762SOL    HW115185   0.586   6.082   2.297
 4762SOL    HW215186   0.524   6.197   2.199
 4763SOL     OW15187   6.190   0.016   3.133
 4763SOL    HW115188   6.109   0.056   3.090
 4763SOL    HW215189   6.273   0.059   3.096
 4764SOL     OW15190   4.926   3.720   4.399
 4764SOL    HW115191   4.903   3.814   4.422
 4764SOL    HW215192   4.924   3.708   4.300
 4765SOL     OW15193   4.917   1.041   3.972
 4765SOL    HW115194   4.990   1.019   4.037
 4765SOL    HW215195   4.952   1.103   3.902
 4766SOL     OW15196   5.300   6.057   4.249
 4766SOL    HW115197   5.262   6.128   4.189
 4766SOL    HW215198   5.325   6.098   4.337
 4767SOL     OW15199   3.236   5.748   5.576
 4767SOL    HW115200   3.308   5.810   5.607
 4767SOL    HW215201   3.151   5.798   5.565
 4768SOL     OW15202   4.439   2.133   6.178
 4768SOL    HW115203   4.462   2.049   6.128
 4768SOL    HW215204   4.510   2.202   6.163
 4769SOL     OW15205   4.860   4.306   6.716
 4769SOL    HW115206   4.882   4.239   6.645
 4769SOL    HW215207   4.826   4.258   6.797
 4770SOL     OW15208   0.713   1.065   4.256
 4770SOL    HW115209   0.614   1.061   4.247
 4770SOL    HW215210   0.756   1.048   4.168
 4771SOL     OW15211   2.750   6.104   5.229
 4771SOL    HW115212   2.789   6.196   5.224
 4771SOL    HW215213   2.814   6.039   5.186
 4772SOL     OW15214   4.031   5.080   1.340
 4772SOL    HW115215   4.124   5.084   1.302
 4772SOL    HW215216   3.985   4.999   1.305
 4773SOL     OW15217   6.907   5.421   3.513
 4773SOL    HW115218   6.911   5.429   3.613
 4773SOL    HW215219   7.000   5.430   3.475
 4774SOL     OW15220   1.693   3.095   1.496
 4774SOL    HW115221   1.667   3.021   1.557
 4774SOL    HW215222   1.613   3.128   1.447
 4775SOL     OW15223   5.401   6.673   2.608
 4775SOL    HW115224   5.377   6.587   2.562
 4775SOL    HW215225   5.394   6.661   2.707
 4776SOL     OW15226   1.242   6.514   5.268
 4776SOL    HW115227   1.174   6.472   5.207
 4776SOL    HW215228   1.280   6.443   5.328
 4777SOL     OW15229   2.118   5.290   1.093
 4777SOL    HW115230   2.061   5.342   1.029
 4777SOL    HW215231   2.153   5.351   1.164
 4778SOL     OW15232   6.250   2.270   4.046
 4778SOL    HW115233   6.242   2.365   4.015
 4778SOL    HW215234   6.158   2.232   4.060
 4779SOL     OW15235   6.241   5.736   2.276
 4779SOL    HW115236   6.316   5.793   2.310
 4779SOL    HW215237   6.182   5.791   2.217
 4780SOL     OW15238   5.951   1.014   0.062
 4780SOL    HW115239   5.902   0.974   0.139
 4780SOL    HW215240   5.999   1.097   0.092
 4781SOL     OW15241   2.229   5.430   2.365
 4781SOL    HW115242   2.185   5.467   2.447
 4781SOL    HW215243   2.215   5.494   2.289
 4782SOL     OW15244   5.425   5.776   0.382
 4782SOL    HW115245   5.504   5.722   0.409
 4782SOL    HW215246   5.376   5.807   0.464
 4783SOL     OW15247   4.295   3.716   6.815
 4783SOL    HW115248   4.331   3.805   6.790
 4783SOL    HW215249   4.368   3.659   6.852
 4784SOL     OW15250   6.259   3.814   7.020
 4784SOL    HW115251   6.347   3.834   6.976
 4784SOL    HW215252   6.272   3.746   0.065
 4785SOL     OW15253   1.326   6.654   2.906
 4785SOL    HW115254   1.339   6.614   2.815
 4785SOL    HW215255   1.245   6.712   2.905
 4786SOL     OW15256   2.508   1.265   0.062
 4786SOL    HW115257   2.455   1.214   0.130
 4786SOL    HW215258   2.588   1.211   0.034
 4787SOL     OW15259   4.170   1.405   2.380
 4787SOL    HW115260   4.207   1.391   2.288
 4787SOL    HW215261   4.144   1.501   2.391
 4788SOL     OW15262   0.250   5.871   6.365
 4788SOL    HW115263   0.258   5.971   6.365
 4788SOL    HW215264   0.332   5.831   6.325
 4789SOL     OW15265   4.891   1.934   1.126
 4789SOL    HW115266   4.940   1.890   1.051
 4789SOL    HW215267   4.818   1.873   1.158
 4790SOL     OW15268   6.184   2.454   5.376
 4790SOL    HW115269   6.281   2.446   5.354
 4790SOL    HW215270   6.164   2.405   5.461
 4791SOL     OW15271   0.295   2.682   1.469
 4791SOL    HW115272   0.196   2.678   1.478
 4791SOL    HW215273   0.338   2.642   1.550
 4792SOL     OW15274   1.844   4.226   3.464
 4792SOL    HW115275   1.901   4.217   3.383
 4792SOL    HW215276   1.817   4.322   3.475
 4793SOL     OW15277   2.041   2.858   5.253
 4793SOL    HW115278   1.945   2.881   5.244
 4793SOL    HW215279   2.082   2.846   5.162
 4794SOL     OW15280   4.638   0.345   4.384
 4794SOL    HW115281   4.613   0.407   4.310
 4794SOL    HW215282   4.694   0.271   4.348
 4795SOL     OW15283   5.999   2.164   4.136
 4795SOL    HW115284   5.965   2.073   4.112
 4795SOL    HW215285   6.032   2.164   4.230
 4796SOL     OW15286   4.758   1.995   5.006
 4796SOL    HW115287   4.806   2.028   5.088
 4796SOL    HW215288   4.740   1.897   5.016
 4797SOL     OW15289   1.008   6.284   5.474
 4797SOL    HW115290   0.931   6.221   5.471
 4797SOL    HW215291   1.001   6.350   5.400
 4798SOL     OW15292   0.968   4.004   5.116
 4798SOL    HW115293   0.896   3.952   5.071
 4798SOL    HW215294   0.992   4.083   5.060
 4799SOL     OW15295   4.892   1.780   0.316
 4799SOL    HW115296   4.840   1.862   0.293
 4799SOL    HW215297   4.830   1.706   0.338
 4800SOL     OW15298   3.344   2.642   6.151
 4800SOL    HW115299   3.262   2.672   6.102
 4800SOL    HW215300   3.318   2.583   6.227
 4801SOL     OW15301   3.046   2.444   6.502
 4801SOL    HW115302   2.990   2.464   6.582
 4801SOL    HW215303   2.989   2.406   6.430
 4802SOL     OW15304   1.202   6.884   1.951
 4802SOL    HW115305   1.277   6.846   2.004
 4802SOL    HW215306   1.232   6.899   1.857
 4803SOL     OW15307   0.108   4.919   0.359
 4803SOL    HW115308   0.141   4.855   0.289
 4803SOL    HW215309   0.053   4.869   0.425
 4804SOL     OW15310   6.037   6.249   1.367
 4804SOL    HW115311   6.094   6.173   1.336
 4804SOL    HW215312   6.093   6.310   1.424
 4805SOL     OW15313   6.094   2.217   2.644
 4805SOL    HW115314   6.158   2.243   2.717
 4805SOL    HW215315   6.118   2.266   2.560
 4806SOL     OW15316   1.410   4.352   2.964
 4806SOL    HW115317   1.485   4.414   2.939
 4806SOL    HW215318   1.331   4.405   2.994
 4807SOL     OW15319   1.140   4.837   0.666
 4807SOL    HW115320   1.222   4.893   0.660
 4807SOL    HW215321   1.107   4.816   0.573
 4808SOL     OW15322   5.366   4.545   0.162
 4808SOL    HW115323   5.462   4.521   0.177
 4808SOL    HW215324   5.309   4.465   0.179
 4809SOL     OW15325   3.635   4.896   0.657
 4809SOL    HW115326   3.553   4.899   0.713
 4809SOL    HW215327   3.689   4.815   0.681
 4810SOL     OW15328   1.577   5.206   2.547
 4810SOL    HW115329   1.587   5.243   2.640
 4810SOL    HW215330   1.648   5.137   2.531
 4811SOL     OW15331   2.484   3.998   1.673
 4811SOL    HW115332   2.525   4.042   1.753
 4811SOL    HW215333   2.506   3.900   1.675
 4812SOL     OW15334   0.089   5.042   2.389
 4812SOL    HW115335   0.053   4.952   2.412
 4812SOL    HW215336   0.024   5.113   2.418
 4813SOL     OW15337   6.201   2.139   7.010
 4813SOL    HW115338   6.136   2.187   6.951
 4813SOL    HW215339   6.288   2.187   7.010
 4814SOL     OW15340   0.063   3.383   1.307
 4814SOL    HW115341   7.000   3.361   1.345
 4814SOL    HW215342   0.123   3.304   1.316
 4815SOL     OW15343   5.783   4.072   2.324
 4815SOL    HW115344   5.871   4.113   2.346
 4815SOL    HW215345   5.794   3.973   2.316
 4816SOL     OW15346   2.118   4.608   1.104
 4816SOL    HW115347   2.121   4.681   1.172
 4816SOL    HW215348   2.061   4.636   1.027
 4817SOL     OW15349   1.172   1.658   6.819
 4817SOL    HW115350   1.083   1.629   6.784
 4817SOL    HW215351   1.181   1.757   6.809
 4818SOL     OW15352   0.745   6.374   4.318
 4818SOL    HW115353   0.753   6.299   4.252
 4818SOL    HW215354   0.818   6.440   4.302
 4819SOL     OW15355   1.635   2.254   0.275
 4819SOL    HW115356   1.681   2.193   0.339
 4819SOL    HW215357   1.662   2.231   0.182
 4820SOL     OW15358   6.192   2.698   2.640
 4820SOL    HW115359   6.226   2.666   2.551
 4820SOL    HW215360   6.196   2.624   2.706
 4821SOL     OW15361   0.569   6.346   2.506
 4821SOL    HW115362   0.581   6.444   2.521
 4821SOL    HW215363   0.507   6.332   2.429
 4822SOL     OW15364   2.168   3.246   4.643
 4822SOL    HW115365   2.179   3.345   4.630
 4822SOL    HW215366   2.079   3.217   4.607
 4823SOL     OW15367   1.872   0.249   4.486
 4823SOL    HW115368   1.926   0.217   4.407
 4823SOL    HW215369   1.923   0.230   4.570
 4824SOL     OW15370   5.440   2.018   4.711
 4824SOL    HW115371   5.462   2.008   4.614
 4824SOL    HW215372   5.428   2.115   4.733
 4825SOL     OW15373   1.933   3.103   3.964
 4825SOL    HW115374   2.025   3.126   3.994
 4825SOL    HW215375   1.901   3.021   4.012
 4826SOL     OW15376   6.195   1.324   6.842
 4826SOL    HW115377   6.222   1.377   6.762
 4826SOL    HW215378   6.143   1.244   6.813
 4827SOL     OW15379   6.178   1.502   0.641
 4827SOL    HW115380   6.256   1.517   0.579
 4827SOL    HW215381   6.192   1.417   0.691
 4828SOL     OW15382   5.563   2.696   0.605
 4828SOL    HW115383   5.500   2.746   0.663
 4828SOL    HW215384   5.657   2.712   0.635
 4829SOL     OW15385   3.883   6.926   6.309
 4829SOL    HW115386   3.977   6.953   6.286
 4829SOL    HW215387   3.864   6.836   6.271
 4830SOL     OW15388   4.422   6.645   3.884
 4830SOL    HW115389   4.504   6.605   3.925
 4830SOL    HW215390   4.340   6.604   3.926
 4831SOL     OW15391   6.978   4.467   6.314
 4831SOL    HW115392   6.954   4.379   6.273
 4831SOL    HW215393   7.026   4.452   6.400
 4832SOL     OW15394   3.844   3.440   3.913
 4832SOL    HW115395   3.872   3.344   3.916
 4832SOL    HW215396   3.826   3.472   4.006
 4833SOL     OW15397   4.814   2.229   3.022
 4833SOL    HW115398   4.753   2.152   3.005
 4833SOL    HW215399   4.895   2.198   3.071
 4834SOL     OW15400   3.908   6.283   0.977
 4834SOL    HW115401   3.932   6.380   0.985
 4834SOL    HW215402   3.904   6.242   1.068
 4835SOL     OW15403   5.952   1.584   6.901
 4835SOL    HW115404   5.893   1.512   6.865
 4835SOL    HW215405   6.013   1.546   6.970
 4836SOL     OW15406   5.379   3.151   4.916
 4836SOL    HW115407   5.310   3.208   4.960
 4836SOL    HW215408   5.343   3.059   4.904
 4837SOL     OW15409   6.618   4.084   2.902
 4837SOL    HW115410   6.536   4.106   2.849
 4837SOL    HW215411   6.634   3.986   2.901
 4838SOL     OW15412   0.938   5.219   0.289
 4838SOL    HW115413   0.873   5.143   0.284
 4838SOL    HW215414   0.891   5.304   0.265
 4839SOL     OW15415   2.099   3.421   6.731
 4839SOL    HW115416   2.065   3.335   6.771
 4839SOL    HW215417   2.152   3.400   6.649
 4840SOL     OW15418   6.509   4.482   6.531
 4840SOL    HW115419   6.480   4.387   6.520
 4840SOL    HW215420   6.600   4.485   6.572
 4841SOL     OW15421   2.515   5.676   1.789
 4841SOL    HW115422   2.520   5.633   1.879
 4841SOL    HW215423   2.469   5.614   1.725
 4842SOL     OW15424   3.587   5.236   2.986
 4842SOL    HW115425   3.599   5.147   2.943
 4842SOL    HW215426   3.643   5.304   2.938
 4843SOL     OW15427   6.550   3.072   1.301
 4843SOL    HW115428   6.462   3.089   1.257
 4843SOL    HW215429   6.552   3.116   1.391
 4844SOL     OW15430   0.936   3.232   6.467
 4844SOL    HW115431   0.988   3.308   6.428
 4844SOL    HW215432   0.851   3.268   6.506
 4845SOL     OW15433   5.607   5.315   0.021
 4845SOL    HW115434   5.525   5.265   0.049
 4845SOL    HW215435   5.596   5.345   6.953
 4846SOL     OW15436   6.906   3.174   3.782
 4846SOL    HW115437   6.961   3.209   3.707
 4846SOL    HW215438   6.832   3.116   3.745
 4847SOL     OW15439   2.348   0.506   6.616
 4847SOL    HW115440   2.336   0.431   6.680
 4847SOL    HW215441   2.387   0.471   6.530
 4848SOL     OW15442   1.553   0.839   4.688
 4848SOL    HW115443   1.580   0.861   4.595
 4848SOL    HW215444   1.587   0.909   4.751
 4849SOL     OW15445   0.877   5.874   7.016
 4849SOL    HW115446   0.952   5.866   6.950
 4849SOL    HW215447   0.914   5.891   0.080
 4850SOL     OW15448   3.905   1.567   2.002
 4850SOL    HW115449   3.923   1.528   1.912
 4850SOL    HW215450   3.911   1.495   2.071
 4851SOL     OW15451   4.068   6.888   5.595
 4851SOL    HW115452   4.053   6.897   5.693
 4851SOL    HW215453   4.057   6.793   5.568
 4852SOL     OW15454   1.359   5.955   5.134
 4852SOL    HW115455   1.422   5.950   5.211
 4852SOL    HW215456   1.377   6.038   5.081
 4853SOL     OW15457   3.548   0.691   2.941
 4853SOL    HW115458   3.609   0.612   2.944
 4853SOL    HW215459   3.567   0.745   2.859
 4854SOL     OW15460   4.274   6.580   1.829
 4854SOL    HW115461   4.304   6.640   1.754
 4854SOL    HW215462   4.259   6.634   1.911
 4855SOL     OW15463   6.341   2.770   4.310
 4855SOL    HW115464   6.395   2.848   4.341
 4855SOL    HW215465   6.281   2.740   4.385
 4856SOL     OW15466   1.296   2.930   3.101
 4856SOL    HW115467   1.280   2.841   3.144
 4856SOL    HW215468   1.212   2.962   3.056
 4857SOL     OW15469   3.801   1.775   4.152
 4857SOL    HW115470   3.721   1.825   4.117
 4857SOL    HW215471   3.842   1.825   4.228
 4858SOL     OW15472   0.476   0.432   4.567
 4858SOL    HW115473   0.535   0.501   4.525
 4858SOL    HW215474   0.526   0.346   4.575
 4859SOL     OW15475   0.974   6.543   4.320
 4859SOL    HW115476   1.066   6.549   4.359
 4859SOL    HW215477   0.979   6.492   4.234
 4860SOL     OW15478   4.292   4.419   1.721
 4860SOL    HW115479   4.321   4.334   1.765
 4860SOL    HW215480   4.316   4.417   1.624
 4861SOL     OW15481   6.036   5.422   0.088
 4861SOL    HW115482   6.109   5.456   0.029
 4861SOL    HW215483   6.057   5.444   0.183
 4862SOL     OW15484   2.457   4.475   5.030
 4862SOL    HW115485   2.365   4.470   4.990
 4862SOL    HW215486   2.469   4.399   5.095
 4863SOL     OW15487   5.096   3.815   1.271
 4863SOL    HW115488   5.015   3.768   1.305
 4863SOL    HW215489   5.104   3.799   1.172
 4864SOL     OW15490   4.331   1.696   2.207
 4864SOL    HW115491   4.262   1.697   2.280
 4864SOL    HW215492   4.414   1.741   2.240
 4865SOL     OW15493   2.580   6.544   4.382
 4865SOL    HW115494   2.587   6.637   4.346
 4865SOL    HW215495   2.579   6.547   4.482
 4866SOL     OW15496   6.390   4.294   1.694
 4866SOL    HW115497   6.300   4.251   1.695
 4866SOL    HW215498   6.386   4.379   1.641
 4867SOL     OW15499   4.106   5.690   2.447
 4867SOL    HW115500   4.152   5.603   2.463
 4867SOL    HW215501   4.114   5.715   2.351
 4868SOL     OW15502   6.534   5.049   2.401
 4868SOL    HW115503   6.551   4.961   2.445
 4868SOL    HW215504   6.486   5.034   2.315
 4869SOL     OW15505   0.873   1.261   1.153
 4869SOL    HW115506   0.972   1.268   1.158
 4869SOL    HW215507   0.837   1.229   1.240
 4870SOL     OW15508   0.066   6.086   1.651
 4870SOL    HW115509   0.011   6.024   1.594
 4870SOL    HW215510   0.103   6.035   1.729
 4871SOL     OW15511   0.860   0.855   5.150
 4871SOL    HW115512   0.797   0.841   5.227
 4871SOL    HW215513   0.878   0.953   5.139
 4872SOL     OW15514   6.441   5.677   3.835
 4872SOL    HW115515   6.508   5.604   3.832
 4872SOL    HW215516   6.412   5.692   3.930
 4873SOL     OW15517   6.516   5.036   3.728
 4873SOL    HW115518   6.488   5.021   3.633
 4873SOL    HW215519   6.550   4.951   3.766
 4874SOL     OW15520   6.216   2.922   3.129
 4874SOL    HW115521   6.167   2.990   3.075
 4874SOL    HW215522   6.233   2.958   3.221
 4875SOL     OW15523   5.946   3.060   1.500
 4875SOL    HW115524   5.921   3.090   1.593
 4875SOL    HW215525   6.026   3.000   1.505
 4876SOL     OW15526   5.737   1.493   4.254
 4876SOL    HW115527   5.832   1.472   4.277
 4876SOL    HW215528   5.697   1.416   4.204
 4877SOL     OW15529   1.192   1.952   6.896
 4877SOL    HW115530   1.200   1.949   6.995
 4877SOL    HW215531   1.124   2.020   6.870
 4878SOL     OW15532   6.747   0.360   2.873
 4878SOL    HW115533   6.755   0.433   2.941
 4878SOL    HW215534   6.650   0.339   2.858
 4879SOL     OW15535   4.569   5.123   3.495
 4879SOL    HW115536   4.637   5.062   3.535
 4879SOL    HW215537   4.478   5.083   3.506
 4880SOL     OW15538   5.644   3.488   0.015
 4880SOL    HW115539   5.558   3.530   7.015
 4880SOL    HW215540   5.626   3.403   0.063
 4881SOL     OW15541   1.630   1.118   6.590
 4881SOL    HW115542   1.590   1.206   6.614
 4881SOL    HW215543   1.592   1.046   6.648
 4882SOL     OW15544   4.992   1.658   4.861
 4882SOL    HW115545   5.005   1.697   4.769
 4882SOL    HW215546   4.899   1.677   4.892
 4883SOL     OW15547   5.373   4.623   2.031
 4883SOL    HW115548   5.318   4.565   1.970
 4883SOL    HW215549   5.365   4.589   2.124
 4884SOL     OW15550   3.406   0.259   1.547
 4884SOL    HW115551   3.307   0.256   1.559
 4884SOL    HW215552   3.427   0.293   1.455
 4885SOL     OW15553   1.630   5.351   2.764
 4885SOL    HW115554   1.624   5.447   2.793
 4885SOL    HW215555   1.725   5.325   2.753
 4886SOL     OW15556   0.337   6.017   0.959
 4886SOL    HW115557   0.238   6.012   0.953
 4886SOL    HW215558   0.366   6.000   1.054
 4887SOL     OW15559   0.743   0.677   3.053
 4887SOL    HW115560   0.649   0.643   3.040
 4887SOL    HW215561   0.776   0.650   3.143
 4888SOL     OW15562   2.267   6.400   4.301
 4888SOL    HW115563   2.355   6.369   4.336
 4888SOL    HW215564   2.193   6.360   4.356
 4889SOL     OW15565   6.313   1.023   6.269
 4889SOL    HW115566   6.253   1.081   6.323
 4889SOL    HW215567   6.403   1.066   6.261
 4890SOL     OW15568   0.765   1.951   6.490
 4890SOL    HW115569   0.779   2.048   6.507
 4890SOL    HW215570   0.787   1.899   6.573
 4891SOL     OW15571   1.408   4.877   6.933
 4891SOL    HW115572   1.423   4.882   6.834
 4891SOL    HW215573   1.311   4.887   6.953
 4892SOL     OW15574   3.463   6.084   1.596
 4892SOL    HW115575   3.418   5.997   1.578
 4892SOL    HW215576   3.467   6.100   1.695
 4893SOL     OW15577   6.769   3.887   1.597
 4893SOL    HW115578   6.859   3.926   1.616
 4893SOL    HW215579   6.700   3.959   1.603
 4894SOL     OW15580   2.099   1.926   2.887
 4894SOL    HW115581   2.017   1.878   2.856
 4894SOL    HW215582   2.180   1.870   2.868
 4895SOL     OW15583   0.650   5.581   3.088
 4895SOL    HW115584   0.680   5.488   3.069
 4895SOL    HW215585   0.572   5.603   3.029
 4896SOL     OW15586   1.906   5.753   1.724
 4896SOL    HW115587   1.861   5.753   1.813
 4896SOL    HW215588   1.870   5.679   1.668
 4897SOL     OW15589   2.507   4.382   6.188
 4897SOL    HW115590   2.565   4.453   6.149
 4897SOL    HW215591   2.458   4.418   6.268
 4898SOL     OW15592   3.393   1.470   4.023
 4898SOL    HW115593   3.473   1.530   4.027
 4898SOL    HW215594   3.422   1.375   4.037
 4899SOL     OW15595   6.600   5.290   2.911
 4899SOL    HW115596   6.638   5.241   2.832
 4899SOL    HW215597   6.506   5.261   2.926
 4900SOL     OW15598   1.615   5.733   4.416
 4900SOL    HW115599   1.538   5.795   4.424
 4900SOL    HW215600   1.700   5.781   4.436
 4901SOL     OW15601   3.447   6.413   6.149
 4901SOL    HW115602   3.399   6.501   6.149
 4901SOL    HW215603   3.520   6.416   6.080
 4902SOL     OW15604   2.654   1.912   4.734
 4902SOL    HW115605   2.684   1.967   4.656
 4902SOL    HW215606   2.598   1.836   4.701
 4903SOL     OW15607   2.841   5.841   6.898
 4903SOL    HW115608   2.788   5.926   6.905
 4903SOL    HW215609   2.872   5.814   6.989
 4904SOL     OW15610   1.618   0.291   4.246
 4904SOL    HW115611   1.581   0.366   4.302
 4904SOL    HW215612   1.698   0.324   4.195
 4905SOL     OW15613   3.997   0.602   2.288
 4905SOL    HW115614   3.919   0.571   2.235
 4905SOL    HW215615   4.045   0.523   2.326
 4906SOL     OW15616   4.883   2.108   5.957
 4906SOL    HW115617   4.927   2.032   5.909
 4906SOL    HW215618   4.795   2.127   5.914
 4907SOL     OW15619   4.176   5.918   1.009
 4907SOL    HW115620   4.262   5.898   1.056
 4907SOL    HW215621   4.108   5.947   1.076
 4908SOL     OW15622   5.151   4.892   6.698
 4908SOL    HW115623   5.099   4.922   6.618
 4908SOL    HW215624   5.096   4.906   6.780
 4909SOL     OW15625   6.469   0.069   4.553
 4909SOL    HW115626   6.516   7.010   4.537
 4909SOL    HW215627   6.388   0.075   4.495
 4910SOL     OW15628   5.386   6.684   4.641
 4910SOL    HW115629   5.409   6.588   4.625
 4910SOL    HW215630   5.317   6.691   4.712
 4911SOL     OW15631   0.991   3.688   4.138
 4911SOL    HW115632   0.965   3.758   4.071
 4911SOL    HW215633   0.909   3.642   4.172
 4912SOL     OW15634   5.347   1.865   0.182
 4912SOL    HW115635   5.276   1.797   0.198
 4912SOL    HW215636   5.380   1.901   0.269
 4913SOL     OW15637   3.649   3.391   4.718
 4913SOL    HW115638   3.572   3.439   4.675
 4913SOL    HW215639   3.614   3.324   4.783
 4914SOL     OW15640   3.806   6.381   5.402
 4914SOL    HW115641   3.834   6.456   5.342
 4914SOL    HW215642   3.876   6.368   5.473
 4915SOL     OW15643   4.178   0.459   4.654
 4915SOL    HW115644   4.263   0.494   4.692
 4915SOL    HW215645   4.195   0.420   4.564
 4916SOL     OW15646   1.580   0.890   3.770
 4916SOL    HW115647   1.549   0.805   3.814
 4916SOL    HW215648   1.679   0.885   3.755
 4917SOL     OW15649   1.681   4.729   1.280
 4917SOL    HW115650   1.644   4.748   1.189
 4917SOL    HW215651   1.751   4.659   1.273
 4918SOL     OW15652   3.650   6.449   2.576
 4918SOL    HW115653   3.704   6.399   2.643
 4918SOL    HW215654   3.553   6.442   2.599
 4919SOL     OW15655   2.709   2.159   6.927
 4919SOL    HW115656   2.807   2.181   6.926
 4919SOL    HW215657   2.677   2.142   6.834
 4920SOL     OW15658   5.219   0.599   5.120
 4920SOL    HW115659   5.163   0.550   5.053
 4920SOL    HW215660   5.310   0.557   5.125
 4921SOL     OW15661   1.606   4.454   0.476
 4921SOL    HW115662   1.524   4.415   0.519
 4921SOL    HW215663   1.587   4.548   0.447
 4922SOL     OW15664   1.945   2.978   4.815
 4922SOL    HW115665   2.031   2.960   4.865
 4922SOL    HW215666   1.892   3.047   4.864
 4923SOL     OW15667   3.657   1.548   0.648
 4923SOL    HW115668   3.712   1.555   0.565
 4923SOL    HW215669   3.588   1.476   0.636
 4924SOL     OW15670   2.282   1.674   5.650
 4924SOL    HW115671   2.301   1.581   5.682
 4924SOL    HW215672   2.308   1.740   5.721
 4925SOL     OW15673   5.660   6.945   2.130
 4925SOL    HW115674   5.605   6.988   2.060
 4925SOL    HW215675   5.656   6.846   2.120
 4926SOL     OW15676   5.217   2.105   0.481
 4926SOL    HW115677   5.265   2.118   0.394
 4926SOL    HW215678   5.147   2.175   0.491
 4927SOL     OW15679   4.150   3.480   3.973
 4927SOL    HW115680   4.160   3.517   4.065
 4927SOL    HW215681   4.134   3.555   3.909
 4928SOL     OW15682   1.282   0.289   6.881
 4928SOL    HW115683   1.378   0.276   6.906
 4928SOL    HW215684   1.269   0.384   6.850
 4929SOL     OW15685   1.173   4.894   4.279
 4929SOL    HW115686   1.158   4.992   4.282
 4929SOL    HW215687   1.246   4.869   4.343
 4930SOL     OW15688   4.556   0.675   3.034
 4930SOL    HW115689   4.603   0.725   2.961
 4930SOL    HW215690   4.467   0.717   3.051
 4931SOL     OW15691   6.988   0.253   0.611
 4931SOL    HW115692   6.893   0.285   0.618
 4931SOL    HW215693   6.990   0.168   0.557
 4932SOL     OW15694   2.437   3.395   1.631
 4932SOL    HW115695   2.464   3.481   1.588
 4932SOL    HW215696   2.389   3.414   1.717
 4933SOL     OW15697   2.169   0.213   3.620
 4933SOL    HW115698   2.211   0.304   3.616
 4933SOL    HW215699   2.240   0.143   3.616
 4934SOL     OW15700   2.513   5.172   2.641
 4934SOL    HW115701   2.552   5.124   2.721
 4934SOL    HW215702   2.506   5.269   2.661
 4935SOL     OW15703   1.397   1.565   6.599
 4935SOL    HW115704   1.346   1.577   6.685
 4935SOL    HW215705   1.362   1.628   6.531
 4936SOL     OW15706   1.908   4.873   1.392
 4936SOL    HW115707   1.893   4.846   1.487
 4936SOL    HW215708   1.831   4.841   1.336
 4937SOL     OW15709   6.726   2.355   6.455
 4937SOL    HW115710   6.646   2.383   6.510
 4937SOL    HW215711   6.760   2.267   6.488
 4938SOL     OW15712   2.363   6.242   6.184
 4938SOL    HW115713   2.413   6.299   6.118
 4938SOL    HW215714   2.268   6.232   6.154
 4939SOL     OW15715   6.468   2.006   4.404
 4939SOL    HW115716   6.436   2.101   4.412
 4939SOL    HW215717   6.521   1.996   4.320
 4940SOL     OW15718   0.928   1.138   5.055
 4940SOL    HW115719   1.006   1.149   5.117
 4940SOL    HW215720   0.958   1.150   4.961
 4941SOL     OW15721   4.688   3.242   5.543
 4941SOL    HW115722   4.720   3.337   5.547
 4941SOL    HW215723   4.757   3.185   5.497
 4942SOL     OW15724   5.587   2.995   5.905
 4942SOL    HW115725   5.534   3.079   5.918
 4942SOL    HW215726   5.529   2.916   5.922
 4943SOL     OW15727   4.642   3.597   5.972
 4943SOL    HW115728   4.554   3.644   5.979
 4943SOL    HW215729   4.628   3.505   5.935
 4944SOL     OW15730   2.542   4.309   1.756
 4944SOL    HW115731   2.627   4.265   1.725
 4944SOL    HW215732   2.509   4.371   1.685
 4945SOL     OW15733   1.171   6.825   4.209
 4945SOL    HW115734   1.267   6.805   4.190
 4945SOL    HW215735   1.162   6.919   4.244
 4946SOL     OW15736   1.334   5.358   6.977
 4946SOL    HW115737   1.279   5.409   6.911
 4946SOL    HW215738   1.294   5.267   6.990
 4947SOL     OW15739   2.068   0.527   0.498
 4947SOL    HW115740   2.067   0.595   0.423
 4947SOL    HW215741   2.001   0.456   0.480
 4948SOL     OW15742   1.959   3.167   2.870
 4948SOL    HW115743   1.924   3.075   2.886
 4948SOL    HW215744   1.916   3.231   2.934
 4949SOL     OW15745   5.881   4.530   5.821
 4949SOL    HW115746   5.942   4.529   5.899
 4949SOL    HW215747   5.851   4.624   5.802
 4950SOL     OW15748   1.622   4.902   4.628
 4950SOL    HW115749   1.676   4.824   4.660
 4950SOL    HW215750   1.664   4.987   4.661
 4951SOL     OW15751   5.528   0.836   4.804
 4951SOL    HW115752   5.555   0.771   4.875
 4951SOL    HW215753   5.455   0.895   4.840
 4952SOL     OW15754   0.313   0.544   5.979
 4952SOL    HW115755   0.314   0.471   6.047
 4952SOL    HW215756   0.301   0.505   5.888
 4953SOL     OW15757   1.928   6.956   3.330
 4953SOL    HW115758   1.908   6.985   3.424
 4953SOL    HW215759   1.873   7.009   3.266
 4954SOL     OW15760   3.759   2.885   0.213
 4954SOL    HW115761   3.797   2.813   0.156
 4954SOL    HW215762   3.809   2.970   0.197
 4955SOL     OW15763   3.174   6.363   6.663
 4955SOL    HW115764   3.239   6.287   6.671
 4955SOL    HW215765   3.162   6.406   6.752
 4956SOL     OW15766   2.251   6.593   4.921
 4956SOL    HW115767   2.180   6.581   4.991
 4956SOL    HW215768   2.208   6.607   4.832
 4957SOL     OW15769   5.485   2.601   2.044
 4957SOL    HW115770   5.476   2.575   1.948
 4957SOL    HW215771   5.471   2.520   2.102
 4958SOL     OW15772   0.189   5.273   5.584
 4958SOL    HW115773   0.123   5.256   5.510
 4958SOL    HW215774   0.180   5.200   5.652
 4959SOL     OW15775   5.990   1.802   0.189
 4959SOL    HW115776   6.035   1.777   0.104
 4959SOL    HW215777   5.983   1.902   0.195
 4960SOL     OW15778   3.675   4.908   3.487
 4960SOL    HW115779   3.668   4.943   3.394
 4960SOL    HW215780   3.583   4.890   3.523
 4961SOL     OW15781   4.118   1.036   5.860
 4961SOL    HW115782   4.140   1.134   5.854
 4961SOL    HW215783   4.035   1.025   5.915
 4962SOL     OW15784   5.432   2.366   0.013
 4962SOL    HW115785   5.486   2.422   6.977
 4962SOL    HW215786   5.350   2.416   0.039
 4963SOL     OW15787   6.769   6.356   0.820
 4963SOL    HW115788   6.787   6.427   0.752
 4963SOL    HW215789   6.837   6.361   0.893
 4964SOL     OW15790   2.933   0.817   4.138
 4964SOL    HW115791   2.933   0.718   4.121
 4964SOL    HW215792   2.993   0.862   4.072
 4965SOL     OW15793   0.284   1.228   2.269
 4965SOL    HW115794   0.189   1.230   2.238
 4965SOL    HW215795   0.310   1.133   2.289
 4966SOL     OW15796   2.878   6.353   5.183
 4966SOL    HW115797   2.906   6.418   5.254
 4966SOL    HW215798   2.959   6.323   5.133
 4967SOL     OW15799   3.990   4.867   4.968
 4967SOL    HW115800   3.896   4.839   4.984
 4967SOL    HW215801   4.020   4.929   5.040
 4968SOL     OW15802   6.759   2.081   4.128
 4968SOL    HW115803   6.824   2.155   4.138
 4968SOL    HW215804   6.666   2.118   4.122
 4969SOL     OW15805   2.567   5.703   2.934
 4969SOL    HW115806   2.640   5.652   2.890
 4969SOL    HW215807   2.480   5.656   2.920
 4970SOL     OW15808   2.426   2.551   2.500
 4970SOL    HW115809   2.506   2.511   2.456
 4970SOL    HW215810   2.441   2.556   2.599
 4971SOL     OW15811   5.610   5.855   3.188
 4971SOL    HW115812   5.686   5.895   3.240
 4971SOL    HW215813   5.573   5.923   3.125
 4972SOL     OW15814   0.793   3.800   0.944
 4972SOL    HW115815   0.711   3.838   0.901
 4972SOL    HW215816   0.863   3.871   0.952
 4973SOL     OW15817   1.376   6.736   2.336
 4973SOL    HW115818   1.282   6.720   2.306
 4973SOL    HW215819   1.417   6.807   2.278
 4974SOL     OW15820   6.606   4.377   0.782
 4974SOL    HW115821   6.650   4.292   0.811
 4974SOL    HW215822   6.583   4.432   0.862
 4975SOL     OW15823   6.354   3.682   5.691
 4975SOL    HW115824   6.336   3.744   5.766
 4975SOL    HW215825   6.312   3.718   5.607
 4976SOL     OW15826   2.110   1.256   3.610
 4976SOL    HW115827   2.070   1.316   3.541
 4976SOL    HW215828   2.078   1.163   3.596
 4977SOL     OW15829   4.050   4.787   6.778
 4977SOL    HW115830   3.954   4.805   6.759
 4977SOL    HW215831   4.090   4.737   6.701
 4978SOL     OW15832   6.871   4.429   4.879
 4978SOL    HW115833   6.935   4.383   4.940
 4978SOL    HW215834   6.785   4.378   4.877
 4979SOL     OW15835   6.987   6.861   6.716
 4979SOL    HW115836   0.047   6.869   6.765
 4979SOL    HW215837   6.988   6.777   6.661
 4980SOL     OW15838   5.285   6.360   2.944
 4980SOL    HW115839   5.229   6.362   3.027
 4980SOL    HW215840   5.244   6.297   2.878
 4981SOL     OW15841   4.912   5.285   0.464
 4981SOL    HW115842   4.866   5.199   0.445
 4981SOL    HW215843   4.848   5.361   0.448
 4982SOL     OW15844   2.884   1.085   5.457
 4982SOL    HW115845   2.820   1.151   5.416
 4982SOL    HW215846   2.974   1.127   5.468
 4983SOL     OW15847   5.833   3.539   5.324
 4983SOL    HW115848   5.820   3.622   5.268
 4983SOL    HW215849   5.836   3.459   5.264
 4984SOL     OW15850   5.113   3.775   3.498
 4984SOL    HW115851   5.081   3.726   3.579
 4984SOL    HW215852   5.125   3.710   3.423
 4985SOL     OW15853   5.896   0.132   3.289
 4985SOL    HW115854   5.936   0.194   3.221
 4985SOL    HW215855   5.885   0.181   3.375
 4986SOL     OW15856   6.807   4.205   1.774
 4986SOL    HW115857   6.759   4.191   1.687
 4986SOL    HW215858   6.788   4.129   1.836
 4987SOL     OW15859   1.177   0.615   2.427
 4987SOL    HW115860   1.199   0.670   2.507
 4987SOL    HW215861   1.257   0.561   2.401
 4988SOL     OW15862   5.163   0.827   2.279
 4988SOL    HW115863   5.146   0.924   2.262
 4988SOL    HW215864   5.198   0.816   2.372
 4989SOL     OW15865   4.731   6.923   1.491
 4989SOL    HW115866   4.788   6.925   1.410
 4989SOL    HW215867   4.788   6.930   1.573
 4990SOL     OW15868   2.696   2.378   5.595
 4990SOL    HW115869   2.757   2.342   5.524
 4990SOL    HW215870   2.725   2.343   5.685
 4991SOL     OW15871   5.977   5.334   3.644
 4991SOL    HW115872   5.907   5.303   3.580
 4991SOL    HW215873   5.938   5.402   3.706
 4992SOL     OW15874   4.958   1.028   3.308
 4992SOL    HW115875   4.925   0.972   3.232
 4992SOL    HW215876   5.030   0.978   3.357
 4993SOL     OW15877   2.624   5.943   4.153
 4993SOL    HW115878   2.528   5.953   4.182
 4993SOL    HW215879   2.679   5.916   4.231
 4994SOL     OW15880   1.858   0.898   3.710
 4994SOL    HW115881   1.893   0.843   3.786
 4994SOL    HW215882   1.932   0.954   3.673
 4995SOL     OW15883   0.287   2.507   5.768
 4995SOL    HW115884   0.199   2.536   5.731
 4995SOL    HW215885   0.327   2.437   5.708
 4996SOL     OW15886   0.585   1.497   2.914
 4996SOL    HW115887   0.661   1.464   2.970
 4996SOL    HW215888   0.573   1.436   2.835
 4997SOL     OW15889   5.455   2.799   2.729
 4997SOL    HW115890   5.493   2.755   2.811
 4997SOL    HW215891   5.375   2.854   2.755
 4998SOL     OW15892   2.193   4.275   4.953
 4998SOL    HW115893   2.242   4.188   4.947
 4998SOL    HW215894   2.148   4.283   5.042
 4999SOL     OW15895   6.304   3.712   0.371
 4999SOL    HW115896   6.303   3.673   0.279
 4999SOL    HW215897   6.224   3.679   0.421
 5000SOL     OW15898   3.257   6.958   3.424
 5000SOL    HW115899   3.238   6.917   3.513
 5000SOL    HW215900   3.293   6.888   3.362
 5001SOL     OW15901   7.024   3.691   0.846
 5001SOL    HW115902   0.088   3.671   0.882
 5001SOL    HW215903   0.004   3.745   0.762
 5002SOL     OW15904   0.433   3.235   2.872
 5002SOL    HW115905   0.365   3.274   2.810
 5002SOL    HW215906   0.419   3.270   2.964
 5003SOL     OW15907   2.783   6.327   2.611
 5003SOL    HW115908   2.755   6.328   2.515
 5003SOL    HW215909   2.739   6.250   2.658
 5004SOL     OW15910   2.960   5.618   5.813
 5004SOL    HW115911   2.985   5.558   5.889
 5004SOL    HW215912   2.998   5.582   5.728
 5005SOL     OW15913   3.131   2.790   0.742
 5005SOL    HW115914   3.109   2.876   0.787
 5005SOL    HW215915   3.135   2.803   0.643
 5006SOL     OW15916   5.319   0.350   0.465
 5006SOL    HW115917   5.282   0.426   0.520
 5006SOL    HW215918   5.362   0.387   0.382
 5007SOL     OW15919   1.397   0.055   0.657
 5007SOL    HW115920   1.376   0.152   0.653
 5007SOL    HW215921   1.313   0.002   0.647
 5008SOL     OW15922   6.375   6.999   2.170
 5008SOL    HW115923   6.319   6.926   2.211
 5008SOL    HW215924   6.375   6.989   2.071
 5009SOL     OW15925   1.118   0.324   1.099
 5009SOL    HW115926   1.205   0.294   1.059
 5009SOL    HW215927   1.043   0.295   1.040
 5010SOL     OW15928   4.106   3.577   2.486
 5010SOL    HW115929   4.042   3.524   2.430
 5010SOL    HW215930   4.188   3.523   2.503
 5011SOL     OW15931   1.833   3.943   1.922
 5011SOL    HW115932   1.921   3.897   1.934
 5011SOL    HW215933   1.841   4.016   1.854
 5012SOL     OW15934   5.848   4.008   6.047
 5012SOL    HW115935   5.789   4.089   6.041
 5012SOL    HW215936   5.844   3.957   5.961
 5013SOL     OW15937   4.953   1.369   6.398
 5013SOL    HW115938   4.959   1.411   6.489
 5013SOL    HW215939   4.857   1.352   6.376
 5014SOL     OW15940   5.904   4.274   0.630
 5014SOL    HW115941   5.977   4.280   0.562
 5014SOL    HW215942   5.942   4.237   0.716
 5015SOL     OW15943   5.000   2.114   4.714
 5015SOL    HW115944   5.007   2.214   4.717
 5015SOL    HW215945   4.914   2.085   4.755
 5016SOL     OW15946   2.186   2.651   0.003
 5016SOL    HW115947   2.112   2.653   6.963
 5016SOL    HW215948   2.161   2.706   0.082
 5017SOL     OW15949   1.932   2.847   0.062
 5017SOL    HW115950   1.968   2.828   6.998
 5017SOL    HW215951   2.009   2.856   0.126
 5018SOL     OW15952   0.130   3.988   2.516
 5018SOL    HW115953   0.069   3.959   2.442
 5018SOL    HW215954   0.084   4.057   2.572
 5019SOL     OW15955   1.255   4.671   6.328
 5019SOL    HW115956   1.221   4.592   6.379
 5019SOL    HW215957   1.217   4.668   6.235
 5020SOL     OW15958   5.082   0.134   6.378
 5020SOL    HW115959   5.174   0.175   6.378
 5020SOL    HW215960   5.056   0.111   6.284
 5021SOL     OW15961   0.454   1.396   6.187
 5021SOL    HW115962   0.428   1.384   6.091
 5021SOL    HW215963   0.547   1.362   6.201
 5022SOL     OW15964   0.668   1.698   6.357
 5022SOL    HW115965   0.702   1.768   6.420
 5022SOL    HW215966   0.603   1.639   6.405
 5023SOL     OW15967   6.645   2.810   1.262
 5023SOL    HW115968   6.597   2.896   1.245
 5023SOL    HW215969   6.671   2.805   1.359
 5024SOL     OW15970   6.033   5.415   1.804
 5024SOL    HW115971   5.983   5.500   1.789
 5024SOL    HW215972   6.120   5.435   1.849
 5025SOL     OW15973   3.290   1.549   2.267
 5025SOL    HW115974   3.281   1.608   2.347
 5025SOL    HW215975   3.282   1.604   2.184
 5026SOL     OW15976   6.402   5.874   6.019
 5026SOL    HW115977   6.397   5.791   5.963
 5026SOL    HW215978   6.319   5.928   6.006
 5027SOL     OW15979   0.050   6.719   2.150
 5027SOL    HW115980   0.106   6.639   2.169
 5027SOL    HW215981   0.002   6.746   2.233
 5028SOL     OW15982   0.045   1.671   2.717
 5028SOL    HW115983   0.033   1.687   2.815
 5028SOL    HW215984   0.117   1.732   2.683
 5029SOL     OW15985   6.490   2.654   2.733
 5029SOL    HW115986   6.589   2.645   2.731
 5029SOL    HW215987   6.459   2.712   2.658
 5030SOL     OW15988   6.817   0.251   0.252
 5030SOL    HW115989   6.867   0.334   0.279
 5030SOL    HW215990   6.880   0.174   0.246
 5031SOL     OW15991   5.572   0.146   5.004
 5031SOL    HW115992   5.640   0.109   5.067
 5031SOL    HW215993   5.585   0.105   4.913
 5032SOL     OW15994   2.190   2.788   1.065
 5032SOL    HW115995   2.256   2.737   1.120
 5032SOL    HW215996   2.099   2.749   1.077
 5033SOL     OW15997   2.606   6.401   5.505
 5033SOL    HW115998   2.582   6.492   5.537
 5033SOL    HW215999   2.601   6.398   5.405
 5034SOL     OW16000   5.086   0.618   3.001
 5034SOL    HW116001   5.143   0.612   2.920
 5034SOL    HW216002   5.049   0.527   3.022
 5035SOL     OW16003   0.503   4.075   0.206
 5035SOL    HW116004   0.459   3.985   0.202
 5035SOL    HW216005   0.556   4.083   0.290
 5036SOL     OW16006   0.774   4.993   0.236
 5036SOL    HW116007   0.768   4.907   0.287
 5036SOL    HW216008   0.690   5.046   0.249
 5037SOL     OW16009   5.161   3.291   3.130
 5037SOL    HW116010   5.065   3.288   3.155
 5037SOL    HW216011   5.191   3.387   3.122
 5038SOL     OW16012   2.535   4.029   6.382
 5038SOL    HW116013   2.498   3.939   6.404
 5038SOL    HW216014   2.495   4.061   6.297
 5039SOL     OW16015   3.141   4.258   5.243
 5039SOL    HW116016   3.105   4.350   5.233
 5039SOL    HW216017   3.069   4.198   5.277
 5040SOL     OW16018   2.122   5.232   6.178
 5040SOL    HW116019   2.143   5.328   6.196
 5040SOL    HW216020   2.159   5.175   6.252
 5041SOL     OW16021   1.435   1.199   2.230
 5041SOL    HW116022   1.465   1.265   2.162
 5041SOL    HW216023   1.374   1.244   2.296
 5042SOL     OW16024   6.528   2.964   0.685
 5042SOL    HW116025   6.472   2.997   0.609
 5042SOL    HW216026   6.615   3.012   0.686
 5043SOL     OW16027   3.290   0.270   6.294
 5043SOL    HW116028   3.385   0.237   6.290
 5043SOL    HW216029   3.277   0.342   6.227
 5044SOL     OW16030   0.527   6.642   0.478
 5044SOL    HW116031   0.612   6.616   0.432
 5044SOL    HW216032   0.524   6.741   0.489
 5045SOL     OW16033   5.170   1.301   6.660
 5045SOL    HW116034   5.169   1.231   6.589
 5045SOL    HW216035   5.218   1.382   6.627
 5046SOL     OW16036   3.275   4.065   2.600
 5046SOL    HW116037   3.203   4.010   2.559
 5046SOL    HW216038   3.249   4.092   2.692
 5047SOL     OW16039   6.614   3.520   2.524
 5047SOL    HW116040   6.691   3.571   2.486
 5047SOL    HW216041   6.532   3.538   2.470
 5048SOL     OW16042   0.476   1.429   2.302
 5048SOL    HW116043   0.575   1.444   2.307
 5048SOL    HW216044   0.457   1.333   2.323
 5049SOL     OW16045   6.424   2.011   5.561
 5049SOL    HW116046   6.496   2.053   5.616
 5049SOL    HW216047   6.396   1.924   5.603
 5050SOL     OW16048   1.733   0.866   0.991
 5050SOL    HW116049   1.686   0.945   1.030
 5050SOL    HW216050   1.708   0.784   1.043
 5051SOL     OW16051   4.590   4.793   1.180
 5051SOL    HW116052   4.531   4.840   1.113
 5051SOL    HW216053   4.544   4.711   1.213
 5052SOL     OW16054   2.347   7.013   6.343
 5052SOL    HW116055   2.365   6.981   6.250
 5052SOL    HW216056   2.402   6.961   6.407
 5053SOL     OW16057   2.137   3.936   2.597
 5053SOL    HW116058   2.042   3.968   2.604
 5053SOL    HW216059   2.142   3.842   2.632
 5054SOL     OW16060   3.574   6.369   4.779
 5054SOL    HW116061   3.594   6.276   4.748
 5054SOL    HW216062   3.488   6.400   4.737
 5055SOL     OW16063   1.544   0.768   5.573
 5055SOL    HW116064   1.584   0.845   5.623
 5055SOL    HW216065   1.589   0.758   5.485
 5056SOL     OW16066   6.649   4.722   0.411
 5056SOL    HW116067   6.682   4.650   0.472
 5056SOL    HW216068   6.687   4.707   0.319
 5057SOL     OW16069   6.735   6.020   5.022
 5057SOL    HW116070   6.687   5.985   5.103
 5057SOL    HW216071   6.833   6.002   5.031
 5058SOL     OW16072   2.722   3.355   5.334
 5058SOL    HW116073   2.699   3.258   5.324
 5058SOL    HW216074   2.726   3.379   5.431
 5059SOL     OW16075   5.800   1.769   3.561
 5059SOL    HW116076   5.709   1.750   3.523
 5059SOL    HW216077   5.802   1.744   3.658
 5060SOL     OW16078   1.291   1.708   5.177
 5060SOL    HW116079   1.214   1.720   5.239
 5060SOL    HW216080   1.318   1.612   5.176
 5061SOL     OW16081   4.026   3.403   2.285
 5061SOL    HW116082   3.929   3.398   2.308
 5061SOL    HW216083   4.067   3.312   2.292
 5062SOL     OW16084   5.462   1.143   3.492
 5062SOL    HW116085   5.369   1.124   3.523
 5062SOL    HW216086   5.514   1.057   3.490
 5063SOL     OW16087   1.048   0.224   2.566
 5063SOL    HW116088   1.055   0.255   2.471
 5063SOL    HW216089   0.953   0.205   2.587
 5064SOL     OW16090   4.943   4.043   1.648
 5064SOL    HW116091   4.862   4.100   1.633
 5064SOL    HW216092   4.995   4.037   1.564
 5065SOL     OW16093   1.611   1.762   3.685
 5065SOL    HW116094   1.676   1.814   3.629
 5065SOL    HW216095   1.543   1.824   3.724
 5066SOL     OW16096   3.885   4.912   1.179
 5066SOL    HW116097   3.923   4.828   1.218
 5066SOL    HW216098   3.916   4.921   1.084
 5067SOL     OW16099   3.596   0.907   2.007
 5067SOL    HW116100   3.623   0.878   2.098
 5067SOL    HW216101   3.676   0.938   1.956
 5068SOL     OW16102   2.518   5.055   6.440
 5068SOL    HW116103   2.505   5.051   6.539
 5068SOL    HW216104   2.615   5.062   6.420
 5069SOL     OW16105   2.192   3.243   5.718
 5069SOL    HW116106   2.273   3.208   5.669
 5069SOL    HW216107   2.110   3.208   5.674
 5070SOL     OW16108   4.748   4.629   4.062
 5070SOL    HW116109   4.736   4.654   4.158
 5070SOL    HW216110   4.834   4.578   4.051
 5071SOL     OW16111   4.246   1.205   3.061
 5071SOL    HW116112   4.341   1.210   3.032
 5071SOL    HW216113   4.241   1.214   3.161
 5072SOL     OW16114   1.050   1.046   1.353
 5072SOL    HW116115   1.016   1.113   1.419
 5072SOL    HW216116   1.131   1.001   1.390
 5073SOL     OW16117   0.753   5.268   1.572
 5073SOL    HW116118   0.852   5.271   1.561
 5073SOL    HW216119   0.710   5.334   1.510
 5074SOL     OW16120   3.438   2.361   1.015
 5074SOL    HW116121   3.531   2.326   1.030
 5074SOL    HW216122   3.391   2.370   1.103
 5075SOL     OW16123   0.794   2.485   6.742
 5075SOL    HW116124   0.702   2.448   6.734
 5075SOL    HW216125   0.848   2.428   6.803
 5076SOL     OW16126   5.199   0.572   0.568
 5076SOL    HW116127   5.119   0.615   0.527
 5076SOL    HW216128   5.204   0.596   0.665
 5077SOL     OW16129   2.344   4.017   5.507
 5077SOL    HW116130   2.289   3.941   5.540
 5077SOL    HW216131   2.340   4.021   5.407
 5078SOL     OW16132   0.341   1.189   4.062
 5078SOL    HW116133   0.364   1.135   4.142
 5078SOL    HW216134   0.424   1.224   4.019
 5079SOL     OW16135   2.160   3.233   4.929
 5079SOL    HW116136   2.173   3.236   4.830
 5079SOL    HW216137   2.238   3.186   4.971
 5080SOL     OW16138   6.250   6.207   6.288
 5080SOL    HW116139   6.167   6.240   6.334
 5080SOL    HW216140   6.314   6.173   6.357
 5081SOL     OW16141   3.573   3.466   5.106
 5081SOL    HW116142   3.615   3.530   5.169
 5081SOL    HW216143   3.614   3.375   5.117
 5082SOL     OW16144   5.418   5.478   1.628
 5082SOL    HW116145   5.425   5.545   1.702
 5082SOL    HW216146   5.383   5.522   1.546
 5083SOL     OW16147   2.891   0.110   2.769
 5083SOL    HW116148   2.811   0.115   2.829
 5083SOL    HW216149   2.884   0.028   2.711
 5084SOL     OW16150   0.105   4.467   3.707
 5084SOL    HW116151   0.055   4.509   3.631
 5084SOL    HW216152   0.133   4.374   3.682
 5085SOL     OW16153   5.941   2.538   6.207
 5085SOL    HW116154   6.010   2.549   6.278
 5085SOL    HW216155   5.903   2.628   6.183
 5086SOL     OW16156   1.142   5.745   3.363
 5086SOL    HW116157   1.193   5.710   3.442
 5086SOL    HW216158   1.160   5.687   3.284
 5087SOL     OW16159   1.911   5.483   2.904
 5087SOL    HW116160   1.933   5.512   2.997
 5087SOL    HW216161   1.881   5.563   2.851
 5088SOL     OW16162   5.895   0.326   4.329
 5088SOL    HW116163   5.874   0.423   4.315
 5088SOL    HW216164   5.873   0.300   4.423
 5089SOL     OW16165   5.395   4.005   4.028
 5089SOL    HW116166   5.461   4.003   3.953
 5089SOL    HW216167   5.437   3.968   4.110
 5090SOL     OW16168   2.209   3.851   2.260
 5090SOL    HW116169   2.241   3.929   2.206
 5090SOL    HW216170   2.286   3.810   2.309
 5091SOL     OW16171   0.626   1.013   1.861
 5091SOL    HW116172   0.591   1.036   1.953
 5091SOL    HW216173   0.640   0.914   1.855
 5092SOL     OW16174   3.641   3.907   2.863
 5092SOL    HW116175   3.576   3.983   2.858
 5092SOL    HW216176   3.662   3.887   2.958
 5093SOL     OW16177   2.995   1.397   0.860
 5093SOL    HW116178   2.927   1.390   0.787
 5093SOL    HW216179   3.041   1.485   0.854
 5094SOL     OW16180   2.446   5.429   5.839
 5094SOL    HW116181   2.451   5.528   5.839
 5094SOL    HW216182   2.451   5.395   5.745
 5095SOL     OW16183   6.364   2.074   3.863
 5095SOL    HW116184   6.325   2.152   3.913
 5095SOL    HW216185   6.378   1.998   3.927
 5096SOL     OW16186   4.155   5.127   0.382
 5096SOL    HW116187   4.089   5.148   0.454
 5096SOL    HW216188   4.237   5.086   0.423
 5097SOL     OW16189   1.259   0.200   6.476
 5097SOL    HW116190   1.281   0.135   6.549
 5097SOL    HW216191   1.232   0.287   6.517
 5098SOL     OW16192   2.478   0.121   2.053
 5098SOL    HW116193   2.543   0.195   2.038
 5098SOL    HW216194   2.527   0.039   2.082
 5099SOL     OW16195   1.006   0.171   0.176
 5099SOL    HW116196   1.065   0.114   0.119
 5099SOL    HW216197   1.009   0.138   0.271
 5100SOL     OW16198   3.109   5.745   4.803
 5100SOL    HW116199   3.175   5.699   4.744
 5100SOL    HW216200   3.133   5.729   4.899
 5101SOL     OW16201   5.085   0.209   0.367
 5101SOL    HW116202   5.061   0.137   0.432
 5101SOL    HW216203   5.153   0.270   0.408
 5102SOL     OW16204   5.645   6.535   4.089
 5102SOL    HW116205   5.679   6.450   4.049
 5102SOL    HW216206   5.709   6.569   4.157
 5103SOL     OW16207   0.247   0.699   3.436
 5103SOL    HW116208   0.166   0.651   3.470
 5103SOL    HW216209   0.268   0.775   3.498
 5104SOL     OW16210   1.965   6.495   2.641
 5104SOL    HW116211   1.979   6.592   2.623
 5104SOL    HW216212   2.036   6.442   2.595
 5105SOL     OW16213   3.118   3.064   0.843
 5105SOL    HW116214   3.083   3.157   0.833
 5105SOL    HW216215   3.127   3.041   0.940
 5106SOL     OW16216   4.446   1.656   0.238
 5106SOL    HW116217   4.348   1.670   0.224
 5106SOL    HW216218   4.471   1.565   0.206
 5107SOL     OW16219   3.081   1.353   0.453
 5107SOL    HW116220   3.099   1.330   0.548
 5107SOL    HW216221   3.114   1.445   0.434
 5108SOL     OW16222   3.288   3.818   4.696
 5108SOL    HW116223   3.254   3.735   4.650
 5108SOL    HW216224   3.382   3.836   4.668
 5109SOL     OW16225   1.048   1.622   0.434
 5109SOL    HW116226   1.049   1.691   0.506
 5109SOL    HW216227   1.138   1.579   0.428
 5110SOL     OW16228   0.586   0.753   6.259
 5110SOL    HW116229   0.579   0.811   6.340
 5110SOL    HW216230   0.547   0.663   6.279
 5111SOL     OW16231   1.699   0.731   4.914
 5111SOL    HW116232   1.685   0.674   4.832
 5111SOL    HW216233   1.670   0.825   4.895
 5112SOL     OW16234   2.123   1.130   3.068
 5112SOL    HW116235   2.060   1.084   3.131
 5112SOL    HW216236   2.196   1.174   3.121
 5113SOL     OW16237   2.034   0.269   1.066
 5113SOL    HW116238   2.027   0.368   1.074
 5113SOL    HW216239   1.965   0.235   1.002
 5114SOL     OW16240   3.333   0.991   6.744
 5114SOL    HW116241   3.251   0.971   6.690
 5114SOL    HW216242   3.346   0.918   6.812
 5115SOL     OW16243   1.742   4.893   3.954
 5115SOL    HW116244   1.840   4.891   3.974
 5115SOL    HW216245   1.700   4.807   3.983
 5116SOL     OW16246   0.282   0.439   5.731
 5116SOL    HW116247   0.190   0.402   5.725
 5116SOL    HW216248   0.325   0.439   5.640
 5117SOL     OW16249   2.196   4.178   4.558
 5117SOL    HW116250   2.170   4.143   4.468
 5117SOL    HW216251   2.187   4.105   4.627
 5118SOL     OW16252   5.163   0.086   6.785
 5118SOL    HW116253   5.236   0.131   6.836
 5118SOL    HW216254   5.201   0.046   6.701
 5119SOL     OW16255   4.902   0.704   2.240
 5119SOL    HW116256   4.905   0.604   2.250
 5119SOL    HW216257   4.984   0.743   2.282
 5120SOL     OW16258   3.505   0.755   3.588
 5120SOL    HW116259   3.570   0.806   3.644
 5120SOL    HW216260   3.542   0.665   3.567
 5121SOL     OW16261   2.456   2.181   6.255
 5121SOL    HW116262   2.500   2.116   6.317
 5121SOL    HW216263   2.393   2.132   6.195
 5122SOL     OW16264   3.616   7.023   2.562
 5122SOL    HW116265   3.589   6.933   2.596
 5122SOL    HW216266   3.626   7.019   2.462
 5123SOL     OW16267   4.696   2.199   4.607
 5123SOL    HW116268   4.671   2.289   4.644
 5123SOL    HW216269   4.634   2.130   4.644
 5124SOL     OW16270   2.414   5.577   5.124
 5124SOL    HW116271   2.397   5.676   5.120
 5124SOL    HW216272   2.512   5.561   5.126
 5125SOL     OW16273   5.976   3.464   4.557
 5125SOL    HW116274   6.023   3.389   4.510
 5125SOL    HW216275   5.900   3.427   4.612
 5126SOL     OW16276   6.220   4.822   4.987
 5126SOL    HW116277   6.238   4.841   4.890
 5126SOL    HW216278   6.300   4.777   5.028
 5127SOL     OW16279   1.027   3.782   0.257
 5127SOL    HW116280   1.101   3.716   0.264
 5127SOL    HW216281   1.026   3.822   0.165
 5128SOL     OW16282   6.556   0.396   6.373
 5128SOL    HW116283   6.593   0.379   6.282
 5128SOL    HW216284   6.475   0.455   6.365
 5129SOL     OW16285   5.614   0.028   2.376
 5129SOL    HW116286   5.607   7.012   2.286
 5129SOL    HW216287   5.650   6.989   2.442
 5130SOL     OW16288   0.795   6.004   3.568
 5130SOL    HW116289   0.882   6.037   3.531
 5130SOL    HW216290   0.797   6.010   3.668
 5131SOL     OW16291   2.601   5.159   3.695
 5131SOL    HW116292   2.563   5.248   3.716
 5131SOL    HW216293   2.610   5.148   3.596
 5132SOL     OW16294   3.511   2.311   5.981
 5132SOL    HW116295   3.545   2.288   5.890
 5132SOL    HW216296   3.532   2.406   6.003
 5133SOL     OW16297   1.357   5.439   6.657
 5133SOL    HW116298   1.402   5.528   6.652
 5133SOL    HW216299   1.424   5.366   6.642
 5134SOL     OW16300   6.922   2.113   2.252
 5134SOL    HW116301   6.981   2.133   2.330
 5134SOL    HW216302   6.946   2.023   2.215
 5135SOL     OW16303   5.770   3.705   4.145
 5135SOL    HW116304   5.810   3.627   4.194
 5135SOL    HW216305   5.840   3.750   4.091
 5136SOL     OW16306   5.089   0.408   6.452
 5136SOL    HW116307   5.150   0.356   6.392
 5136SOL    HW216308   5.053   0.347   6.523
 5137SOL     OW16309   4.255   4.073   5.695
 5137SOL    HW116310   4.306   4.157   5.713
 5137SOL    HW216311   4.207   4.081   5.608
 5138SOL     OW16312   3.965   2.780   5.618
 5138SOL    HW116313   3.869   2.774   5.592
 5138SOL    HW216314   3.999   2.688   5.640
 5139SOL     OW16315   1.390   1.572   3.707
 5139SOL    HW116316   1.483   1.599   3.681
 5139SOL    HW216317   1.391   1.480   3.746
 5140SOL     OW16318   4.167   2.337   5.784
 5140SOL    HW116319   4.179   2.343   5.883
 5140SOL    HW216320   4.191   2.245   5.753
 5141SOL     OW16321   5.727   3.688   0.925
 5141SOL    HW116322   5.678   3.635   0.856
 5141SOL    HW216323   5.665   3.753   0.968
 5142SOL     OW16324   5.622   6.830   2.574
 5142SOL    HW116325   5.702   6.821   2.634
 5142SOL    HW216326   5.539   6.818   2.628
 5143SOL     OW16327   6.464   4.418   4.496
 5143SOL    HW116328   6.530   4.493   4.489
 5143SOL    HW216329   6.482   4.366   4.580
 5144SOL     OW16330   0.877   4.838   5.362
 5144SOL    HW116331   0.874   4.774   5.439
 5144SOL    HW216332   0.923   4.922   5.391
 5145SOL     OW16333   3.884   5.516   6.118
 5145SOL    HW116334   3.885   5.448   6.191
 5145SOL    HW216335   3.832   5.481   6.040
 5146SOL     OW16336   2.966   3.844   5.490
 5146SOL    HW116337   3.008   3.800   5.411
 5146SOL    HW216338   3.030   3.842   5.567
 5147SOL     OW16339   6.582   5.642   3.029
 5147SOL    HW116340   6.566   5.573   3.100
 5147SOL    HW216341   6.672   5.628   2.988
 5148SOL     OW16342   6.402   0.821   1.887
 5148SOL    HW116343   6.335   0.775   1.945
 5148SOL    HW216344   6.431   0.759   1.814
 5149SOL     OW16345   6.356   6.426   3.389
 5149SOL    HW116346   6.266   6.466   3.400
 5149SOL    HW216347   6.350   6.327   3.400
 5150SOL     OW16348   2.325   5.503   3.222
 5150SOL    HW116349   2.421   5.513   3.196
 5150SOL    HW216350   2.278   5.591   3.210
 5151SOL     OW16351   6.537   3.458   2.125
 5151SOL    HW116352   6.566   3.547   2.091
 5151SOL    HW216353   6.615   3.413   2.169
 5152SOL     OW16354   1.828   4.956   0.059
 5152SOL    HW116355   1.821   5.035   7.026
 5152SOL    HW216356   1.841   4.873   0.004
 5153SOL     OW16357   1.375   1.487   0.257
 5153SOL    HW116358   1.328   1.510   0.172
 5153SOL    HW216359   1.440   1.412   0.239
 5154SOL     OW16360   1.387   2.518   5.962
 5154SOL    HW116361   1.442   2.454   5.908
 5154SOL    HW216362   1.328   2.571   5.901
 5155SOL     OW16363   4.377   0.221   2.353
 5155SOL    HW116364   4.362   0.138   2.300
 5155SOL    HW216365   4.411   0.197   2.444
 5156SOL     OW16366   5.232   3.877   5.888
 5156SOL    HW116367   5.163   3.909   5.823
 5156SOL    HW216368   5.188   3.823   5.959
 5157SOL     OW16369   3.445   2.051   3.366
 5157SOL    HW116370   3.480   2.037   3.459
 5157SOL    HW216371   3.465   1.971   3.310
 5158SOL     OW16372   3.939   2.129   1.195
 5158SOL    HW116373   4.018   2.166   1.146
 5158SOL    HW216374   3.955   2.136   1.293
 5159SOL     OW16375   6.161   3.521   5.774
 5159SOL    HW116376   6.243   3.575   5.755
 5159SOL    HW216377   6.090   3.580   5.812
 5160SOL     OW16378   0.716   4.927   2.898
 5160SOL    HW116379   0.631   4.956   2.855
 5160SOL    HW216380   0.719   4.827   2.900
 5161SOL     OW16381   2.022   3.832   6.082
 5161SOL    HW116382   1.995   3.758   6.143
 5161SOL    HW216383   2.022   3.800   5.988
 5162SOL     OW16384   0.730   5.510   2.701
 5162SOL    HW116385   0.777   5.598   2.713
 5162SOL    HW216386   0.668   5.515   2.623
 5163SOL     OW16387   3.131   6.456   0.163
 5163SOL    HW116388   3.123   6.549   0.198
 5163SOL    HW216389   3.112   6.390   0.236
 5164SOL     OW16390   4.166   1.984   6.915
 5164SOL    HW116391   4.197   1.995   6.820
 5164SOL    HW216392   4.149   2.075   6.954
 5165SOL     OW16393   0.428   4.025   5.596
 5165SOL    HW116394   0.336   4.058   5.573
 5165SOL    HW216395   0.492   4.050   5.524
 5166SOL     OW16396   0.623   5.489   2.455
 5166SOL    HW116397   0.671   5.444   2.380
 5166SOL    HW216398   0.571   5.421   2.507
 5167SOL     OW16399   6.371   5.049   5.852
 5167SOL    HW116400   6.344   5.139   5.816
 5167SOL    HW216401   6.352   4.979   5.783
 5168SOL     OW16402   4.992   3.623   1.708
 5168SOL    HW116403   4.911   3.677   1.687
 5168SOL    HW216404   4.970   3.555   1.778
 5169SOL     OW16405   4.135   2.282   4.295
 5169SOL    HW116406   4.144   2.183   4.279
 5169SOL    HW216407   4.064   2.318   4.234
 5170SOL     OW16408   0.976   3.940   5.394
 5170SOL    HW116409   1.037   3.979   5.324
 5170SOL    HW216410   0.932   3.858   5.358
 5171SOL     OW16411   0.623   4.614   5.214
 5171SOL    HW116412   0.611   4.711   5.232
 5171SOL    HW216413   0.717   4.597   5.183
 5172SOL     OW16414   1.388   3.156   2.517
 5172SOL    HW116415   1.356   3.096   2.444
 5172SOL    HW216416   1.356   3.122   2.605
 5173SOL     OW16417   4.763   5.070   4.701
 5173SOL    HW116418   4.701   5.136   4.742
 5173SOL    HW216419   4.854   5.111   4.691
 5174SOL     OW16420   2.610   5.165   2.918
 5174SOL    HW116421   2.592   5.231   2.990
 5174SOL    HW216422   2.633   5.076   2.958
 5175SOL     OW16423   2.325   4.004   6.765
 5175SOL    HW116424   2.366   3.918   6.735
 5175SOL    HW216425   2.393   4.058   6.813
 5176SOL     OW16426   5.079   3.264   0.091
 5176SOL    HW116427   5.038   3.172   0.090
 5176SOL    HW216428   5.008   3.331   0.070
 5177SOL     OW16429   5.814   0.229   0.180
 5177SOL    HW116430   5.860   0.149   0.217
 5177SOL    HW216431   5.836   0.238   0.083
 5178SOL     OW16432   0.822   3.604   2.506
 5178SOL    HW116433   0.785   3.606   2.413
 5178SOL    HW216434   0.803   3.515   2.548
 5179SOL     OW16435   4.460   4.903   4.145
 5179SOL    HW116436   4.459   4.994   4.187
 5179SOL    HW216437   4.516   4.904   4.063
 5180SOL     OW16438   2.791   2.358   0.739
 5180SOL    HW116439   2.758   2.452   0.748
 5180SOL    HW216440   2.860   2.354   0.667
 5181SOL     OW16441   5.101   1.190   2.983
 5181SOL    HW116442   5.096   1.208   2.885
 5181SOL    HW216443   5.083   1.093   3.001
 5182SOL     OW16444   4.040   4.354   1.624
 5182SOL    HW116445   4.138   4.375   1.629
 5182SOL    HW216446   4.028   4.257   1.604
 5183SOL     OW16447   3.981   2.144   2.575
 5183SOL    HW116448   4.029   2.216   2.625
 5183SOL    HW216449   3.971   2.171   2.480
 5184SOL     OW16450   0.485   1.483   4.389
 5184SOL    HW116451   0.461   1.525   4.477
 5184SOL    HW216452   0.470   1.384   4.395
 5185SOL     OW16453   5.816   0.795   2.850
 5185SOL    HW116454   5.741   0.850   2.886
 5185SOL    HW216455   5.902   0.846   2.858
 5186SOL     OW16456   6.511   2.844   0.429
 5186SOL    HW116457   6.467   2.755   0.442
 5186SOL    HW216458   6.594   2.848   0.485
 5187SOL     OW16459   1.563   6.435   4.126
 5187SOL    HW116460   1.609   6.517   4.092
 5187SOL    HW216461   1.626   6.358   4.125
 5188SOL     OW16462   0.159   5.757   1.153
 5188SOL    HW116463   0.235   5.821   1.164
 5188SOL    HW216464   0.072   5.806   1.166
 5189SOL     OW16465   3.950   5.363   0.920
 5189SOL    HW116466   3.995   5.287   0.872
 5189SOL    HW216467   3.979   5.450   0.880
 5190SOL     OW16468   0.638   2.154   4.861
 5190SOL    HW116469   0.561   2.102   4.899
 5190SOL    HW216470   0.616   2.181   4.768
 5191SOL     OW16471   4.293   0.037   1.976
 5191SOL    HW116472   4.327   7.002   1.906
 5191SOL    HW216473   4.288   0.130   1.938
 5192SOL     OW16474   2.082   5.405   1.858
 5192SOL    HW116475   1.985   5.380   1.851
 5192SOL    HW216476   2.124   5.354   1.933
 5193SOL     OW16477   4.743   4.784   4.664
 5193SOL    HW116478   4.650   4.774   4.628
 5193SOL    HW216479   4.763   4.880   4.682
 5194SOL     OW16480   4.212   2.046   6.652
 5194SOL    HW116481   4.168   1.972   6.601
 5194SOL    HW216482   4.301   2.066   6.612
 5195SOL     OW16483   6.846   6.345   4.113
 5195SOL    HW116484   6.759   6.358   4.162
 5195SOL    HW216485   6.855   6.416   4.043
 5196SOL     OW16486   3.934   6.397   1.318
 5196SOL    HW116487   3.985   6.433   1.396
 5196SOL    HW216488   3.875   6.469   1.281
 5197SOL     OW16489   2.434   4.396   5.856
 5197SOL    HW116490   2.372   4.434   5.925
 5197SOL    HW216491   2.504   4.341   5.901
 5198SOL     OW16492   4.443   6.133   3.105
 5198SOL    HW116493   4.392   6.204   3.057
 5198SOL    HW216494   4.393   6.046   3.098
 5199SOL     OW16495   1.582   5.842   0.388
 5199SOL    HW116496   1.484   5.862   0.383
 5199SOL    HW216497   1.632   5.909   0.334
 5200SOL     OW16498   1.280   3.266   5.282
 5200SOL    HW116499   1.216   3.209   5.230
 5200SOL    HW216500   1.361   3.284   5.227
 5201SOL     OW16501   0.021   0.171   2.961
 5201SOL    HW116502   7.017   0.076   2.960
 5201SOL    HW216503   7.000   0.222   2.890
 5202SOL     OW16504   6.280   3.342   6.431
 5202SOL    HW116505   6.272   3.389   6.343
 5202SOL    HW216506   6.250   3.247   6.422
 5203SOL     OW16507   2.568   2.254   0.129
 5203SOL    HW116508   2.487   2.312   0.135
 5203SOL    HW216509   2.599   2.251   0.034
 5204SOL     OW16510   3.792   5.349   7.015
 5204SOL    HW116511   3.753   5.388   0.071
 5204SOL    HW216512   3.822   5.255   0.006
 5205SOL     OW16513   0.827   6.123   0.864
 5205SOL    HW116514   0.785   6.174   0.789
 5205SOL    HW216515   0.758   6.064   0.906
 5206SOL     OW16516   0.642   4.962   6.037
 5206SOL    HW116517   0.675   5.052   6.066
 5206SOL    HW216518   0.703   4.925   5.967
 5207SOL     OW16519   1.310   6.176   3.743
 5207SOL    HW116520   1.355   6.244   3.801
 5207SOL    HW216521   1.376   6.138   3.678
 5208SOL     OW16522   4.243   2.380   6.093
 5208SOL    HW116523   4.292   2.460   6.060
 5208SOL    HW216524   4.308   2.311   6.124
 5209SOL     OW16525   5.856   6.495   2.708
 5209SOL    HW116526   5.797   6.461   2.781
 5209SOL    HW216527   5.803   6.508   2.625
 5210SOL     OW16528   4.602   2.673   6.180
 5210SOL    HW116529   4.550   2.606   6.126
 5210SOL    HW216530   4.572   2.765   6.157
 5211SOL     OW16531   3.647   2.769   5.309
 5211SOL    HW116532   3.715   2.746   5.239
 5211SOL    HW216533   3.692   2.812   5.387
 5212SOL     OW16534   6.741   2.726   0.790
 5212SOL    HW116535   6.751   2.823   0.770
 5212SOL    HW216536   6.649   2.696   0.763
 5213SOL     OW16537   4.860   3.710   6.096
 5213SOL    HW116538   4.867   3.802   6.059
 5213SOL    HW216539   4.794   3.657   6.041
 5214SOL     OW16540   5.178   1.311   5.901
 5214SOL    HW116541   5.135   1.221   5.905
 5214SOL    HW216542   5.208   1.338   5.993
 5215SOL     OW16543   6.801   4.689   4.233
 5215SOL    HW116544   6.899   4.680   4.250
 5215SOL    HW216545   6.778   4.786   4.226
 5216SOL     OW16546   5.086   5.101   2.159
 5216SOL    HW116547   5.038   5.151   2.231
 5216SOL    HW216548   5.032   5.022   2.131
 5217SOL     OW16549   4.262   5.319   4.367
 5217SOL    HW116550   4.217   5.360   4.287
 5217SOL    HW216551   4.192   5.282   4.428
 5218SOL     OW16552   0.927   0.989   3.494
 5218SOL    HW116553   0.912   1.087   3.479
 5218SOL    HW216554   0.888   0.963   3.582
 5219SOL     OW16555   4.604   1.116   4.987
 5219SOL    HW116556   4.676   1.119   5.056
 5219SOL    HW216557   4.618   1.037   4.927
 5220SOL     OW16558   0.641   6.257   2.776
 5220SOL    HW116559   0.588   6.291   2.699
 5220SOL    HW216560   0.692   6.176   2.749
 5221SOL     OW16561   5.649   2.580   4.513
 5221SOL    HW116562   5.717   2.562   4.442
 5221SOL    HW216563   5.622   2.495   4.557
 5222SOL     OW16564   3.465   5.804   2.920
 5222SOL    HW116565   3.553   5.809   2.967
 5222SOL    HW216566   3.401   5.751   2.975
 5223SOL     OW16567   6.386   2.257   0.652
 5223SOL    HW116568   6.456   2.252   0.581
 5223SOL    HW216569   6.323   2.179   0.642
 5224SOL     OW16570   6.780   2.220   4.825
 5224SOL    HW116571   6.870   2.244   4.787
 5224SOL    HW216572   6.756   2.127   4.797
 5225SOL     OW16573   0.791   0.789   3.366
 5225SOL    HW116574   0.789   0.717   3.435
 5225SOL    HW216575   0.834   0.871   3.404
 5226SOL     OW16576   6.848   5.668   5.100
 5226SOL    HW116577   6.818   5.643   5.008
 5226SOL    HW216578   6.885   5.761   5.100
 5227SOL     OW16579   0.577   3.398   4.478
 5227SOL    HW116580   0.590   3.313   4.528
 5227SOL    HW216581   0.593   3.476   4.539
 5228SOL     OW16582   6.130   2.364   1.274
 5228SOL    HW116583   6.121   2.330   1.180
 5228SOL    HW216584   6.077   2.306   1.336
 5229SOL     OW16585   1.870   5.978   6.894
 5229SOL    HW116586   1.877   6.050   6.963
 5229SOL    HW216587   1.798   6.001   6.828
 5230SOL     OW16588   0.578   5.672   1.747
 5230SOL    HW116589   0.571   5.771   1.750
 5230SOL    HW216590   0.574   5.641   1.651
 5231SOL     OW16591   4.785   3.199   5.190
 5231SOL    HW116592   4.813   3.286   5.233
 5231SOL    HW216593   4.826   3.192   5.100
 5232SOL     OW16594   2.955   2.894   5.777
 5232SOL    HW116595   3.041   2.941   5.758
 5232SOL    HW216596   2.972   2.815   5.835
 5233SOL     OW16597   4.906   1.114   2.542
 5233SOL    HW116598   4.822   1.146   2.497
 5233SOL    HW216599   4.980   1.110   2.475
 5234SOL     OW16600   2.703   1.102   6.455
 5234SOL    HW116601   2.798   1.073   6.451
 5234SOL    HW216602   2.644   1.022   6.456
 5235SOL     OW16603   1.673   2.527   0.352
 5235SOL    HW116604   1.601   2.583   0.393
 5235SOL    HW216605   1.632   2.448   0.307
 5236SOL     OW16606   5.490   4.723   2.656
 5236SOL    HW116607   5.437   4.684   2.581
 5236SOL    HW216608   5.570   4.665   2.674
 5237SOL     OW16609   2.004   1.044   5.202
 5237SOL    HW116610   1.912   1.013   5.179
 5237SOL    HW216611   2.071   0.991   5.150
 5238SOL     OW16612   0.954   4.335   0.163
 5238SOL    HW116613   1.050   4.319   0.142
 5238SOL    HW216614   0.911   4.249   0.190
 5239SOL     OW16615   3.559   2.983   3.914
 5239SOL    HW116616   3.627   3.056   3.912
 5239SOL    HW216617   3.542   2.955   4.008
 5240SOL     OW16618   2.876   1.591   6.277
 5240SOL    HW116619   2.873   1.491   6.288
 5240SOL    HW216620   2.965   1.624   6.309
 5241SOL     OW16621   0.625   4.895   5.247
 5241SOL    HW116622   0.616   4.993   5.230
 5241SOL    HW216623   0.721   4.872   5.263
 5242SOL     OW16624   0.516   6.232   6.147
 5242SOL    HW116625   0.539   6.294   6.072
 5242SOL    HW216626   0.418   6.238   6.166
 5243SOL     OW16627   0.958   5.158   1.781
 5243SOL    HW116628   0.888   5.196   1.843
 5243SOL    HW216629   0.998   5.233   1.728
 5244SOL     OW16630   3.634   5.515   0.194
 5244SOL    HW116631   3.552   5.510   0.251
 5244SOL    HW216632   3.690   5.593   0.222
 5245SOL     OW16633   3.836   4.513   0.217
 5245SOL    HW116634   3.796   4.511   0.125
 5245SOL    HW216635   3.814   4.428   0.265
 5246SOL     OW16636   6.123   3.656   2.370
 5246SOL    HW116637   6.031   3.620   2.389
 5246SOL    HW216638   6.154   3.621   2.282
 5247SOL     OW16639   1.429   0.874   0.741
 5247SOL    HW116640   1.446   0.970   0.760
 5247SOL    HW216641   1.479   0.846   0.659
 5248SOL     OW16642   5.403   0.988   3.778
 5248SOL    HW116643   5.430   1.018   3.869
 5248SOL    HW216644   5.482   0.993   3.716
 5249SOL     OW16645   6.897   4.761   5.449
 5249SOL    HW116646   6.925   4.756   5.353
 5249SOL    HW216647   6.902   4.670   5.490
 5250SOL     OW16648   1.726   6.575   5.827
 5250SOL    HW116649   1.811   6.626   5.834
 5250SOL    HW216650   1.741   6.481   5.858
 5251SOL     OW16651   0.696   3.783   0.606
 5251SOL    HW116652   0.704   3.805   0.509
 5251SOL    HW216653   0.656   3.692   0.616
 5252SOL     OW16654   2.126   6.027   0.672
 5252SOL    HW116655   2.061   6.025   0.595
 5252SOL    HW216656   2.219   6.029   0.637
 5253SOL     OW16657   5.358   4.752   4.256
 5253SOL    HW116658   5.329   4.828   4.198
 5253SOL    HW216659   5.338   4.665   4.210
 5254SOL     OW16660   5.079   1.280   3.232
 5254SOL    HW116661   5.021   1.205   3.264
 5254SOL    HW216662   5.095   1.270   3.134
 5255SOL     OW16663   5.732   1.210   5.979
 5255SOL    HW116664   5.742   1.180   6.074
 5255SOL    HW216665   5.763   1.305   5.970
 5256SOL     OW16666   4.243   1.022   3.388
 5256SOL    HW116667   4.168   0.961   3.362
 5256SOL    HW216668   4.314   0.969   3.435
 5257SOL     OW16669   5.129   6.526   2.288
 5257SOL    HW116670   5.073   6.445   2.303
 5257SOL    HW216671   5.088   6.605   2.334
 5258SOL     OW16672   6.070   4.032   2.237
 5258SOL    HW116673   6.115   3.997   2.318
 5258SOL    HW216674   6.041   4.127   2.253
 5259SOL     OW16675   5.271   5.804   0.625
 5259SOL    HW116676   5.265   5.876   0.694
 5259SOL    HW216677   5.227   5.721   0.659
 5260SOL     OW16678   5.146   3.680   1.054
 5260SOL    HW116679   5.229   3.697   1.001
 5260SOL    HW216680   5.169   3.626   1.136
 5261SOL     OW16681   0.957   3.753   0.732
 5261SOL    HW116682   0.858   3.743   0.720
 5261SOL    HW216683   0.979   3.850   0.747
 5262SOL     OW16684   2.807   1.092   2.863
 5262SOL    HW116685   2.820   1.033   2.943
 5262SOL    HW216686   2.857   1.053   2.785
 5263SOL     OW16687   2.034   1.657   4.755
 5263SOL    HW116688   2.015   1.635   4.660
 5263SOL    HW216689   2.117   1.609   4.785
 5264SOL     OW16690   5.823   2.003   2.386
 5264SOL    HW116691   5.774   2.044   2.463
 5264SOL    HW216692   5.808   1.904   2.386
 5265SOL     OW16693   6.053   3.975   4.465
 5265SOL    HW116694   6.103   3.958   4.550
 5265SOL    HW216695   6.117   4.006   4.395
 5266SOL     OW16696   2.236   6.030   1.059
 5266SOL    HW116697   2.200   5.963   0.993
 5266SOL    HW216698   2.172   6.106   1.066
 5267SOL     OW16699   4.897   3.788   4.888
 5267SOL    HW116700   4.938   3.740   4.811
 5267SOL    HW216701   4.859   3.722   4.952
 5268SOL     OW16702   6.065   6.983   6.353
 5268SOL    HW116703   6.012   6.921   6.295
 5268SOL    HW216704   6.111   6.930   6.425
 5269SOL     OW16705   1.203   6.699   3.762
 5269SOL    HW116706   1.250   6.659   3.683
 5269SOL    HW216707   1.249   6.669   3.846
 5270SOL     OW16708   5.730   1.241   1.356
 5270SOL    HW116709   5.804   1.296   1.395
 5270SOL    HW216710   5.683   1.192   1.429
 5271SOL     OW16711   6.073   5.632   4.781
 5271SOL    HW116712   6.171   5.612   4.790
 5271SOL    HW216713   6.026   5.604   4.865
 5272SOL     OW16714   2.688   5.417   1.665
 5272SOL    HW116715   2.780   5.419   1.627
 5272SOL    HW216716   2.686   5.358   1.745
 5273SOL     OW16717   6.730   2.810   3.365
 5273SOL    HW116718   6.749   2.728   3.312
 5273SOL    HW216719   6.652   2.793   3.426
 5274SOL     OW16720   6.271   0.231   2.284
 5274SOL    HW116721   6.346   0.272   2.337
 5274SOL    HW216722   6.302   0.145   2.244
 5275SOL     OW16723   3.443   1.878   0.068
 5275SOL    HW116724   3.430   1.903   6.999
 5275SOL    HW216725   3.527   1.921   0.102
 5276SOL     OW16726   1.675   0.376   0.555
 5276SOL    HW116727   1.716   0.287   0.575
 5276SOL    HW216728   1.718   0.414   0.472
 5277SOL     OW16729   1.457   1.871   3.046
 5277SOL    HW116730   1.404   1.955   3.040
 5277SOL    HW216731   1.526   1.880   3.118
 5278SOL     OW16732   5.451   0.403   3.127
 5278SOL    HW116733   5.381   0.412   3.198
 5278SOL    HW216734   5.448   0.482   3.066
 5279SOL     OW16735   1.498   5.182   6.675
 5279SOL    HW116736   1.549   5.212   6.756
 5279SOL    HW216737   1.531   5.093   6.646
 5280SOL     OW16738   2.873   6.588   4.932
 5280SOL    HW116739   2.775   6.580   4.913
 5280SOL    HW216740   2.888   6.651   5.008
 5281SOL     OW16741   0.219   1.562   2.329
 5281SOL    HW116742   0.316   1.537   2.333
 5281SOL    HW216743   0.176   1.541   2.417
 5282SOL     OW16744   2.544   1.872   2.984
 5282SOL    HW116745   2.640   1.875   2.954
 5282SOL    HW216746   2.525   1.783   3.025
 5283SOL     OW16747   4.533   6.334   1.699
 5283SOL    HW116748   4.562   6.429   1.687
 5283SOL    HW216749   4.560   6.303   1.790
 5284SOL     OW16750   5.478   3.672   3.491
 5284SOL    HW116751   5.426   3.589   3.513
 5284SOL    HW216752   5.428   3.727   3.425
 5285SOL     OW16753   2.421   4.679   3.741
 5285SOL    HW116754   2.358   4.647   3.812
 5285SOL    HW216755   2.435   4.607   3.674
 5286SOL     OW16756   1.469   3.392   1.083
 5286SOL    HW116757   1.388   3.381   1.026
 5286SOL    HW216758   1.515   3.477   1.060
 5287SOL     OW16759   2.166   6.417   1.285
 5287SOL    HW116760   2.263   6.429   1.263
 5287SOL    HW216761   2.139   6.485   1.353
 5288SOL     OW16762   3.917   0.294   1.699
 5288SOL    HW116763   3.968   0.349   1.765
 5288SOL    HW216764   3.866   0.222   1.748
 5289SOL     OW16765   1.447   4.946   5.899
 5289SOL    HW116766   1.417   5.040   5.885
 5289SOL    HW216767   1.531   4.930   5.846
 5290SOL     OW16768   1.632   4.727   5.249
 5290SOL    HW116769   1.608   4.706   5.154
 5290SOL    HW216770   1.711   4.671   5.277
 5291SOL     OW16771   2.445   5.641   5.499
 5291SOL    HW116772   2.505   5.625   5.578
 5291SOL    HW216773   2.398   5.729   5.510
 5292SOL     OW16774   6.914   3.964   0.165
 5292SOL    HW116775   6.954   4.055   0.154
 5292SOL    HW216776   6.861   3.942   0.083
 5293SOL     OW16777   1.381   0.968   4.182
 5293SOL    HW116778   1.395   0.874   4.151
 5293SOL    HW216779   1.455   0.993   4.245
 5294SOL     OW16780   4.638   3.340   5.824
 5294SOL    HW116781   4.587   3.396   5.760
 5294SOL    HW216782   4.716   3.299   5.778
 5295SOL     OW16783   4.916   0.433   2.266
 5295SOL    HW116784   4.924   0.378   2.183
 5295SOL    HW216785   4.866   0.381   2.335
 5296SOL     OW16786   1.684   5.105   0.386
 5296SOL    HW116787   1.768   5.063   0.350
 5296SOL    HW216788   1.641   5.042   0.450
 5297SOL     OW16789   3.424   2.047   1.249
 5297SOL    HW116790   3.423   2.093   1.160
 5297SOL    HW216791   3.515   2.054   1.289
 5298SOL     OW16792   1.110   5.928   6.594
 5298SOL    HW116793   1.157   5.906   6.679
 5298SOL    HW216794   1.176   5.924   6.518
 5299SOL     OW16795   2.635   2.475   1.112
 5299SOL    HW116796   2.564   2.423   1.161
 5299SOL    HW216797   2.713   2.415   1.094
 5300SOL     OW16798   0.148   6.110   2.045
 5300SOL    HW116799   0.146   6.183   1.977
 5300SOL    HW216800   0.118   6.024   2.003
 5301SOL     OW16801   4.610   3.009   0.698
 5301SOL    HW116802   4.601   3.005   0.598
 5301SOL    HW216803   4.569   2.927   0.738
 5302SOL     OW16804   6.336   4.619   2.324
 5302SOL    HW116805   6.370   4.582   2.410
 5302SOL    HW216806   6.306   4.544   2.265
 5303SOL     OW16807   6.619   6.005   3.075
 5303SOL    HW116808   6.666   5.951   3.145
 5303SOL    HW216809   6.595   6.094   3.112
 5304SOL     OW16810   6.523   1.576   6.220
 5304SOL    HW116811   6.530   1.674   6.238
 5304SOL    HW216812   6.570   1.525   6.292
 5305SOL     OW16813   0.998   5.761   4.239
 5305SOL    HW116814   1.097   5.747   4.235
 5305SOL    HW216815   0.965   5.796   4.152
 5306SOL     OW16816   0.581   5.178   5.253
 5306SOL    HW116817   0.526   5.226   5.185
 5306SOL    HW216818   0.553   5.207   5.345
 5307SOL     OW16819   4.581   0.239   6.931
 5307SOL    HW116820   4.541   0.328   6.908
 5307SOL    HW216821   4.532   0.167   6.881
 5308SOL     OW16822   1.055   6.120   3.908
 5308SOL    HW116823   1.091   6.146   3.818
 5308SOL    HW216824   0.984   6.051   3.897
 5309SOL     OW16825   3.405   4.217   1.758
 5309SOL    HW116826   3.468   4.294   1.770
 5309SOL    HW216827   3.313   4.252   1.742
 5310SOL     OW16828   5.850   2.526   1.908
 5310SOL    HW116829   5.862   2.589   1.985
 5310SOL    HW216830   5.912   2.448   1.919
 5311SOL     OW16831   7.012   5.949   1.266
 5311SOL    HW116832   0.020   6.043   1.269
 5311SOL    HW216833   6.987   5.921   1.358
 5312SOL     OW16834   0.253   3.858   1.997
 5312SOL    HW116835   0.265   3.769   1.953
 5312SOL    HW216836   0.311   3.864   2.077
 5313SOL     OW16837   1.409   3.403   0.069
 5313SOL    HW116838   1.343   3.329   0.081
 5313SOL    HW216839   1.486   3.371   0.014
 5314SOL     OW16840   3.281   5.706   0.281
 5314SOL    HW116841   3.362   5.764   0.282
 5314SOL    HW216842   3.300   5.621   0.330
 5315SOL     OW16843   4.072   3.484   1.316
 5315SOL    HW116844   4.165   3.449   1.323
 5315SOL    HW216845   4.032   3.456   1.229
 5316SOL     OW16846   0.022   4.666   4.363
 5316SOL    HW116847   0.032   4.732   4.438
 5316SOL    HW216848   0.103   4.670   4.304
 5317SOL     OW16849   7.004   0.725   4.868
 5317SOL    HW116850   6.930   0.785   4.897
 5317SOL    HW216851   0.065   0.770   4.883
 5318SOL     OW16852   0.289   1.646   5.862
 5318SOL    HW116853   0.207   1.610   5.818
 5318SOL    HW216854   0.283   1.632   5.961
 5319SOL     OW16855   4.616   6.758   6.600
 5319SOL    HW116856   4.564   6.673   6.593
 5319SOL    HW216857   4.676   6.767   6.521
 5320SOL     OW16858   5.841   4.732   6.614
 5320SOL    HW116859   5.899   4.814   6.612
 5320SOL    HW216860   5.746   4.758   6.597
 5321SOL     OW16861   1.069   4.145   2.957
 5321SOL    HW116862   1.138   4.140   2.885
 5321SOL    HW216863   1.057   4.056   2.999
 5322SOL     OW16864   3.999   5.595   5.812
 5322SOL    HW116865   3.911   5.619   5.770
 5322SOL    HW216866   4.022   5.663   5.882
 5323SOL     OW16867   4.188   3.182   0.184
 5323SOL    HW116868   4.236   3.248   0.127
 5323SOL    HW216869   4.229   3.181   0.276
 5324SOL     OW16870   3.840   2.363   1.649
 5324SOL    HW116871   3.792   2.321   1.727
 5324SOL    HW216872   3.935   2.381   1.674
 5325SOL     OW16873   5.809   6.577   3.708
 5325SOL    HW116874   5.846   6.650   3.650
 5325SOL    HW216875   5.859   6.575   3.795
 5326SOL     OW16876   6.936   6.062   3.581
 5326SOL    HW116877   6.855   6.020   3.624
 5326SOL    HW216878   7.014   6.054   3.643
 5327SOL     OW16879   6.240   4.510   4.854
 5327SOL    HW116880   6.198   4.429   4.894
 5327SOL    HW216881   6.198   4.592   4.893
 5328SOL     OW16882   4.697   2.670   5.722
 5328SOL    HW116883   4.785   2.670   5.675
 5328SOL    HW216884   4.632   2.725   5.669
 5329SOL     OW16885   0.701   3.762   0.328
 5329SOL    HW116886   0.776   3.789   0.269
 5329SOL    HW216887   0.702   3.662   0.340
 5330SOL     OW16888   3.997   4.053   6.816
 5330SOL    HW116889   4.075   4.051   6.754
 5330SOL    HW216890   3.995   3.968   6.868
 5331SOL     OW16891   5.542   0.728   1.439
 5331SOL    HW116892   5.587   0.716   1.528
 5331SOL    HW216893   5.507   0.639   1.407
 5332SOL     OW16894   0.379   4.600   0.545
 5332SOL    HW116895   0.295   4.582   0.597
 5332SOL    HW216896   0.384   4.537   0.468
 5333SOL     OW16897   0.956   0.744   3.716
 5333SOL    HW116898   0.911   0.717   3.801
 5333SOL    HW216899   0.893   0.734   3.639
 5334SOL     OW16900   2.895   5.694   5.190
 5334SOL    HW116901   2.913   5.598   5.206
 5334SOL    HW216902   2.797   5.709   5.183
 5335SOL     OW16903   0.055   4.794   2.098
 5335SOL    HW116904   0.091   4.872   2.047
 5335SOL    HW216905   0.118   4.717   2.090
 5336SOL     OW16906   2.351   1.844   3.363
 5336SOL    HW116907   2.368   1.771   3.296
 5336SOL    HW216908   2.389   1.817   3.452
 5337SOL     OW16909   4.839   4.958   2.035
 5337SOL    HW116910   4.873   4.926   1.946
 5337SOL    HW216911   4.756   5.013   2.021
 5338SOL     OW16912   6.088   0.832   5.964
 5338SOL    HW116913   6.054   0.888   6.040
 5338SOL    HW216914   6.182   0.858   5.942
 5339SOL     OW16915   5.812   1.420   3.111
 5339SOL    HW116916   5.852   1.501   3.070
 5339SOL    HW216917   5.713   1.422   3.099
 5340SOL     OW16918   5.745   3.945   1.319
 5340SOL    HW116919   5.750   4.035   1.363
 5340SOL    HW216920   5.660   3.938   1.267
 5341SOL     OW16921   2.923   5.245   5.384
 5341SOL    HW116922   2.949   5.267   5.478
 5341SOL    HW216923   2.865   5.163   5.383
 5342SOL     OW16924   5.389   6.391   4.668
 5342SOL    HW116925   5.481   6.354   4.686
 5342SOL    HW216926   5.333   6.380   4.750
 5343SOL     OW16927   4.171   3.589   5.030
 5343SOL    HW116928   4.268   3.607   5.016
 5343SOL    HW216929   4.137   3.641   5.109
 5344SOL     OW16930   1.393   1.939   0.884
 5344SOL    HW116931   1.331   1.871   0.845
 5344SOL    HW216932   1.341   2.007   0.935
 5345SOL     OW16933   5.439   6.641   0.111
 5345SOL    HW116934   5.449   6.579   0.034
 5345SOL    HW216935   5.399   6.727   0.081
 5346SOL     OW16936   2.856   5.666   3.833
 5346SOL    HW116937   2.758   5.684   3.826
 5346SOL    HW216938   2.875   5.573   3.801
 5347SOL     OW16939   0.407   3.377   2.436
 5347SOL    HW116940   0.503   3.352   2.452
 5347SOL    HW216941   0.395   3.399   2.339
 5348SOL     OW16942   6.559   1.138   6.840
 5348SOL    HW116943   6.498   1.183   6.906
 5348SOL    HW216944   6.531   1.163   6.748
 5349SOL     OW16945   2.385   3.602   0.658
 5349SOL    HW116946   2.396   3.683   0.600
 5349SOL    HW216947   2.290   3.572   0.655
 5350SOL     OW16948   2.000   0.486   4.846
 5350SOL    HW116949   2.096   0.472   4.821
 5350SOL    HW216950   1.992   0.491   4.946
 5351SOL     OW16951   0.245   5.393   2.203
 5351SOL    HW116952   0.280   5.486   2.211
 5351SOL    HW216953   0.321   5.329   2.194
 5352SOL     OW16954   2.263   4.839   2.757
 5352SOL    HW116955   2.233   4.745   2.747
 5352SOL    HW216956   2.327   4.845   2.834
 5353SOL     OW16957   3.824   5.774   4.452
 5353SOL    HW116958   3.829   5.695   4.512
 5353SOL    HW216959   3.893   5.765   4.379
 5354SOL     OW16960   2.036   4.283   1.071
 5354SOL    HW116961   1.973   4.356   1.046
 5354SOL    HW216962   2.122   4.293   1.020
 5355SOL     OW16963   5.767   4.917   3.781
 5355SOL    HW116964   5.794   4.958   3.867
 5355SOL    HW216965   5.732   4.825   3.797
 5356SOL     OW16966   6.717   3.698   3.203
 5356SOL    HW116967   6.800   3.751   3.222
 5356SOL    HW216968   6.738   3.601   3.207
 5357SOL     OW16969   3.146   5.534   0.721
 5357SOL    HW116970   3.151   5.545   0.820
 5357SOL    HW216971   3.158   5.623   0.677
 5358SOL     OW16972   4.552   1.929   1.098
 5358SOL    HW116973   4.504   1.872   1.165
 5358SOL    HW216974   4.597   2.005   1.145
 5359SOL     OW16975   2.868   1.930   6.314
 5359SOL    HW116976   2.797   1.872   6.275
 5359SOL    HW216977   2.827   1.989   6.384
 5360SOL     OW16978   4.119   6.531   3.743
 5360SOL    HW116979   4.049   6.592   3.706
 5360SOL    HW216980   4.085   6.437   3.743
 5361SOL     OW16981   2.535   7.020   4.549
 5361SOL    HW116982   2.557   6.939   4.494
 5361SOL    HW216983   2.456   7.001   4.607
 5362SOL     OW16984   6.641   5.865   2.520
 5362SOL    HW116985   6.713   5.925   2.554
 5362SOL    HW216986   6.671   5.770   2.525
 5363SOL     OW16987   6.102   5.888   6.271
 5363SOL    HW116988   6.108   5.796   6.232
 5363SOL    HW216989   6.175   5.945   6.235
 5364SOL     OW16990   6.053   0.483   1.456
 5364SOL    HW116991   6.104   0.457   1.538
 5364SOL    HW216992   5.955   0.470   1.471
 5365SOL     OW16993   3.507   3.078   2.092
 5365SOL    HW116994   3.409   3.093   2.099
 5365SOL    HW216995   3.525   3.003   2.028
 5366SOL     OW16996   6.352   6.282   1.866
 5366SOL    HW116997   6.274   6.254   1.810
 5366SOL    HW216998   6.381   6.374   1.838
 5367SOL     OW16999   0.306   0.151   1.862
 5367SOL    HW117000   0.269   0.171   1.953
 5367SOL    HW217001   0.352   0.062   1.864
 5368SOL     OW17002   5.994   0.107   2.639
 5368SOL    HW117003   6.025   0.129   2.547
 5368SOL    HW217004   5.911   0.051   2.635
 5369SOL     OW17005   2.538   6.537   0.905
 5369SOL    HW117006   2.496   6.450   0.879
 5369SOL    HW217007   2.482   6.580   0.975
 5370SOL     OW17008   4.436   3.729   0.639
 5370SOL    HW117009   4.535   3.739   0.634
 5370SOL    HW217010   4.407   3.734   0.735
 5371SOL     OW17011   1.102   4.474   5.276
 5371SOL    HW117012   1.070   4.483   5.370
 5371SOL    HW217013   1.199   4.495   5.271
 5372SOL     OW17014   1.096   6.399   3.004
 5372SOL    HW117015   1.043   6.465   2.951
 5372SOL    HW217016   1.188   6.435   3.020
 5373SOL     OW17017   4.086   6.271   5.214
 5373SOL    HW117018   4.161   6.207   5.229
 5373SOL    HW217019   4.004   6.220   5.189
 5374SOL     OW17020   2.348   4.873   0.933
 5374SOL    HW117021   2.334   4.776   0.958
 5374SOL    HW217022   2.356   4.881   0.834
 5375SOL     OW17023   0.252   6.113   5.517
 5375SOL    HW117024   0.245   6.112   5.616
 5375SOL    HW217025   0.171   6.069   5.477
 5376SOL     OW17026   1.055   2.526   1.508
 5376SOL    HW117027   1.057   2.620   1.539
 5376SOL    HW217028   0.980   2.477   1.553
 5377SOL     OW17029   0.778   0.223   2.668
 5377SOL    HW117030   0.789   0.154   2.740
 5377SOL    HW217031   0.701   0.283   2.691
 5378SOL     OW17032   6.405   6.595   2.530
 5378SOL    HW117033   6.430   6.499   2.515
 5378SOL    HW217034   6.474   6.638   2.588
 5379SOL     OW17035   1.212   3.423   4.694
 5379SOL    HW117036   1.220   3.330   4.731
 5379SOL    HW217037   1.187   3.418   4.598
 5380SOL     OW17038   3.011   6.948   1.684
 5380SOL    HW117039   3.038   0.013   1.656
 5380SOL    HW217040   2.952   6.908   1.614
 5381SOL     OW17041   6.796   6.090   1.852
 5381SOL    HW117042   6.702   6.097   1.886
 5381SOL    HW217043   6.815   6.167   1.791
 5382SOL     OW17044   3.004   2.039   2.102
 5382SOL    HW117045   2.969   2.132   2.098
 5382SOL    HW217046   2.929   1.975   2.082
 5383SOL     OW17047   1.485   3.112   4.619
 5383SOL    HW117048   1.555   3.041   4.626
 5383SOL    HW217049   1.530   3.202   4.618
 5384SOL     OW17050   4.960   6.670   4.633
 5384SOL    HW117051   4.868   6.634   4.619
 5384SOL    HW217052   4.993   6.710   4.548
 5385SOL     OW17053   3.991   3.129   5.066
 5385SOL    HW117054   3.985   3.210   5.126
 5385SOL    HW217055   3.975   3.157   4.972
 5386SOL     OW17056   5.064   1.913   3.999
 5386SOL    HW117057   4.988   1.848   3.996
 5386SOL    HW217058   5.068   1.964   3.913
 5387SOL     OW17059   2.321   6.465   2.886
 5387SOL    HW117060   2.405   6.424   2.850
 5387SOL    HW217061   2.294   6.542   2.828
 5388SOL     OW17062   0.854   0.907   3.047
 5388SOL    HW117063   0.805   0.820   3.051
 5388SOL    HW217064   0.926   0.907   3.117
 5389SOL     OW17065   3.802   1.090   3.727
 5389SOL    HW117066   3.884   1.035   3.741
 5389SOL    HW217067   3.829   1.182   3.698
 5390SOL     OW17068   5.896   4.010   3.137
 5390SOL    HW117069   5.957   3.963   3.073
 5390SOL    HW217070   5.814   3.954   3.152
 5391SOL     OW17071   2.157   2.071   0.591
 5391SOL    HW117072   2.202   1.985   0.568
 5391SOL    HW217073   2.223   2.133   0.633
 5392SOL     OW17074   5.532   3.853   1.100
 5392SOL    HW117075   5.535   3.762   1.142
 5392SOL    HW217076   5.447   3.863   1.049
 5393SOL     OW17077   4.377   0.316   4.864
 5393SOL    HW117078   4.293   0.280   4.823
 5393SOL    HW217079   4.392   0.409   4.830
 5394SOL     OW17080   0.864   5.709   0.884
 5394SOL    HW117081   0.866   5.688   0.786
 5394SOL    HW217082   0.906   5.634   0.935
 5395SOL     OW17083   4.979   0.468   1.245
 5395SOL    HW117084   4.965   0.370   1.260
 5395SOL    HW217085   4.892   0.511   1.221
 5396SOL     OW17086   5.547   4.940   1.289
 5396SOL    HW117087   5.536   5.011   1.359
 5396SOL    HW217088   5.489   4.962   1.210
 5397SOL     OW17089   0.507   2.147   1.303
 5397SOL    HW117090   0.486   2.051   1.288
 5397SOL    HW217091   0.435   2.204   1.265
 5398SOL     OW17092   3.490   2.112   4.350
 5398SOL    HW117093   3.413   2.142   4.294
 5398SOL    HW217094   3.574   2.114   4.295
 5399SOL     OW17095   2.416   6.572   6.194
 5399SOL    HW117096   2.340   6.574   6.259
 5399SOL    HW217097   2.427   6.662   6.152
 5400SOL     OW17098   3.049   3.866   0.125
 5400SOL    HW117099   3.036   3.908   0.035
 5400SOL    HW217100   3.120   3.916   0.175
 5401SOL     OW17101   5.577   4.402   2.209
 5401SOL    HW117102   5.579   4.317   2.158
 5401SOL    HW217103   5.664   4.415   2.257
 5402SOL     OW17104   3.397   6.162   1.029
 5402SOL    HW117105   3.336   6.105   0.975
 5402SOL    HW217106   3.355   6.182   1.118
 5403SOL     OW17107   5.054   3.238   6.220
 5403SOL    HW117108   5.051   3.142   6.192
 5403SOL    HW217109   4.970   3.260   6.270
 5404SOL     OW17110   0.975   0.788   1.846
 5404SOL    HW117111   1.037   0.786   1.925
 5404SOL    HW217112   0.935   0.879   1.837
 5405SOL     OW17113   5.637   4.575   6.940
 5405SOL    HW117114   5.673   4.628   7.017
 5405SOL    HW217115   5.620   4.481   6.969
 5406SOL     OW17116   2.002   0.572   5.126
 5406SOL    HW117117   2.003   0.481   5.166
 5406SOL    HW217118   1.928   0.626   5.167
 5407SOL     OW17119   3.281   1.927   0.959
 5407SOL    HW117120   3.237   1.846   0.999
 5407SOL    HW217121   3.369   1.943   1.003
 5408SOL     OW17122   3.888   0.476   4.678
 5408SOL    HW117123   3.987   0.480   4.685
 5408SOL    HW217124   3.856   0.386   4.707
 5409SOL     OW17125   7.015   1.946   3.350
 5409SOL    HW117126   6.978   1.949   3.257
 5409SOL    HW217127   6.939   1.944   3.415
 5410SOL     OW17128   0.645   2.113   6.278
 5410SOL    HW117129   0.724   2.162   6.243
 5410SOL    HW217130   0.675   2.032   6.328
 5411SOL     OW17131   5.644   5.119   6.254
 5411SOL    HW117132   5.717   5.147   6.191
 5411SOL    HW217133   5.678   5.124   6.348
 5412SOL     OW17134   2.737   1.303   6.836
 5412SOL    HW117135   2.732   1.396   6.800
 5412SOL    HW217136   2.818   1.294   6.895
 5413SOL     OW17137   0.552   0.573   6.733
 5413SOL    HW117138   0.472   0.628   6.713
 5413SOL    HW217139   0.553   0.492   6.674
 5414SOL     OW17140   6.472   4.337   4.780
 5414SOL    HW117141   6.413   4.411   4.811
 5414SOL    HW217142   6.417   4.256   4.762
 5415SOL     OW17143   2.475   6.796   1.492
 5415SOL    HW117144   2.481   6.882   1.542
 5415SOL    HW217145   2.500   6.720   1.552
 5416SOL     OW17146   2.750   4.995   5.408
 5416SOL    HW117147   2.723   4.914   5.357
 5416SOL    HW217148   2.669   5.050   5.431
 5417SOL     OW17149   4.360   6.547   4.609
 5417SOL    HW117150   4.345   6.561   4.511
 5417SOL    HW217151   4.272   6.535   4.654
 5418SOL     OW17152   5.743   6.489   5.212
 5418SOL    HW117153   5.663   6.458   5.161
 5418SOL    HW217154   5.824   6.484   5.153
 5419SOL     OW17155   3.495   5.767   0.681
 5419SOL    HW117156   3.531   5.683   0.640
 5419SOL    HW217157   3.534   5.778   0.773
 5420SOL     OW17158   1.846   2.016   1.584
 5420SOL    HW117159   1.822   2.112   1.569
 5420SOL    HW217160   1.905   2.009   1.665
 5421SOL     OW17161   3.052   5.144   1.950
 5421SOL    HW117162   3.033   5.077   1.878
 5421SOL    HW217163   3.103   5.100   2.023
 5422SOL     OW17164   0.544   4.562   4.066
 5422SOL    HW117165   0.453   4.535   4.098
 5422SOL    HW217166   0.574   4.499   3.994
 5423SOL     OW17167   5.123   4.909   0.295
 5423SOL    HW117168   5.221   4.896   0.279
 5423SOL    HW217169   5.088   4.835   0.352
 5424SOL     OW17170   5.575   4.285   4.265
 5424SOL    HW117171   5.624   4.248   4.186
 5424SOL    HW217172   5.476   4.271   4.253
 5425SOL     OW17173   5.659   1.915   5.179
 5425SOL    HW117174   5.617   1.980   5.243
 5425SOL    HW217175   5.654   1.951   5.086
 5426SOL     OW17176   5.932   5.831   2.908
 5426SOL    HW117177   5.930   5.758   2.839
 5426SOL    HW217178   5.919   5.919   2.863
 5427SOL     OW17179   4.683   3.644   0.633
 5427SOL    HW117180   4.624   3.596   0.568
 5427SOL    HW217181   4.740   3.578   0.681
 5428SOL     OW17182   5.434   6.823   1.967
 5428SOL    HW117183   5.371   6.792   2.038
 5428SOL    HW217184   5.390   6.894   1.912
 5429SOL     OW17185   2.212   0.661   6.219
 5429SOL    HW117186   2.154   0.724   6.271
 5429SOL    HW217187   2.188   0.666   6.122
 5430SOL     OW17188   1.994   2.734   5.579
 5430SOL    HW117189   2.025   2.787   5.658
 5430SOL    HW217190   2.073   2.704   5.525
 5431SOL     OW17191   2.757   4.145   6.207
 5431SOL    HW117192   2.716   4.176   6.121
 5431SOL    HW217193   2.783   4.225   6.262
 5432SOL     OW17194   3.815   5.027   0.048
 5432SOL    HW117195   3.747   4.986   7.015
 5432SOL    HW217196   3.907   5.002   0.016
 5433SOL     OW17197   0.795   1.246   2.687
 5433SOL    HW117198   0.748   1.158   2.682
 5433SOL    HW217199   0.868   1.248   2.618
 5434SOL     OW17200   4.146   0.790   4.580
 5434SOL    HW117201   4.234   0.747   4.596
 5434SOL    HW217202   4.086   0.774   4.658
 5435SOL     OW17203   6.495   2.684   0.673
 5435SOL    HW117204   6.509   2.783   0.681
 5435SOL    HW217205   6.440   2.665   0.591
 5436SOL     OW17206   5.545   4.577   3.291
 5436SOL    HW117207   5.579   4.532   3.208
 5436SOL    HW217208   5.603   4.552   3.368
 5437SOL     OW17209   3.036   4.961   5.046
 5437SOL    HW117210   2.988   4.905   4.979
 5437SOL    HW217211   2.979   5.039   5.071
 5438SOL     OW17212   5.936   3.789   1.902
 5438SOL    HW117213   5.939   3.689   1.908
 5438SOL    HW217214   6.007   3.820   1.839
 5439SOL     OW17215   0.438   2.887   0.140
 5439SOL    HW117216   0.374   2.814   0.115
 5439SOL    HW217217   0.517   2.848   0.187
 5440SOL     OW17218   6.696   6.857   3.596
 5440SOL    HW117219   6.728   6.777   3.646
 5440SOL    HW217220   6.612   6.891   3.638
 5441SOL     OW17221   4.996   3.371   3.831
 5441SOL    HW117222   5.032   3.464   3.831
 5441SOL    HW217223   5.072   3.306   3.825
 5442SOL     OW17224   3.714   0.187   3.026
 5442SOL    HW117225   3.727   0.178   2.928
 5442SOL    HW217226   3.649   0.118   3.057
 5443SOL     OW17227   4.041   5.732   3.796
 5443SOL    HW117228   3.951   5.690   3.794
 5443SOL    HW217229   4.057   5.784   3.712
 5444SOL     OW17230   0.514   0.838   3.347
 5444SOL    HW117231   0.463   0.760   3.384
 5444SOL    HW217232   0.612   0.816   3.347
 5445SOL     OW17233   6.192   4.416   3.915
 5445SOL    HW117234   6.158   4.378   3.828
 5445SOL    HW217235   6.163   4.512   3.923
 5446SOL     OW17236   5.705   5.475   4.452
 5446SOL    HW117237   5.689   5.406   4.381
 5446SOL    HW217238   5.796   5.460   4.492
 5447SOL     OW17239   1.273   1.488   0.505
 5447SOL    HW117240   1.217   1.412   0.539
 5447SOL    HW217241   1.332   1.455   0.430
 5448SOL     OW17242   4.655   4.938   3.931
 5448SOL    HW117243   4.735   4.896   3.973
 5448SOL    HW217244   4.653   4.915   3.834
 5449SOL     OW17245   2.235   1.602   0.382
 5449SOL    HW117246   2.183   1.636   0.460
 5449SOL    HW217247   2.329   1.584   0.410
 5450SOL     OW17248   3.595   0.375   1.374
 5450SOL    HW117249   3.695   0.375   1.372
 5450SOL    HW217250   3.561   0.454   1.324
 5451SOL     OW17251   1.998   6.283   3.448
 5451SOL    HW117252   1.994   6.381   3.467
 5451SOL    HW217253   1.981   6.267   3.350
 5452SOL     OW17254   2.386   4.188   0.834
 5452SOL    HW117255   2.429   4.182   0.745
 5452SOL    HW217256   2.321   4.265   0.835
 5453SOL     OW17257   5.165   4.245   2.344
 5453SOL    HW117258   5.262   4.225   2.361
 5453SOL    HW217259   5.144   4.338   2.373
 5454SOL     OW17260   5.250   6.003   6.898
 5454SOL    HW117261   5.257   6.099   6.874
 5454SOL    HW217262   5.334   5.956   6.870
 5455SOL     OW17263   0.355   2.489   3.703
 5455SOL    HW117264   0.410   2.572   3.709
 5455SOL    HW217265   0.273   2.507   3.649
 5456SOL     OW17266   3.297   1.152   6.986
 5456SOL    HW117267   3.328   1.248   6.990
 5456SOL    HW217268   3.316   1.115   6.895
 5457SOL     OW17269   6.432   1.891   1.241
 5457SOL    HW117270   6.494   1.888   1.162
 5457SOL    HW217271   6.474   1.843   1.317
 5458SOL     OW17272   0.019   5.375   0.217
 5458SOL    HW117273   0.052   5.399   0.126
 5458SOL    HW217274   0.078   5.305   0.256
 5459SOL     OW17275   2.650   4.196   5.928
 5459SOL    HW117276   2.664   4.108   5.883
 5459SOL    HW217277   2.715   4.263   5.890
 5460SOL     OW17278   3.071   0.508   2.768
 5460SOL    HW117279   3.101   0.485   2.676
 5460SOL    HW217280   2.974   0.486   2.778
 5461SOL     OW17281   0.533   6.892   4.696
 5461SOL    HW117282   0.472   6.836   4.751
 5461SOL    HW217283   0.495   6.984   4.686
 5462SOL     OW17284   5.545   6.358   0.308
 5462SOL    HW117285   5.638   6.356   0.271
 5462SOL    HW217286   5.548   6.338   0.406
 5463SOL     OW17287   0.251   2.039   6.995
 5463SOL    HW117288   0.316   2.115   6.984
 5463SOL    HW217289   0.299   1.960   0.005
 5464SOL     OW17290   5.831   6.537   4.763
 5464SOL    HW117291   5.740   6.577   4.762
 5464SOL    HW217292   5.890   6.585   4.699
 5465SOL     OW17293   5.690   0.398   3.953
 5465SOL    HW117294   5.704   0.300   3.959
 5465SOL    HW217295   5.695   0.439   4.044
 5466SOL     OW17296   5.138   2.744   5.886
 5466SOL    HW117297   5.041   2.764   5.898
 5466SOL    HW217298   5.148   2.654   5.843
 5467SOL     OW17299   6.147   3.689   3.280
 5467SOL    HW117300   6.121   3.711   3.374
 5467SOL    HW217301   6.236   3.645   3.279
 5468SOL     OW17302   6.326   2.136   5.197
 5468SOL    HW117303   6.312   2.046   5.239
 5468SOL    HW217304   6.240   2.166   5.154
 5469SOL     OW17305   3.300   6.476   5.441
 5469SOL    HW117306   3.305   6.463   5.342
 5469SOL    HW217307   3.236   6.410   5.480
 5470SOL     OW17308   3.416   5.480   3.755
 5470SOL    HW117309   3.492   5.448   3.698
 5470SOL    HW217310   3.434   5.574   3.785
 5471SOL     OW17311   6.792   1.044   3.197
 5471SOL    HW117312   6.886   1.064   3.224
 5471SOL    HW217313   6.775   1.081   3.106
 5472SOL     OW17314   2.613   3.736   6.451
 5472SOL    HW117315   2.589   3.669   6.380
 5472SOL    HW217316   2.689   3.793   6.419
 5473SOL     OW17317   2.306   3.018   1.190
 5473SOL    HW117318   2.382   3.026   1.125
 5473SOL    HW217319   2.247   2.943   1.162
 5474SOL     OW17320   1.077   4.388   4.525
 5474SOL    HW117321   1.075   4.314   4.458
 5474SOL    HW217322   1.061   4.350   4.616
 5475SOL     OW17323   1.851   2.476   0.902
 5475SOL    HW117324   1.838   2.434   0.991
 5475SOL    HW217325   1.769   2.463   0.846
 5476SOL     OW17326   2.350   4.777   4.915
 5476SOL    HW117327   2.434   4.724   4.924
 5476SOL    HW217328   2.271   4.716   4.925
 5477SOL     OW17329   1.927   4.260   2.561
 5477SOL    HW117330   1.918   4.196   2.485
 5477SOL    HW217331   1.863   4.235   2.633
 5478SOL     OW17332   3.912   0.053   5.488
 5478SOL    HW117333   3.972   7.001   5.499
 5478SOL    HW217334   3.965   0.130   5.452
 5479SOL     OW17335   5.669   2.263   5.589
 5479SOL    HW117336   5.738   2.328   5.621
 5479SOL    HW217337   5.577   2.302   5.603
 5480SOL     OW17338   5.746   5.742   4.439
 5480SOL    HW117339   5.666   5.801   4.439
 5480SOL    HW217340   5.720   5.649   4.464
 5481SOL     OW17341   4.755   1.417   4.430
 5481SOL    HW117342   4.693   1.396   4.506
 5481SOL    HW217343   4.808   1.336   4.407
 5482SOL     OW17344   3.657   3.624   1.804
 5482SOL    HW117345   3.690   3.548   1.748
 5482SOL    HW217346   3.724   3.699   1.801
 5483SOL     OW17347   0.696   2.052   5.232
 5483SOL    HW117348   0.734   2.038   5.140
 5483SOL    HW217349   0.684   1.964   5.277
 5484SOL     OW17350   5.159   0.939   3.459
 5484SOL    HW117351   5.229   0.931   3.388
 5484SOL    HW217352   5.181   0.877   3.535
 5485SOL     OW17353   3.634   0.070   5.508
 5485SOL    HW117354   3.583   7.011   5.513
 5485SOL    HW217355   3.732   0.051   5.514
 5486SOL     OW17356   1.811   5.296   5.377
 5486SOL    HW117357   1.884   5.286   5.445
 5486SOL    HW217358   1.840   5.361   5.306
 5487SOL     OW17359   4.782   3.176   6.334
 5487SOL    HW117360   4.801   3.200   6.429
 5487SOL    HW217361   4.785   3.258   6.278
 5488SOL     OW17362   6.070   0.796   1.078
 5488SOL    HW117363   6.070   0.725   1.008
 5488SOL    HW217364   6.129   0.767   1.154
 5489SOL     OW17365   1.278   4.432   1.432
 5489SOL    HW117366   1.309   4.460   1.341
 5489SOL    HW217367   1.178   4.430   1.433
 5490SOL     OW17368   3.353   6.788   0.223
 5490SOL    HW117369   3.390   6.731   0.150
 5490SOL    HW217370   3.313   6.871   0.183
 5491SOL     OW17371   1.981   3.876   0.814
 5491SOL    HW117372   2.038   3.952   0.784
 5491SOL    HW217373   2.025   3.829   0.891
 5492SOL     OW17374   0.384   2.115   6.127
 5492SOL    HW117375   0.394   2.104   6.028
 5492SOL    HW217376   0.475   2.120   6.169
 5493SOL     OW17377   4.069   3.818   4.464
 5493SOL    HW117378   3.991   3.846   4.408
 5493SOL    HW217379   4.055   3.846   4.558
 5494SOL     OW17380   6.347   2.488   6.059
 5494SOL    HW117381   6.442   2.459   6.056
 5494SOL    HW217382   6.287   2.409   6.056
 5495SOL     OW17383   3.687   1.891   1.121
 5495SOL    HW117384   3.718   1.843   1.039
 5495SOL    HW217385   3.765   1.907   1.183
 5496SOL     OW17386   2.969   0.271   3.212
 5496SOL    HW117387   2.915   0.290   3.130
 5496SOL    HW217388   2.989   0.357   3.260
 5497SOL     OW17389   0.537   2.227   4.099
 5497SOL    HW117390   0.562   2.142   4.053
 5497SOL    HW217391   0.603   2.299   4.074
 5498SOL     OW17392   5.951   6.608   1.029
 5498SOL    HW117393   5.877   6.631   0.966
 5498SOL    HW217394   5.956   6.676   1.102
 5499SOL     OW17395   0.192   0.902   4.862
 5499SOL    HW117396   0.195   0.969   4.936
 5499SOL    HW217397   0.225   0.944   4.778
 5500SOL     OW17398   1.465   1.047   0.370
 5500SOL    HW117399   1.402   1.005   0.304
 5500SOL    HW217400   1.504   0.975   0.428
 5501SOL     OW17401   4.222   6.420   0.163
 5501SOL    HW117402   4.189   6.339   0.115
 5501SOL    HW217403   4.269   6.481   0.099
 5502SOL     OW17404   5.321   3.693   0.326
 5502SOL    HW117405   5.322   3.709   0.425
 5502SOL    HW217406   5.409   3.718   0.288
 5503SOL     OW17407   0.294   5.144   2.612
 5503SOL    HW117408   0.228   5.176   2.680
 5503SOL    HW217409   0.248   5.080   2.549
 5504SOL     OW17410   4.066   0.983   5.267
 5504SOL    HW117411   4.092   1.064   5.319
 5504SOL    HW217412   3.970   0.991   5.239
 5505SOL     OW17413   1.629   5.345   4.071
 5505SOL    HW117414   1.641   5.269   4.006
 5505SOL    HW217415   1.609   5.429   4.020
 5506SOL     OW17416   0.898   2.157   6.162
 5506SOL    HW117417   0.915   2.255   6.161
 5506SOL    HW217418   0.979   2.109   6.194
 5507SOL     OW17419   2.765   0.363   3.777
 5507SOL    HW117420   2.822   0.444   3.795
 5507SOL    HW217421   2.784   0.329   3.685
 5508SOL     OW17422   0.840   0.523   6.265
 5508SOL    HW117423   0.752   0.522   6.312
 5508SOL    HW217424   0.825   0.514   6.166
 5509SOL     OW17425   0.779   6.556   6.913
 5509SOL    HW117426   0.816   6.472   6.872
 5509SOL    HW217427   0.679   6.551   6.914
 5510SOL     OW17428   5.684   5.474   0.653
 5510SOL    HW117429   5.641   5.385   0.670
 5510SOL    HW217430   5.783   5.466   0.663
 5511SOL     OW17431   2.075   1.268   3.885
 5511SOL    HW117432   2.111   1.310   3.802
 5511SOL    HW217433   2.090   1.169   3.881
 5512SOL     OW17434   5.743   1.763   1.551
 5512SOL    HW117435   5.808   1.783   1.625
 5512SOL    HW217436   5.655   1.737   1.590
 5513SOL     OW17437   4.413   5.133   6.952
 5513SOL    HW117438   4.449   5.220   6.917
 5513SOL    HW217439   4.360   5.151   0.008
 5514SOL     OW17440   4.126   6.867   3.962
 5514SOL    HW117441   4.033   6.856   3.927
 5514SOL    HW217442   4.146   6.794   4.027
 5515SOL     OW17443   0.540   5.083   1.514
 5515SOL    HW117444   0.543   5.110   1.418
 5515SOL    HW217445   0.609   5.135   1.565
 5516SOL     OW17446   1.887   4.381   6.614
 5516SOL    HW117447   1.814   4.405   6.550
 5516SOL    HW217448   1.952   4.319   6.569
 5517SOL     OW17449   1.765   3.400   2.096
 5517SOL    HW117450   1.765   3.364   2.003
 5517SOL    HW217451   1.857   3.434   2.118
 5518SOL     OW17452   6.541   6.091   6.305
 5518SOL    HW117453   6.567   5.997   6.281
 5518SOL    HW217454   6.487   6.091   6.389
 5519SOL     OW17455   5.728   3.080   3.125
 5519SOL    HW117456   5.689   2.989   3.113
 5519SOL    HW217457   5.808   3.091   3.065
 5520SOL     OW17458   5.907   6.072   2.035
 5520SOL    HW117459   5.931   6.168   2.024
 5520SOL    HW217460   5.856   6.060   2.121
 5521SOL     OW17461   5.233   0.075   1.582
 5521SOL    HW117462   5.271   0.166   1.597
 5521SOL    HW217463   5.155   0.061   1.643
 5522SOL     OW17464   0.297   5.744   0.384
 5522SOL    HW117465   0.282   5.736   0.285
 5522SOL    HW217466   0.222   5.702   0.433
 5523SOL     OW17467   3.040   0.190   1.622
 5523SOL    HW117468   3.088   0.277   1.638
 5523SOL    HW217469   2.965   0.205   1.558
 5524SOL     OW17470   5.520   5.966   5.467
 5524SOL    HW117471   5.470   6.051   5.483
 5524SOL    HW217472   5.465   5.888   5.498
 5525SOL     OW17473   0.112   2.319   0.598
 5525SOL    HW117474   0.147   2.413   0.601
 5525SOL    HW217475   0.039   2.309   0.665
 5526SOL     OW17476   4.997   4.985   3.829
 5526SOL    HW117477   5.008   5.080   3.860
 5526SOL    HW217478   4.989   4.984   3.729
 5527SOL     OW17479   5.272   3.813   3.851
 5527SOL    HW117480   5.352   3.839   3.797
 5527SOL    HW217481   5.301   3.766   3.934
 5528SOL     OW17482   0.907   1.104   6.659
 5528SOL    HW117483   0.978   1.042   6.693
 5528SOL    HW217484   0.902   1.097   6.559
 5529SOL     OW17485   2.601   0.214   2.886
 5529SOL    HW117486   2.598   0.254   2.795
 5529SOL    HW217487   2.586   0.286   2.955
 5530SOL     OW17488   5.785   2.008   2.009
 5530SOL    HW117489   5.884   1.997   2.016
 5530SOL    HW217490   5.747   2.027   2.100
 5531SOL     OW17491   3.225   3.043   2.340
 5531SOL    HW117492   3.200   2.985   2.263
 5531SOL    HW217493   3.261   2.986   2.414
 5532SOL     OW17494   1.100   2.763   0.522
 5532SOL    HW117495   1.059   2.673   0.504
 5532SOL    HW217496   1.027   2.829   0.541
 5533SOL     OW17497   3.641   1.533   3.159
 5533SOL    HW117498   3.605   1.528   3.252
 5533SOL    HW217499   3.627   1.445   3.113
 5534SOL     OW17500   0.612   1.703   5.866
 5534SOL    HW117501   0.520   1.663   5.870
 5534SOL    HW217502   0.627   1.760   5.947
 5535SOL     OW17503   7.000   2.906   3.350
 5535SOL    HW117504   0.009   2.837   3.288
 5535SOL    HW217505   6.905   2.886   3.371
 5536SOL     OW17506   2.998   1.311   4.384
 5536SOL    HW117507   3.069   1.360   4.433
 5536SOL    HW217508   2.955   1.244   4.444
 5537SOL     OW17509   3.072   0.765   2.361
 5537SOL    HW117510   3.076   0.706   2.280
 5537SOL    HW217511   2.978   0.766   2.395
 5538SOL     OW17512   2.250   6.524   5.305
 5538SOL    HW117513   2.336   6.560   5.270
 5538SOL    HW217514   2.260   6.426   5.324
 5539SOL     OW17515   1.764   3.053   1.052
 5539SOL    HW117516   1.674   3.034   1.011
 5539SOL    HW217517   1.808   3.128   1.002
 5540SOL     OW17518   5.559   4.064   3.500
 5540SOL    HW117519   5.572   4.084   3.403
 5540SOL    HW217520   5.627   4.112   3.554
 5541SOL     OW17521   6.076   0.116   6.121
 5541SOL    HW117522   6.051   0.047   6.189
 5541SOL    HW217523   6.160   0.162   6.150
 5542SOL     OW17524   5.328   4.140   5.920
 5542SOL    HW117525   5.290   4.052   5.893
 5542SOL    HW217526   5.366   4.133   6.013
 5543SOL     OW17527   3.666   4.969   6.015
 5543SOL    HW117528   3.672   4.876   5.978
 5543SOL    HW217529   3.580   5.011   5.986
 5544SOL     OW17530   5.856   5.979   6.297
 5544SOL    HW117531   5.952   5.954   6.281
 5544SOL    HW217532   5.849   6.079   6.305
 5545SOL     OW17533   3.735   1.691   1.804
 5545SOL    HW117534   3.795   1.711   1.882
 5545SOL    HW217535   3.648   1.738   1.817
 5546SOL     OW17536   1.101   5.160   4.586
 5546SOL    HW117537   1.173   5.175   4.654
 5546SOL    HW217538   1.076   5.063   4.585
 5547SOL     OW17539   2.620   0.134   4.949
 5547SOL    HW117540   2.531   0.089   4.940
 5547SOL    HW217541   2.693   0.068   4.929
 5548SOL     OW17542   5.449   3.563   6.098
 5548SOL    HW117543   5.404   3.486   6.053
 5548SOL    HW217544   5.380   3.624   6.137
 5549SOL     OW17545   4.410   3.352   6.676
 5549SOL    HW117546   4.354   3.364   6.594
 5549SOL    HW217547   4.371   3.279   6.733
 5550SOL     OW17548   2.459   4.493   1.960
 5550SOL    HW117549   2.490   4.421   1.898
 5550SOL    HW217550   2.459   4.580   1.912
 5551SOL     OW17551   2.275   0.007   3.378
 5551SOL    HW117552   2.292   6.963   3.310
 5551SOL    HW217553   2.207   0.071   3.343
 5552SOL     OW17554   0.135   0.582   6.952
 5552SOL    HW117555   0.144   0.643   0.004
 5552SOL    HW217556   0.142   0.635   6.868
 5553SOL     OW17557   4.688   6.542   6.888
 5553SOL    HW117558   4.705   6.477   6.813
 5553SOL    HW217559   4.668   6.632   6.850
 5554SOL     OW17560   4.363   1.903   5.507
 5554SOL    HW117561   4.368   1.936   5.412
 5554SOL    HW217562   4.336   1.807   5.507
 5555SOL     OW17563   1.982   4.434   4.028
 5555SOL    HW117564   1.993   4.460   4.124
 5555SOL    HW217565   1.982   4.334   4.020
 5556SOL     OW17566   6.450   1.791   3.614
 5556SOL    HW117567   6.436   1.876   3.563
 5556SOL    HW217568   6.373   1.729   3.596
 5557SOL     OW17569   3.724   6.592   2.877
 5557SOL    HW117570   3.747   6.584   2.974
 5557SOL    HW217571   3.669   6.513   2.850
 5558SOL     OW17572   4.413   3.202   5.921
 5558SOL    HW117573   4.340   3.227   5.857
 5558SOL    HW217574   4.502   3.221   5.880
 5559SOL     OW17575   2.715   0.819   2.238
 5559SOL    HW117576   2.774   0.853   2.165
 5559SOL    HW217577   2.769   0.765   2.302
 5560SOL     OW17578   1.484   6.820   3.503
 5560SOL    HW117579   1.471   6.735   3.553
 5560SOL    HW217580   1.549   6.878   3.552
 5561SOL     OW17581   1.748   2.435   4.080
 5561SOL    HW117582   1.768   2.368   4.008
 5561SOL    HW217583   1.712   2.388   4.161
 5562SOL     OW17584   3.017   2.014   6.946
 5562SOL    HW117585   2.964   2.018   0.004
 5562SOL    HW217586   3.067   2.099   6.934
 5563SOL     OW17587   4.202   5.496   2.664
 5563SOL    HW117588   4.194   5.573   2.726
 5563SOL    HW217589   4.268   5.430   2.700
 5564SOL     OW17590   4.858   1.072   2.156
 5564SOL    HW117591   4.774   1.018   2.167
 5564SOL    HW217592   4.839   1.153   2.101
 5565SOL     OW17593   4.701   1.741   6.582
 5565SOL    HW117594   4.616   1.700   6.615
 5565SOL    HW217595   4.775   1.723   6.648
 5566SOL     OW17596   1.830   5.731   0.033
 5566SOL    HW117597   1.904   5.672   0.001
 5566SOL    HW217598   1.851   5.826   0.010
 5567SOL     OW17599   0.255   4.154   1.588
 5567SOL    HW117600   0.315   4.233   1.603
 5567SOL    HW217601   0.262   4.126   1.492
 5568SOL     OW17602   4.192   2.305   3.134
 5568SOL    HW117603   4.189   2.280   3.037
 5568SOL    HW217604   4.117   2.260   3.182
 5569SOL     OW17605   2.211   1.587   2.563
 5569SOL    HW117606   2.176   1.652   2.494
 5569SOL    HW217607   2.215   1.632   2.652
 5570SOL     OW17608   5.863   4.618   5.271
 5570SOL    HW117609   5.784   4.638   5.330
 5570SOL    HW217610   5.842   4.537   5.215
 5571SOL     OW17611   0.424   5.934   0.706
 5571SOL    HW117612   0.326   5.947   0.717
 5571SOL    HW217613   0.470   5.957   0.791
 5572SOL     OW17614   1.440   2.510   4.818
 5572SOL    HW117615   1.496   2.493   4.900
 5572SOL    HW217616   1.390   2.427   4.794
 5573SOL     OW17617   1.736   3.598   6.535
 5573SOL    HW117618   1.733   3.677   6.475
 5573SOL    HW217619   1.728   3.514   6.480
 5574SOL     OW17620   6.108   1.967   3.721
 5574SOL    HW117621   6.113   1.885   3.777
 5574SOL    HW217622   6.199   2.005   3.709
 5575SOL     OW17623   6.892   1.477   1.374
 5575SOL    HW117624   6.991   1.472   1.358
 5575SOL    HW217625   6.875   1.497   1.471
 5576SOL     OW17626   1.054   6.395   1.878
 5576SOL    HW117627   1.151   6.376   1.893
 5576SOL    HW217628   1.043   6.490   1.849
 5577SOL     OW17629   2.983   2.537   5.594
 5577SOL    HW117630   2.930   2.607   5.642
 5577SOL    HW217631   2.943   2.520   5.504
 5578SOL     OW17632   3.970   4.482   0.560
 5578SOL    HW117633   4.029   4.516   0.487
 5578SOL    HW217634   3.972   4.382   0.561
 5579SOL     OW17635   0.234   3.545   6.301
 5579SOL    HW117636   0.161   3.594   6.349
 5579SOL    HW217637   0.238   3.451   6.333
 5580SOL     OW17638   4.278   2.890   5.616
 5580SOL    HW117639   4.220   2.941   5.552
 5580SOL    HW217640   4.330   2.954   5.673
 5581SOL     OW17641   2.728   6.502   1.726
 5581SOL    HW117642   2.710   6.592   1.685
 5581SOL    HW217643   2.825   6.495   1.749
 5582SOL     OW17644   3.852   3.414   3.605
 5582SOL    HW117645   3.797   3.347   3.653
 5582SOL    HW217646   3.823   3.419   3.509
 5583SOL     OW17647   4.336   0.272   2.924
 5583SOL    HW117648   4.433   0.293   2.917
 5583SOL    HW217649   4.317   0.232   3.014
 5584SOL     OW17650   5.920   4.248   3.929
 5584SOL    HW117651   5.952   4.267   3.836
 5584SOL    HW217652   5.959   4.162   3.960
 5585SOL     OW17653   4.372   6.583   4.343
 5585SOL    HW117654   4.425   6.500   4.323
 5585SOL    HW217655   4.427   6.663   4.319
 5586SOL     OW17656   0.548   2.407   6.689
 5586SOL    HW117657   0.455   2.370   6.679
 5586SOL    HW217658   0.560   2.483   6.626
 5587SOL     OW17659   4.091   6.109   2.640
 5587SOL    HW117660   4.136   6.125   2.728
 5587SOL    HW217661   4.059   6.196   2.603
 5588SOL     OW17662   1.525   0.201   2.921
 5588SOL    HW117663   1.507   0.103   2.906
 5588SOL    HW217664   1.462   0.236   2.990
 5589SOL     OW17665   5.813   2.072   6.347
 5589SOL    HW117666   5.787   2.026   6.262
 5589SOL    HW217667   5.912   2.063   6.361
 5590SOL     OW17668   6.604   6.247   3.217
 5590SOL    HW117669   6.682   6.234   3.278
 5590SOL    HW217670   6.519   6.231   3.268
 5591SOL     OW17671   6.124   1.175   6.416
 5591SOL    HW117672   6.063   1.217   6.349
 5591SOL    HW217673   6.085   1.088   6.446
 5592SOL     OW17674   1.150   4.280   2.557
 5592SOL    HW117675   1.091   4.268   2.477
 5592SOL    HW217676   1.193   4.193   2.580
 5593SOL     OW17677   6.744   2.465   6.162
 5593SOL    HW117678   6.656   2.420   6.150
 5593SOL    HW217679   6.761   2.480   6.259
 5594SOL     OW17680   2.715   0.789   6.798
 5594SOL    HW117681   2.728   0.837   6.711
 5594SOL    HW217682   2.620   0.761   6.807
 5595SOL     OW17683   6.268   0.762   5.176
 5595SOL    HW117684   6.343   0.794   5.118
 5595SOL    HW217685   6.294   0.773   5.272
 5596SOL     OW17686   4.930   0.567   2.690
 5596SOL    HW117687   4.894   0.660   2.684
 5596SOL    HW217688   4.886   0.518   2.766
 5597SOL     OW17689   6.251   1.506   5.591
 5597SOL    HW117690   6.346   1.496   5.562
 5597SOL    HW217691   6.199   1.425   5.562
 5598SOL     OW17692   5.746   2.270   4.199
 5598SOL    HW117693   5.821   2.252   4.135
 5598SOL    HW217694   5.740   2.194   4.264
 5599SOL     OW17695   6.666   3.121   2.100
 5599SOL    HW117696   6.746   3.095   2.046
 5599SOL    HW217697   6.665   3.069   2.185
 5600SOL     OW17698   1.937   0.414   2.360
 5600SOL    HW117699   1.935   0.514   2.357
 5600SOL    HW217700   1.846   0.378   2.337
 5601SOL     OW17701   3.769   1.392   6.387
 5601SOL    HW117702   3.714   1.444   6.321
 5601SOL    HW217703   3.709   1.354   6.458
 5602SOL     OW17704   0.590   0.402   2.742
 5602SOL    HW117705   0.622   0.473   2.805
 5602SOL    HW217706   0.491   0.405   2.736
 5603SOL     OW17707   5.314   2.108   6.021
 5603SOL    HW117708   5.392   2.073   5.968
 5603SOL    HW217709   5.229   2.070   5.985
 5604SOL     OW17710   0.312   2.096   5.248
 5604SOL    HW117711   0.281   2.106   5.153
 5604SOL    HW217712   0.268   2.166   5.305
 5605SOL     OW17713   2.050   0.201   4.273
 5605SOL    HW117714   2.136   0.248   4.296
 5605SOL    HW217715   2.070   0.125   4.210
 5606SOL     OW17716   5.366   0.718   0.418
 5606SOL    HW117717   5.380   0.764   0.506
 5606SOL    HW217718   5.306   0.639   0.432
 5607SOL     OW17719   5.351   1.812   3.941
 5607SOL    HW117720   5.254   1.819   3.965
 5607SOL    HW217721   5.394   1.901   3.950
 5608SOL     OW17722   5.862   1.656   2.984
 5608SOL    HW117723   5.935   1.707   3.030
 5608SOL    HW217724   5.780   1.712   2.977
 5609SOL     OW17725   4.772   5.735   1.063
 5609SOL    HW117726   4.673   5.737   1.067
 5609SOL    HW217727   4.810   5.780   1.144
 5610SOL     OW17728   5.575   4.403   1.406
 5610SOL    HW117729   5.504   4.334   1.395
 5610SOL    HW217730   5.540   4.493   1.380
 5611SOL     OW17731   0.899   4.859   2.155
 5611SOL    HW117732   0.959   4.856   2.235
 5611SOL    HW217733   0.885   4.766   2.120
 5612SOL     OW17734   3.826   3.284   0.387
 5612SOL    HW117735   3.868   3.226   0.457
 5612SOL    HW217736   3.827   3.237   0.299
 5613SOL     OW17737   5.796   4.856   5.137
 5613SOL    HW117738   5.833   4.851   5.045
 5613SOL    HW217739   5.834   4.781   5.193
 5614SOL     OW17740   5.392   3.696   4.999
 5614SOL    HW117741   5.398   3.625   5.070
 5614SOL    HW217742   5.314   3.756   5.020
 5615SOL     OW17743   6.603   1.414   3.555
 5615SOL    HW117744   6.507   1.437   3.572
 5615SOL    HW217745   6.659   1.446   3.632
 5616SOL     OW17746   2.257   2.984   4.743
 5616SOL    HW117747   2.213   3.062   4.698
 5616SOL    HW217748   2.314   3.016   4.818
 5617SOL     OW17749   1.520   3.633   5.375
 5617SOL    HW117750   1.471   3.638   5.462
 5617SOL    HW217751   1.514   3.722   5.329
 5618SOL     OW17752   6.746   4.569   3.170
 5618SOL    HW117753   6.825   4.557   3.231
 5618SOL    HW217754   6.680   4.495   3.187
 5619SOL     OW17755   3.223   4.050   3.477
 5619SOL    HW117756   3.174   3.997   3.408
 5619SOL    HW217757   3.158   4.085   3.544
 5620SOL     OW17758   4.613   3.787   6.362
 5620SOL    HW117759   4.537   3.722   6.361
 5620SOL    HW217760   4.617   3.833   6.450
 5621SOL     OW17761   1.233   3.411   6.024
 5621SOL    HW117762   1.243   3.509   6.006
 5621SOL    HW217763   1.268   3.391   6.116
 5622SOL     OW17764   4.892   6.428   5.674
 5622SOL    HW117765   4.955   6.403   5.747
 5622SOL    HW217766   4.939   6.427   5.586
 5623SOL     OW17767   4.771   6.126   5.204
 5623SOL    HW117768   4.774   6.052   5.136
 5623SOL    HW217769   4.755   6.213   5.157
 5624SOL     OW17770   0.356   5.034   3.917
 5624SOL    HW117771   0.422   4.999   3.850
 5624SOL    HW217772   0.362   5.134   3.920
 5625SOL     OW17773   0.094   5.653   5.464
 5625SOL    HW117774   0.121   5.601   5.383
 5625SOL    HW217775   0.026   5.722   5.439
 5626SOL     OW17776   2.274   5.338   3.930
 5626SOL    HW117777   2.347   5.311   3.994
 5626SOL    HW217778   2.228   5.419   3.965
 5627SOL     OW17779   6.955   4.990   6.151
 5627SOL    HW117780   6.980   5.049   6.075
 5627SOL    HW217781   7.001   4.902   6.141
 5628SOL     OW17782   2.389   2.364   1.189
 5628SOL    HW117783   2.333   2.323   1.116
 5628SOL    HW217784   2.395   2.300   1.266
 5629SOL     OW17785   5.070   2.916   2.178
 5629SOL    HW117786   5.039   2.959   2.093
 5629SOL    HW217787   5.005   2.936   2.251
 5630SOL     OW17788   1.775   3.999   6.503
 5630SOL    HW117789   1.848   4.028   6.441
 5630SOL    HW217790   1.814   3.958   6.585
 5631SOL     OW17791   5.414   1.194   1.252
 5631SOL    HW117792   5.441   1.287   1.229
 5631SOL    HW217793   5.490   1.148   1.297
 5632SOL     OW17794   3.780   1.912   5.395
 5632SOL    HW117795   3.789   1.834   5.333
 5632SOL    HW217796   3.733   1.986   5.348
 5633SOL     OW17797   6.234   4.265   4.552
 5633SOL    HW117798   6.261   4.176   4.588
 5633SOL    HW217799   6.315   4.321   4.536
 5634SOL     OW17800   2.267   4.711   4.172
 5634SOL    HW117801   2.244   4.642   4.241
 5634SOL    HW217802   2.259   4.671   4.081
 5635SOL     OW17803   2.003   6.003   6.268
 5635SOL    HW117804   2.073   5.973   6.333
 5635SOL    HW217805   1.978   6.098   6.287
 5636SOL     OW17806   5.717   6.887   5.128
 5636SOL    HW117807   5.755   6.966   5.175
 5636SOL    HW217808   5.773   6.866   5.048
 5637SOL     OW17809   3.303   6.816   3.678
 5637SOL    HW117810   3.339   6.872   3.752
 5637SOL    HW217811   3.359   6.733   3.669
 5638SOL     OW17812   6.346   4.405   0.678
 5638SOL    HW117813   6.441   4.378   0.695
 5638SOL    HW217814   6.342   4.463   0.596
 5639SOL     OW17815   2.539   0.619   2.131
 5639SOL    HW117816   2.621   0.667   2.163
 5639SOL    HW217817   2.483   0.681   2.077
 5640SOL     OW17818   2.921   0.877   2.688
 5640SOL    HW117819   2.993   0.842   2.747
 5640SOL    HW217820   2.959   0.947   2.627
 5641SOL     OW17821   0.397   4.642   5.771
 5641SOL    HW117822   0.382   4.566   5.708
 5641SOL    HW217823   0.382   4.728   5.723
 5642SOL     OW17824   0.851   5.170   5.158
 5642SOL    HW117825   0.844   5.110   5.079
 5642SOL    HW217826   0.759   5.185   5.196
 5643SOL     OW17827   3.606   1.069   4.343
 5643SOL    HW117828   3.629   1.000   4.274
 5643SOL    HW217829   3.689   1.096   4.392
 5644SOL     OW17830   3.546   0.428   4.122
 5644SOL    HW117831   3.455   0.411   4.084
 5644SOL    HW217832   3.607   0.459   4.049
 5645SOL     OW17833   6.037   4.750   2.787
 5645SOL    HW117834   6.018   4.813   2.863
 5645SOL    HW217835   6.101   4.680   2.819
 5646SOL     OW17836   0.857   5.840   3.372
 5646SOL    HW117837   0.810   5.875   3.453
 5646SOL    HW217838   0.954   5.863   3.376
 5647SOL     OW17839   5.757   6.585   0.619
 5647SOL    HW117840   5.763   6.658   0.552
 5647SOL    HW217841   5.751   6.624   0.711
 5648SOL     OW17842   1.630   1.465   3.542
 5648SOL    HW117843   1.677   1.449   3.629
 5648SOL    HW217844   1.569   1.388   3.522
 5649SOL     OW17845   6.710   7.019   5.325
 5649SOL    HW117846   6.787   6.971   5.367
 5649SOL    HW217847   6.664   6.959   5.260
 5650SOL     OW17848   1.004   5.468   0.904
 5650SOL    HW117849   1.102   5.479   0.919
 5650SOL    HW217850   0.968   5.396   0.964
 5651SOL     OW17851   0.408   1.238   1.807
 5651SOL    HW117852   0.353   1.314   1.774
 5651SOL    HW217853   0.349   1.172   1.854
 5652SOL     OW17854   6.030   0.006   1.959
 5652SOL    HW117855   5.998   0.061   2.036
 5652SOL    HW217856   5.977   6.949   1.954
 5653SOL     OW17857   0.558   5.925   6.493
 5653SOL    HW117858   0.636   5.984   6.472
 5653SOL    HW217859   0.513   5.898   6.409
 5654SOL     OW17860   6.370   6.835   5.458
 5654SOL    HW117861   6.412   6.882   5.380
 5654SOL    HW217862   6.419   6.858   5.542
 5655SOL     OW17863   2.049   3.828   5.287
 5655SOL    HW117864   2.128   3.768   5.294
 5655SOL    HW217865   2.079   3.923   5.286
 5656SOL     OW17866   0.542   3.119   0.768
 5656SOL    HW117867   0.552   3.052   0.694
 5656SOL    HW217868   0.624   3.117   0.826
 5657SOL     OW17869   5.774   0.926   0.269
 5657SOL    HW117870   5.705   0.861   0.302
 5657SOL    HW217871   5.794   0.993   0.341
 5658SOL     OW17872   3.332   5.488   5.630
 5658SOL    HW117873   3.309   5.429   5.553
 5658SOL    HW217874   3.280   5.573   5.624
 5659SOL     OW17875   4.134   3.594   3.532
 5659SOL    HW117876   4.165   3.647   3.454
 5659SOL    HW217877   4.051   3.635   3.570
 5660SOL     OW17878   5.740   0.191   5.486
 5660SOL    HW117879   5.820   0.164   5.539
 5660SOL    HW217880   5.657   0.165   5.536
 5661SOL     OW17881   1.385   4.282   4.776
 5661SOL    HW117882   1.414   4.315   4.866
 5661SOL    HW217883   1.313   4.343   4.741
 5662SOL     OW17884   3.154   5.396   3.686
 5662SOL    HW117885   3.244   5.429   3.714
 5662SOL    HW217886   3.117   5.456   3.615
 5663SOL     OW17887   2.183   2.924   6.725
 5663SOL    HW117888   2.161   2.929   6.628
 5663SOL    HW217889   2.280   2.947   6.739
 5664SOL     OW17890   6.566   3.890   4.546
 5664SOL    HW117891   6.577   3.791   4.548
 5664SOL    HW217892   6.598   3.925   4.457
 5665SOL     OW17893   1.628   2.479   6.948
 5665SOL    HW117894   1.578   2.451   6.866
 5665SOL    HW217895   1.685   2.404   6.980
 5666SOL     OW17896   6.010   5.759   1.262
 5666SOL    HW117897   6.007   5.847   1.215
 5666SOL    HW217898   6.086   5.760   1.328
 5667SOL     OW17899   1.262   4.703   3.678
 5667SOL    HW117900   1.245   4.721   3.581
 5667SOL    HW217901   1.264   4.790   3.728
 5668SOL     OW17902   5.197   2.211   5.343
 5668SOL    HW117903   5.270   2.159   5.386
 5668SOL    HW217904   5.110   2.188   5.387
 5669SOL     OW17905   0.867   3.036   0.085
 5669SOL    HW117906   0.963   3.009   0.085
 5669SOL    HW217907   0.841   3.065   7.020
 5670SOL     OW17908   6.461   2.588   3.860
 5670SOL    HW117909   6.460   2.682   3.826
 5670SOL    HW217910   6.438   2.525   3.785
 5671SOL     OW17911   0.354   5.732   0.126
 5671SOL    HW117912   0.416   5.796   0.171
 5671SOL    HW217913   0.407   5.667   0.072
 5672SOL     OW17914   3.960   4.994   6.558
 5672SOL    HW117915   4.023   5.034   6.625
 5672SOL    HW217916   3.868   5.031   6.572
 5673SOL     OW17917   0.794   6.674   1.878
 5673SOL    HW117918   0.728   6.738   1.837
 5673SOL    HW217919   0.766   6.580   1.858
 5674SOL     OW17920   0.163   4.671   4.657
 5674SOL    HW117921   0.159   4.765   4.621
 5674SOL    HW217922   0.071   4.643   4.685
 5675SOL     OW17923   4.700   1.952   5.451
 5675SOL    HW117924   4.620   1.978   5.397
 5675SOL    HW217925   4.754   1.884   5.399
 5676SOL     OW17926   2.306   2.782   2.442
 5676SOL    HW117927   2.219   2.780   2.491
 5676SOL    HW217928   2.357   2.698   2.460
 5677SOL     OW17929   0.175   1.252   2.506
 5677SOL    HW117930   0.151   1.349   2.507
 5677SOL    HW217931   0.242   1.235   2.433
 5678SOL     OW17932   3.565   6.366   2.880
 5678SOL    HW117933   3.631   6.293   2.900
 5678SOL    HW217934   3.504   6.377   2.958
 5679SOL     OW17935   0.828   1.080   4.004
 5679SOL    HW117936   0.821   0.984   3.977
 5679SOL    HW217937   0.902   1.124   3.953
 5680SOL     OW17938   1.598   5.326   6.893
 5680SOL    HW117939   1.637   5.415   6.920
 5680SOL    HW217940   1.500   5.326   6.909
 5681SOL     OW17941   0.611   4.360   0.091
 5681SOL    HW117942   0.523   4.370   0.046
 5681SOL    HW217943   0.625   4.264   0.116
 5682SOL     OW17944   2.207   4.459   6.051
 5682SOL    HW117945   2.268   4.536   6.072
 5682SOL    HW217946   2.176   4.417   6.136
 5683SOL     OW17947   4.086   0.685   0.089
 5683SOL    HW117948   4.108   0.686   7.019
 5683SOL    HW217949   4.154   0.631   0.139
 5684SOL     OW17950   3.188   2.991   4.776
 5684SOL    HW117951   3.237   3.013   4.860
 5684SOL    HW217952   3.149   2.899   4.783
 5685SOL     OW17953   1.683   3.259   2.585
 5685SOL    HW117954   1.775   3.221   2.587
 5685SOL    HW217955   1.618   3.187   2.561
 5686SOL     OW17956   2.564   0.174   6.193
 5686SOL    HW117957   2.522   0.102   6.137
 5686SOL    HW217958   2.571   0.258   6.139
 5687SOL     OW17959   0.221   4.438   6.138
 5687SOL    HW117960   0.291   4.373   6.109
 5687SOL    HW217961   0.135   4.388   6.156
 5688SOL     OW17962   0.299   2.429   0.284
 5688SOL    HW117963   0.205   2.402   0.304
 5688SOL    HW217964   0.340   2.469   0.365
 5689SOL     OW17965   4.639   0.800   0.904
 5689SOL    HW117966   4.546   0.803   0.941
 5689SOL    HW217967   4.705   0.811   0.978
 5690SOL     OW17968   2.653   6.043   1.228
 5690SOL    HW117969   2.725   6.068   1.163
 5690SOL    HW217970   2.644   5.944   1.231
 5691SOL     OW17971   2.838   6.726   1.901
 5691SOL    HW117972   2.925   6.734   1.949
 5691SOL    HW217973   2.765   6.707   1.968
 5692SOL     OW17974   6.417   2.948   0.167
 5692SOL    HW117975   6.440   2.894   0.086
 5692SOL    HW217976   6.448   2.901   0.249
 5693SOL     OW17977   5.667   2.164   2.585
 5693SOL    HW117978   5.678   2.264   2.587
 5693SOL    HW217979   5.579   2.142   2.542
 5694SOL     OW17980   0.985   2.312   3.932
 5694SOL    HW117981   0.973   2.245   3.859
 5694SOL    HW217982   1.027   2.268   4.011
 5695SOL     OW17983   0.984   2.503   2.929
 5695SOL    HW117984   0.958   2.436   2.860
 5695SOL    HW217985   0.972   2.595   2.892
 5696SOL     OW17986   1.505   0.930   2.964
 5696SOL    HW117987   1.522   0.901   2.869
 5696SOL    HW217988   1.447   0.862   3.009
 5697SOL     OW17989   5.992   2.190   1.453
 5697SOL    HW117990   6.063   2.152   1.513
 5697SOL    HW217991   5.919   2.122   1.440
 5698SOL     OW17992   0.457   3.331   3.127
 5698SOL    HW117993   0.385   3.399   3.136
 5698SOL    HW217994   0.543   3.369   3.159
 5699SOL     OW17995   6.579   2.590   3.004
 5699SOL    HW117996   6.598   2.604   2.907
 5699SOL    HW217997   6.486   2.621   3.024
 5700SOL     OW17998   6.797   6.321   4.513
 5700SOL    HW117999   6.871   6.373   4.469
 5700SOL    HW218000   6.721   6.383   4.532
 5701SOL     OW18001   1.358   0.687   2.929
 5701SOL    HW118002   1.426   0.647   2.991
 5701SOL    HW218003   1.352   0.631   2.846
 5702SOL     OW18004   2.292   6.269   5.360
 5702SOL    HW118005   2.316   6.271   5.457
 5702SOL    HW218006   2.358   6.213   5.310
 5703SOL     OW18007   6.217   4.631   1.605
 5703SOL    HW118008   6.316   4.628   1.601
 5703SOL    HW218009   6.189   4.702   1.670
 5704SOL     OW18010   4.186   4.955   2.514
 5704SOL    HW118011   4.168   4.933   2.610
 5704SOL    HW218012   4.104   4.937   2.460
 5705SOL     OW18013   4.624   0.827   1.277
 5705SOL    HW118014   4.710   0.848   1.324
 5705SOL    HW218015   4.581   0.912   1.247
 5706SOL     OW18016   6.628   3.249   0.567
 5706SOL    HW118017   6.699   3.213   0.506
 5706SOL    HW218018   6.550   3.278   0.512
 5707SOL     OW18019   0.005   6.975   0.533
 5707SOL    HW118020   0.026   7.000   0.438
 5707SOL    HW218021   6.979   6.890   0.533
 5708SOL     OW18022   4.775   6.078   1.276
 5708SOL    HW118023   4.801   6.140   1.202
 5708SOL    HW218024   4.702   6.121   1.331
 5709SOL     OW18025   1.447   0.524   2.657
 5709SOL    HW118026   1.528   0.467   2.643
 5709SOL    HW218027   1.366   0.466   2.667
 5710SOL     OW18028   2.428   3.025   6.723
 5710SOL    HW118029   2.510   2.971   6.703
 5710SOL    HW218030   2.454   3.121   6.733
 5711SOL     OW18031   4.859   1.624   2.778
 5711SOL    HW118032   4.866   1.593   2.872
 5711SOL    HW218033   4.949   1.622   2.735
 5712SOL     OW18034   0.964   6.024   6.008
 5712SOL    HW118035   0.906   6.012   6.088
 5712SOL    HW218036   1.033   5.951   6.005
 5713SOL     OW18037   2.714   2.999   1.737
 5713SOL    HW118038   2.627   3.034   1.701
 5713SOL    HW218039   2.733   2.909   1.699
 5714SOL     OW18040   0.792   5.445   6.958
 5714SOL    HW118041   0.707   5.393   6.957
 5714SOL    HW218042   0.781   5.528   6.903
 5715SOL     OW18043   0.908   6.613   3.474
 5715SOL    HW118044   0.969   6.537   3.495
 5715SOL    HW218045   0.907   6.628   3.375
 5716SOL     OW18046   1.486   4.070   7.010
 5716SOL    HW118047   1.573   4.106   6.978
 5716SOL    HW218048   1.469   3.981   6.967
 5717SOL     OW18049   1.719   6.039   1.145
 5717SOL    HW118050   1.715   6.109   1.074
 5717SOL    HW218051   1.814   6.027   1.176
 5718SOL     OW18052   1.228   2.760   5.551
 5718SOL    HW118053   1.196   2.855   5.546
 5718SOL    HW218054   1.316   2.752   5.503
 5719SOL     OW18055   3.132   1.675   6.327
 5719SOL    HW118056   3.155   1.652   6.232
 5719SOL    HW218057   3.132   1.774   6.337
 5720SOL     OW18058   1.204   5.307   3.881
 5720SOL    HW118059   1.288   5.291   3.829
 5720SOL    HW218060   1.125   5.283   3.825
 5721SOL     OW18061   0.213   3.958   1.354
 5721SOL    HW118062   0.274   3.881   1.336
 5721SOL    HW218063   0.118   3.927   1.351
 5722SOL     OW18064   6.471   1.171   5.305
 5722SOL    HW118065   6.539   1.100   5.289
 5722SOL    HW218066   6.481   1.206   5.398
 5723SOL     OW18067   4.537   3.535   6.843
 5723SOL    HW118068   4.476   3.457   6.851
 5723SOL    HW218069   4.621   3.507   6.796
 5724SOL     OW18070   4.564   2.780   5.078
 5724SOL    HW118071   4.577   2.849   5.150
 5724SOL    HW218072   4.529   2.824   4.996
 5725SOL     OW18073   5.414   5.506   3.604
 5725SOL    HW118074   5.503   5.461   3.592
 5725SOL    HW218075   5.410   5.586   3.544
 5726SOL     OW18076   0.061   4.821   4.902
 5726SOL    HW118077   0.138   4.872   4.865
 5726SOL    HW218078   0.085   4.724   4.908
 5727SOL     OW18079   0.163   2.170   3.921
 5727SOL    HW118080   0.209   2.081   3.922
 5727SOL    HW218081   0.231   2.242   3.936
 5728SOL     OW18082   4.115   1.194   6.558
 5728SOL    HW118083   4.142   1.158   6.469
 5728SOL    HW218084   4.020   1.169   6.577
 5729SOL     OW18085   0.673   1.455   0.052
 5729SOL    HW118086   0.624   1.388   0.108
 5729SOL    HW218087   0.719   1.408   7.004
 5730SOL     OW18088   4.462   5.123   6.267
 5730SOL    HW118089   4.435   5.111   6.171
 5730SOL    HW218090   4.457   5.220   6.290
 5731SOL     OW18091   1.045   6.412   4.093
 5731SOL    HW118092   1.032   6.396   3.995
 5731SOL    HW218093   1.066   6.325   4.138
 5732SOL     OW18094   6.669   4.791   4.887
 5732SOL    HW118095   6.674   4.743   4.975
 5732SOL    HW218096   6.591   4.756   4.834
 5733SOL     OW18097   3.346   0.224   5.229
 5733SOL    HW118098   3.266   0.274   5.263
 5733SOL    HW218099   3.319   0.168   5.151
 5734SOL     OW18100   1.080   6.284   5.947
 5734SOL    HW118101   1.036   6.195   5.962
 5734SOL    HW218102   1.105   6.294   5.851
 5735SOL     OW18103   3.960   1.964   1.912
 5735SOL    HW118104   3.878   1.982   1.857
 5735SOL    HW218105   3.938   1.977   2.009
 5736SOL     OW18106   5.963   3.886   0.503
 5736SOL    HW118107   5.956   3.786   0.514
 5736SOL    HW218108   5.992   3.907   0.410
 5737SOL     OW18109   4.785   5.516   0.366
 5737SOL    HW118110   4.858   5.526   0.298
 5737SOL    HW218111   4.806   5.574   0.445
 5738SOL     OW18112   3.011   2.812   6.175
 5738SOL    HW118113   3.030   2.762   6.090
 5738SOL    HW218114   2.971   2.901   6.152
 5739SOL     OW18115   0.907   0.126   5.618
 5739SOL    HW118116   0.938   0.049   5.673
 5739SOL    HW218117   0.835   0.176   5.666
 5740SOL     OW18118   4.146   3.559   0.788
 5740SOL    HW118119   4.057   3.596   0.764
 5740SOL    HW218120   4.209   3.633   0.812
 5741SOL     OW18121   6.379   4.071   4.694
 5741SOL    HW118122   6.294   4.020   4.702
 5741SOL    HW218123   6.447   4.015   4.647
 5742SOL     OW18124   4.823   6.750   2.938
 5742SOL    HW118125   4.910   6.770   2.893
 5742SOL    HW218126   4.811   6.651   2.944
 5743SOL     OW18127   2.654   5.802   5.117
 5743SOL    HW118128   2.684   5.821   5.023
 5743SOL    HW218129   2.557   5.826   5.126
 5744SOL     OW18130   4.792   1.569   1.596
 5744SOL    HW118131   4.846   1.652   1.613
 5744SOL    HW218132   4.696   1.588   1.617
 5745SOL     OW18133   1.948   1.340   4.129
 5745SOL    HW118134   1.945   1.250   4.171
 5745SOL    HW218135   2.004   1.338   4.047
 5746SOL     OW18136   5.213   7.010   1.077
 5746SOL    HW118137   5.305   0.020   1.091
 5746SOL    HW218138   5.197   6.936   1.144
 5747SOL     OW18139   0.789   4.379   2.535
 5747SOL    HW118140   0.843   4.302   2.500
 5747SOL    HW218141   0.758   4.358   2.627
 5748SOL     OW18142   1.697   6.476   0.597
 5748SOL    HW118143   1.610   6.522   0.616
 5748SOL    HW218144   1.772   6.529   0.637
 5749SOL     OW18145   1.390   6.105   4.292
 5749SOL    HW118146   1.458   6.086   4.221
 5749SOL    HW218147   1.300   6.115   4.250
 5750SOL     OW18148   6.513   6.186   4.789
 5750SOL    HW118149   6.610   6.172   4.810
 5750SOL    HW218150   6.500   6.183   4.689
 5751SOL     OW18151   2.454   2.527   4.494
 5751SOL    HW118152   2.375   2.485   4.539
 5751SOL    HW218153   2.440   2.626   4.487
 5752SOL     OW18154   6.470   0.475   0.397
 5752SOL    HW118155   6.513   0.444   0.312
 5752SOL    HW218156   6.540   0.484   0.468
 5753SOL     OW18157   3.649   3.266   4.415
 5753SOL    HW118158   3.655   3.180   4.466
 5753SOL    HW218159   3.659   3.343   4.479
 5754SOL     OW18160   6.760   4.616   1.430
 5754SOL    HW118161   6.717   4.691   1.379
 5754SOL    HW218162   6.839   4.650   1.480
 5755SOL     OW18163   2.329   3.010   5.977
 5755SOL    HW118164   2.290   2.932   5.929
 5755SOL    HW218165   2.373   3.071   5.911
 5756SOL     OW18166   6.252   0.359   3.072
 5756SOL    HW118167   6.319   0.295   3.033
 5756SOL    HW218168   6.230   0.330   3.166
 5757SOL     OW18169   6.805   6.881   3.339
 5757SOL    HW118170   6.750   6.873   3.422
 5757SOL    HW218171   6.832   6.977   3.327
 5758SOL     OW18172   2.625   0.827   4.755
 5758SOL    HW118173   2.703   0.822   4.817
 5758SOL    HW218174   2.637   0.905   4.693
 5759SOL     OW18175   4.906   1.725   6.776
 5759SOL    HW118176   4.827   1.695   6.829
 5759SOL    HW218177   4.978   1.756   6.838
 5760SOL     OW18178   0.069   4.185   0.742
 5760SOL    HW118179   0.021   4.213   0.659
 5760SOL    HW218180   0.022   4.222   0.822
 5761SOL     OW18181   5.764   5.707   6.384
 5761SOL    HW118182   5.820   5.665   6.313
 5761SOL    HW218183   5.779   5.806   6.384
 5762SOL     OW18184   4.602   4.613   0.264
 5762SOL    HW118185   4.597   4.548   0.189
 5762SOL    HW218186   4.544   4.583   0.339
 5763SOL     OW18187   0.007   0.027   0.265
 5763SOL    HW118188   0.105   0.047   0.260
 5763SOL    HW218189   7.010   6.987   0.195
 5764SOL     OW18190   5.181   5.060   5.532
 5764SOL    HW118191   5.199   5.083   5.627
 5764SOL    HW218192   5.082   5.056   5.517
 5765SOL     OW18193   5.549   2.690   0.166
 5765SOL    HW118194   5.602   2.680   0.250
 5765SOL    HW218195   5.464   2.738   0.185
 5766SOL     OW18196   2.363   2.074   6.833
 5766SOL    HW118197   2.416   2.147   6.789
 5766SOL    HW218198   2.272   2.107   6.855
 5767SOL     OW18199   2.111   1.782   7.021
 5767SOL    HW118200   2.184   1.836   0.036
 5767SOL    HW218201   2.096   1.700   0.048
 5768SOL     OW18202   1.054   6.397   3.557
 5768SOL    HW118203   1.060   6.298   3.540
 5768SOL    HW218204   1.146   6.433   3.573
 5769SOL     OW18205   2.166   5.813   4.649
 5769SOL    HW118206   2.156   5.715   4.666
 5769SOL    HW218207   2.077   5.858   4.662
 5770SOL     OW18208   6.222   6.394   0.259
 5770SOL    HW118209   6.274   6.452   0.321
 5770SOL    HW218210   6.215   6.439   0.170
 5771SOL     OW18211   1.677   7.007   3.590
 5771SOL    HW118212   1.775   0.001   3.584
 5771SOL    HW218213   1.653   6.985   3.684
 5772SOL     OW18214   5.904   2.120   0.863
 5772SOL    HW118215   5.912   2.022   0.881
 5772SOL    HW218216   5.885   2.135   0.766
 5773SOL     OW18217   4.943   0.713   3.452
 5773SOL    HW118218   4.944   0.782   3.524
 5773SOL    HW218219   4.898   0.750   3.371
 5774SOL     OW18220   2.750   5.849   3.339
 5774SOL    HW118221   2.729   5.933   3.289
 5774SOL    HW218222   2.849   5.843   3.353
 5775SOL     OW18223   1.182   0.884   2.052
 5775SOL    HW118224   1.221   0.796   2.025
 5775SOL    HW218225   1.215   0.955   1.990
 5776SOL     OW18226   7.006   0.479   4.983
 5776SOL    HW118227   7.004   0.571   4.944
 5776SOL    HW218228   6.950   0.478   5.066
 5777SOL     OW18229   6.201   0.241   5.487
 5777SOL    HW118230   6.184   0.337   5.465
 5777SOL    HW218231   6.298   0.227   5.506
 5778SOL     OW18232   1.553   0.929   1.558
 5778SOL    HW118233   1.590   0.843   1.524
 5778SOL    HW218234   1.545   0.926   1.658
 5779SOL     OW18235   5.007   2.280   0.557
 5779SOL    HW118236   5.019   2.330   0.643
 5779SOL    HW218237   4.910   2.277   0.533
 5780SOL     OW18238   6.111   5.531   3.487
 5780SOL    HW118239   6.092   5.460   3.555
 5780SOL    HW218240   6.202   5.569   3.504
 5781SOL     OW18241   0.329   4.351   4.019
 5781SOL    HW118242   0.280   4.356   4.106
 5781SOL    HW218243   0.371   4.261   4.010
 5782SOL     OW18244   0.835   1.428   0.486
 5782SOL    HW118245   0.747   1.467   0.511
 5782SOL    HW218246   0.898   1.502   0.461
 5783SOL     OW18247   2.068   0.656   1.734
 5783SOL    HW118248   2.104   0.731   1.679
 5783SOL    HW218249   2.139   0.622   1.795
 5784SOL     OW18250   0.014   6.040   0.344
 5784SOL    HW118251   0.088   6.028   0.277
 5784SOL    HW218252   6.953   6.041   0.296
 5785SOL     OW18253   1.852   2.425   0.547
 5785SOL    HW118254   1.917   2.376   0.489
 5785SOL    HW218255   1.772   2.451   0.493
 5786SOL     OW18256   0.601   4.516   1.283
 5786SOL    HW118257   0.540   4.594   1.274
 5786SOL    HW218258   0.635   4.489   1.193
 5787SOL     OW18259   4.089   2.045   5.398
 5787SOL    HW118260   4.127   1.974   5.456
 5787SOL    HW218261   4.028   2.104   5.452
 5788SOL     OW18262   3.553   1.718   1.412
 5788SOL    HW118263   3.462   1.760   1.414
 5788SOL    HW218264   3.561   1.659   1.332
 5789SOL     OW18265   2.942   4.515   0.429
 5789SOL    HW118266   3.015   4.551   0.370
 5789SOL    HW218267   2.890   4.446   0.378
 5790SOL     OW18268   0.384   4.502   4.636
 5790SOL    HW118269   0.449   4.544   4.573
 5790SOL    HW218270   0.295   4.547   4.628
 5791SOL     OW18271   3.311   1.693   2.493
 5791SOL    HW118272   3.336   1.724   2.584
 5791SOL    HW218273   3.215   1.715   2.475
 5792SOL     OW18274   5.780   2.798   2.148
 5792SOL    HW118275   5.689   2.805   2.108
 5792SOL    HW218276   5.798   2.703   2.174
 5793SOL     OW18277   5.297   0.705   4.068
 5793SOL    HW118278   5.300   0.653   4.153
 5793SOL    HW218279   5.349   0.657   3.997
 5794SOL     OW18280   2.121   1.017   6.800
 5794SOL    HW118281   2.028   1.024   6.763
 5794SOL    HW218282   2.167   1.106   6.791
 5795SOL     OW18283   0.127   6.707   7.014
 5795SOL    HW118284   0.174   6.691   6.927
 5795SOL    HW218285   0.085   6.622   0.018
 5796SOL     OW18286   5.134   0.604   5.993
 5796SOL    HW118287   5.086   0.612   6.080
 5796SOL    HW218288   5.071   0.569   5.924
 5797SOL     OW18289   4.420   2.376   0.212
 5797SOL    HW118290   4.469   2.364   0.298
 5797SOL    HW218291   4.430   2.293   0.157
 5798SOL     OW18292   6.673   5.162   3.971
 5798SOL    HW118293   6.591   5.200   4.013
 5798SOL    HW218294   6.661   5.157   3.872
 5799SOL     OW18295   0.243   0.811   4.210
 5799SOL    HW118296   0.205   0.788   4.121
 5799SOL    HW218297   0.273   0.728   4.256
 5800SOL     OW18298   6.293   6.995   1.872
 5800SOL    HW118299   6.196   7.006   1.897
 5800SOL    HW218300   6.311   6.899   1.851
 5801SOL     OW18301   1.883   2.828   3.447
 5801SOL    HW118302   1.871   2.767   3.525
 5801SOL    HW218303   1.811   2.897   3.447
 5802SOL     OW18304   6.770   3.347   2.226
 5802SOL    HW118305   6.742   3.263   2.179
 5802SOL    HW218306   6.836   3.325   2.297
 5803SOL     OW18307   2.075   5.783   2.533
 5803SOL    HW118308   2.079   5.713   2.605
 5803SOL    HW218309   1.997   5.765   2.474
 5804SOL     OW18310   0.244   5.074   2.895
 5804SOL    HW118311   0.259   5.072   2.994
 5804SOL    HW218312   0.327   5.106   2.849
 5805SOL     OW18313   2.141   3.171   0.648
 5805SOL    HW118314   2.172   3.181   0.743
 5805SOL    HW218315   2.043   3.153   0.647
 5806SOL     OW18316   6.203   5.554   4.551
 5806SOL    HW118317   6.165   5.615   4.480
 5806SOL    HW218318   6.146   5.560   4.633
 5807SOL     OW18319   0.672   4.450   1.040
 5807SOL    HW118320   0.751   4.493   0.995
 5807SOL    HW218321   0.601   4.433   0.972
 5808SOL     OW18322   6.472   5.516   4.228
 5808SOL    HW118323   6.571   5.509   4.238
 5808SOL    HW218324   6.435   5.427   4.202
 5809SOL     OW18325   6.598   1.765   4.959
 5809SOL    HW118326   6.609   1.793   5.054
 5809SOL    HW218327   6.687   1.737   4.921
 5810SOL     OW18328   5.125   1.595   5.386
 5810SOL    HW118329   5.124   1.526   5.313
 5810SOL    HW218330   5.061   1.569   5.458
 5811SOL     OW18331   3.695   0.683   4.649
 5811SOL    HW118332   3.786   0.678   4.691
 5811SOL    HW218333   3.651   0.593   4.655
 5812SOL     OW18334   5.879   3.624   4.857
 5812SOL    HW118335   5.954   3.619   4.791
 5812SOL    HW218336   5.810   3.556   4.833
 5813SOL     OW18337   1.867   1.615   1.252
 5813SOL    HW118338   1.903   1.528   1.286
 5813SOL    HW218339   1.888   1.688   1.318
 5814SOL     OW18340   6.257   3.465   2.156
 5814SOL    HW118341   6.315   3.504   2.084
 5814SOL    HW218342   6.311   3.399   2.209
 5815SOL     OW18343   3.936   1.642   3.777
 5815SOL    HW118344   3.932   1.724   3.720
 5815SOL    HW218345   4.023   1.641   3.827
 5816SOL     OW18346   5.057   4.512   0.794
 5816SOL    HW118347   4.980   4.565   0.831
 5816SOL    HW218348   5.024   4.420   0.770
 5817SOL     OW18349   6.012   4.347   5.609
 5817SOL    HW118350   6.065   4.406   5.547
 5817SOL    HW218351   5.964   4.403   5.676
 5818SOL     OW18352   6.284   4.967   5.388
 5818SOL    HW118353   6.378   4.999   5.392
 5818SOL    HW218354   6.248   4.978   5.295
 5819SOL     OW18355   3.854   0.497   6.867
 5819SOL    HW118356   3.762   0.524   6.895
 5819SOL    HW218357   3.890   0.428   6.931
 5820SOL     OW18358   4.526   4.611   3.726
 5820SOL    HW118359   4.534   4.535   3.662
 5820SOL    HW218360   4.526   4.576   3.819
 5821SOL     OW18361   0.285   0.982   1.926
 5821SOL    HW118362   0.185   0.988   1.917
 5821SOL    HW218363   0.316   0.894   1.892
 5822SOL     OW18364   1.566   2.773   1.292
 5822SOL    HW118365   1.544   2.861   1.333
 5822SOL    HW218366   1.610   2.788   1.204
 5823SOL     OW18367   2.872   0.340   4.601
 5823SOL    HW118368   2.860   0.361   4.505
 5823SOL    HW218369   2.969   0.340   4.624
 5824SOL     OW18370   0.046   5.684   2.446
 5824SOL    HW118371   0.124   5.745   2.456
 5824SOL    HW218372   0.046   5.644   2.354
 5825SOL     OW18373   0.172   6.675   4.540
 5825SOL    HW118374   0.216   6.762   4.516
 5825SOL    HW218375   0.090   6.663   4.484
 5826SOL     OW18376   0.159   5.204   6.329
 5826SOL    HW118377   0.159   5.210   6.229
 5826SOL    HW218378   0.219   5.274   6.367
 5827SOL     OW18379   1.919   3.846   5.526
 5827SOL    HW118380   1.893   3.753   5.552
 5827SOL    HW218381   1.983   3.842   5.449
 5828SOL     OW18382   6.056   1.893   1.988
 5828SOL    HW118383   6.052   1.968   2.055
 5828SOL    HW218384   6.126   1.828   2.014
 5829SOL     OW18385   1.817   0.440   4.132
 5829SOL    HW118386   1.912   0.457   4.158
 5829SOL    HW218387   1.770   0.527   4.119
 5830SOL     OW18388   5.837   6.582   5.780
 5830SOL    HW118389   5.823   6.513   5.851
 5830SOL    HW218390   5.779   6.661   5.798
 5831SOL     OW18391   1.150   0.846   5.931
 5831SOL    HW118392   1.077   0.850   5.999
 5831SOL    HW218393   1.164   0.751   5.902
 5832SOL     OW18394   3.459   5.277   0.130
 5832SOL    HW118395   3.449   5.207   0.200
 5832SOL    HW218396   3.533   5.340   0.155
 5833SOL     OW18397   3.996   3.947   4.824
 5833SOL    HW118398   3.921   3.962   4.760
 5833SOL    HW218399   4.038   4.034   4.849
 5834SOL     OW18400   0.284   2.675   0.137
 5834SOL    HW118401   0.306   2.595   0.193
 5834SOL    HW218402   0.269   2.647   0.042
 5835SOL     OW18403   5.218   2.886   3.253
 5835SOL    HW118404   5.127   2.916   3.222
 5835SOL    HW218405   5.285   2.958   3.233
 5836SOL     OW18406   2.878   0.341   1.828
 5836SOL    HW118407   2.864   0.434   1.794
 5836SOL    HW218408   2.928   0.287   1.760
 5837SOL     OW18409   3.235   4.098   0.052
 5837SOL    HW118410   3.319   4.044   0.061
 5837SOL    HW218411   3.230   4.134   6.986
 5838SOL     OW18412   3.070   2.091   0.841
 5838SOL    HW118413   3.083   2.188   0.859
 5838SOL    HW218414   3.156   2.042   0.857
 5839SOL     OW18415   1.025   1.991   2.040
 5839SOL    HW118416   1.065   1.959   2.126
 5839SOL    HW218417   1.058   1.934   1.964
 5840SOL     OW18418   1.533   5.014   6.373
 5840SOL    HW118419   1.561   4.927   6.414
 5840SOL    HW218420   1.614   5.070   6.357
 5841SOL     OW18421   4.701   1.251   2.407
 5841SOL    HW118422   4.640   1.271   2.331
 5841SOL    HW218423   4.679   1.310   2.485
 5842SOL     OW18424   4.729   2.895   1.536
 5842SOL    HW118425   4.693   2.819   1.482
 5842SOL    HW218426   4.818   2.923   1.498
 5843SOL     OW18427   1.656   4.192   2.192
 5843SOL    HW118428   1.723   4.121   2.211
 5843SOL    HW218429   1.599   4.165   2.115
 5844SOL     OW18430   1.683   5.860   5.745
 5844SOL    HW118431   1.675   5.780   5.686
 5844SOL    HW218432   1.779   5.876   5.767
 5845SOL     OW18433   0.533   0.494   2.388
 5845SOL    HW118434   0.628   0.463   2.383
 5845SOL    HW218435   0.529   0.578   2.443
 5846SOL     OW18436   5.983   3.648   6.285
 5846SOL    HW118437   5.933   3.571   6.245
 5846SOL    HW218438   5.970   3.648   6.384
 5847SOL     OW18439   2.810   2.241   2.318
 5847SOL    HW118440   2.813   2.273   2.223
 5847SOL    HW218441   2.759   2.155   2.323
 5848SOL     OW18442   1.679   5.725   3.173
 5848SOL    HW118443   1.720   5.793   3.112
 5848SOL    HW218444   1.615   5.770   3.235
 5849SOL     OW18445   1.344   0.310   5.554
 5849SOL    HW118446   1.336   0.213   5.528
 5849SOL    HW218447   1.378   0.362   5.476
 5850SOL     OW18448   6.646   3.037   1.812
 5850SOL    HW118449   6.731   2.985   1.818
 5850SOL    HW218450   6.659   3.129   1.849
 5851SOL     OW18451   5.223   2.924   2.795
 5851SOL    HW118452   5.176   2.873   2.867
 5851SOL    HW218453   5.234   3.019   2.823
 5852SOL     OW18454   6.091   6.466   3.158
 5852SOL    HW118455   6.059   6.554   3.193
 5852SOL    HW218456   6.013   6.406   3.142
 5853SOL     OW18457   3.543   5.637   5.397
 5853SOL    HW118458   3.500   5.596   5.478
 5853SOL    HW218459   3.568   5.565   5.333
 5854SOL     OW18460   4.624   4.402   6.374
 5854SOL    HW118461   4.553   4.467   6.347
 5854SOL    HW218462   4.655   4.423   6.467
 5855SOL     OW18463   1.454   1.114   5.158
 5855SOL    HW118464   1.485   1.101   5.064
 5855SOL    HW218465   1.425   1.026   5.196
 5856SOL     OW18466   2.316   5.929   3.586
 5856SOL    HW118467   2.339   6.004   3.648
 5856SOL    HW218468   2.371   5.937   3.503
 5857SOL     OW18469   6.153   2.015   5.616
 5857SOL    HW118470   6.151   1.917   5.596
 5857SOL    HW218471   6.230   2.058   5.570
 5858SOL     OW18472   2.442   2.176   2.701
 5858SOL    HW118473   2.474   2.082   2.712
 5858SOL    HW218474   2.404   2.208   2.787
 5859SOL     OW18475   6.229   5.936   1.687
 5859SOL    HW118476   6.323   5.960   1.663
 5859SOL    HW218477   6.224   5.915   1.785
 5860SOL     OW18478   0.417   3.811   2.809
 5860SOL    HW118479   0.329   3.764   2.813
 5860SOL    HW218480   0.410   3.888   2.745
 5861SOL     OW18481   4.659   1.855   4.373
 5861SOL    HW118482   4.725   1.782   4.383
 5861SOL    HW218483   4.706   1.943   4.374
 5862SOL     OW18484   5.955   5.516   0.812
 5862SOL    HW118485   5.941   5.484   0.905
 5862SOL    HW218486   5.923   5.611   0.804
 5863SOL     OW18487   2.985   2.108   5.167
 5863SOL    HW118488   3.044   2.138   5.093
 5863SOL    HW218489   2.996   2.167   5.246
 5864SOL     OW18490   3.778   4.026   2.352
 5864SOL    HW118491   3.860   3.993   2.306
 5864SOL    HW218492   3.794   4.030   2.451
 5865SOL     OW18493   6.037   6.891   5.701
 5865SOL    HW118494   6.076   6.874   5.611
 5865SOL    HW218495   6.027   6.989   5.716
 5866SOL     OW18496   3.377   4.176   0.340
 5866SOL    HW118497   3.341   4.231   0.415
 5866SOL    HW218498   3.459   4.128   0.371
 5867SOL     OW18499   2.421   3.206   1.349
 5867SOL    HW118500   2.360   3.140   1.306
 5867SOL    HW218501   2.372   3.292   1.365
 5868SOL     OW18502   1.712   1.587   5.439
 5868SOL    HW118503   1.742   1.492   5.430
 5868SOL    HW218504   1.776   1.646   5.391
 5869SOL     OW18505   2.042   6.423   3.191
 5869SOL    HW118506   1.964   6.417   3.128
 5869SOL    HW218507   2.047   6.515   3.229
 5870SOL     OW18508   4.354   6.643   5.012
 5870SOL    HW118509   4.355   6.743   5.004
 5870SOL    HW218510   4.263   6.613   5.042
 5871SOL     OW18511   3.384   3.315   1.269
 5871SOL    HW118512   3.307   3.349   1.324
 5871SOL    HW218513   3.361   3.323   1.172
 5872SOL     OW18514   4.561   6.338   1.261
 5872SOL    HW118515   4.466   6.367   1.267
 5872SOL    HW218516   4.611   6.402   1.201
 5873SOL     OW18517   3.830   1.279   2.199
 5873SOL    HW118518   3.898   1.208   2.181
 5873SOL    HW218519   3.784   1.259   2.286
 5874SOL     OW18520   2.940   4.736   6.427
 5874SOL    HW118521   2.998   4.697   6.355
 5874SOL    HW218522   2.993   4.741   6.512
 5875SOL     OW18523   4.220   1.387   0.222
 5875SOL    HW118524   4.124   1.408   0.203
 5875SOL    HW218525   4.236   1.391   0.320
 5876SOL     OW18526   3.955   3.082   0.551
 5876SOL    HW118527   4.050   3.052   0.544
 5876SOL    HW218528   3.895   3.004   0.531
 5877SOL     OW18529   0.610   6.989   1.554
 5877SOL    HW118530   0.516   7.006   1.525
 5877SOL    HW218531   0.667   6.973   1.473
 5878SOL     OW18532   6.128   5.154   3.766
 5878SOL    HW118533   6.069   5.213   3.711
 5878SOL    HW218534   6.086   5.064   3.776
 5879SOL     OW18535   1.402   3.819   6.582
 5879SOL    HW118536   1.449   3.758   6.645
 5879SOL    HW218537   1.469   3.865   6.524
 5880SOL     OW18538   4.585   4.767   5.901
 5880SOL    HW118539   4.584   4.860   5.864
 5880SOL    HW218540   4.676   4.745   5.933
 5881SOL     OW18541   0.805   0.043   2.315
 5881SOL    HW118542   0.897   0.007   2.301
 5881SOL    HW218543   0.807   0.116   2.382
 5882SOL     OW18544   6.785   5.355   0.624
 5882SOL    HW118545   6.809   5.280   0.563
 5882SOL    HW218546   6.705   5.404   0.587
 5883SOL     OW18547   1.057   1.335   6.573
 5883SOL    HW118548   1.081   1.273   6.498
 5883SOL    HW218549   1.014   1.283   6.647
 5884SOL     OW18550   4.113   1.059   4.489
 5884SOL    HW118551   4.038   1.096   4.435
 5884SOL    HW218552   4.083   0.976   4.536
 5885SOL     OW18553   0.582   6.708   2.578
 5885SOL    HW118554   0.614   6.747   2.492
 5885SOL    HW218555   0.496   6.659   2.563
 5886SOL     OW18556   0.011   2.296   4.702
 5886SOL    HW118557   0.104   2.259   4.700
 5886SOL    HW218558   7.020   2.346   4.618
 5887SOL     OW18559   2.698   1.900   2.066
 5887SOL    HW118560   2.703   1.997   2.042
 5887SOL    HW218561   2.702   1.845   1.982
 5888SOL     OW18562   3.164   0.462   1.454
 5888SOL    HW118563   3.167   0.512   1.540
 5888SOL    HW218564   3.178   0.525   1.378
 5889SOL     OW18565   0.815   0.422   0.697
 5889SOL    HW118566   0.734   0.377   0.660
 5889SOL    HW218567   0.793   0.518   0.718
 5890SOL     OW18568   2.361   1.223   3.209
 5890SOL    HW118569   2.387   1.265   3.122
 5890SOL    HW218570   2.377   1.288   3.283
 5891SOL     OW18571   3.305   2.972   6.808
 5891SOL    HW118572   3.211   2.983   6.839
 5891SOL    HW218573   3.366   2.968   6.887
 5892SOL     OW18574   0.917   5.711   1.983
 5892SOL    HW118575   0.836   5.747   2.029
 5892SOL    HW218576   0.972   5.787   1.948
 5893SOL     OW18577   2.702   4.732   4.025
 5893SOL    HW118578   2.681   4.757   3.931
 5893SOL    HW218579   2.800   4.738   4.040
 5894SOL     OW18580   6.744   5.748   4.066
 5894SOL    HW118581   6.815   5.689   4.028
 5894SOL    HW218582   6.737   5.831   4.011
 5895SOL     OW18583   5.493   3.842   4.226
 5895SOL    HW118584   5.415   3.797   4.182
 5895SOL    HW218585   5.576   3.822   4.174
 5896SOL     OW18586   3.411   0.746   0.491
 5896SOL    HW118587   3.314   0.771   0.491
 5896SOL    HW218588   3.432   0.694   0.409
 5897SOL     OW18589   4.504   6.915   1.215
 5897SOL    HW118590   4.456   6.938   1.300
 5897SOL    HW218591   4.477   6.980   1.143
 5898SOL     OW18592   2.561   6.868   3.461
 5898SOL    HW118593   2.492   6.931   3.497
 5898SOL    HW218594   2.544   6.776   3.498
 5899SOL     OW18595   6.260   5.617   0.129
 5899SOL    HW118596   6.237   5.690   0.194
 5899SOL    HW218597   6.268   5.655   0.037
 5900SOL     OW18598   6.376   5.243   3.802
 5900SOL    HW118599   6.282   5.213   3.782
 5900SOL    HW218600   6.440   5.170   3.779
 5901SOL     OW18601   2.450   1.749   6.876
 5901SOL    HW118602   2.405   1.834   6.902
 5901SOL    HW218603   2.473   1.752   6.778
 5902SOL     OW18604   6.073   1.864   5.075
 5902SOL    HW118605   6.048   1.934   5.143
 5902SOL    HW218606   6.028   1.885   4.988
 5903SOL     OW18607   4.725   4.248   6.961
 5903SOL    HW118608   4.774   4.324   7.005
 5903SOL    HW218609   4.750   4.162   7.004
 5904SOL     OW18610   0.819   4.480   1.638
 5904SOL    HW118611   0.723   4.505   1.624
 5904SOL    HW218612   0.841   4.490   1.735
 5905SOL     OW18613   6.444   0.125   3.669
 5905SOL    HW118614   6.463   0.124   3.571
 5905SOL    HW218615   6.403   0.037   3.696
 5906SOL     OW18616   3.981   2.144   4.065
 5906SOL    HW118617   4.058   2.155   4.002
 5906SOL    HW218618   4.008   2.082   4.139
 5907SOL     OW18619   1.341   4.796   0.867
 5907SOL    HW118620   1.355   4.895   0.868
 5907SOL    HW218621   1.252   4.775   0.825
 5908SOL     OW18622   0.098   3.080   6.804
 5908SOL    HW118623   0.176   3.036   6.758
 5908SOL    HW218624   0.122   3.175   6.827
 5909SOL     OW18625   7.005   5.165   0.827
 5909SOL    HW118626   6.992   5.263   0.811
 5909SOL    HW218627   6.979   5.115   0.744
 5910SOL     OW18628   0.706   4.331   3.348
 5910SOL    HW118629   0.760   4.415   3.343
 5910SOL    HW218630   0.722   4.287   3.437
 5911SOL     OW18631   6.994   5.362   6.499
 5911SOL    HW118632   0.025   5.332   6.424
 5911SOL    HW218633   6.907   5.397   6.463
 5912SOL     OW18634   5.776   1.683   6.474
 5912SOL    HW118635   5.710   1.610   6.455
 5912SOL    HW218636   5.756   1.724   6.563
 5913SOL     OW18637   5.204   2.980   6.367
 5913SOL    HW118638   5.209   3.066   6.419
 5913SOL    HW218639   5.233   2.996   6.273
 5914SOL     OW18640   1.232   5.608   5.853
 5914SOL    HW118641   1.331   5.601   5.856
 5914SOL    HW218642   1.201   5.607   5.758
 5915SOL     OW18643   4.405   5.536   1.289
 5915SOL    HW118644   4.423   5.629   1.322
 5915SOL    HW218645   4.308   5.529   1.263
 5916SOL     OW18646   5.159   6.861   4.029
 5916SOL    HW118647   5.132   6.798   4.102
 5916SOL    HW218648   5.077   6.893   3.981
 5917SOL     OW18649   3.129   3.432   3.964
 5917SOL    HW118650   3.214   3.475   3.934
 5917SOL    HW218651   3.114   3.348   3.912
 5918SOL     OW18652   1.780   3.650   6.023
 5918SOL    HW118653   1.728   3.683   6.102
 5918SOL    HW218654   1.727   3.664   5.940
 5919SOL     OW18655   3.603   3.502   2.727
 5919SOL    HW118656   3.665   3.571   2.766
 5919SOL    HW218657   3.626   3.488   2.631
 5920SOL     OW18658   4.478   0.361   6.615
 5920SOL    HW118659   4.535   0.435   6.652
 5920SOL    HW218660   4.401   0.344   6.677
 5921SOL     OW18661   3.682   5.063   6.609
 5921SOL    HW118662   3.617   5.036   6.538
 5921SOL    HW218663   3.666   5.158   6.634
 5922SOL     OW18664   5.379   5.090   3.149
 5922SOL    HW118665   5.469   5.107   3.189
 5922SOL    HW218666   5.363   5.155   3.074
 5923SOL     OW18667   6.307   1.622   1.295
 5923SOL    HW118668   6.337   1.714   1.270
 5923SOL    HW218669   6.327   1.559   1.219
 5924SOL     OW18670   6.493   0.348   2.794
 5924SOL    HW118671   6.449   0.411   2.730
 5924SOL    HW218672   6.427   0.280   2.824
 5925SOL     OW18673   3.918   6.864   2.191
 5925SOL    HW118674   3.923   6.818   2.279
 5925SOL    HW218675   3.933   6.962   2.203
 5926SOL     OW18676   3.858   5.755   1.453
 5926SOL    HW118677   3.793   5.682   1.475
 5926SOL    HW218678   3.855   5.825   1.525
 5927SOL     OW18679   1.381   4.078   2.489
 5927SOL    HW118680   1.343   4.090   2.398
 5927SOL    HW218681   1.308   4.054   2.553
 5928SOL     OW18682   3.929   0.520   0.845
 5928SOL    HW118683   3.881   0.599   0.883
 5928SOL    HW218684   3.888   0.436   0.881
 5929SOL     OW18685   0.219   6.950   6.875
 5929SOL    HW118686   0.202   6.872   6.935
 5929SOL    HW218687   0.274   6.921   6.797
 5930SOL     OW18688   6.596   3.579   3.525
 5930SOL    HW118689   6.604   3.498   3.467
 5930SOL    HW218690   6.687   3.617   3.541
 5931SOL     OW18691   6.975   5.303   2.734
 5931SOL    HW118692   6.971   5.218   2.680
 5931SOL    HW218693   0.010   5.367   2.690
 5932SOL     OW18694   2.994   0.374   0.607
 5932SOL    HW118695   3.064   0.305   0.622
 5932SOL    HW218696   2.904   0.333   0.623
 5933SOL     OW18697   6.590   6.340   2.921
 5933SOL    HW118698   6.609   6.339   3.019
 5933SOL    HW218699   6.504   6.389   2.904
 5934SOL     OW18700   3.798   3.024   4.494
 5934SOL    HW118701   3.811   2.980   4.583
 5934SOL    HW218702   3.882   3.072   4.468
 5935SOL     OW18703   5.426   5.122   6.660
 5935SOL    HW118704   5.426   5.045   6.597
 5935SOL    HW218705   5.445   5.090   6.753
 5936SOL     OW18706   3.864   2.783   1.176
 5936SOL    HW118707   3.858   2.837   1.092
 5936SOL    HW218708   3.810   2.827   1.247
 5937SOL     OW18709   0.095   4.332   2.316
 5937SOL    HW118710   0.085   4.316   2.415
 5937SOL    HW218711   0.151   4.260   2.276
 5938SOL     OW18712   7.012   5.781   2.715
 5938SOL    HW118713   0.004   5.790   2.617
 5938SOL    HW218714   0.070   5.782   2.766
 5939SOL     OW18715   3.176   0.057   2.801
 5939SOL    HW118716   3.173   6.999   2.747
 5939SOL    HW218717   3.088   0.104   2.795
 5940SOL     OW18718   5.216   5.548   1.342
 5940SOL    HW118719   5.243   5.642   1.319
 5940SOL    HW218720   5.117   5.544   1.356
 5941SOL     OW18721   6.079   2.762   2.144
 5941SOL    HW118722   5.983   2.787   2.156
 5941SOL    HW218723   6.135   2.844   2.146
 5942SOL     OW18724   4.918   3.405   6.910
 5942SOL    HW118725   4.901   3.500   6.937
 5942SOL    HW218726   4.832   3.353   6.914
 5943SOL     OW18727   3.202   4.662   6.484
 5943SOL    HW118728   3.151   4.642   6.568
 5943SOL    HW218729   3.281   4.719   6.505
 5944SOL     OW18730   6.270   3.037   1.389
 5944SOL    HW118731   6.253   3.129   1.356
 5944SOL    HW218732   6.255   2.971   1.315
 5945SOL     OW18733   6.255   5.266   4.563
 5945SOL    HW118734   6.189   5.204   4.603
 5945SOL    HW218735   6.224   5.361   4.576
 5946SOL     OW18736   3.901   3.401   6.164
 5946SOL    HW118737   3.809   3.382   6.198
 5946SOL    HW218738   3.951   3.455   6.232
 5947SOL     OW18739   3.441   3.779   2.206
 5947SOL    HW118740   3.418   3.701   2.264
 5947SOL    HW218741   3.380   3.779   2.126
 5948SOL     OW18742   4.481   5.273   3.738
 5948SOL    HW118743   4.474   5.364   3.699
 5948SOL    HW218744   4.419   5.211   3.690
 5949SOL     OW18745   5.161   4.008   1.907
 5949SOL    HW118746   5.063   4.022   1.898
 5949SOL    HW218747   5.202   4.084   1.957
 5950SOL     OW18748   5.036   1.496   5.691
 5950SOL    HW118749   5.098   1.572   5.711
 5950SOL    HW218750   5.016   1.448   5.776
 5951SOL     OW18751   1.502   6.052   3.967
 5951SOL    HW118752   1.451   5.969   3.945
 5951SOL    HW218753   1.444   6.132   3.950
 5952SOL     OW18754   5.575   4.935   3.475
 5952SOL    HW118755   5.612   4.984   3.396
 5952SOL    HW218756   5.587   4.990   3.557
 5953SOL     OW18757   6.375   2.772   5.427
 5953SOL    HW118758   6.473   2.770   5.444
 5953SOL    HW218759   6.325   2.740   5.508
 5954SOL     OW18760   6.934   4.150   5.885
 5954SOL    HW118761   0.003   4.133   5.862
 5954SOL    HW218762   6.885   4.177   5.802
 5955SOL     OW18763   4.526   6.050   2.584
 5955SOL    HW118764   4.473   6.015   2.661
 5955SOL    HW218765   4.583   5.977   2.547
 5956SOL     OW18766   4.315   1.376   4.863
 5956SOL    HW118767   4.355   1.297   4.817
 5956SOL    HW218768   4.378   1.408   4.934
 5957SOL     OW18769   4.395   0.686   5.340
 5957SOL    HW118770   4.315   0.713   5.393
 5957SOL    HW218771   4.370   0.614   5.276
 5958SOL     OW18772   5.941   6.788   2.526
 5958SOL    HW118773   6.040   6.793   2.534
 5958SOL    HW218774   5.899   6.834   2.604
 5959SOL     OW18775   4.224   2.783   5.337
 5959SOL    HW118776   4.275   2.771   5.422
 5959SOL    HW218777   4.220   2.697   5.288
 5960SOL     OW18778   3.756   5.347   4.790
 5960SOL    HW118779   3.694   5.304   4.725
 5960SOL    HW218780   3.843   5.299   4.790
 5961SOL     OW18781   5.097   1.620   2.649
 5961SOL    HW118782   5.136   1.694   2.595
 5961SOL    HW218783   5.131   1.532   2.615
 5962SOL     OW18784   5.922   6.243   0.437
 5962SOL    HW118785   6.001   6.202   0.483
 5962SOL    HW218786   5.849   6.259   0.502
 5963SOL     OW18787   3.742   3.843   5.307
 5963SOL    HW118788   3.736   3.925   5.250
 5963SOL    HW218789   3.836   3.809   5.307
 5964SOL     OW18790   0.550   5.618   5.445
 5964SOL    HW118791   0.564   5.671   5.361
 5964SOL    HW218792   0.597   5.662   5.521
 5965SOL     OW18793   1.765   2.319   6.515
 5965SOL    HW118794   1.688   2.272   6.557
 5965SOL    HW218795   1.747   2.332   6.417
 5966SOL     OW18796   2.621   5.836   5.390
 5966SOL    HW118797   2.608   5.738   5.398
 5966SOL    HW218798   2.658   5.858   5.300
 5967SOL     OW18799   4.246   6.734   6.602
 5967SOL    HW118800   4.281   6.787   6.678
 5967SOL    HW218801   4.271   6.778   6.515
 5968SOL     OW18802   5.179   1.884   1.128
 5968SOL    HW118803   5.198   1.805   1.187
 5968SOL    HW218804   5.091   1.925   1.154
 5969SOL     OW18805   6.954   6.675   6.277
 5969SOL    HW118806   6.978   6.763   6.236
 5969SOL    HW218807   6.997   6.601   6.225
 5970SOL     OW18808   0.367   4.306   2.761
 5970SOL    HW118809   0.289   4.277   2.816
 5970SOL    HW218810   0.382   4.240   2.687
 5971SOL     OW18811   0.502   1.316   2.646
 5971SOL    HW118812   0.602   1.313   2.644
 5971SOL    HW218813   0.466   1.223   2.651
 5972SOL     OW18814   5.768   5.275   6.064
 5972SOL    HW118815   5.687   5.302   6.012
 5972SOL    HW218816   5.821   5.357   6.087
 5973SOL     OW18817   1.539   3.749   2.869
 5973SOL    HW118818   1.520   3.788   2.779
 5973SOL    HW218819   1.635   3.721   2.874
 5974SOL     OW18820   5.380   5.207   6.223
 5974SOL    HW118821   5.323   5.129   6.197
 5974SOL    HW218822   5.476   5.182   6.213
 5975SOL     OW18823   4.488   0.538   0.324
 5975SOL    HW118824   4.571   0.482   0.317
 5975SOL    HW218825   4.440   0.516   0.408
 5976SOL     OW18826   3.780   2.458   5.724
 5976SOL    HW118827   3.841   2.439   5.647
 5976SOL    HW218828   3.732   2.374   5.750
 5977SOL     OW18829   1.790   5.589   6.778
 5977SOL    HW118830   1.810   5.686   6.767
 5977SOL    HW218831   1.756   5.552   6.691
 5978SOL     OW18832   4.541   5.638   2.158
 5978SOL    HW118833   4.483   5.558   2.141
 5978SOL    HW218834   4.490   5.704   2.214
 5979SOL     OW18835   5.726   1.099   2.992
 5979SOL    HW118836   5.819   1.067   3.011
 5979SOL    HW218837   5.731   1.182   2.936
 5980SOL     OW18838   4.136   4.017   1.117
 5980SOL    HW118839   4.114   3.967   1.034
 5980SOL    HW218840   4.208   4.084   1.097
 5981SOL     OW18841   5.367   2.431   1.428
 5981SOL    HW118842   5.282   2.481   1.413
 5981SOL    HW218843   5.445   2.493   1.413
 5982SOL     OW18844   6.366   3.249   2.374
 5982SOL    HW118845   6.336   3.306   2.450
 5982SOL    HW218846   6.459   3.275   2.348
 5983SOL     OW18847   1.074   1.699   4.067
 5983SOL    HW118848   1.169   1.679   4.042
 5983SOL    HW218849   1.060   1.798   4.067
 5984SOL     OW18850   6.742   5.876   3.630
 5984SOL    HW118851   6.802   5.797   3.621
 5984SOL    HW218852   6.662   5.864   3.570
 5985SOL     OW18853   0.065   2.763   4.285
 5985SOL    HW118854   7.014   2.772   4.223
 5985SOL    HW218855   0.109   2.674   4.269
 5986SOL     OW18856   2.960   3.648   4.021
 5986SOL    HW118857   2.886   3.621   4.081
 5986SOL    HW218858   3.025   3.573   4.011
 5987SOL     OW18859   5.474   0.073   3.741
 5987SOL    HW118860   5.444   0.008   3.671
 5987SOL    HW218861   5.459   0.034   3.832
 5988SOL     OW18862   4.657   0.008   5.492
 5988SOL    HW118863   4.638   6.942   5.526
 5988SOL    HW218864   4.755   0.023   5.491
 5989SOL     OW18865   1.986   6.302   6.262
 5989SOL    HW118866   1.905   6.361   6.265
 5989SOL    HW218867   2.058   6.343   6.318
 5990SOL     OW18868   3.472   3.985   7.005
 5990SOL    HW118869   3.518   3.900   6.979
 5990SOL    HW218870   3.529   4.063   6.981
 5991SOL     OW18871   3.032   5.585   0.326
 5991SOL    HW118872   3.039   5.509   0.390
 5991SOL    HW218873   3.124   5.621   0.307
 5992SOL     OW18874   3.381   0.522   2.466
 5992SOL    HW118875   3.317   0.449   2.491
 5992SOL    HW218876   3.426   0.556   2.549
 5993SOL     OW18877   3.290   5.704   6.333
 5993SOL    HW118878   3.345   5.752   6.402
 5993SOL    HW218879   3.207   5.668   6.375
 5994SOL     OW18880   5.672   2.808   2.542
 5994SOL    HW118881   5.598   2.824   2.606
 5994SOL    HW218882   5.641   2.745   2.470
 5995SOL     OW18883   4.870   3.687   2.374
 5995SOL    HW118884   4.861   3.770   2.320
 5995SOL    HW218885   4.860   3.607   2.315
 5996SOL     OW18886   1.207   6.513   0.791
 5996SOL    HW118887   1.154   6.435   0.823
 5996SOL    HW218888   1.296   6.482   0.758
 5997SOL     OW18889   0.258   5.842   2.507
 5997SOL    HW118890   0.254   5.895   2.592
 5997SOL    HW218891   0.268   5.905   2.429
 5998SOL     OW18892   6.048   1.056   3.592
 5998SOL    HW118893   6.059   0.959   3.570
 5998SOL    HW218894   5.991   1.099   3.522
 5999SOL     OW18895   1.151   1.271   2.645
 5999SOL    HW118896   1.083   1.259   2.573
 5999SOL    HW218897   1.189   1.182   2.671
 6000SOL     OW18898   4.236   6.954   0.685
 6000SOL    HW118899   4.192   6.918   0.768
 6000SOL    HW218900   4.215   6.896   0.607
 6001SOL     OW18901   0.856   4.101   0.265
 6001SOL    HW118902   0.822   4.081   0.173
 6001SOL    HW218903   0.780   4.101   0.330
 6002SOL     OW18904   5.602   0.240   0.370
 6002SOL    HW118905   5.645   0.232   0.280
 6002SOL    HW218906   5.617   0.332   0.405
 6003SOL     OW18907   5.928   2.805   5.163
 6003SOL    HW118908   6.025   2.827   5.157
 6003SOL    HW218909   5.889   2.796   5.071
 6004SOL     OW18910   6.784   3.827   2.650
 6004SOL    HW118911   6.795   3.755   2.581
 6004SOL    HW218912   6.688   3.856   2.653
 6005SOL     OW18913   4.759   5.812   4.384
 6005SOL    HW118914   4.728   5.718   4.367
 6005SOL    HW218915   4.684   5.875   4.368
 6006SOL     OW18916   2.645   1.187   5.361
 6006SOL    HW118917   2.588   1.129   5.420
 6006SOL    HW218918   2.650   1.279   5.401
 6007SOL     OW18919   4.664   3.790   5.755
 6007SOL    HW118920   4.603   3.740   5.693
 6007SOL    HW218921   4.670   3.742   5.842
 6008SOL     OW18922   2.641   4.458   5.571
 6008SOL    HW118923   2.671   4.410   5.489
 6008SOL    HW218924   2.544   4.441   5.586
 6009SOL     OW18925   2.570   0.473   2.999
 6009SOL    HW118926   2.590   0.551   2.940
 6009SOL    HW218927   2.530   0.506   3.085
 6010SOL     OW18928   1.399   4.554   4.239
 6010SOL    HW118929   1.413   4.652   4.256
 6010SOL    HW218930   1.310   4.526   4.274
 6011SOL     OW18931   4.704   2.658   2.757
 6011SOL    HW118932   4.698   2.626   2.851
 6011SOL    HW218933   4.697   2.757   2.755
 6012SOL     OW18934   5.555   1.012   0.143
 6012SOL    HW118935   5.645   0.998   0.184
 6012SOL    HW218936   5.486   0.962   0.195
 6013SOL     OW18937   5.009   1.804   2.387
 6013SOL    HW118938   4.944   1.871   2.424
 6013SOL    HW218939   4.964   1.716   2.375
 6014SOL     OW18940   3.883   3.242   1.934
 6014SOL    HW118941   3.978   3.270   1.921
 6014SOL    HW218942   3.823   3.295   1.873
 6015SOL     OW18943   6.065   4.012   3.991
 6015SOL    HW118944   6.028   3.939   3.934
 6015SOL    HW218945   6.109   3.972   4.072
 6016SOL     OW18946   6.537   1.966   5.949
 6016SOL    HW118947   6.635   1.985   5.946
 6016SOL    HW218948   6.515   1.894   5.882
 6017SOL     OW18949   6.764   4.073   3.279
 6017SOL    HW118950   6.788   4.120   3.364
 6017SOL    HW218951   6.686   4.013   3.294
 6018SOL     OW18952   3.877   0.473   6.573
 6018SOL    HW118953   3.877   0.469   6.673
 6018SOL    HW218954   3.784   0.463   6.539
 6019SOL     OW18955   6.842   1.459   4.369
 6019SOL    HW118956   6.883   1.479   4.459
 6019SOL    HW218957   6.764   1.399   4.381
 6020SOL     OW18958   0.816   4.734   0.646
 6020SOL    HW118959   0.912   4.717   0.621
 6020SOL    HW218960   0.812   4.798   0.722
 6021SOL     OW18961   4.772   0.440   2.886
 6021SOL    HW118962   4.752   0.441   2.983
 6021SOL    HW218963   4.688   0.422   2.834
 6022SOL     OW18964   5.146   2.441   4.169
 6022SOL    HW118965   5.051   2.464   4.148
 6022SOL    HW218966   5.152   2.347   4.201
 6023SOL     OW18967   5.784   0.633   2.194
 6023SOL    HW118968   5.820   0.623   2.101
 6023SOL    HW218969   5.858   0.617   2.260
 6024SOL     OW18970   1.102   4.394   3.285
 6024SOL    HW118971   1.088   4.345   3.199
 6024SOL    HW218972   1.030   4.462   3.297
 6025SOL     OW18973   3.893   1.764   2.815
 6025SOL    HW118974   3.838   1.831   2.866
 6025SOL    HW218975   3.913   1.686   2.875
 6026SOL     OW18976   0.539   4.319   5.638
 6026SOL    HW118977   0.452   4.272   5.629
 6026SOL    HW218978   0.545   4.392   5.569
 6027SOL     OW18979   1.056   3.682   6.186
 6027SOL    HW118980   1.100   3.753   6.241
 6027SOL    HW218981   1.038   3.718   6.094
 6028SOL     OW18982   6.637   5.098   0.153
 6028SOL    HW118983   6.727   5.073   0.117
 6028SOL    HW218984   6.647   5.171   0.221
 6029SOL     OW18985   2.280   6.177   4.810
 6029SOL    HW118986   2.204   6.239   4.829
 6029SOL    HW218987   2.347   6.222   4.751
 6030SOL     OW18988   3.864   5.733   2.567
 6030SOL    HW118989   3.830   5.640   2.551
 6030SOL    HW218990   3.957   5.741   2.533
 6031SOL     OW18991   2.739   5.462   3.497
 6031SOL    HW118992   2.672   5.396   3.461
 6031SOL    HW218993   2.814   5.471   3.432
 6032SOL     OW18994   2.123   4.592   2.849
 6032SOL    HW118995   2.163   4.504   2.874
 6032SOL    HW218996   2.042   4.577   2.792
 6033SOL     OW18997   3.023   2.212   3.437
 6033SOL    HW118998   2.970   2.240   3.357
 6033SOL    HW218999   2.985   2.255   3.519
 6034SOL     OW19000   1.219   5.595   4.651
 6034SOL    HW119001   1.249   5.690   4.662
 6034SOL    HW219002   1.292   5.533   4.679
 6035SOL     OW19003   0.242   1.132   2.736
 6035SOL    HW119004   0.231   1.172   2.645
 6035SOL    HW219005   0.225   1.201   2.806
 6036SOL     OW19006   5.032   5.666   3.479
 6036SOL    HW119007   4.939   5.648   3.446
 6036SOL    HW219008   5.079   5.579   3.496
 6037SOL     OW19009   4.250   5.412   0.100
 6037SOL    HW119010   4.247   5.312   0.095
 6037SOL    HW219011   4.175   5.450   0.045
 6038SOL     OW19012   1.523   2.131   5.673
 6038SOL    HW119013   1.516   2.153   5.575
 6038SOL    HW219014   1.588   2.057   5.686
 6039SOL     OW19015   2.992   3.345   2.325
 6039SOL    HW119016   2.917   3.400   2.362
 6039SOL    HW219017   3.017   3.275   2.392
 6040SOL     OW19018   0.828   1.796   0.026
 6040SOL    HW119019   0.733   1.825   0.014
 6040SOL    HW219020   0.852   1.730   6.981
 6041SOL     OW19021   2.997   0.527   5.132
 6041SOL    HW119022   3.026   0.472   5.210
 6041SOL    HW219023   3.022   0.481   5.047
 6042SOL     OW19024   4.777   6.192   2.314
 6042SOL    HW119025   4.795   6.094   2.309
 6042SOL    HW219026   4.679   6.208   2.322
 6043SOL     OW19027   1.144   4.250   5.074
 6043SOL    HW119028   1.128   4.302   5.157
 6043SOL    HW219029   1.186   4.162   5.097
 6044SOL     OW19030   1.197   2.066   1.341
 6044SOL    HW119031   1.214   2.006   1.419
 6044SOL    HW219032   1.202   2.162   1.371
 6045SOL     OW19033   5.697   4.686   2.163
 6045SOL    HW119034   5.684   4.589   2.185
 6045SOL    HW219035   5.609   4.725   2.134
 6046SOL     OW19036   3.912   1.902   0.348
 6046SOL    HW119037   3.830   1.949   0.382
 6046SOL    HW219038   3.902   1.883   0.251
 6047SOL     OW19039   4.803   2.114   2.080
 6047SOL    HW119040   4.837   2.165   2.159
 6047SOL    HW219041   4.797   2.017   2.104
 6048SOL     OW19042   4.515   5.363   4.979
 6048SOL    HW119043   4.511   5.456   5.015
 6048SOL    HW219044   4.591   5.314   5.020
 6049SOL     OW19045   5.130   3.044   6.768
 6049SOL    HW119046   5.206   2.982   6.748
 6049SOL    HW219047   5.079   3.063   6.684
 6050SOL     OW19048   3.716   5.949   5.208
 6050SOL    HW119049   3.741   6.001   5.290
 6050SOL    HW219050   3.621   5.919   5.215
 6051SOL     OW19051   2.853   0.271   4.011
 6051SOL    HW119052   2.845   0.297   3.915
 6051SOL    HW219053   2.821   0.346   4.069
 6052SOL     OW19054   6.653   0.510   0.578
 6052SOL    HW119055   6.751   0.514   0.563
 6052SOL    HW219056   6.634   0.509   0.677
 6053SOL     OW19057   3.846   1.683   6.645
 6053SOL    HW119058   3.867   1.639   6.732
 6053SOL    HW219059   3.854   1.616   6.571
 6054SOL     OW19060   2.127   3.627   0.201
 6054SOL    HW119061   2.204   3.608   0.261
 6054SOL    HW219062   2.043   3.589   0.241
 6055SOL     OW19063   4.542   0.395   5.087
 6055SOL    HW119064   4.473   0.333   5.049
 6055SOL    HW219065   4.621   0.399   5.027
 6056SOL     OW19066   5.044   3.061   4.612
 6056SOL    HW119067   5.051   3.160   4.622
 6056SOL    HW219068   5.134   3.019   4.623
 6057SOL     OW19069   5.758   3.274   3.921
 6057SOL    HW119070   5.714   3.203   3.977
 6057SOL    HW219071   5.829   3.320   3.975
 6058SOL     OW19072   5.228   2.808   1.744
 6058SOL    HW119073   5.191   2.755   1.821
 6058SOL    HW219074   5.273   2.891   1.779
 6059SOL     OW19075   5.161   4.604   4.741
 6059SOL    HW119076   5.217   4.583   4.661
 6059SOL    HW219077   5.065   4.595   4.718
 6060SOL     OW19078   3.314   4.446   6.889
 6060SOL    HW119079   3.378   4.386   6.841
 6060SOL    HW219080   3.306   4.418   6.985
 6061SOL     OW19081   4.118   2.227   1.002
 6061SOL    HW119082   4.165   2.141   0.982
 6061SOL    HW219083   4.111   2.282   0.919
 6062SOL     OW19084   2.812   1.298   5.197
 6062SOL    HW119085   2.755   1.379   5.183
 6062SOL    HW219086   2.763   1.231   5.252
 6063SOL     OW19087   3.891   1.789   5.906
 6063SOL    HW119088   3.835   1.868   5.933
 6063SOL    HW219089   3.847   1.705   5.938
 6064SOL     OW19090   2.130   5.861   0.890
 6064SOL    HW119091   2.052   5.797   0.887
 6064SOL    HW219092   2.130   5.916   0.807
 6065SOL     OW19093   6.695   7.015   1.744
 6065SOL    HW119094   6.760   7.024   1.819
 6065SOL    HW219095   6.609   0.034   1.768
 6066SOL     OW19096   4.682   1.086   6.027
 6066SOL    HW119097   4.697   1.074   5.929
 6066SOL    HW219098   4.598   1.039   6.054
 6067SOL     OW19099   5.659   1.097   5.532
 6067SOL    HW119100   5.691   1.006   5.558
 6067SOL    HW219101   5.673   1.110   5.434
 6068SOL     OW19102   5.325   3.619   4.424
 6068SOL    HW119103   5.424   3.636   4.420
 6068SOL    HW219104   5.293   3.634   4.517
 6069SOL     OW19105   6.792   2.640   5.496
 6069SOL    HW119106   6.729   2.713   5.471
 6069SOL    HW219107   6.875   2.646   5.441
 6070SOL     OW19108   3.015   2.705   0.245
 6070SOL    HW119109   2.981   2.612   0.229
 6070SOL    HW219110   3.067   2.735   0.165
 6071SOL     OW19111   5.280   5.465   4.061
 6071SOL    HW119112   5.214   5.483   3.987
 6071SOL    HW219113   5.367   5.510   4.040
 6072SOL     OW19114   0.181   0.499   1.965
 6072SOL    HW119115   0.239   0.418   1.955
 6072SOL    HW219116   0.103   0.478   2.024
 6073SOL     OW19117   5.707   3.785   6.941
 6073SOL    HW119118   5.677   3.879   6.961
 6073SOL    HW219119   5.627   3.726   6.932
 6074SOL     OW19120   1.647   6.741   4.036
 6074SOL    HW119121   1.719   6.811   4.033
 6074SOL    HW219122   1.667   6.670   3.968
 6075SOL     OW19123   6.654   1.469   6.478
 6075SOL    HW119124   6.642   1.554   6.529
 6075SOL    HW219125   6.741   1.426   6.503
 6076SOL     OW19126   2.468   5.427   4.526
 6076SOL    HW119127   2.498   5.477   4.608
 6076SOL    HW219128   2.410   5.486   4.470
 6077SOL     OW19129   5.981   5.988   1.136
 6077SOL    HW119130   5.915   6.050   1.094
 6077SOL    HW219131   6.072   6.004   1.097
 6078SOL     OW19132   4.174   4.669   0.415
 6078SOL    HW119133   4.133   4.678   0.324
 6078SOL    HW219134   4.172   4.758   0.460
 6079SOL     OW19135   3.912   3.629   5.966
 6079SOL    HW119136   4.004   3.632   5.928
 6079SOL    HW219137   3.906   3.556   6.034
 6080SOL     OW19138   6.988   0.696   1.180
 6080SOL    HW119139   6.929   0.699   1.100
 6080SOL    HW219140   0.056   0.701   1.151
 6081SOL     OW19141   6.692   3.525   6.265
 6081SOL    HW119142   6.725   3.448   6.319
 6081SOL    HW219143   6.764   3.555   6.202
 6082SOL     OW19144   2.293   1.923   4.184
 6082SOL    HW119145   2.293   1.831   4.145
 6082SOL    HW219146   2.219   1.977   4.143
 6083SOL     OW19147   6.894   5.058   0.036
 6083SOL    HW119148   6.993   5.071   0.044
 6083SOL    HW219149   6.862   5.093   6.975
 6084SOL     OW19150   0.985   0.071   3.941
 6084SOL    HW119151   1.015   0.117   4.024
 6084SOL    HW219152   1.007   7.001   3.948
 6085SOL     OW19153   0.746   4.500   0.506
 6085SOL    HW119154   0.707   4.434   0.570
 6085SOL    HW219155   0.764   4.586   0.555
 6086SOL     OW19156   3.980   0.294   6.208
 6086SOL    HW119157   3.944   0.387   6.219
 6086SOL    HW219158   4.033   0.289   6.123
 6087SOL     OW19159   3.631   5.328   0.794
 6087SOL    HW119160   3.674   5.333   0.884
 6087SOL    HW219161   3.675   5.256   0.740
 6088SOL     OW19162   5.949   5.819   3.887
 6088SOL    HW119163   5.988   5.787   3.801
 6088SOL    HW219164   5.881   5.753   3.919
 6089SOL     OW19165   5.476   3.347   0.651
 6089SOL    HW119166   5.434   3.341   0.561
 6089SOL    HW219167   5.513   3.257   0.677
 6090SOL     OW19168   2.328   5.958   5.962
 6090SOL    HW119169   2.410   5.976   6.016
 6090SOL    HW219170   2.294   6.045   5.925
 6091SOL     OW19171   1.766   1.434   0.854
 6091SOL    HW119172   1.720   1.498   0.792
 6091SOL    HW219173   1.702   1.405   0.925
 6092SOL     OW19174   3.942   6.971   2.865
 6092SOL    HW119175   3.900   6.956   2.954
 6092SOL    HW219176   3.905   0.027   2.824
 6093SOL     OW19177   1.704   3.675   2.484
 6093SOL    HW119178   1.739   3.663   2.391
 6093SOL    HW219179   1.625   3.615   2.498
 6094SOL     OW19180   2.992   6.831   1.402
 6094SOL    HW119181   2.996   6.929   1.383
 6094SOL    HW219182   2.897   6.804   1.418
 6095SOL     OW19183   4.505   3.875   0.298
 6095SOL    HW119184   4.425   3.885   0.356
 6095SOL    HW219185   4.532   3.778   0.296
 6096SOL     OW19186   0.013   6.911   3.054
 6096SOL    HW119187   6.968   6.917   3.124
 6096SOL    HW219188   0.099   6.946   3.091
 6097SOL     OW19189   2.606   0.043   2.607
 6097SOL    HW119190   2.518   0.023   2.650
 6097SOL    HW219191   2.591   0.094   2.522
 6098SOL     OW19192   1.660   2.791   5.569
 6098SOL    HW119193   1.635   2.789   5.666
 6098SOL    HW219194   1.758   2.806   5.560
 6099SOL     OW19195   6.529   6.629   0.107
 6099SOL    HW119196   6.547   6.670   0.196
 6099SOL    HW219197   6.501   6.701   0.043
 6100SOL     OW19198   4.739   4.756   0.072
 6100SOL    HW119199   4.664   4.797   0.021
 6100SOL    HW219200   4.702   4.707   0.151
 6101SOL     OW19201   6.216   2.565   4.753
 6101SOL    HW119202   6.262   2.561   4.842
 6101SOL    HW219203   6.231   2.480   4.704
 6102SOL     OW19204   3.656   6.733   3.590
 6102SOL    HW119205   3.675   6.768   3.498
 6102SOL    HW219206   3.564   6.694   3.592
 6103SOL     OW19207   6.703   2.622   2.434
 6103SOL    HW119208   6.748   2.559   2.497
 6103SOL    HW219209   6.631   2.573   2.385
 6104SOL     OW19210   6.205   0.518   5.465
 6104SOL    HW119211   6.184   0.532   5.368
 6104SOL    HW219212   6.213   0.606   5.511
 6105SOL     OW19213   2.994   6.834   5.739
 6105SOL    HW119214   3.042   6.753   5.705
 6105SOL    HW219215   2.968   6.819   5.834
 6106SOL     OW19216   2.924   4.282   5.969
 6106SOL    HW119217   2.926   4.306   5.872
 6106SOL    HW219218   2.926   4.366   6.024
 6107SOL     OW19219   2.719   5.177   4.751
 6107SOL    HW119220   2.704   5.265   4.797
 6107SOL    HW219221   2.632   5.128   4.744
 6108SOL     OW19222   1.231   2.608   1.855
 6108SOL    HW119223   1.140   2.648   1.850
 6108SOL    HW219224   1.267   2.619   1.947
 6109SOL     OW19225   5.524   2.916   5.314
 6109SOL    HW119226   5.457   2.968   5.366
 6109SOL    HW219227   5.479   2.871   5.237
 6110SOL     OW19228   4.202   4.046   0.260
 6110SOL    HW119229   4.227   3.993   0.341
 6110SOL    HW219230   4.142   4.121   0.287
 6111SOL     OW19231   2.344   4.277   2.249
 6111SOL    HW119232   2.298   4.219   2.182
 6111SOL    HW219233   2.338   4.235   2.340
 6112SOL     OW19234   3.661   0.366   2.378
 6112SOL    HW119235   3.571   0.323   2.378
 6112SOL    HW219236   3.660   0.444   2.315
 6113SOL     OW19237   2.364   1.216   6.461
 6113SOL    HW119238   2.431   1.175   6.524
 6113SOL    HW219239   2.365   1.315   6.472
 6114SOL     OW19240   5.267   5.834   1.311
 6114SOL    HW119241   5.177   5.858   1.273
 6114SOL    HW219242   5.279   5.883   1.398
 6115SOL     OW19243   5.405   6.962   4.002
 6115SOL    HW119244   5.309   6.938   4.011
 6115SOL    HW219245   5.458   6.881   3.977
 6116SOL     OW19246   3.365   0.760   6.891
 6116SOL    HW119247   3.341   0.773   6.987
 6116SOL    HW219248   3.315   0.682   6.854
 6117SOL     OW19249   1.509   1.366   5.190
 6117SOL    HW119250   1.600   1.378   5.230
 6117SOL    HW219251   1.494   1.269   5.171
 6118SOL     OW19252   6.263   1.206   2.289
 6118SOL    HW119253   6.235   1.120   2.247
 6118SOL    HW219254   6.222   1.214   2.380
 6119SOL     OW19255   1.597   3.429   6.108
 6119SOL    HW119256   1.657   3.379   6.170
 6119SOL    HW219257   1.564   3.367   6.037
 6120SOL     OW19258   3.824   6.726   4.695
 6120SOL    HW119259   3.738   6.697   4.736
 6120SOL    HW219260   3.813   6.729   4.595
 6121SOL     OW19261   1.353   3.324   5.770
 6121SOL    HW119262   1.386   3.230   5.781
 6121SOL    HW219263   1.303   3.352   5.852
 6122SOL     OW19264   4.354   6.098   0.464
 6122SOL    HW119265   4.411   6.095   0.547
 6122SOL    HW219266   4.410   6.077   0.384
 6123SOL     OW19267   6.544   6.998   6.526
 6123SOL    HW119268   6.564   6.918   6.470
 6123SOL    HW219269   6.626   0.028   6.534
 6124SOL     OW19270   2.114   0.211   5.820
 6124SOL    HW119271   2.200   0.159   5.821
 6124SOL    HW219272   2.120   0.284   5.752
 6125SOL     OW19273   1.292   5.860   0.401
 6125SOL    HW119274   1.283   5.761   0.390
 6125SOL    HW219275   1.239   5.906   0.329
 6126SOL     OW19276   0.763   0.328   4.061
 6126SOL    HW119277   0.847   0.324   4.114
 6126SOL    HW219278   0.783   0.310   3.965
 6127SOL     OW19279   4.127   6.728   1.154
 6127SOL    HW119280   4.212   6.684   1.124
 6127SOL    HW219281   4.050   6.666   1.140
 6128SOL     OW19282   6.405   3.230   0.088
 6128SOL    HW119283   6.407   3.240   7.015
 6128SOL    HW219284   6.442   3.140   0.113
 6129SOL     OW19285   6.589   3.349   3.373
 6129SOL    HW119286   6.680   3.311   3.358
 6129SOL    HW219287   6.523   3.303   3.313
 6130SOL     OW19288   5.964   2.233   3.850
 6130SOL    HW119289   5.911   2.217   3.934
 6130SOL    HW219290   5.989   2.145   3.809
 6131SOL     OW19291   6.935   1.212   5.196
 6131SOL    HW119292   6.920   1.259   5.109
 6131SOL    HW219293   6.895   1.121   5.192
 6132SOL     OW19294   4.951   1.877   0.595
 6132SOL    HW119295   4.921   1.851   0.503
 6132SOL    HW219296   5.049   1.860   0.604
 6133SOL     OW19297   0.969   2.931   2.089
 6133SOL    HW119298   0.982   2.963   1.995
 6133SOL    HW219299   1.026   2.851   2.106
 6134SOL     OW19300   3.828   4.306   6.506
 6134SOL    HW119301   3.733   4.334   6.520
 6134SOL    HW219302   3.831   4.209   6.483
 6135SOL     OW19303   0.575   0.361   2.040
 6135SOL    HW119304   0.530   0.394   1.956
 6135SOL    HW219305   0.509   0.363   2.115
 6136SOL     OW19306   0.991   2.712   2.358
 6136SOL    HW119307   1.018   2.621   2.327
 6136SOL    HW219308   1.049   2.781   2.314
 6137SOL     OW19309   6.510   2.182   4.173
 6137SOL    HW119310   6.485   2.231   4.256
 6137SOL    HW219311   6.457   2.217   4.096
 6138SOL     OW19312   4.195   7.002   2.932
 6138SOL    HW119313   4.115   6.954   2.895
 6138SOL    HW219314   4.273   6.940   2.933
 6139SOL     OW19315   1.282   0.455   6.575
 6139SOL    HW119316   1.357   0.498   6.525
 6139SOL    HW219317   1.308   0.444   6.671
 6140SOL     OW19318   0.569   6.614   1.599
 6140SOL    HW119319   0.567   6.684   1.670
 6140SOL    HW219320   0.662   6.606   1.562
 6141SOL     OW19321   6.925   6.088   5.923
 6141SOL    HW119322   6.854   6.020   5.944
 6141SOL    HW219323   6.881   6.175   5.899
 6142SOL     OW19324   1.260   5.962   0.655
 6142SOL    HW119325   1.259   5.934   0.558
 6142SOL    HW219326   1.180   5.923   0.701
 6143SOL     OW19327   6.676   3.715   1.246
 6143SOL    HW119328   6.640   3.770   1.321
 6143SOL    HW219329   6.648   3.754   1.158
 6144SOL     OW19330   5.294   4.613   3.347
 6144SOL    HW119331   5.274   4.533   3.405
 6144SOL    HW219332   5.391   4.612   3.321
 6145SOL     OW19333   4.837   5.234   3.307
 6145SOL    HW119334   4.818   5.136   3.291
 6145SOL    HW219335   4.799   5.261   3.395
 6146SOL     OW19336   2.463   6.033   3.379
 6146SOL    HW119337   2.411   6.118   3.389
 6146SOL    HW219338   2.556   6.046   3.415
 6147SOL     OW19339   1.555   3.384   4.644
 6147SOL    HW119340   1.502   3.467   4.625
 6147SOL    HW219341   1.566   3.374   4.743
 6148SOL     OW19342   6.009   6.994   3.669
 6148SOL    HW119343   5.919   7.007   3.711
 6148SOL    HW219344   6.071   6.952   3.736
 6149SOL     OW19345   2.999   5.502   1.254
 6149SOL    HW119346   2.903   5.477   1.267
 6149SOL    HW219347   3.039   5.526   1.343
 6150SOL     OW19348   4.570   4.824   0.545
 6150SOL    HW119349   4.583   4.834   0.446
 6150SOL    HW219350   4.653   4.851   0.592
 6151SOL     OW19351   5.866   4.292   6.266
 6151SOL    HW119352   5.947   4.234   6.275
 6151SOL    HW219353   5.854   4.346   6.349
 6152SOL     OW19354   6.058   5.064   4.599
 6152SOL    HW119355   5.973   5.116   4.595
 6152SOL    HW219356   6.063   5.003   4.520
 6153SOL     OW19357   5.561   4.237   1.157
 6153SOL    HW119358   5.502   4.246   1.076
 6153SOL    HW219359   5.511   4.189   1.229
 6154SOL     OW19360   6.427   2.364   2.647
 6154SOL    HW119361   6.366   2.331   2.720
 6154SOL    HW219362   6.469   2.450   2.676
 6155SOL     OW19363   1.843   2.041   4.578
 6155SOL    HW119364   1.744   2.041   4.562
 6155SOL    HW219365   1.888   1.994   4.502
 6156SOL     OW19366   3.955   4.603   1.721
 6156SOL    HW119367   3.990   4.511   1.706
 6156SOL    HW219368   3.867   4.613   1.674
 6157SOL     OW19369   1.204   0.469   4.332
 6157SOL    HW119370   1.196   0.525   4.250
 6157SOL    HW219371   1.153   0.512   4.406
 6158SOL     OW19372   4.041   1.424   6.331
 6158SOL    HW119373   3.947   1.414   6.362
 6158SOL    HW219374   4.049   1.505   6.273
 6159SOL     OW19375   4.737   2.696   2.312
 6159SOL    HW119376   4.761   2.655   2.400
 6159SOL    HW219377   4.738   2.626   2.241
 6160SOL     OW19378   4.677   1.358   6.644
 6160SOL    HW119379   4.639   1.350   6.736
 6160SOL    HW219380   4.750   1.427   6.644
 6161SOL     OW19381   4.629   1.272   4.717
 6161SOL    HW119382   4.580   1.340   4.662
 6161SOL    HW219383   4.563   1.222   4.773
 6162SOL     OW19384   0.944   6.410   3.819
 6162SOL    HW119385   0.976   6.497   3.855
 6162SOL    HW219386   0.988   6.391   3.731
 6163SOL     OW19387   6.496   6.292   0.874
 6163SOL    HW119388   6.446   6.361   0.821
 6163SOL    HW219389   6.594   6.306   0.863
 6164SOL     OW19390   3.509   2.862   1.955
 6164SOL    HW119391   3.568   2.781   1.951
 6164SOL    HW219392   3.417   2.837   1.926
 6165SOL     OW19393   4.867   1.131   6.783
 6165SOL    HW119394   4.892   1.214   6.833
 6165SOL    HW219395   4.872   1.149   6.685
 6166SOL     OW19396   5.088   1.061   5.932
 6166SOL    HW119397   5.027   1.008   5.874
 6166SOL    HW219398   5.174   1.011   5.944
 6167SOL     OW19399   0.798   5.251   3.261
 6167SOL    HW119400   0.888   5.211   3.279
 6167SOL    HW219401   0.800   5.349   3.283
 6168SOL     OW19402   0.883   3.792   1.686
 6168SOL    HW119403   0.790   3.827   1.693
 6168SOL    HW219404   0.924   3.825   1.601
 6169SOL     OW19405   1.611   2.424   0.754
 6169SOL    HW119406   1.586   2.404   0.659
 6169SOL    HW219407   1.590   2.345   0.811
 6170SOL     OW19408   1.055   4.340   5.586
 6170SOL    HW119409   1.107   4.255   5.572
 6170SOL    HW219410   1.118   4.418   5.583
 6171SOL     OW19411   0.480   2.931   1.075
 6171SOL    HW119412   0.458   2.937   0.978
 6171SOL    HW219413   0.423   2.860   1.117
 6172SOL     OW19414   2.242   3.015   2.295
 6172SOL    HW119415   2.290   2.937   2.334
 6172SOL    HW219416   2.262   3.021   2.197
 6173SOL     OW19417   0.122   5.775   1.748
 6173SOL    HW119418   0.044   5.718   1.724
 6173SOL    HW219419   0.196   5.762   1.682
 6174SOL     OW19420   4.912   5.732   3.909
 6174SOL    HW119421   4.921   5.774   3.818
 6174SOL    HW219422   4.817   5.735   3.938
 6175SOL     OW19423   4.629   0.416   3.625
 6175SOL    HW119424   4.703   0.354   3.602
 6175SOL    HW219425   4.632   0.438   3.723
 6176SOL     OW19426   5.023   4.260   5.342
 6176SOL    HW119427   4.934   4.220   5.365
 6176SOL    HW219428   5.074   4.278   5.426
 6177SOL     OW19429   5.799   0.851   1.062
 6177SOL    HW119430   5.894   0.836   1.090
 6177SOL    HW219431   5.774   0.947   1.079
 6178SOL     OW19432   4.507   4.484   2.480
 6178SOL    HW119433   4.435   4.535   2.432
 6178SOL    HW219434   4.542   4.411   2.421
 6179SOL     OW19435   6.072   4.907   3.868
 6179SOL    HW119436   5.994   4.931   3.925
 6179SOL    HW219437   6.105   4.816   3.894
 6180SOL     OW19438   2.849   4.331   1.155
 6180SOL    HW119439   2.754   4.312   1.131
 6180SOL    HW219440   2.900   4.245   1.161
 6181SOL     OW19441   4.785   6.418   0.126
 6181SOL    HW119442   4.810   6.459   0.038
 6181SOL    HW219443   4.835   6.333   0.139
 6182SOL     OW19444   5.528   3.458   5.685
 6182SOL    HW119445   5.460   3.523   5.719
 6182SOL    HW219446   5.483   3.374   5.654
 6183SOL     OW19447   1.258   2.809   3.795
 6183SOL    HW119448   1.168   2.852   3.798
 6183SOL    HW219449   1.298   2.809   3.886
 6184SOL     OW19450   2.474   6.308   6.438
 6184SOL    HW119451   2.554   6.365   6.418
 6184SOL    HW219452   2.433   6.276   6.352
 6185SOL     OW19453   0.522   3.475   6.201
 6185SOL    HW119454   0.438   3.501   6.247
 6185SOL    HW219455   0.524   3.515   6.109
 6186SOL     OW19456   0.318   0.709   0.285
 6186SOL    HW119457   0.351   0.615   0.274
 6186SOL    HW219458   0.288   0.723   0.379
 6187SOL     OW19459   5.305   4.271   4.104
 6187SOL    HW119460   5.359   4.189   4.086
 6187SOL    HW219461   5.212   4.257   4.073
 6188SOL     OW19462   2.390   1.695   6.569
 6188SOL    HW119463   2.480   1.700   6.527
 6188SOL    HW219464   2.372   1.601   6.599
 6189SOL     OW19465   4.451   4.533   2.768
 6189SOL    HW119466   4.391   4.611   2.755
 6189SOL    HW219467   4.494   4.508   2.681
 6190SOL     OW19468   0.942   3.896   5.648
 6190SOL    HW119469   0.860   3.909   5.704
 6190SOL    HW219470   0.925   3.929   5.555
 6191SOL     OW19471   2.932   2.457   6.762
 6191SOL    HW119472   2.886   2.508   6.835
 6191SOL    HW219473   2.965   2.370   6.799
 6192SOL     OW19474   2.780   2.340   5.842
 6192SOL    HW119475   2.869   2.308   5.874
 6192SOL    HW219476   2.708   2.290   5.890
 6193SOL     OW19477   4.543   6.790   1.926
 6193SOL    HW119478   4.451   6.773   1.962
 6193SOL    HW219479   4.605   6.720   1.959
 6194SOL     OW19480   0.904   0.213   1.253
 6194SOL    HW119481   0.825   0.272   1.235
 6194SOL    HW219482   0.987   0.256   1.217
 6195SOL     OW19483   4.361   5.701   4.668
 6195SOL    HW119484   4.367   5.665   4.575
 6195SOL    HW219485   4.330   5.796   4.666
 6196SOL     OW19486   5.659   3.323   2.097
 6196SOL    HW119487   5.689   3.290   2.007
 6196SOL    HW219488   5.671   3.251   2.165
 6197SOL     OW19489   3.599   5.068   1.022
 6197SOL    HW119490   3.661   5.145   1.038
 6197SOL    HW219491   3.508   5.103   1.001
 6198SOL     OW19492   4.277   6.753   1.565
 6198SOL    HW119493   4.238   6.671   1.521
 6198SOL    HW219494   4.370   6.767   1.532
 6199SOL     OW19495   1.359   1.770   0.531
 6199SOL    HW119496   1.411   1.784   0.446
 6199SOL    HW219497   1.308   1.685   0.525
 6200SOL     OW19498   1.363   1.291   5.853
 6200SOL    HW119499   1.284   1.352   5.862
 6200SOL    HW219500   1.340   1.217   5.790
 6201SOL     OW19501   0.528   4.194   5.999
 6201SOL    HW119502   0.576   4.244   6.071
 6201SOL    HW219503   0.589   4.181   5.921
 6202SOL     OW19504   4.616   1.493   1.207
 6202SOL    HW119505   4.701   1.443   1.224
 6202SOL    HW219506   4.559   1.492   1.289
 6203SOL     OW19507   6.468   5.659   1.925
 6203SOL    HW119508   6.445   5.744   1.972
 6203SOL    HW219509   6.495   5.590   1.992
 6204SOL     OW19510   0.208   5.300   4.231
 6204SOL    HW119511   0.169   5.212   4.203
 6204SOL    HW219512   0.276   5.285   4.303
 6205SOL     OW19513   6.506   5.515   1.289
 6205SOL    HW119514   6.598   5.507   1.251
 6205SOL    HW219515   6.510   5.564   1.376
 6206SOL     OW19516   5.626   1.999   3.426
 6206SOL    HW119517   5.576   2.049   3.497
 6206SOL    HW219518   5.701   2.056   3.392
 6207SOL     OW19519   1.630   5.110   5.449
 6207SOL    HW119520   1.673   5.176   5.388
 6207SOL    HW219521   1.700   5.067   5.507
 6208SOL     OW19522   5.016   2.926   5.622
 6208SOL    HW119523   4.988   2.832   5.643
 6208SOL    HW219524   5.025   2.978   5.707
 6209SOL     OW19525   3.452   6.162   6.867
 6209SOL    HW119526   3.359   6.133   6.886
 6209SOL    HW219527   3.453   6.220   6.785
 6210SOL     OW19528   4.937   3.369   4.108
 6210SOL    HW119529   4.884   3.295   4.150
 6210SOL    HW219530   4.941   3.355   4.009
 6211SOL     OW19531   3.062   5.987   6.057
 6211SOL    HW119532   3.073   6.086   6.042
 6211SOL    HW219533   3.070   5.967   6.155
 6212SOL     OW19534   2.605   4.657   4.914
 6212SOL    HW119535   2.687   4.670   4.969
 6212SOL    HW219536   2.550   4.583   4.953
 6213SOL     OW19537   6.069   0.056   6.944
 6213SOL    HW119538   6.058   0.097   6.854
 6213SOL    HW219539   6.139   7.012   6.940
 6214SOL     OW19540   4.976   5.266   4.645
 6214SOL    HW119541   4.928   5.354   4.637
 6214SOL    HW219542   5.066   5.281   4.687
 6215SOL     OW19543   4.170   2.509   6.355
 6215SOL    HW119544   4.245   2.472   6.410
 6215SOL    HW219545   4.185   2.485   6.259
 6216SOL     OW19546   6.497   2.208   2.935
 6216SOL    HW119547   6.477   2.194   3.032
 6216SOL    HW219548   6.589   2.245   2.924
 6217SOL     OW19549   0.695   3.979   2.338
 6217SOL    HW119550   0.738   4.007   2.253
 6217SOL    HW219551   0.750   4.011   2.416
 6218SOL     OW19552   3.781   6.656   6.316
 6218SOL    HW119553   3.694   6.704   6.327
 6218SOL    HW219554   3.775   6.567   6.362
 6219SOL     OW19555   1.373   1.877   4.744
 6219SOL    HW119556   1.388   1.784   4.710
 6219SOL    HW219557   1.306   1.875   4.818
 6220SOL     OW19558   2.782   1.046   4.986
 6220SOL    HW119559   2.714   1.034   5.059
 6220SOL    HW219560   2.830   0.959   4.972
 6221SOL     OW19561   5.861   6.910   0.055
 6221SOL    HW119562   5.918   6.973   0.002
 6221SOL    HW219563   5.854   6.944   0.149
 6222SOL     OW19564   1.572   6.995   1.809
 6222SOL    HW119565   1.595   6.913   1.860
 6222SOL    HW219566   1.655   0.009   1.771
 6223SOL     OW19567   1.245   5.234   3.536
 6223SOL    HW119568   1.162   5.285   3.514
 6223SOL    HW219569   1.252   5.155   3.476
 6224SOL     OW19570   3.841   0.962   5.960
 6224SOL    HW119571   3.815   0.963   6.056
 6224SOL    HW219572   3.759   0.973   5.903
 6225SOL     OW19573   3.951   3.334   6.673
 6225SOL    HW119574   3.855   3.308   6.678
 6225SOL    HW219575   4.002   3.265   6.621
 6226SOL     OW19576   0.737   1.792   4.831
 6226SOL    HW119577   0.770   1.837   4.914
 6226SOL    HW219578   0.771   1.697   4.829
 6227SOL     OW19579   3.313   4.906   4.965
 6227SOL    HW119580   3.233   4.925   5.022
 6227SOL    HW219581   3.368   4.834   5.009
 6228SOL     OW19582   0.465   3.506   2.170
 6228SOL    HW119583   0.418   3.526   2.084
 6228SOL    HW219584   0.493   3.591   2.214
 6229SOL     OW19585   0.953   2.089   4.643
 6229SOL    HW119586   0.994   2.099   4.733
 6229SOL    HW219587   0.909   1.999   4.637
 6230SOL     OW19588   0.719   2.288   4.358
 6230SOL    HW119589   0.713   2.189   4.344
 6230SOL    HW219590   0.718   2.334   4.270
 6231SOL     OW19591   6.425   5.781   0.412
 6231SOL    HW119592   6.341   5.811   0.367
 6231SOL    HW219593   6.503   5.831   0.375
 6232SOL     OW19594   6.581   1.049   1.006
 6232SOL    HW119595   6.652   1.050   1.077
 6232SOL    HW219596   6.520   0.972   1.020
 6233SOL     OW19597   6.755   2.297   1.469
 6233SOL    HW119598   6.802   2.213   1.497
 6233SOL    HW219599   6.803   2.338   1.392
 6234SOL     OW19600   0.173   0.207   5.391
 6234SOL    HW119601   0.246   0.268   5.360
 6234SOL    HW219602   0.105   0.198   5.318
 6235SOL     OW19603   6.964   0.002   1.333
 6235SOL    HW119604   6.895   6.957   1.345
 6235SOL    HW219605   6.942   0.079   1.393
 6236SOL     OW19606   0.318   4.700   1.284
 6236SOL    HW119607   0.399   4.751   1.256
 6236SOL    HW219608   0.248   4.706   1.213
 6237SOL     OW19609   3.629   7.020   6.814
 6237SOL    HW119610   3.681   7.003   6.731
 6237SOL    HW219611   3.533   6.997   6.799
 6238SOL     OW19612   4.819   5.599   2.548
 6238SOL    HW119613   4.789   5.503   2.551
 6238SOL    HW219614   4.888   5.614   2.619
 6239SOL     OW19615   3.953   1.487   1.674
 6239SOL    HW119616   3.976   1.583   1.685
 6239SOL    HW219617   3.878   1.478   1.608
 6240SOL     OW19618   2.255   3.772   5.658
 6240SOL    HW119619   2.308   3.747   5.577
 6240SOL    HW219620   2.307   3.749   5.741
 6241SOL     OW19621   3.155   0.639   2.133
 6241SOL    HW119622   3.106   0.699   2.069
 6241SOL    HW219623   3.153   0.545   2.098
 6242SOL     OW19624   3.874   0.106   3.667
 6242SOL    HW119625   3.918   0.057   3.592
 6242SOL    HW219626   3.782   0.070   3.680
 6243SOL     OW19627   0.224   6.429   5.077
 6243SOL    HW119628   0.181   6.384   5.156
 6243SOL    HW219629   0.321   6.443   5.096
 6244SOL     OW19630   5.811   3.366   3.210
 6244SOL    HW119631   5.790   3.419   3.292
 6244SOL    HW219632   5.742   3.294   3.199
 6245SOL     OW19633   1.482   3.686   1.140
 6245SOL    HW119634   1.458   3.772   1.185
 6245SOL    HW219635   1.403   3.650   1.092
 6246SOL     OW19636   1.020   1.974   5.518
 6246SOL    HW119637   1.003   2.072   5.530
 6246SOL    HW219638   0.989   1.924   5.599
 6247SOL     OW19639   0.041   6.192   3.855
 6247SOL    HW119640   0.098   6.232   3.926
 6247SOL    HW219641   0.098   6.157   3.781
 6248SOL     OW19642   3.900   3.759   6.825
 6248SOL    HW119643   3.939   3.738   6.735
 6248SOL    HW219644   3.946   3.704   6.895
 6249SOL     OW19645   6.894   3.439   0.846
 6249SOL    HW119646   6.860   3.417   0.937
 6249SOL    HW219647   6.927   3.533   0.845
 6250SOL     OW19648   6.517   7.006   1.159
 6250SOL    HW119649   6.522   0.045   1.084
 6250SOL    HW219650   6.525   0.027   1.246
 6251SOL     OW19651   4.234   5.531   5.016
 6251SOL    HW119652   4.223   5.587   5.099
 6251SOL    HW219653   4.315   5.562   4.967
 6252SOL     OW19654   3.001   6.209   6.406
 6252SOL    HW119655   3.061   6.137   6.372
 6252SOL    HW219656   2.979   6.190   6.502
 6253SOL     OW19657   2.827   4.770   4.452
 6253SOL    HW119658   2.770   4.762   4.370
 6253SOL    HW219659   2.846   4.679   4.488
 6254SOL     OW19660   5.971   1.023   1.224
 6254SOL    HW119661   5.888   1.043   1.173
 6254SOL    HW219662   5.948   0.985   1.313
 6255SOL     OW19663   2.804   0.666   0.865
 6255SOL    HW119664   2.706   0.644   0.871
 6255SOL    HW219665   2.846   0.652   0.955
 6256SOL     OW19666   3.321   5.104   2.543
 6256SOL    HW119667   3.272   5.042   2.482
 6256SOL    HW219668   3.256   5.169   2.583
 6257SOL     OW19669   4.950   2.855   0.862
 6257SOL    HW119670   5.039   2.811   0.869
 6257SOL    HW219671   4.912   2.871   0.953
 6258SOL     OW19672   2.894   0.551   3.381
 6258SOL    HW119673   2.973   0.606   3.355
 6258SOL    HW219674   2.813   0.609   3.386
 6259SOL     OW19675   1.269   1.628   0.025
 6259SOL    HW119676   1.257   1.644   6.954
 6259SOL    HW219677   1.186   1.656   0.074
 6260SOL     OW19678   3.315   6.186   0.416
 6260SOL    HW119679   3.358   6.111   0.467
 6260SOL    HW219680   3.383   6.230   0.358
 6261SOL     OW19681   4.688   0.506   6.719
 6261SOL    HW119682   4.723   0.516   6.812
 6261SOL    HW219683   4.761   0.474   6.659
 6262SOL     OW19684   2.125   6.642   1.747
 6262SOL    HW119685   2.096   6.736   1.765
 6262SOL    HW219686   2.072   6.605   1.671
 6263SOL     OW19687   0.709   6.970   4.475
 6263SOL    HW119688   0.675   6.926   4.392
 6263SOL    HW219689   0.702   6.907   4.552
 6264SOL     OW19690   1.812   0.639   1.841
 6264SOL    HW119691   1.795   0.541   1.835
 6264SOL    HW219692   1.901   0.660   1.800
 6265SOL     OW19693   3.836   3.518   0.041
 6265SOL    HW119694   3.880   3.576   7.000
 6265SOL    HW219695   3.736   3.523   0.029
 6266SOL     OW19696   4.946   0.111   3.488
 6266SOL    HW119697   4.969   0.150   3.578
 6266SOL    HW219698   4.847   0.118   3.473
 6267SOL     OW19699   2.368   0.039   4.983
 6267SOL    HW119700   2.301   6.999   4.951
 6267SOL    HW219701   2.339   0.076   5.071
 6268SOL     OW19702   3.213   0.961   2.484
 6268SOL    HW119703   3.297   0.988   2.437
 6268SOL    HW219704   3.168   0.888   2.433
 6269SOL     OW19705   6.725   6.578   2.309
 6269SOL    HW119706   6.674   6.644   2.255
 6269SOL    HW219707   6.814   6.617   2.335
 6270SOL     OW19708   0.545   0.479   6.275
 6270SOL    HW119709   0.573   0.384   6.263
 6270SOL    HW219710   0.474   0.483   6.346
 6271SOL     OW19711   5.858   2.437   5.687
 6271SOL    HW119712   5.949   2.409   5.655
 6271SOL    HW219713   5.859   2.444   5.787
 6272SOL     OW19714   0.678   2.366   0.240
 6272SOL    HW119715   0.648   2.401   0.151
 6272SOL    HW219716   0.714   2.441   0.295
 6273SOL     OW19717   0.310   6.511   2.593
 6273SOL    HW119718   0.324   6.425   2.543
 6273SOL    HW219719   0.280   6.582   2.529
 6274SOL     OW19720   3.153   6.666   5.585
 6274SOL    HW119721   3.086   6.613   5.533
 6274SOL    HW219722   3.245   6.630   5.568
 6275SOL     OW19723   2.028   6.314   0.208
 6275SOL    HW119724   1.994   6.405   0.188
 6275SOL    HW219725   2.050   6.307   0.306
 6276SOL     OW19726   2.337   4.987   3.919
 6276SOL    HW119727   2.386   4.980   4.006
 6276SOL    HW219728   2.402   5.003   3.845
 6277SOL     OW19729   4.814   2.921   1.104
 6277SOL    HW119730   4.736   2.924   1.167
 6277SOL    HW219731   4.838   3.014   1.077
 6278SOL     OW19732   4.593   7.003   4.472
 6278SOL    HW119733   4.690   7.001   4.497
 6278SOL    HW219734   4.544   0.039   4.533
 6279SOL     OW19735   3.066   6.292   0.387
 6279SOL    HW119736   3.002   6.219   0.410
 6279SOL    HW219737   3.158   6.265   0.414
 6280SOL     OW19738   0.069   1.061   6.332
 6280SOL    HW119739   7.016   1.105   6.373
 6280SOL    HW219740   0.135   1.040   6.403
 6281SOL     OW19741   6.957   5.016   4.358
 6281SOL    HW119742   6.877   4.975   4.315
 6281SOL    HW219743   7.020   5.047   4.287
 6282SOL     OW19744   6.042   5.078   5.764
 6282SOL    HW119745   5.952   5.060   5.803
 6282SOL    HW219746   6.088   4.991   5.745
 6283SOL     OW19747   7.000   4.107   4.217
 6283SOL    HW119748   6.929   4.135   4.281
 6283SOL    HW219749   0.062   4.137   4.250
 6284SOL     OW19750   1.984   4.657   5.044
 6284SOL    HW119751   1.934   4.660   5.130
 6284SOL    HW219752   1.968   4.742   4.994
 6285SOL     OW19753   0.369   3.493   3.889
 6285SOL    HW119754   0.393   3.438   3.809
 6285SOL    HW219755   0.452   3.530   3.931
 6286SOL     OW19756   6.322   2.310   4.681
 6286SOL    HW119757   6.403   2.336   4.734
 6286SOL    HW219758   6.301   2.214   4.698
 6287SOL     OW19759   3.249   5.009   4.721
 6287SOL    HW119760   3.263   4.958   4.805
 6287SOL    HW219761   3.168   4.973   4.673
 6288SOL     OW19762   4.857   4.511   2.265
 6288SOL    HW119763   4.848   4.604   2.228
 6288SOL    HW219764   4.886   4.449   2.193
 6289SOL     OW19765   1.951   5.023   6.827
 6289SOL    HW119766   2.022   4.974   6.877
 6289SOL    HW219767   1.950   5.119   6.855
 6290SOL     OW19768   6.129   4.671   6.419
 6290SOL    HW119769   6.051   4.733   6.427
 6290SOL    HW219770   6.121   4.618   6.334
 6291SOL     OW19771   3.943   3.655   3.743
 6291SOL    HW119772   3.892   3.578   3.704
 6291SOL    HW219773   3.938   3.652   3.843
 6292SOL     OW19774   2.074   2.239   5.112
 6292SOL    HW119775   2.023   2.314   5.155
 6292SOL    HW219776   2.016   2.158   5.107
 6293SOL     OW19777   4.471   1.743   1.274
 6293SOL    HW119778   4.458   1.716   1.370
 6293SOL    HW219779   4.494   1.663   1.220
 6294SOL     OW19780   3.967   0.603   3.555
 6294SOL    HW119781   3.914   0.527   3.519
 6294SOL    HW219782   3.937   0.625   3.648
 6295SOL     OW19783   4.890   4.584   4.755
 6295SOL    HW119784   4.868   4.583   4.852
 6295SOL    HW219785   4.838   4.655   4.709
 6296SOL     OW19786   6.594   5.029   6.055
 6296SOL    HW119787   6.497   5.009   6.044
 6296SOL    HW219788   6.633   4.966   6.123
 6297SOL     OW19789   5.404   0.584   5.414
 6297SOL    HW119790   5.486   0.538   5.449
 6297SOL    HW219791   5.428   0.676   5.384
 6298SOL     OW19792   1.306   3.372   6.293
 6298SOL    HW119793   1.347   3.283   6.314
 6298SOL    HW219794   1.375   3.443   6.296
 6299SOL     OW19795   6.124   2.308   2.016
 6299SOL    HW119796   6.213   2.276   1.984
 6299SOL    HW219797   6.052   2.266   1.961
 6300SOL     OW19798   6.504   1.227   6.543
 6300SOL    HW119799   6.526   1.153   6.480
 6300SOL    HW219800   6.539   1.314   6.505
 6301SOL     OW19801   2.868   6.841   0.034
 6301SOL    HW119802   2.924   6.783   7.002
 6301SOL    HW219803   2.846   6.791   0.118
 6302SOL     OW19804   1.707   2.122   5.261
 6302SOL    HW119805   1.775   2.085   5.198
 6302SOL    HW219806   1.675   2.210   5.228
 6303SOL     OW19807   1.129   0.703   5.245
 6303SOL    HW119808   1.068   0.703   5.325
 6303SOL    HW219809   1.192   0.780   5.251
 6304SOL     OW19810   3.589   0.958   1.666
 6304SOL    HW119811   3.546   1.048   1.673
 6304SOL    HW219812   3.680   0.962   1.709
 6305SOL     OW19813   5.710   6.317   0.596
 6305SOL    HW119814   5.718   6.416   0.602
 6305SOL    HW219815   5.669   6.282   0.680
 6306SOL     OW19816   6.705   4.360   4.171
 6306SOL    HW119817   6.610   4.353   4.203
 6306SOL    HW219818   6.724   4.454   4.142
 6307SOL     OW19819   3.675   3.939   3.891
 6307SOL    HW119820   3.604   3.922   3.823
 6307SOL    HW219821   3.661   4.029   3.932
 6308SOL     OW19822   1.729   2.754   4.305
 6308SOL    HW119823   1.664   2.681   4.281
 6308SOL    HW219824   1.702   2.795   4.392
 6309SOL     OW19825   6.871   6.043   4.122
 6309SOL    HW119826   6.851   6.042   4.220
 6309SOL    HW219827   6.845   6.132   4.084
 6310SOL     OW19828   1.788   6.282   2.370
 6310SOL    HW119829   1.757   6.187   2.367
 6310SOL    HW219830   1.865   6.290   2.433
 6311SOL     OW19831   5.031   1.598   5.990
 6311SOL    HW119832   5.069   1.535   6.058
 6311SOL    HW219833   4.965   1.659   6.035
 6312SOL     OW19834   0.026   6.503   4.905
 6312SOL    HW119835   0.048   6.592   4.865
 6312SOL    HW219836   0.083   6.488   4.986
 6313SOL     OW19837   6.637   5.906   3.871
 6313SOL    HW119838   6.679   5.940   3.787
 6313SOL    HW219839   6.582   5.826   3.851
 6314SOL     OW19840   3.714   6.627   1.667
 6314SOL    HW119841   3.656   6.546   1.682
 6314SOL    HW219842   3.760   6.651   1.752
 6315SOL     OW19843   3.325   1.940   5.904
 6315SOL    HW119844   3.240   1.936   5.958
 6315SOL    HW219845   3.305   1.916   5.809
 6316SOL     OW19846   4.803   2.014   6.204
 6316SOL    HW119847   4.783   2.088   6.269
 6316SOL    HW219848   4.835   2.054   6.118
 6317SOL     OW19849   5.105   4.786   2.003
 6317SOL    HW119850   5.116   4.688   1.986
 6317SOL    HW219851   5.135   4.807   2.096
 6318SOL     OW19852   4.393   6.962   5.809
 6318SOL    HW119853   4.443   6.994   5.890
 6318SOL    HW219854   4.297   6.989   5.815
 6319SOL     OW19855   6.690   2.104   5.607
 6319SOL    HW119856   6.784   2.112   5.573
 6319SOL    HW219857   6.668   2.183   5.663
 6320SOL     OW19858   6.815   6.358   5.006
 6320SOL    HW119859   6.893   6.413   4.974
 6320SOL    HW219860   6.829   6.263   4.980
 6321SOL     OW19861   4.646   3.398   1.002
 6321SOL    HW119862   4.604   3.343   0.929
 6321SOL    HW219863   4.733   3.356   1.028
 6322SOL     OW19864   2.362   2.646   1.237
 6322SOL    HW119865   2.402   2.657   1.328
 6322SOL    HW219866   2.360   2.549   1.212
 6323SOL     OW19867   1.949   2.366   1.845
 6323SOL    HW119868   2.028   2.382   1.904
 6323SOL    HW219869   1.980   2.339   1.754
 6324SOL     OW19870   4.890   1.058   0.541
 6324SOL    HW119871   4.909   1.143   0.491
 6324SOL    HW219872   4.975   1.006   0.551
 6325SOL     OW19873   1.753   3.545   2.709
 6325SOL    HW119874   1.771   3.619   2.644
 6325SOL    HW219875   1.747   3.458   2.659
 6326SOL     OW19876   5.374   5.102   1.145
 6326SOL    HW119877   5.439   5.130   1.073
 6326SOL    HW219878   5.361   5.178   1.209
 6327SOL     OW19879   0.003   1.817   4.934
 6327SOL    HW119880   0.022   1.732   4.887
 6327SOL    HW219881   7.003   1.887   4.868
 6328SOL     OW19882   4.067   3.820   0.172
 6328SOL    HW119883   4.024   3.783   0.255
 6328SOL    HW219884   4.131   3.892   0.197
 6329SOL     OW19885   1.665   3.021   3.821
 6329SOL    HW119886   1.694   3.115   3.840
 6329SOL    HW219887   1.651   2.972   3.907
 6330SOL     OW19888   5.777   6.966   1.859
 6330SOL    HW119889   5.760   6.902   1.933
 6330SOL    HW219890   5.690   7.003   1.826
 6331SOL     OW19891   6.761   3.623   5.409
 6331SOL    HW119892   6.743   3.701   5.468
 6331SOL    HW219893   6.743   3.538   5.459
 6332SOL     OW19894   0.593   2.404   1.025
 6332SOL    HW119895   0.615   2.389   1.122
 6332SOL    HW219896   0.675   2.437   0.978
 6333SOL     OW19897   4.246   6.612   5.385
 6333SOL    HW119898   4.325   6.593   5.327
 6333SOL    HW219899   4.215   6.706   5.371
 6334SOL     OW19900   3.459   1.197   2.585
 6334SOL    HW119901   3.491   1.288   2.611
 6334SOL    HW219902   3.476   1.133   2.660
 6335SOL     OW19903   4.148   0.359   0.784
 6335SOL    HW119904   4.075   0.423   0.810
 6335SOL    HW219905   4.115   0.299   0.711
 6336SOL     OW19906   1.107   2.367   6.782
 6336SOL    HW119907   1.094   2.268   6.786
 6336SOL    HW219908   1.087   2.399   6.689
 6337SOL     OW19909   4.684   5.282   5.593
 6337SOL    HW119910   4.751   5.272   5.519
 6337SOL    HW219911   4.616   5.209   5.586
 6338SOL     OW19912   3.055   2.201   4.081
 6338SOL    HW119913   3.142   2.204   4.129
 6338SOL    HW219914   2.985   2.247   4.136
 6339SOL     OW19915   0.963   3.672   3.738
 6339SOL    HW119916   0.965   3.590   3.794
 6339SOL    HW219917   0.969   3.753   3.797
 6340SOL     OW19918   1.662   5.002   1.609
 6340SOL    HW119919   1.632   5.022   1.703
 6340SOL    HW219920   1.591   4.949   1.563
 6341SOL     OW19921   6.506   3.999   4.243
 6341SOL    HW119922   6.592   3.961   4.208
 6341SOL    HW219923   6.502   4.097   4.222
 6342SOL     OW19924   2.619   1.624   1.068
 6342SOL    HW119925   2.704   1.663   1.104
 6342SOL    HW219926   2.546   1.638   1.135
 6343SOL     OW19927   4.637   0.767   6.327
 6343SOL    HW119928   4.735   0.775   6.345
 6343SOL    HW219929   4.606   0.675   6.351
 6344SOL     OW19930   5.137   2.379   4.714
 6344SOL    HW119931   5.192   2.307   4.672
 6344SOL    HW219932   5.082   2.424   4.642
 6345SOL     OW19933   5.825   2.282   2.149
 6345SOL    HW119934   5.906   2.226   2.133
 6345SOL    HW219935   5.743   2.228   2.128
 6346SOL     OW19936   6.384   5.797   4.148
 6346SOL    HW119937   6.424   5.724   4.205
 6346SOL    HW219938   6.331   5.756   4.074
 6347SOL     OW19939   2.345   1.475   6.920
 6347SOL    HW119940   2.387   1.566   6.923
 6347SOL    HW219941   2.388   1.416   6.988
 6348SOL     OW19942   1.847   2.927   6.099
 6348SOL    HW119943   1.756   2.957   6.071
 6348SOL    HW219944   1.906   2.922   6.019
 6349SOL     OW19945   1.843   0.983   0.769
 6349SOL    HW119946   1.837   0.941   0.678
 6349SOL    HW219947   1.789   0.929   0.834
 6350SOL     OW19948   0.389   4.926   4.165
 6350SOL    HW119949   0.368   4.984   4.086
 6350SOL    HW219950   0.482   4.945   4.196
 6351SOL     OW19951   6.048   3.708   3.544
 6351SOL    HW119952   5.958   3.713   3.587
 6351SOL    HW219953   6.067   3.613   3.519
 6352SOL     OW19954   2.829   6.973   5.084
 6352SOL    HW119955   2.875   0.020   5.035
 6352SOL    HW219956   2.895   6.901   5.105
 6353SOL     OW19957   0.823   6.109   5.794
 6353SOL    HW119958   0.856   6.088   5.886
 6353SOL    HW219959   0.867   6.048   5.728
 6354SOL     OW19960   3.229   5.217   3.109
 6354SOL    HW119961   3.226   5.179   3.016
 6354SOL    HW219962   3.283   5.156   3.168
 6355SOL     OW19963   2.008   5.552   6.973
 6355SOL    HW119964   1.951   5.527   6.895
 6355SOL    HW219965   2.014   5.474   0.009
 6356SOL     OW19966   4.645   5.409   1.220
 6356SOL    HW119967   4.664   5.435   1.125
 6356SOL    HW219968   4.551   5.435   1.243
 6357SOL     OW19969   6.010   3.309   2.926
 6357SOL    HW119970   6.001   3.361   2.840
 6357SOL    HW219971   6.016   3.372   3.003
 6358SOL     OW19972   0.138   1.786   6.623
 6358SOL    HW119973   0.232   1.766   6.650
 6358SOL    HW219974   0.089   1.825   6.701
 6359SOL     OW19975   6.302   0.067   0.243
 6359SOL    HW119976   6.263   0.112   0.163
 6359SOL    HW219977   6.397   0.040   0.223
 6360SOL     OW19978   1.110   3.667   5.436
 6360SOL    HW119979   1.155   3.579   5.455
 6360SOL    HW219980   1.057   3.659   5.351
 6361SOL     OW19981   1.491   0.412   0.827
 6361SOL    HW119982   1.441   0.418   0.740
 6361SOL    HW219983   1.459   0.485   0.888
 6362SOL     OW19984   0.481   5.571   6.994
 6362SOL    HW119985   0.483   5.480   6.953
 6362SOL    HW219986   0.538   5.633   6.941
 6363SOL     OW19987   2.559   5.712   3.813
 6363SOL    HW119988   2.528   5.793   3.863
 6363SOL    HW219989   2.563   5.732   3.715
 6364SOL     OW19990   2.765   1.998   5.958
 6364SOL    HW119991   2.813   2.075   6.000
 6364SOL    HW219992   2.791   1.991   5.862
 6365SOL     OW19993   4.894   6.915   3.882
 6365SOL    HW119994   4.856   6.922   3.790
 6365SOL    HW219995   4.826   6.877   3.944
 6366SOL     OW19996   1.011   5.345   5.267
 6366SOL    HW119997   0.943   5.278   5.238
 6366SOL    HW219998   0.971   5.436   5.265
 6367SOL     OW19999   4.261   1.561   3.772
 6367SOL    HW120000   4.294   1.516   3.688
 6367SOL    HW220001   4.213   1.645   3.748
 6368SOL     OW20002   3.653   4.931   3.785
 6368SOL    HW120003   3.578   4.912   3.721
 6368SOL    HW220004   3.725   4.863   3.772
 6369SOL     OW20005   2.289   0.714   4.640
 6369SOL    HW120006   2.357   0.724   4.567
 6369SOL    HW220007   2.214   0.778   4.625
 6370SOL     OW20008   6.279   3.451   3.889
 6370SOL    HW120009   6.266   3.357   3.856
 6370SOL    HW220010   6.301   3.511   3.812
 6371SOL     OW20011   5.315   4.814   3.105
 6371SOL    HW120012   5.315   4.773   3.197
 6371SOL    HW220013   5.293   4.912   3.112
 6372SOL     OW20014   1.436   1.379   1.978
 6372SOL    HW120015   1.350   1.429   1.977
 6372SOL    HW220016   1.433   1.305   1.911
 6373SOL     OW20017   4.701   4.455   2.871
 6373SOL    HW120018   4.727   4.512   2.949
 6373SOL    HW220019   4.605   4.471   2.848
 6374SOL     OW20020   3.987   3.566   2.068
 6374SOL    HW120021   3.906   3.602   2.115
 6374SOL    HW220022   4.039   3.509   2.132
 6375SOL     OW20023   0.041   2.197   2.464
 6375SOL    HW120024   0.004   2.202   2.557
 6375SOL    HW220025   0.118   2.132   2.463
 6376SOL     OW20026   4.950   2.339   6.136
 6376SOL    HW120027   4.935   2.419   6.077
 6376SOL    HW220028   4.956   2.257   6.079
 6377SOL     OW20029   7.023   0.937   5.819
 6377SOL    HW120030   0.078   0.880   5.824
 6377SOL    HW220031   7.014   0.990   5.904
 6378SOL     OW20032   4.750   4.369   3.853
 6378SOL    HW120033   4.800   4.449   3.822
 6378SOL    HW220034   4.711   4.387   3.943
 6379SOL     OW20035   0.843   4.169   5.449
 6379SOL    HW120036   0.888   4.089   5.409
 6379SOL    HW220037   0.911   4.229   5.491
 6380SOL     OW20038   0.564   1.630   5.050
 6380SOL    HW120039   0.643   1.570   5.036
 6380SOL    HW220040   0.581   1.690   5.128
 6381SOL     OW20041   4.198   2.923   1.108
 6381SOL    HW120042   4.284   2.940   1.157
 6381SOL    HW220043   4.203   2.965   1.017
 6382SOL     OW20044   3.344   2.192   0.715
 6382SOL    HW120045   3.413   2.255   0.680
 6382SOL    HW220046   3.386   2.130   0.781
 6383SOL     OW20047   2.217   2.599   3.160
 6383SOL    HW120048   2.178   2.673   3.215
 6383SOL    HW220049   2.172   2.598   3.071
 6384SOL     OW20050   6.492   3.828   3.190
 6384SOL    HW120051   6.582   3.786   3.192
 6384SOL    HW220052   6.461   3.846   3.284
 6385SOL     OW20053   0.042   3.544   3.525
 6385SOL    HW120054   0.001   3.567   3.613
 6385SOL    HW220055   0.066   3.628   3.476
 6386SOL     OW20056   2.734   3.332   6.548
 6386SOL    HW120057   2.660   3.399   6.540
 6386SOL    HW220058   2.820   3.379   6.568
 6387SOL     OW20059   6.794   1.862   6.701
 6387SOL    HW120060   6.752   1.932   6.759
 6387SOL    HW220061   6.880   1.833   6.743
 6388SOL     OW20062   4.638   6.274   1.950
 6388SOL    HW120063   4.722   6.220   1.957
 6388SOL    HW220064   4.658   6.370   1.972
 6389SOL     OW20065   0.432   6.695   0.803
 6389SOL    HW120066   0.333   6.685   0.792
 6389SOL    HW220067   0.478   6.622   0.753
 6390SOL     OW20068   0.315   0.818   5.535
 6390SOL    HW120069   0.310   0.806   5.634
 6390SOL    HW220070   0.335   0.731   5.491
 6391SOL     OW20071   1.041   0.027   6.486
 6391SOL    HW120072   0.997   0.059   6.570
 6391SOL    HW220073   1.112   0.092   6.458
 6392SOL     OW20074   2.497   5.469   2.653
 6392SOL    HW120075   2.594   5.490   2.661
 6392SOL    HW220076   2.449   5.502   2.734
 6393SOL     OW20077   0.536   5.938   1.835
 6393SOL    HW120078   0.561   5.891   1.919
 6393SOL    HW220079   0.503   6.030   1.857
 6394SOL     OW20080   1.657   5.583   0.483
 6394SOL    HW120081   1.672   5.499   0.431
 6394SOL    HW220082   1.599   5.645   0.430
 6395SOL     OW20083   0.298   2.948   1.381
 6395SOL    HW120084   0.307   2.859   1.425
 6395SOL    HW220085   0.208   2.955   1.337
 6396SOL     OW20086   5.830   3.121   7.002
 6396SOL    HW120087   5.885   3.155   0.051
 6396SOL    HW220088   5.783   3.037   0.002
 6397SOL     OW20089   5.672   1.440   1.911
 6397SOL    HW120090   5.619   1.398   1.837
 6397SOL    HW220091   5.611   1.492   1.971
 6398SOL     OW20092   2.880   7.000   1.938
 6398SOL    HW120093   2.812   6.940   1.980
 6398SOL    HW220094   2.963   6.948   1.920
 6399SOL     OW20095   2.041   0.350   0.109
 6399SOL    HW120096   2.123   0.293   0.116
 6399SOL    HW220097   2.003   0.343   0.017
 6400SOL     OW20098   2.011   4.879   2.533
 6400SOL    HW120099   2.023   4.898   2.435
 6400SOL    HW220100   2.095   4.903   2.582
 6401SOL     OW20101   5.607   6.314   3.228
 6401SOL    HW120102   5.626   6.279   3.320
 6401SOL    HW220103   5.617   6.413   3.227
 6402SOL     OW20104   2.234   3.051   3.408
 6402SOL    HW120105   2.326   3.079   3.380
 6402SOL    HW220106   2.166   3.110   3.365
 6403SOL     OW20107   6.513   5.317   6.084
 6403SOL    HW120108   6.590   5.289   6.140
 6403SOL    HW220109   6.463   5.236   6.052
 6404SOL     OW20110   4.007   1.069   2.102
 6404SOL    HW120111   4.044   1.026   2.020
 6404SOL    HW220112   4.075   1.064   2.175
 6405SOL     OW20113   3.670   0.542   3.918
 6405SOL    HW120114   3.601   0.589   3.861
 6405SOL    HW220115   3.759   0.583   3.901
 6406SOL     OW20116   0.744   2.886   2.781
 6406SOL    HW120117   0.697   2.897   2.869
 6406SOL    HW220118   0.693   2.934   2.710
 6407SOL     OW20119   2.620   0.112   3.981
 6407SOL    HW120120   2.594   0.090   4.075
 6407SOL    HW220121   2.695   0.177   3.981
 6408SOL     OW20122   5.635   1.190   0.428
 6408SOL    HW120123   5.733   1.201   0.446
 6408SOL    HW220124   5.599   1.116   0.484
 6409SOL     OW20125   6.236   4.637   4.479
 6409SOL    HW120126   6.159   4.574   4.488
 6409SOL    HW220127   6.321   4.589   4.498
 6410SOL     OW20128   2.142   1.228   5.851
 6410SOL    HW120129   2.128   1.143   5.902
 6410SOL    HW220130   2.166   1.301   5.914
 6411SOL     OW20131   0.611   2.909   3.023
 6411SOL    HW120132   0.642   2.848   3.096
 6411SOL    HW220133   0.511   2.904   3.016
 6412SOL     OW20134   1.783   1.744   5.201
 6412SOL    HW120135   1.816   1.678   5.133
 6412SOL    HW220136   1.685   1.762   5.185
 6413SOL     OW20137   3.959   4.871   3.549
 6413SOL    HW120138   3.949   4.859   3.648
 6413SOL    HW220139   3.870   4.859   3.505
 6414SOL     OW20140   5.583   1.253   6.977
 6414SOL    HW120141   5.491   1.216   6.974
 6414SOL    HW220142   5.613   1.262   0.045
 6415SOL     OW20143   1.452   3.323   3.542
 6415SOL    HW120144   1.551   3.310   3.529
 6415SOL    HW220145   1.417   3.255   3.606
 6416SOL     OW20146   1.661   0.093   6.925
 6416SOL    HW120147   1.747   0.076   6.974
 6416SOL    HW220148   1.641   0.191   6.926
 6417SOL     OW20149   5.653   4.799   0.444
 6417SOL    HW120150   5.669   4.885   0.492
 6417SOL    HW220151   5.594   4.741   0.500
 6418SOL     OW20152   4.892   3.387   2.497
 6418SOL    HW120153   4.909   3.308   2.438
 6418SOL    HW220154   4.870   3.467   2.440
 6419SOL     OW20155   1.022   5.273   2.959
 6419SOL    HW120156   1.018   5.327   3.043
 6419SOL    HW220157   0.928   5.255   2.927
 6420SOL     OW20158   2.630   6.690   3.981
 6420SOL    HW120159   2.656   6.666   3.887
 6420SOL    HW220160   2.554   6.755   3.979
 6421SOL     OW20161   4.556   0.685   2.011
 6421SOL    HW120162   4.627   0.616   2.025
 6421SOL    HW220163   4.499   0.659   1.933
 6422SOL     OW20164   6.728   0.182   4.899
 6422SOL    HW120165   6.751   0.189   4.802
 6422SOL    HW220166   6.811   0.197   4.953
 6423SOL     OW20167   4.774   5.664   3.414
 6423SOL    HW120168   4.729   5.741   3.370
 6423SOL    HW220169   4.739   5.653   3.507
 6424SOL     OW20170   0.355   4.143   4.519
 6424SOL    HW120171   0.274   4.182   4.563
 6424SOL    HW220172   0.374   4.053   4.559
 6425SOL     OW20173   6.415   6.711   2.872
 6425SOL    HW120174   6.384   6.664   2.955
 6425SOL    HW220175   6.341   6.766   2.835
 6426SOL     OW20176   0.770   5.283   2.886
 6426SOL    HW120177   0.696   5.252   2.945
 6426SOL    HW220178   0.743   5.367   2.840
 6427SOL     OW20179   4.006   3.922   4.050
 6427SOL    HW120180   4.055   3.929   3.963
 6427SOL    HW220181   3.950   3.840   4.050
 6428SOL     OW20182   5.115   3.499   6.680
 6428SOL    HW120183   5.058   3.555   6.741
 6428SOL    HW220184   5.172   3.439   6.735
 6429SOL     OW20185   0.095   1.542   5.711
 6429SOL    HW120186   0.103   1.520   5.614
 6429SOL    HW220187   0.011   1.592   5.728
 6430SOL     OW20188   6.188   1.076   3.829
 6430SOL    HW120189   6.284   1.050   3.821
 6430SOL    HW220190   6.147   1.083   3.738
 6431SOL     OW20191   4.170   6.302   3.529
 6431SOL    HW120192   4.129   6.376   3.475
 6431SOL    HW220193   4.103   6.267   3.594
 6432SOL     OW20194   4.442   4.338   6.104
 6432SOL    HW120195   4.443   4.415   6.167
 6432SOL    HW220196   4.433   4.253   6.155
 6433SOL     OW20197   1.589   5.294   5.689
 6433SOL    HW120198   1.672   5.296   5.744
 6433SOL    HW220199   1.600   5.229   5.614
 6434SOL     OW20200   2.717   6.305   5.977
 6434SOL    HW120201   2.767   6.383   5.939
 6434SOL    HW220202   2.753   6.282   6.067
 6435SOL     OW20203   5.218   6.806   0.709
 6435SOL    HW120204   5.266   6.779   0.625
 6435SOL    HW220205   5.152   6.735   0.733
 6436SOL     OW20206   1.166   2.931   2.331
 6436SOL    HW120207   1.137   3.025   2.315
 6436SOL    HW220208   1.148   2.906   2.427
 6437SOL     OW20209   1.798   2.273   0.038
 6437SOL    HW120210   1.861   2.337   0.081
 6437SOL    HW220211   1.844   2.186   0.021
 6438SOL     OW20212   0.625   3.849   5.714
 6438SOL    HW120213   0.653   3.761   5.675
 6438SOL    HW220214   0.544   3.882   5.665
 6439SOL     OW20215   5.404   1.304   2.072
 6439SOL    HW120216   5.451   1.231   2.023
 6439SOL    HW220217   5.469   1.378   2.091
 6440SOL     OW20218   2.840   1.493   5.837
 6440SOL    HW120219   2.881   1.450   5.757
 6440SOL    HW220220   2.886   1.579   5.857
 6441SOL     OW20221   0.288   7.014   1.517
 6441SOL    HW120222   0.283   7.019   1.417
 6441SOL    HW220223   0.258   0.074   1.556
 6442SOL     OW20224   2.501   1.520   4.990
 6442SOL    HW120225   2.504   1.609   5.035
 6442SOL    HW220226   2.592   1.495   4.958
 6443SOL     OW20227   3.583   2.474   5.381
 6443SOL    HW120228   3.535   2.560   5.366
 6443SOL    HW220229   3.518   2.398   5.379
 6444SOL     OW20230   5.511   3.560   4.718
 6444SOL    HW120231   5.510   3.460   4.726
 6444SOL    HW220232   5.421   3.595   4.746
 6445SOL     OW20233   4.137   3.369   4.806
 6445SOL    HW120234   4.226   3.337   4.774
 6445SOL    HW220235   4.148   3.410   4.897
 6446SOL     OW20236   1.197   1.343   6.816
 6446SOL    HW120237   1.131   1.402   6.864
 6446SOL    HW220238   1.188   1.357   6.717
 6447SOL     OW20239   6.077   5.120   2.975
 6447SOL    HW120240   6.071   5.191   3.044
 6447SOL    HW220241   6.030   5.038   3.006
 6448SOL     OW20242   5.141   5.542   1.663
 6448SOL    HW120243   5.213   5.473   1.677
 6448SOL    HW220244   5.180   5.633   1.673
 6449SOL     OW20245   3.983   6.012   1.643
 6449SOL    HW120246   3.886   5.991   1.630
 6449SOL    HW220247   3.997   6.056   1.731
 6450SOL     OW20248   1.311   3.452   0.832
 6450SOL    HW120249   1.285   3.539   0.875
 6450SOL    HW220250   1.397   3.464   0.783
 6451SOL     OW20251   2.480   0.812   5.524
 6451SOL    HW120252   2.440   0.754   5.453
 6451SOL    HW220253   2.458   0.908   5.504
 6452SOL     OW20254   4.221   5.058   3.141
 6452SOL    HW120255   4.137   5.089   3.095
 6452SOL    HW220256   4.209   5.066   3.240
 6453SOL     OW20257   2.226   0.147   2.004
 6453SOL    HW120258   2.325   0.150   2.021
 6453SOL    HW220259   2.178   0.185   2.083
 6454SOL     OW20260   0.950   2.092   3.156
 6454SOL    HW120261   1.001   2.058   3.077
 6454SOL    HW220262   0.900   2.017   3.198
 6455SOL     OW20263   0.128   3.407   3.967
 6455SOL    HW120264   0.097   3.450   4.052
 6455SOL    HW220265   0.218   3.442   3.943
 6456SOL     OW20266   1.567   1.263   3.282
 6456SOL    HW120267   1.519   1.224   3.360
 6456SOL    HW220268   1.665   1.267   3.301
 6457SOL     OW20269   4.984   0.938   1.955
 6457SOL    HW120270   4.984   0.989   1.869
 6457SOL    HW220271   4.941   0.993   2.027
 6458SOL     OW20272   0.873   5.765   3.974
 6458SOL    HW120273   0.866   5.832   3.900
 6458SOL    HW220274   0.784   5.757   4.020
 6459SOL     OW20275   6.029   3.383   1.420
 6459SOL    HW120276   5.931   3.365   1.418
 6459SOL    HW220277   6.046   3.480   1.404
 6460SOL     OW20278   6.345   5.679   6.514
 6460SOL    HW120279   6.346   5.640   6.422
 6460SOL    HW220280   6.369   5.609   6.580
 6461SOL     OW20281   2.449   4.535   6.859
 6461SOL    HW120282   2.434   4.633   6.842
 6461SOL    HW220283   2.401   4.482   6.790
 6462SOL     OW20284   1.906   3.221   4.553
 6462SOL    HW120285   1.857   3.265   4.478
 6462SOL    HW220286   1.906   3.122   4.540
 6463SOL     OW20287   5.659   2.189   0.481
 6463SOL    HW120288   5.615   2.270   0.519
 6463SOL    HW220289   5.691   2.208   0.388
 6464SOL     OW20290   1.434   4.825   4.959
 6464SOL    HW120291   1.502   4.893   4.987
 6464SOL    HW220292   1.398   4.848   4.869
 6465SOL     OW20293   6.614   3.244   2.588
 6465SOL    HW120294   6.710   3.217   2.599
 6465SOL    HW220295   6.609   3.341   2.568
 6466SOL     OW20296   6.470   1.278   5.548
 6466SOL    HW120297   6.381   1.235   5.534
 6466SOL    HW220298   6.510   1.244   5.634
 6467SOL     OW20299   3.935   0.333   0.050
 6467SOL    HW120300   3.879   0.251   0.039
 6467SOL    HW220301   4.025   0.317   0.010
 6468SOL     OW20302   2.942   6.367   1.443
 6468SOL    HW120303   2.982   6.276   1.437
 6468SOL    HW220304   2.956   6.415   1.357
 6469SOL     OW20305   4.300   2.384   3.926
 6469SOL    HW120306   4.284   2.367   3.829
 6469SOL    HW220307   4.274   2.478   3.949
 6470SOL     OW20308   5.808   2.835   1.163
 6470SOL    HW120309   5.894   2.854   1.116
 6470SOL    HW220310   5.752   2.774   1.107
 6471SOL     OW20311   0.202   6.426   5.831
 6471SOL    HW120312   0.131   6.389   5.771
 6471SOL    HW220313   0.199   6.526   5.828
 6472SOL     OW20314   6.926   5.923   1.526
 6472SOL    HW120315   6.828   5.923   1.506
 6472SOL    HW220316   6.954   5.832   1.556
 6473SOL     OW20317   2.993   1.865   4.741
 6473SOL    HW120318   2.899   1.839   4.762
 6473SOL    HW220319   3.006   1.962   4.759
 6474SOL     OW20320   3.411   5.469   6.715
 6474SOL    HW120321   3.330   5.521   6.743
 6474SOL    HW220322   3.483   5.532   6.686
 6475SOL     OW20323   5.946   4.995   3.559
 6475SOL    HW120324   5.904   4.950   3.637
 6475SOL    HW220325   6.045   4.995   3.570
 6476SOL     OW20326   4.658   3.654   1.107
 6476SOL    HW120327   4.640   3.672   1.204
 6476SOL    HW220328   4.645   3.557   1.088
 6477SOL     OW20329   5.735   4.702   0.142
 6477SOL    HW120330   5.710   4.781   0.086
 6477SOL    HW220331   5.704   4.716   0.236
 6478SOL     OW20332   3.512   0.240   2.089
 6478SOL    HW120333   3.443   0.204   2.026
 6478SOL    HW220334   3.482   0.223   2.183
 6479SOL     OW20335   4.223   5.529   3.706
 6479SOL    HW120336   4.158   5.462   3.673
 6479SOL    HW220337   4.175   5.599   3.760
 6480SOL     OW20338   2.987   0.747   6.845
 6480SOL    HW120339   2.888   0.759   6.839
 6480SOL    HW220340   3.011   0.708   6.934
 6481SOL     OW20341   3.200   2.056   2.288
 6481SOL    HW120342   3.124   2.062   2.224
 6481SOL    HW220343   3.286   2.070   2.239
 6482SOL     OW20344   6.695   1.851   5.558
 6482SOL    HW120345   6.660   1.797   5.635
 6482SOL    HW220346   6.680   1.949   5.576
 6483SOL     OW20347   0.893   0.318   3.218
 6483SOL    HW120348   0.904   0.272   3.306
 6483SOL    HW220349   0.802   0.297   3.182
 6484SOL     OW20350   3.748   6.992   1.414
 6484SOL    HW120351   3.695   6.992   1.499
 6484SOL    HW220352   3.687   6.975   1.337
 6485SOL     OW20353   2.076   5.074   3.927
 6485SOL    HW120354   2.076   5.168   3.959
 6485SOL    HW220355   2.167   5.050   3.893
 6486SOL     OW20356   0.374   4.207   3.094
 6486SOL    HW120357   0.329   4.277   3.039
 6486SOL    HW220358   0.449   4.167   3.042
 6487SOL     OW20359   0.930   6.963   5.156
 6487SOL    HW120360   0.848   6.993   5.206
 6487SOL    HW220361   0.919   6.985   5.059
 6488SOL     OW20362   3.927   6.345   4.913
 6488SOL    HW120363   3.875   6.304   4.838
 6488SOL    HW220364   3.866   6.399   4.970
 6489SOL     OW20365   2.983   3.735   6.199
 6489SOL    HW120366   2.973   3.829   6.168
 6489SOL    HW220367   2.979   3.733   6.299
 6490SOL     OW20368   3.867   1.120   6.629
 6490SOL    HW120369   3.776   1.078   6.631
 6490SOL    HW220370   3.879   1.176   6.710
 6491SOL     OW20371   3.842   0.982   1.385
 6491SOL    HW120372   3.781   1.045   1.434
 6491SOL    HW220373   3.872   0.910   1.447
 6492SOL     OW20374   3.948   4.772   6.005
 6492SOL    HW120375   3.958   4.819   5.917
 6492SOL    HW220376   3.971   4.835   6.079
 6493SOL     OW20377   1.872   4.585   6.243
 6493SOL    HW120378   1.824   4.672   6.261
 6493SOL    HW220379   1.904   4.585   6.148
 6494SOL     OW20380   6.942   0.644   3.501
 6494SOL    HW120381   6.911   0.554   3.471
 6494SOL    HW220382   6.968   0.699   3.421
 6495SOL     OW20383   6.680   0.231   4.609
 6495SOL    HW120384   6.602   0.171   4.590
 6495SOL    HW220385   6.764   0.178   4.609
 6496SOL     OW20386   5.998   1.189   3.103
 6496SOL    HW120387   5.957   1.279   3.094
 6496SOL    HW220388   6.002   1.164   3.200
 6497SOL     OW20389   1.164   1.221   1.163
 6497SOL    HW120390   1.185   1.182   1.073
 6497SOL    HW220391   1.133   1.148   1.224
 6498SOL     OW20392   1.509   3.315   4.017
 6498SOL    HW120393   1.425   3.280   3.975
 6498SOL    HW220394   1.497   3.322   4.116
 6499SOL     OW20395   5.369   3.857   5.566
 6499SOL    HW120396   5.422   3.918   5.625
 6499SOL    HW220397   5.431   3.806   5.506
 6500SOL     OW20398   6.701   3.945   4.988
 6500SOL    HW120399   6.729   3.971   4.896
 6500SOL    HW220400   6.680   3.847   4.990
 6501SOL     OW20401   6.616   1.057   6.282
 6501SOL    HW120402   6.669   1.041   6.198
 6501SOL    HW220403   6.619   0.975   6.339
 6502SOL     OW20404   6.527   3.001   2.655
 6502SOL    HW120405   6.589   2.942   2.602
 6502SOL    HW220406   6.553   3.096   2.644
 6503SOL     OW20407   5.509   1.688   3.568
 6503SOL    HW120408   5.432   1.626   3.584
 6503SOL    HW220409   5.478   1.782   3.577
 6504SOL     OW20410   4.512   6.269   5.267
 6504SOL    HW120411   4.590   6.219   5.229
 6504SOL    HW220412   4.519   6.270   5.367
 6505SOL     OW20413   5.465   5.871   6.799
 6505SOL    HW120414   5.510   5.819   6.872
 6505SOL    HW220415   5.410   5.809   6.743
 6506SOL     OW20416   6.975   2.492   2.945
 6506SOL    HW120417   6.990   2.538   3.032
 6506SOL    HW220418   0.033   2.493   2.892
 6507SOL     OW20419   1.694   5.470   6.503
 6507SOL    HW120420   1.688   5.370   6.507
 6507SOL    HW220421   1.782   5.497   6.463
 6508SOL     OW20422   1.541   1.114   2.607
 6508SOL    HW120423   1.580   1.154   2.524
 6508SOL    HW220424   1.526   1.187   2.674
 6509SOL     OW20425   4.290   2.044   4.613
 6509SOL    HW120426   4.388   2.037   4.592
 6509SOL    HW220427   4.264   2.141   4.614
 6510SOL     OW20428   6.702   5.407   0.277
 6510SOL    HW120429   6.791   5.445   0.304
 6510SOL    HW220430   6.639   5.415   0.354
 6511SOL     OW20431   3.962   0.827   4.783
 6511SOL    HW120432   3.941   0.752   4.845
 6511SOL    HW220433   3.931   0.913   4.823
 6512SOL     OW20434   3.960   6.532   2.088
 6512SOL    HW120435   4.007   6.467   2.029
 6512SOL    HW220436   4.023   6.566   2.158
 6513SOL     OW20437   2.786   4.761   3.197
 6513SOL    HW120438   2.838   4.790   3.277
 6513SOL    HW220439   2.709   4.705   3.225
 6514SOL     OW20440   6.017   1.364   4.049
 6514SOL    HW120441   5.962   1.410   3.981
 6514SOL    HW220442   6.004   1.265   4.042
 6515SOL     OW20443   0.537   4.889   3.761
 6515SOL    HW120444   0.608   4.849   3.818
 6515SOL    HW220445   0.496   4.818   3.704
 6516SOL     OW20446   0.017   3.628   1.703
 6516SOL    HW120447   0.013   3.721   1.739
 6516SOL    HW220448   6.957   3.605   1.661
 6517SOL     OW20449   6.963   1.416   1.685
 6517SOL    HW120450   6.875   1.397   1.726
 6517SOL    HW220451   6.968   1.512   1.657
 6518SOL     OW20452   0.098   0.770   0.142
 6518SOL    HW120453   0.008   0.727   0.158
 6518SOL    HW220454   0.163   0.736   0.209
 6519SOL     OW20455   0.789   2.392   3.136
 6519SOL    HW120456   0.869   2.431   3.091
 6519SOL    HW220457   0.807   2.296   3.159
 6520SOL     OW20458   6.142   5.214   1.405
 6520SOL    HW120459   6.049   5.178   1.399
 6520SOL    HW220460   6.208   5.142   1.381
 6521SOL     OW20461   2.082   2.751   4.452
 6521SOL    HW120462   2.153   2.748   4.381
 6521SOL    HW220463   2.024   2.670   4.445
 6522SOL     OW20464   3.017   4.936   5.420
 6522SOL    HW120465   3.041   4.866   5.353
 6522SOL    HW220466   2.921   4.962   5.409
 6523SOL     OW20467   3.389   1.430   6.986
 6523SOL    HW120468   3.396   1.461   0.054
 6523SOL    HW220469   3.347   1.501   6.930
 6524SOL     OW20470   3.081   3.513   1.811
 6524SOL    HW120471   3.160   3.540   1.755
 6524SOL    HW220472   3.025   3.447   1.760
 6525SOL     OW20473   2.270   5.024   3.247
 6525SOL    HW120474   2.286   5.082   3.327
 6525SOL    HW220475   2.173   5.028   3.222
 6526SOL     OW20476   2.583   0.655   0.459
 6526SOL    HW120477   2.659   0.658   0.523
 6526SOL    HW220478   2.531   0.570   0.473
 6527SOL     OW20479   0.438   1.684   5.351
 6527SOL    HW120480   0.427   1.745   5.273
 6527SOL    HW220481   0.351   1.675   5.399
 6528SOL     OW20482   6.297   0.955   4.884
 6528SOL    HW120483   6.309   1.042   4.836
 6528SOL    HW220484   6.201   0.943   4.909
 6529SOL     OW20485   2.068   0.784   3.037
 6529SOL    HW120486   1.996   0.745   2.979
 6529SOL    HW220487   2.156   0.773   2.992
 6530SOL     OW20488   6.901   2.445   0.108
 6530SOL    HW120489   6.827   2.512   0.108
 6530SOL    HW220490   6.942   2.441   0.199
 6531SOL     OW20491   5.023   3.295   5.498
 6531SOL    HW120492   5.106   3.319   5.447
 6531SOL    HW220493   4.969   3.230   5.444
 6532SOL     OW20494   6.990   1.262   1.118
 6532SOL    HW120495   6.909   1.232   1.168
 6532SOL    HW220496   0.042   1.261   1.179
 6533SOL     OW20497   4.597   6.885   0.590
 6533SOL    HW120498   4.537   6.959   0.561
 6533SOL    HW220499   4.611   6.890   0.689
 6534SOL     OW20500   4.312   4.503   1.429
 6534SOL    HW120501   4.402   4.515   1.386
 6534SOL    HW220502   4.269   4.420   1.393
 6535SOL     OW20503   6.458   4.454   3.884
 6535SOL    HW120504   6.491   4.529   3.941
 6535SOL    HW220505   6.368   4.424   3.917
 6536SOL     OW20506   0.526   1.379   5.596
 6536SOL    HW120507   0.494   1.388   5.502
 6536SOL    HW220508   0.571   1.291   5.607
 6537SOL     OW20509   6.917   4.980   6.576
 6537SOL    HW120510   6.861   5.037   6.636
 6537SOL    HW220511   6.959   5.037   6.505
 6538SOL     OW20512   2.511   3.618   6.216
 6538SOL    HW120513   2.411   3.625   6.214
 6538SOL    HW220514   2.551   3.675   6.145
 6539SOL     OW20515   5.085   0.854   6.602
 6539SOL    HW120516   4.992   0.886   6.584
 6539SOL    HW220517   5.111   0.876   6.696
 6540SOL     OW20518   4.698   1.643   5.830
 6540SOL    HW120519   4.795   1.617   5.824
 6540SOL    HW220520   4.687   1.735   5.791
 6541SOL     OW20521   4.749   1.705   4.986
 6541SOL    HW120522   4.755   1.703   5.086
 6541SOL    HW220523   4.657   1.733   4.959
 6542SOL     OW20524   6.505   3.023   4.304
 6542SOL    HW120525   6.546   3.000   4.392
 6542SOL    HW220526   6.569   3.000   4.230
 6543SOL     OW20527   4.814   3.034   6.099
 6543SOL    HW120528   4.797   3.082   6.185
 6543SOL    HW220529   4.870   2.954   6.116
 6544SOL     OW20530   0.990   6.599   2.859
 6544SOL    HW120531   0.969   6.696   2.845
 6544SOL    HW220532   1.009   6.556   2.771
 6545SOL     OW20533   4.007   0.993   0.822
 6545SOL    HW120534   4.101   1.002   0.852
 6545SOL    HW220535   3.982   0.896   0.819
 6546SOL     OW20536   3.118   4.308   0.166
 6546SOL    HW120537   3.166   4.231   0.123
 6546SOL    HW220538   3.184   4.374   0.200
 6547SOL     OW20539   4.721   1.155   6.289
 6547SOL    HW120540   4.721   1.190   6.195
 6547SOL    HW220541   4.627   1.152   6.323
 6548SOL     OW20542   0.307   3.916   1.042
 6548SOL    HW120543   0.342   3.859   1.116
 6548SOL    HW220544   0.359   4.001   1.038
 6549SOL     OW20545   4.155   0.648   1.883
 6549SOL    HW120546   4.166   0.601   1.795
 6549SOL    HW220547   4.100   0.731   1.870
 6550SOL     OW20548   0.261   0.057   3.371
 6550SOL    HW120549   0.242   0.001   3.291
 6550SOL    HW220550   0.285   0.150   3.341
 6551SOL     OW20551   1.714   4.856   2.074
 6551SOL    HW120552   1.745   4.765   2.103
 6551SOL    HW220553   1.699   4.913   2.154
 6552SOL     OW20554   1.787   0.115   0.601
 6552SOL    HW120555   1.855   0.111   0.528
 6552SOL    HW220556   1.791   0.031   0.655
 6553SOL     OW20557   6.984   2.466   3.404
 6553SOL    HW120558   7.019   2.373   3.392
 6553SOL    HW220559   6.895   2.463   3.449
 6554SOL     OW20560   0.553   0.411   4.893
 6554SOL    HW120561   0.508   0.322   4.881
 6554SOL    HW220562   0.648   0.405   4.864
 6555SOL     OW20563   5.794   1.385   3.388
 6555SOL    HW120564   5.799   1.395   3.288
 6555SOL    HW220565   5.699   1.397   3.418
 6556SOL     OW20566   5.087   4.280   3.920
 6556SOL    HW120567   5.111   4.297   3.824
 6556SOL    HW220568   5.026   4.200   3.924
 6557SOL     OW20569   3.402   0.170   2.639
 6557SOL    HW120570   3.478   0.104   2.643
 6557SOL    HW220571   3.333   0.145   2.708
 6558SOL     OW20572   0.167   5.176   0.334
 6558SOL    HW120573   0.136   5.083   0.355
 6558SOL    HW220574   0.146   5.236   0.412
 6559SOL     OW20575   0.450   3.793   0.212
 6559SOL    HW120576   0.543   3.783   0.248
 6559SOL    HW220577   0.423   3.709   0.166
 6560SOL     OW20578   4.344   4.940   1.406
 6560SOL    HW120579   4.364   5.004   1.480
 6560SOL    HW220580   4.429   4.896   1.377
 6561SOL     OW20581   3.190   3.937   1.496
 6561SOL    HW120582   3.124   3.863   1.509
 6561SOL    HW220583   3.278   3.910   1.535
 6562SOL     OW20584   6.118   3.353   0.439
 6562SOL    HW120585   6.079   3.281   0.496
 6562SOL    HW220586   6.217   3.351   0.445
 6563SOL     OW20587   5.055   5.687   6.590
 6563SOL    HW120588   5.038   5.615   6.523
 6563SOL    HW220589   4.978   5.751   6.591
 6564SOL     OW20590   6.987   3.768   3.243
 6564SOL    HW120591   0.007   3.680   3.252
 6564SOL    HW220592   7.015   3.828   3.318
 6565SOL     OW20593   5.350   1.844   2.925
 6565SOL    HW120594   5.275   1.804   2.872
 6565SOL    HW220595   5.436   1.805   2.894
 6566SOL     OW20596   4.076   6.300   2.018
 6566SOL    HW120597   4.174   6.304   1.996
 6566SOL    HW220598   4.065   6.271   2.113
 6567SOL     OW20599   4.847   0.927   2.918
 6567SOL    HW120600   4.930   0.924   2.973
 6567SOL    HW220601   4.864   0.885   2.829
 6568SOL     OW20602   2.604   1.062   3.724
 6568SOL    HW120603   2.682   1.105   3.770
 6568SOL    HW220604   2.599   1.095   3.630
 6569SOL     OW20605   2.914   3.446   0.594
 6569SOL    HW120606   2.922   3.389   0.512
 6569SOL    HW220607   2.830   3.422   0.642
 6570SOL     OW20608   3.504   0.934   2.361
 6570SOL    HW120609   3.559   0.980   2.292
 6570SOL    HW220610   3.462   0.852   2.321
 6571SOL     OW20611   3.192   5.326   1.795
 6571SOL    HW120612   3.143   5.379   1.726
 6571SOL    HW220613   3.126   5.279   1.854
 6572SOL     OW20614   0.208   5.022   4.832
 6572SOL    HW120615   0.236   5.037   4.737
 6572SOL    HW220616   0.166   5.106   4.868
 6573SOL     OW20617   1.410   1.963   2.390
 6573SOL    HW120618   1.410   2.059   2.419
 6573SOL    HW220619   1.368   1.907   2.461
 6574SOL     OW20620   2.381   5.338   2.159
 6574SOL    HW120621   2.431   5.423   2.145
 6574SOL    HW220622   2.306   5.354   2.223
 6575SOL     OW20623   0.673   0.128   3.139
 6575SOL    HW120624   0.597   0.140   3.076
 6575SOL    HW220625   0.685   0.031   3.159
 6576SOL     OW20626   2.186   6.409   6.912
 6576SOL    HW120627   2.165   6.334   6.849
 6576SOL    HW220628   2.118   6.409   6.986
 6577SOL     OW20629   0.790   1.851   4.546
 6577SOL    HW120630   0.773   1.761   4.507
 6577SOL    HW220631   0.768   1.849   4.644
 6578SOL     OW20632   0.609   5.899   3.252
 6578SOL    HW120633   0.705   5.874   3.268
 6578SOL    HW220634   0.590   5.987   3.295
 6579SOL     OW20635   6.977   3.503   4.255
 6579SOL    HW120636   0.033   3.480   4.305
 6579SOL    HW220637   6.992   3.587   4.202
 6580SOL     OW20638   0.877   2.212   1.082
 6580SOL    HW120639   0.893   2.296   1.031
 6580SOL    HW220640   0.808   2.229   1.153
 6581SOL     OW20641   2.934   0.902   0.274
 6581SOL    HW120642   2.916   0.804   0.273
 6581SOL    HW220643   2.847   0.952   0.274
 6582SOL     OW20644   0.419   1.520   3.739
 6582SOL    HW120645   0.347   1.482   3.797
 6582SOL    HW220646   0.390   1.514   3.643
 6583SOL     OW20647   4.619   0.276   5.555
 6583SOL    HW120648   4.627   0.177   5.542
 6583SOL    HW220649   4.630   0.322   5.467
 6584SOL     OW20650   4.729   2.483   1.155
 6584SOL    HW120651   4.811   2.478   1.099
 6584SOL    HW220652   4.753   2.474   1.251
 6585SOL     OW20653   6.567   6.383   7.018
 6585SOL    HW120654   6.658   6.404   6.981
 6585SOL    HW220655   6.535   6.461   0.046
 6586SOL     OW20656   5.640   0.590   4.929
 6586SOL    HW120657   5.719   0.545   4.970
 6586SOL    HW220658   5.557   0.539   4.951
 6587SOL     OW20659   1.776   5.609   5.349
 6587SOL    HW120660   1.872   5.594   5.374
 6587SOL    HW220661   1.719   5.601   5.432
 6588SOL     OW20662   0.676   3.160   1.843
 6588SOL    HW120663   0.713   3.226   1.778
 6588SOL    HW220664   0.654   3.207   1.929
 6589SOL     OW20665   5.081   0.889   0.596
 6589SOL    HW120666   5.038   0.799   0.581
 6589SOL    HW220667   5.122   0.891   0.687
 6590SOL     OW20668   0.151   1.306   5.927
 6590SOL    HW120669   0.088   1.360   5.871
 6590SOL    HW220670   0.245   1.330   5.905
 6591SOL     OW20671   6.127   5.274   2.515
 6591SOL    HW120672   6.182   5.339   2.567
 6591SOL    HW220673   6.089   5.319   2.435
 6592SOL     OW20674   5.251   6.826   3.175
 6592SOL    HW120675   5.234   6.773   3.258
 6592SOL    HW220676   5.347   6.820   3.150
 6593SOL     OW20677   1.891   2.395   2.892
 6593SOL    HW120678   1.920   2.321   2.831
 6593SOL    HW220679   1.793   2.386   2.911
 6594SOL     OW20680   3.616   1.708   6.951
 6594SOL    HW120681   3.613   1.782   6.883
 6594SOL    HW220682   3.525   1.696   6.991
 6595SOL     OW20683   1.261   4.198   6.829
 6595SOL    HW120684   1.191   4.187   6.758
 6595SOL    HW220685   1.269   4.114   6.882
 6596SOL     OW20686   3.324   6.404   4.673
 6596SOL    HW120687   3.356   6.410   4.579
 6596SOL    HW220688   3.224   6.398   4.675
 6597SOL     OW20689   1.305   5.458   1.648
 6597SOL    HW120690   1.339   5.402   1.724
 6597SOL    HW220691   1.366   5.447   1.569
 6598SOL     OW20692   1.373   5.866   4.387
 6598SOL    HW120693   1.308   5.802   4.347
 6598SOL    HW220694   1.376   5.949   4.331
 6599SOL     OW20695   4.423   6.299   6.235
 6599SOL    HW120696   4.369   6.329   6.315
 6599SOL    HW220697   4.422   6.199   6.231
 6600SOL     OW20698   4.537   5.480   5.398
 6600SOL    HW120699   4.523   5.431   5.484
 6600SOL    HW220700   4.479   5.561   5.396
 6601SOL     OW20701   1.663   2.380   4.950
 6601SOL    HW120702   1.668   2.292   4.902
 6601SOL    HW220703   1.751   2.427   4.943
 6602SOL     OW20704   1.395   0.929   2.260
 6602SOL    HW120705   1.320   0.890   2.207
 6602SOL    HW220706   1.396   1.028   2.251
 6603SOL     OW20707   0.115   2.601   3.634
 6603SOL    HW120708   0.068   2.555   3.559
 6603SOL    HW220709   0.091   2.556   3.720
 6604SOL     OW20710   1.711   0.597   0.703
 6604SOL    HW120711   1.642   0.629   0.768
 6604SOL    HW220712   1.691   0.503   0.675
 6605SOL     OW20713   5.178   5.001   1.571
 6605SOL    HW120714   5.159   5.089   1.614
 6605SOL    HW220715   5.272   4.973   1.589
 6606SOL     OW20716   0.581   5.780   2.339
 6606SOL    HW120717   0.498   5.744   2.296
 6606SOL    HW220718   0.625   5.707   2.391
 6607SOL     OW20719   1.987   3.734   2.343
 6607SOL    HW120720   2.001   3.638   2.319
 6607SOL    HW220721   2.072   3.785   2.330
 6608SOL     OW20722   6.282   6.150   0.805
 6608SOL    HW120723   6.349   6.214   0.842
 6608SOL    HW220724   6.257   6.084   0.876
 6609SOL     OW20725   4.908   0.933   6.122
 6609SOL    HW120726   4.975   0.972   6.058
 6609SOL    HW220727   4.828   0.993   6.125
 6610SOL     OW20728   2.174   6.336   6.502
 6610SOL    HW120729   2.162   6.301   6.594
 6610SOL    HW220730   2.271   6.355   6.485
 6611SOL     OW20731   4.628   2.638   3.828
 6611SOL    HW120732   4.574   2.611   3.749
 6611SOL    HW220733   4.725   2.643   3.802
 6612SOL     OW20734   6.080   1.909   5.862
 6612SOL    HW120735   6.105   1.963   5.781
 6612SOL    HW220736   6.029   1.828   5.833
 6613SOL     OW20737   6.200   6.474   4.777
 6613SOL    HW120738   6.119   6.530   4.794
 6613SOL    HW220739   6.202   6.397   4.841
 6614SOL     OW20740   4.518   5.557   0.297
 6614SOL    HW120741   4.602   5.572   0.245
 6614SOL    HW220742   4.535   5.492   0.371
 6615SOL     OW20743   1.655   5.707   1.538
 6615SOL    HW120744   1.640   5.789   1.593
 6615SOL    HW220745   1.749   5.707   1.504
 6616SOL     OW20746   5.330   0.767   6.275
 6616SOL    HW120747   5.342   0.822   6.193
 6616SOL    HW220748   5.252   0.705   6.263
 6617SOL     OW20749   4.691   5.209   3.895
 6617SOL    HW120750   4.622   5.241   3.831
 6617SOL    HW220751   4.684   5.110   3.906
 6618SOL     OW20752   1.392   2.589   2.079
 6618SOL    HW120753   1.458   2.644   2.027
 6618SOL    HW220754   1.439   2.511   2.120
 6619SOL     OW20755   5.593   0.600   4.190
 6619SOL    HW120756   5.677   0.607   4.244
 6619SOL    HW220757   5.547   0.514   4.212
 6620SOL     OW20758   1.896   2.525   5.756
 6620SOL    HW120759   1.985   2.481   5.770
 6620SOL    HW220760   1.895   2.572   5.668
 6621SOL     OW20761   3.569   3.231   5.856
 6621SOL    HW120762   3.577   3.133   5.879
 6621SOL    HW220763   3.527   3.279   5.933
 6622SOL     OW20764   6.030   6.468   1.687
 6622SOL    HW120765   6.007   6.503   1.596
 6622SOL    HW220766   6.062   6.374   1.679
 6623SOL     OW20767   3.567   2.903   4.811
 6623SOL    HW120768   3.522   2.893   4.900
 6623SOL    HW220769   3.667   2.903   4.823
 6624SOL     OW20770   0.212   4.713   6.089
 6624SOL    HW120771   0.283   4.774   6.126
 6624SOL    HW220772   0.230   4.619   6.120
 6625SOL     OW20773   5.193   1.392   5.171
 6625SOL    HW120774   5.253   1.312   5.171
 6625SOL    HW220775   5.183   1.426   5.078
 6626SOL     OW20776   4.050   5.083   5.142
 6626SOL    HW120777   4.116   5.157   5.155
 6626SOL    HW220778   3.990   5.078   5.222
 6627SOL     OW20779   2.066   6.616   5.126
 6627SOL    HW120780   2.122   6.571   5.196
 6627SOL    HW220781   1.985   6.561   5.108
 6628SOL     OW20782   5.186   4.926   4.545
 6628SOL    HW120783   5.252   4.981   4.598
 6628SOL    HW220784   5.235   4.878   4.472
 6629SOL     OW20785   4.729   5.899   6.706
 6629SOL    HW120786   4.672   5.969   6.749
 6629SOL    HW220787   4.822   5.905   6.741
 6630SOL     OW20788   4.042   1.695   1.207
 6630SOL    HW120789   3.965   1.747   1.244
 6630SOL    HW220790   4.065   1.730   1.116
 6631SOL     OW20791   2.328   5.160   3.478
 6631SOL    HW120792   2.255   5.183   3.543
 6631SOL    HW220793   2.396   5.233   3.477
 6632SOL     OW20794   0.039   0.395   1.197
 6632SOL    HW120795   6.984   0.453   1.196
 6632SOL    HW220796   0.014   0.301   1.175
 6633SOL     OW20797   1.480   4.312   6.676
 6633SOL    HW120798   1.409   4.270   6.732
 6633SOL    HW220799   1.466   4.411   6.674
 6634SOL     OW20800   5.178   2.364   5.125
 6634SOL    HW120801   5.161   2.304   5.204
 6634SOL    HW220802   5.276   2.380   5.117
 6635SOL     OW20803   4.752   4.907   3.004
 6635SOL    HW120804   4.821   4.924   3.075
 6635SOL    HW220805   4.666   4.951   3.029
 6636SOL     OW20806   4.400   1.693   5.918
 6636SOL    HW120807   4.384   1.707   6.016
 6636SOL    HW220808   4.493   1.723   5.895
 6637SOL     OW20809   1.153   6.853   6.786
 6637SOL    HW120810   1.174   6.816   6.876
 6637SOL    HW220811   1.057   6.882   6.784
 6638SOL     OW20812   3.099   3.931   3.250
 6638SOL    HW120813   3.022   3.888   3.202
 6638SOL    HW220814   3.146   3.994   3.188
 6639SOL     OW20815   5.333   4.935   6.475
 6639SOL    HW120816   5.270   4.903   6.545
 6639SOL    HW220817   5.331   4.873   6.397
 6640SOL     OW20818   0.955   1.774   5.083
 6640SOL    HW120819   0.947   1.870   5.054
 6640SOL    HW220820   1.013   1.769   5.165
 6641SOL     OW20821   2.595   1.353   5.921
 6641SOL    HW120822   2.580   1.262   5.882
 6641SOL    HW220823   2.690   1.379   5.908
 6642SOL     OW20824   2.030   5.832   6.719
 6642SOL    HW120825   1.938   5.817   6.684
 6642SOL    HW220826   2.027   5.895   6.797
 6643SOL     OW20827   6.109   5.425   0.355
 6643SOL    HW120828   6.207   5.422   0.335
 6643SOL    HW220829   6.096   5.423   0.454
 6644SOL     OW20830   2.548   5.783   1.228
 6644SOL    HW120831   2.454   5.748   1.227
 6644SOL    HW220832   2.594   5.749   1.311
 6645SOL     OW20833   6.289   4.541   0.405
 6645SOL    HW120834   6.300   4.498   0.315
 6645SOL    HW220835   6.327   4.633   0.402
 6646SOL     OW20836   3.564   0.471   4.790
 6646SOL    HW120837   3.588   0.527   4.870
 6646SOL    HW220838   3.604   0.380   4.800
 6647SOL     OW20839   5.099   0.954   0.887
 6647SOL    HW120840   5.139   0.965   0.978
 6647SOL    HW220841   5.017   1.010   0.879
 6648SOL     OW20842   3.624   6.309   3.758
 6648SOL    HW120843   3.631   6.390   3.816
 6648SOL    HW220844   3.579   6.235   3.809
 6649SOL     OW20845   5.293   1.172   6.890
 6649SOL    HW120846   5.259   1.143   6.979
 6649SOL    HW220847   5.222   1.224   6.842
 6650SOL     OW20848   3.649   1.237   5.864
 6650SOL    HW120849   3.616   1.164   5.804
 6650SOL    HW220850   3.742   1.262   5.839
 6651SOL     OW20851   2.914   1.067   5.745
 6651SOL    HW120852   2.875   0.995   5.802
 6651SOL    HW220853   2.878   1.058   5.652
 6652SOL     OW20854   0.660   4.190   0.908
 6652SOL    HW120855   0.696   4.176   1.000
 6652SOL    HW220856   0.727   4.239   0.853
 6653SOL     OW20857   3.844   3.821   1.824
 6653SOL    HW120858   3.935   3.807   1.863
 6653SOL    HW220859   3.852   3.867   1.736
 6654SOL     OW20860   1.193   4.977   1.320
 6654SOL    HW120861   1.204   5.005   1.225
 6654SOL    HW220862   1.258   5.027   1.377
 6655SOL     OW20863   1.216   0.737   3.836
 6655SOL    HW120864   1.127   0.740   3.791
 6655SOL    HW220865   1.279   0.680   3.784
 6656SOL     OW20866   5.199   2.252   3.861
 6656SOL    HW120867   5.229   2.243   3.766
 6656SOL    HW220868   5.263   2.203   3.921
 6657SOL     OW20869   6.294   4.897   6.644
 6657SOL    HW120870   6.298   4.798   6.661
 6657SOL    HW220871   6.385   4.936   6.653
 6658SOL     OW20872   6.637   0.803   4.678
 6658SOL    HW120873   6.542   0.774   4.685
 6658SOL    HW220874   6.679   0.803   4.769
 6659SOL     OW20875   1.906   3.488   0.283
 6659SOL    HW120876   1.815   3.520   0.308
 6659SOL    HW220877   1.900   3.396   0.243
 6660SOL     OW20878   1.119   5.585   1.181
 6660SOL    HW120879   1.123   5.497   1.227
 6660SOL    HW220880   1.142   5.574   1.084
 6661SOL     OW20881   1.346   6.644   4.984
 6661SOL    HW120882   1.364   6.735   5.023
 6661SOL    HW220883   1.320   6.582   5.058
 6662SOL     OW20884   1.431   0.060   0.177
 6662SOL    HW120885   1.511   0.065   0.117
 6662SOL    HW220886   1.461   0.053   0.272
 6663SOL     OW20887   6.146   5.478   4.206
 6663SOL    HW120888   6.241   5.448   4.204
 6663SOL    HW220889   6.141   5.570   4.245
 6664SOL     OW20890   2.321   6.691   0.766
 6664SOL    HW120891   2.375   6.608   0.752
 6664SOL    HW220892   2.302   6.703   0.863
 6665SOL     OW20893   1.907   5.748   4.635
 6665SOL    HW120894   1.853   5.706   4.708
 6665SOL    HW220895   1.924   5.680   4.564
 6666SOL     OW20896   6.578   6.887   5.669
 6666SOL    HW120897   6.649   6.951   5.699
 6666SOL    HW220898   6.522   6.860   5.748
 6667SOL     OW20899   0.033   6.232   6.516
 6667SOL    HW120900   0.013   6.196   6.607
 6667SOL    HW220901   6.975   6.242   6.464
 6668SOL     OW20902   6.907   5.140   0.497
 6668SOL    HW120903   6.828   5.081   0.513
 6668SOL    HW220904   6.933   5.136   0.401
 6669SOL     OW20905   1.697   2.409   3.185
 6669SOL    HW120906   1.606   2.414   3.227
 6669SOL    HW220907   1.741   2.498   3.189
 6670SOL     OW20908   3.795   1.069   5.400
 6670SOL    HW120909   3.724   1.140   5.406
 6670SOL    HW220910   3.792   1.012   5.483
 6671SOL     OW20911   5.080   6.575   0.744
 6671SOL    HW120912   5.046   6.559   0.651
 6671SOL    HW220913   5.090   6.487   0.791
 6672SOL     OW20914   6.508   2.764   7.018
 6672SOL    HW120915   6.591   2.738   6.969
 6672SOL    HW220916   6.431   2.766   6.955
 6673SOL     OW20917   5.060   4.564   4.364
 6673SOL    HW120918   5.133   4.532   4.423
 6673SOL    HW220919   5.038   4.659   4.387
 6674SOL     OW20920   0.428   3.803   6.442
 6674SOL    HW120921   0.439   3.806   6.541
 6674SOL    HW220922   0.335   3.833   6.418
 6675SOL     OW20923   5.337   3.663   0.859
 6675SOL    HW120924   5.423   3.630   0.818
 6675SOL    HW220925   5.271   3.588   0.862
 6676SOL     OW20926   0.870   4.241   5.942
 6676SOL    HW120927   0.796   4.205   5.886
 6676SOL    HW220928   0.916   4.315   5.893
 6677SOL     OW20929   1.425   1.739   6.160
 6677SOL    HW120930   1.361   1.744   6.236
 6677SOL    HW220931   1.513   1.780   6.187
 6678SOL     OW20932   3.176   3.276   6.196
 6678SOL    HW120933   3.197   3.183   6.165
 6678SOL    HW220934   3.098   3.272   6.259
 6679SOL     OW20935   3.418   1.215   3.748
 6679SOL    HW120936   3.351   1.222   3.822
 6679SOL    HW220937   3.510   1.206   3.786
 6680SOL     OW20938   5.414   6.812   6.493
 6680SOL    HW120939   5.490   6.867   6.458
 6680SOL    HW220940   5.384   6.848   6.581
 6681SOL     OW20941   3.719   5.930   1.617
 6681SOL    HW120942   3.694   5.875   1.697
 6681SOL    HW220943   3.649   6.000   1.602
 6682SOL     OW20944   0.980   4.259   2.344
 6682SOL    HW120945   0.923   4.338   2.320
 6682SOL    HW220946   1.026   4.225   2.263
 6683SOL     OW20947   5.937   3.345   5.161
 6683SOL    HW120948   6.022   3.319   5.207
 6683SOL    HW220949   5.896   3.265   5.119
 6684SOL     OW20950   2.898   0.050   1.341
 6684SOL    HW120951   2.909   0.149   1.348
 6684SOL    HW220952   2.806   0.030   1.308
 6685SOL     OW20953   6.492   3.110   5.386
 6685SOL    HW120954   6.409   3.103   5.442
 6685SOL    HW220955   6.500   3.204   5.351
 6686SOL     OW20956   5.273   6.303   4.390
 6686SOL    HW120957   5.365   6.338   4.410
 6686SOL    HW220958   5.205   6.362   4.434
 6687SOL     OW20959   0.957   3.375   0.852
 6687SOL    HW120960   0.988   3.458   0.898
 6687SOL    HW220961   0.887   3.330   0.908
 6688SOL     OW20962   5.974   4.780   2.519
 6688SOL    HW120963   5.950   4.872   2.491
 6688SOL    HW220964   5.970   4.772   2.618
 6689SOL     OW20965   4.202   2.976   7.024
 6689SOL    HW120966   4.294   2.938   0.011
 6689SOL    HW220967   4.183   3.042   0.070
 6690SOL     OW20968   0.920   0.972   0.757
 6690SOL    HW120969   0.923   0.904   0.684
 6690SOL    HW220970   0.824   0.994   0.778
 6691SOL     OW20971   2.685   6.375   2.365
 6691SOL    HW120972   2.763   6.331   2.321
 6691SOL    HW220973   2.638   6.433   2.298
 6692SOL     OW20974   3.246   2.954   4.496
 6692SOL    HW120975   3.342   2.954   4.469
 6692SOL    HW220976   3.239   2.960   4.595
 6693SOL     OW20977   3.993   3.373   5.611
 6693SOL    HW120978   4.038   3.461   5.625
 6693SOL    HW220979   4.014   3.340   5.519
 6694SOL     OW20980   3.951   5.652   1.208
 6694SOL    HW120981   3.935   5.698   1.295
 6694SOL    HW220982   3.866   5.648   1.156
 6695SOL     OW20983   3.262   2.166   0.094
 6695SOL    HW120984   3.351   2.212   0.091
 6695SOL    HW220985   3.236   2.151   0.189
 6696SOL     OW20986   3.206   3.054   5.547
 6696SOL    HW120987   3.175   3.115   5.619
 6696SOL    HW220988   3.140   3.055   5.471
 6697SOL     OW20989   4.932   1.993   3.107
 6697SOL    HW120990   4.915   1.926   3.179
 6697SOL    HW220991   4.976   1.949   3.029
 6698SOL     OW20992   2.867   2.320   1.032
 6698SOL    HW120993   2.964   2.312   1.006
 6698SOL    HW220994   2.814   2.251   0.983
 6699SOL     OW20995   2.348   5.834   5.181
 6699SOL    HW120996   2.291   5.862   5.103
 6699SOL    HW220997   2.294   5.838   5.265
 6700SOL     OW20998   1.027   0.084   1.449
 6700SOL    HW120999   0.995   0.144   1.376
 6700SOL    HW221000   0.984   0.110   1.535
 6701SOL     OW21001   5.875   4.457   2.282
 6701SOL    HW121002   5.868   4.538   2.341
 6701SOL    HW221003   5.916   4.484   2.195
 6702SOL     OW21004   3.079   2.273   1.590
 6702SOL    HW121005   3.087   2.242   1.685
 6702SOL    HW221006   3.151   2.230   1.535
 6703SOL     OW21007   6.275   1.934   0.377
 6703SOL    HW121008   6.231   1.864   0.433
 6703SOL    HW221009   6.375   1.927   0.387
 6704SOL     OW21010   3.511   1.486   3.399
 6704SOL    HW121011   3.489   1.402   3.350
 6704SOL    HW221012   3.471   1.483   3.490
 6705SOL     OW21013   6.670   3.334   1.869
 6705SOL    HW121014   6.663   3.381   1.781
 6705SOL    HW221015   6.636   3.394   1.941
 6706SOL     OW21016   1.922   4.631   2.426
 6706SOL    HW121017   1.868   4.646   2.343
 6706SOL    HW221018   1.937   4.718   2.473
 6707SOL     OW21019   6.648   6.221   3.625
 6707SOL    HW121020   6.713   6.246   3.697
 6707SOL    HW221021   6.698   6.203   3.540
 6708SOL     OW21022   6.700   4.825   1.269
 6708SOL    HW121023   6.794   4.855   1.251
 6708SOL    HW221024   6.636   4.896   1.240
 6709SOL     OW21025   2.820   6.507   2.918
 6709SOL    HW121026   2.797   6.412   2.899
 6709SOL    HW221027   2.748   6.566   2.881
 6710SOL     OW21028   3.614   0.424   6.467
 6710SOL    HW121029   3.538   0.474   6.425
 6710SOL    HW221030   3.584   0.386   6.554
 6711SOL     OW21031   4.611   5.659   5.987
 6711SOL    HW121032   4.535   5.617   6.036
 6711SOL    HW221033   4.633   5.605   5.906
 6712SOL     OW21034   5.077   3.885   0.498
 6712SOL    HW121035   5.129   3.969   0.512
 6712SOL    HW221036   5.091   3.825   0.577
 6713SOL     OW21037   2.020   0.318   2.625
 6713SOL    HW121038   2.025   0.370   2.540
 6713SOL    HW221039   1.968   0.370   2.693
 6714SOL     OW21040   6.658   0.611   5.650
 6714SOL    HW121041   6.620   0.519   5.643
 6714SOL    HW221042   6.670   0.650   5.558
 6715SOL     OW21043   0.541   0.296   0.089
 6715SOL    HW121044   0.544   0.375   0.028
 6715SOL    HW221045   0.505   0.217   0.039
 6716SOL     OW21046   0.367   5.657   1.926
 6716SOL    HW121047   0.282   5.685   1.881
 6716SOL    HW221048   0.437   5.636   1.856
 6717SOL     OW21049   3.813   3.081   6.424
 6717SOL    HW121050   3.899   3.125   6.447
 6717SOL    HW221051   3.758   3.141   6.367
 6718SOL     OW21052   5.698   0.469   0.491
 6718SOL    HW121053   5.684   0.546   0.429
 6718SOL    HW221054   5.793   0.438   0.484
 6719SOL     OW21055   2.494   6.841   6.489
 6719SOL    HW121056   2.524   6.849   6.584
 6719SOL    HW221057   2.573   6.856   6.428
 6720SOL     OW21058   1.402   0.150   4.129
 6720SOL    HW121059   1.488   0.181   4.168
 6720SOL    HW221060   1.365   0.075   4.185
 6721SOL     OW21061   6.977   0.478   0.339
 6721SOL    HW121062   6.994   0.516   0.430
 6721SOL    HW221063   6.954   0.552   0.276
 6722SOL     OW21064   6.620   2.787   2.034
 6722SOL    HW121065   6.631   2.831   2.123
 6722SOL    HW221066   6.596   2.856   1.965
 6723SOL     OW21067   2.265   6.266   3.065
 6723SOL    HW121068   2.204   6.311   3.129
 6723SOL    HW221069   2.322   6.335   3.019
 6724SOL     OW21070   2.268   3.477   6.158
 6724SOL    HW121071   2.263   3.491   6.059
 6724SOL    HW221072   2.275   3.380   6.178
 6725SOL     OW21073   6.922   3.263   1.747
 6725SOL    HW121074   6.833   3.290   1.785
 6725SOL    HW221075   6.995   3.295   1.808
 6726SOL     OW21076   0.360   2.278   5.628
 6726SOL    HW121077   0.430   2.275   5.557
 6726SOL    HW221078   0.382   2.212   5.700
 6727SOL     OW21079   0.042   4.213   4.907
 6727SOL    HW121080   6.985   4.194   4.857
 6727SOL    HW221081   0.066   4.134   4.963
 6728SOL     OW21082   3.681   1.914   2.941
 6728SOL    HW121083   3.673   1.914   2.841
 6728SOL    HW221084   3.610   1.855   2.980
 6729SOL     OW21085   6.911   1.347   3.148
 6729SOL    HW121086   6.825   1.355   3.199
 6729SOL    HW221087   6.898   1.385   3.056
 6730SOL     OW21088   2.001   6.933   1.131
 6730SOL    HW121089   1.928   6.922   1.198
 6730SOL    HW221090   2.082   6.971   1.176
 6731SOL     OW21091   0.593   6.181   1.121
 6731SOL    HW121092   0.678   6.182   1.068
 6731SOL    HW221093   0.577   6.089   1.157
 6732SOL     OW21094   5.573   4.414   4.744
 6732SOL    HW121095   5.534   4.474   4.814
 6732SOL    HW221096   5.506   4.400   4.671
 6733SOL     OW21097   4.123   5.797   0.089
 6733SOL    HW121098   4.124   5.700   0.065
 6733SOL    HW221099   4.033   5.836   0.067
 6734SOL     OW21100   6.121   2.519   4.388
 6734SOL    HW121101   6.137   2.541   4.292
 6734SOL    HW221102   6.120   2.604   4.441
 6735SOL     OW21103   7.002   4.456   5.143
 6735SOL    HW121104   6.927   4.394   5.167
 6735SOL    HW221105   0.058   4.403   5.127
 6736SOL     OW21106   2.753   3.494   0.185
 6736SOL    HW121107   2.800   3.454   0.264
 6736SOL    HW221108   2.681   3.432   0.155
 6737SOL     OW21109   1.474   2.650   0.497
 6737SOL    HW121110   1.463   2.711   0.418
 6737SOL    HW221111   1.428   2.691   0.576
 6738SOL     OW21112   1.769   5.934   2.986
 6738SOL    HW121113   1.823   5.888   2.916
 6738SOL    HW221114   1.709   6.002   2.943
 6739SOL     OW21115   3.467   5.894   5.333
 6739SOL    HW121116   3.447   5.933   5.423
 6739SOL    HW221117   3.481   5.796   5.342
 6740SOL     OW21118   1.382   6.995   4.412
 6740SOL    HW121119   1.290   6.989   4.451
 6740SOL    HW221120   1.399   6.914   4.356
 6741SOL     OW21121   4.120   1.533   5.662
 6741SOL    HW121122   4.197   1.583   5.623
 6741SOL    HW221123   4.080   1.585   5.738
 6742SOL     OW21124   6.160   6.248   2.936
 6742SOL    HW121125   6.182   6.334   2.890
 6742SOL    HW221126   6.158   6.263   3.035
 6743SOL     OW21127   3.859   5.953   0.368
 6743SOL    HW121128   3.949   5.973   0.406
 6743SOL    HW221129   3.858   5.861   0.329
 6744SOL     OW21130   5.741   3.909   5.597
 6744SOL    HW121131   5.785   3.842   5.538
 6744SOL    HW221132   5.766   3.891   5.692
 6745SOL     OW21133   6.783   0.078   2.889
 6745SOL    HW121134   6.763   0.176   2.886
 6745SOL    HW221135   6.744   0.038   2.972
 6746SOL     OW21136   0.535   1.662   4.205
 6746SOL    HW121137   0.499   1.609   4.282
 6746SOL    HW221138   0.549   1.602   4.127
 6747SOL     OW21139   5.567   1.202   5.050
 6747SOL    HW121140   5.482   1.182   5.098
 6747SOL    HW221141   5.628   1.253   5.111
 6748SOL     OW21142   2.338   1.056   3.682
 6748SOL    HW121143   2.295   1.142   3.653
 6748SOL    HW221144   2.436   1.070   3.693
 6749SOL     OW21145   2.882   5.585   0.659
 6749SOL    HW121146   2.981   5.575   0.663
 6749SOL    HW221147   2.840   5.497   0.638
 6750SOL     OW21148   4.068   2.176   4.979
 6750SOL    HW121149   4.134   2.117   5.025
 6750SOL    HW221150   4.072   2.268   5.017
 6751SOL     OW21151   3.897   0.146   3.258
 6751SOL    HW121152   3.838   0.132   3.178
 6751SOL    HW221153   3.952   0.229   3.244
 6752SOL     OW21154   0.888   1.609   3.080
 6752SOL    HW121155   0.816   1.678   3.080
 6752SOL    HW221156   0.872   1.543   3.006
 6753SOL     OW21157   3.064   0.388   6.426
 6753SOL    HW121158   3.152   0.372   6.382
 6753SOL    HW221159   3.059   0.482   6.458
 6754SOL     OW21160   0.649   1.907   0.348
 6754SOL    HW121161   0.589   1.979   0.316
 6754SOL    HW221162   0.618   1.819   0.312
 6755SOL     OW21163   4.346   0.614   3.261
 6755SOL    HW121164   4.356   0.583   3.356
 6755SOL    HW221165   4.437   0.619   3.219
 6756SOL     OW21166   4.015   4.716   5.356
 6756SOL    HW121167   4.062   4.733   5.269
 6756SOL    HW221168   3.968   4.799   5.385
 6757SOL     OW21169   4.596   1.899   1.680
 6757SOL    HW121170   4.674   1.955   1.709
 6757SOL    HW221171   4.517   1.957   1.661
 6758SOL     OW21172   6.606   1.973   1.754
 6758SOL    HW121173   6.604   1.960   1.853
 6758SOL    HW221174   6.516   2.002   1.721
 6759SOL     OW21175   0.804   4.192   4.894
 6759SOL    HW121176   0.716   4.236   4.874
 6759SOL    HW221177   0.835   4.141   4.815
 6760SOL     OW21178   6.503   4.114   2.624
 6760SOL    HW121179   6.426   4.136   2.684
 6760SOL    HW221180   6.510   4.184   2.553
 6761SOL     OW21181   6.555   2.249   6.028
 6761SOL    HW121182   6.488   2.185   5.993
 6761SOL    HW221183   6.629   2.199   6.073
 6762SOL     OW21184   0.586   5.795   4.286
 6762SOL    HW121185   0.592   5.774   4.188
 6762SOL    HW221186   0.506   5.853   4.303
 6763SOL     OW21187   0.568   5.015   2.678
 6763SOL    HW121188   0.499   5.087   2.672
 6763SOL    HW221189   0.552   4.948   2.605
 6764SOL     OW21190   1.889   4.684   0.350
 6764SOL    HW121191   1.849   4.604   0.305
 6764SOL    HW221192   1.849   4.767   0.311
 6765SOL     OW21193   5.619   3.935   3.221
 6765SOL    HW121194   5.621   4.034   3.208
 6765SOL    HW221195   5.528   3.908   3.254
 6766SOL     OW21196   4.934   6.554   6.213
 6766SOL    HW121197   5.019   6.570   6.262
 6766SOL    HW221198   4.885   6.477   6.255
 6767SOL     OW21199   1.471   2.590   0.925
 6767SOL    HW121200   1.525   2.553   0.849
 6767SOL    HW221201   1.392   2.639   0.890
 6768SOL     OW21202   1.270   6.593   3.998
 6768SOL    HW121203   1.197   6.560   4.058
 6768SOL    HW221204   1.327   6.516   3.969
 6769SOL     OW21205   2.496   0.397   5.200
 6769SOL    HW121206   2.550   0.471   5.160
 6769SOL    HW221207   2.404   0.430   5.220
 6770SOL     OW21208   4.932   2.232   3.555
 6770SOL    HW121209   4.998   2.305   3.535
 6770SOL    HW221210   4.960   2.149   3.507
 6771SOL     OW21211   4.204   1.174   2.524
 6771SOL    HW121212   4.206   1.263   2.479
 6771SOL    HW221213   4.252   1.180   2.612
 6772SOL     OW21214   4.455   2.488   2.311
 6772SOL    HW121215   4.467   2.587   2.323
 6772SOL    HW221216   4.519   2.439   2.371
 6773SOL     OW21217   0.737   6.483   2.136
 6773SOL    HW121218   0.707   6.393   2.104
 6773SOL    HW221219   0.795   6.525   2.066
 6774SOL     OW21220   2.153   3.523   4.680
 6774SOL    HW121221   2.053   3.520   4.690
 6774SOL    HW221222   2.178   3.594   4.615
 6775SOL     OW21223   1.338   2.713   3.261
 6775SOL    HW121224   1.339   2.744   3.356
 6775SOL    HW221225   1.275   2.635   3.253
 6776SOL     OW21226   4.130   3.372   0.490
 6776SOL    HW121227   4.079   3.407   0.412
 6776SOL    HW221228   4.067   3.348   0.564
 6777SOL     OW21229   4.934   5.102   1.160
 6777SOL    HW121230   4.848   5.142   1.190
 6777SOL    HW221231   4.979   5.164   1.096
 6778SOL     OW21232   6.893   4.910   1.685
 6778SOL    HW121233   6.918   4.815   1.667
 6778SOL    HW221234   6.950   4.946   1.759
 6779SOL     OW21235   5.797   4.822   6.287
 6779SOL    HW121236   5.832   4.853   6.198
 6779SOL    HW221237   5.845   4.870   6.360
 6780SOL     OW21238   1.139   2.890   2.605
 6780SOL    HW121239   1.200   2.959   2.643
 6780SOL    HW221240   1.095   2.840   2.680
 6781SOL     OW21241   6.303   1.250   4.829
 6781SOL    HW121242   6.206   1.227   4.824
 6781SOL    HW221243   6.314   1.339   4.873
 6782SOL     OW21244   0.964   1.254   3.384
 6782SOL    HW121245   1.054   1.211   3.379
 6782SOL    HW221246   0.973   1.345   3.424
 6783SOL     OW21247   0.930   1.865   5.775
 6783SOL    HW121248   0.873   1.942   5.803
 6783SOL    HW221249   0.962   1.816   5.856
 6784SOL     OW21250   2.200   3.949   0.656
 6784SOL    HW121251   2.150   3.862   0.665
 6784SOL    HW221252   2.293   3.930   0.626
 6785SOL     OW21253   5.937   5.160   5.036
 6785SOL    HW121254   6.000   5.235   5.017
 6785SOL    HW221255   5.967   5.078   4.988
 6786SOL     OW21256   1.096   2.320   0.312
 6786SOL    HW121257   1.078   2.245   0.376
 6786SOL    HW221258   1.194   2.325   0.293
 6787SOL     OW21259   3.544   3.619   0.352
 6787SOL    HW121260   3.475   3.558   0.311
 6787SOL    HW221261   3.574   3.685   0.283
 6788SOL     OW21262   0.941   4.561   2.174
 6788SOL    HW121263   0.925   4.588   2.269
 6788SOL    HW221264   1.039   4.558   2.157
 6789SOL     OW21265   0.369   4.510   3.801
 6789SOL    HW121266   0.343   4.459   3.882
 6789SOL    HW221267   0.287   4.531   3.747
 6790SOL     OW21268   1.065   3.497   0.011
 6790SOL    HW121269   1.076   3.400   7.019
 6790SOL    HW221270   1.020   3.509   0.100
 6791SOL     OW21271   3.796   2.015   2.148
 6791SOL    HW121272   3.737   2.085   2.109
 6791SOL    HW221273   3.777   2.006   2.246
 6792SOL     OW21274   5.195   7.015   5.220
 6792SOL    HW121275   5.280   6.974   5.186
 6792SOL    HW221276   5.203   0.088   5.218
 6793SOL     OW21277   2.534   0.863   6.424
 6793SOL    HW121278   2.591   0.787   6.452
 6793SOL    HW221279   2.439   0.847   6.452
 6794SOL     OW21280   5.723   1.323   5.248
 6794SOL    HW121281   5.666   1.383   5.303
 6794SOL    HW221282   5.774   1.377   5.181
 6795SOL     OW21283   0.939   6.039   1.538
 6795SOL    HW121284   0.984   6.011   1.453
 6795SOL    HW221285   0.917   6.136   1.533
 6796SOL     OW21286   6.411   0.886   3.088
 6796SOL    HW121287   6.367   0.908   3.001
 6796SOL    HW221288   6.341   0.873   3.158
 6797SOL     OW21289   0.190   2.087   1.854
 6797SOL    HW121290   0.217   2.154   1.924
 6797SOL    HW221291   0.095   2.103   1.827
 6798SOL     OW21292   6.410   6.493   1.684
 6798SOL    HW121293   6.509   6.480   1.673
 6798SOL    HW221294   6.366   6.491   1.594
 6799SOL     OW21295   6.039   0.831   2.111
 6799SOL    HW121296   5.997   0.778   2.037
 6799SOL    HW221297   6.138   0.817   2.110
 6800SOL     OW21298   2.315   2.734   2.183
 6800SOL    HW121299   2.302   2.763   2.278
 6800SOL    HW221300   2.256   2.789   2.123
 6801SOL     OW21301   1.366   0.566   3.349
 6801SOL    HW121302   1.422   0.498   3.397
 6801SOL    HW221303   1.306   0.612   3.414
 6802SOL     OW21304   3.403   5.793   1.763
 6802SOL    HW121305   3.401   5.693   1.761
 6802SOL    HW221306   3.419   5.824   1.857
 6803SOL     OW21307   4.219   4.119   6.642
 6803SOL    HW121308   4.189   4.104   6.548
 6803SOL    HW221309   4.167   4.193   6.683
 6804SOL     OW21310   3.869   5.075   3.262
 6804SOL    HW121311   3.892   5.051   3.167
 6804SOL    HW221312   3.892   4.999   3.322
 6805SOL     OW21313   0.944   4.299   6.331
 6805SOL    HW121314   0.897   4.238   6.268
 6805SOL    HW221315   1.034   4.322   6.293
 6806SOL     OW21316   6.371   1.532   3.289
 6806SOL    HW121317   6.343   1.589   3.366
 6806SOL    HW221318   6.391   1.439   3.321
 6807SOL     OW21319   3.278   3.237   1.738
 6807SOL    HW121320   3.334   3.235   1.821
 6807SOL    HW221321   3.286   3.148   1.691
 6808SOL     OW21322   6.826   2.051   5.946
 6808SOL    HW121323   6.878   2.049   6.032
 6808SOL    HW221324   6.809   2.146   5.920
 6809SOL     OW21325   6.515   3.477   1.474
 6809SOL    HW121326   6.469   3.421   1.543
 6809SOL    HW221327   6.607   3.500   1.506
 6810SOL     OW21328   3.259   1.289   2.383
 6810SOL    HW121329   3.349   1.248   2.395
 6810SOL    HW221330   3.262   1.355   2.307
 6811SOL     OW21331   5.985   3.425   2.018
 6811SOL    HW121332   6.072   3.464   2.051
 6811SOL    HW221333   5.980   3.329   2.045
 6812SOL     OW21334   3.351   4.067   4.850
 6812SOL    HW121335   3.281   4.137   4.860
 6812SOL    HW221336   3.307   3.978   4.833
 6813SOL     OW21337   5.525   3.268   2.530
 6813SOL    HW121338   5.507   3.360   2.497
 6813SOL    HW221339   5.522   3.204   2.454
 6814SOL     OW21340   4.201   2.119   6.268
 6814SOL    HW121341   4.290   2.119   6.222
 6814SOL    HW221342   4.211   2.082   6.360
 6815SOL     OW21343   2.352   6.066   6.980
 6815SOL    HW121344   2.336   6.029   6.889
 6815SOL    HW221345   2.395   6.156   6.972
 6816SOL     OW21346   6.704   0.734   5.420
 6816SOL    HW121347   6.629   0.789   5.383
 6816SOL    HW221348   6.791   0.768   5.385
 6817SOL     OW21349   2.460   2.688   3.860
 6817SOL    HW121350   2.425   2.773   3.900
 6817SOL    HW221351   2.470   2.700   3.761
 6818SOL     OW21352   2.153   6.433   0.724
 6818SOL    HW121353   2.154   6.532   0.736
 6818SOL    HW221354   2.216   6.390   0.788
 6819SOL     OW21355   4.221   1.528   2.857
 6819SOL    HW121356   4.201   1.491   2.948
 6819SOL    HW221357   4.149   1.500   2.793
 6820SOL     OW21358   1.993   6.019   1.280
 6820SOL    HW121359   1.974   6.055   1.371
 6820SOL    HW221360   2.034   6.091   1.224
 6821SOL     OW21361   4.062   2.437   5.375
 6821SOL    HW121362   4.091   2.478   5.288
 6821SOL    HW221363   3.962   2.434   5.378
 6822SOL     OW21364   5.878   2.072   5.420
 6822SOL    HW121365   5.908   2.092   5.513
 6822SOL    HW221366   5.817   2.145   5.389
 6823SOL     OW21367   5.516   3.877   5.970
 6823SOL    HW121368   5.514   3.929   6.055
 6823SOL    HW221369   5.422   3.865   5.936
 6824SOL     OW21370   1.030   1.793   0.633
 6824SOL    HW121371   1.101   1.765   0.699
 6824SOL    HW221372   0.953   1.833   0.683
 6825SOL     OW21373   5.839   0.264   6.928
 6825SOL    HW121374   5.814   0.342   6.871
 6825SOL    HW221375   5.938   0.253   6.928
 6826SOL     OW21376   1.749   3.612   3.639
 6826SOL    HW121377   1.815   3.574   3.574
 6826SOL    HW221378   1.660   3.620   3.596
 6827SOL     OW21379   5.192   5.042   6.133
 6827SOL    HW121380   5.181   5.040   6.034
 6827SOL    HW221381   5.228   4.955   6.165
 6828SOL     OW21382   3.717   1.480   1.482
 6828SOL    HW121383   3.662   1.554   1.521
 6828SOL    HW221384   3.745   1.505   1.389
 6829SOL     OW21385   5.582   5.983   6.104
 6829SOL    HW121386   5.517   5.922   6.149
 6829SOL    HW221387   5.554   6.078   6.117
 6830SOL     OW21388   5.640   0.611   3.476
 6830SOL    HW121389   5.681   0.534   3.428
 6830SOL    HW221390   5.712   0.667   3.517
 6831SOL     OW21391   1.926   1.463   6.115
 6831SOL    HW121392   1.931   1.539   6.180
 6831SOL    HW221393   2.006   1.465   6.055
 6832SOL     OW21394   2.159   4.388   0.832
 6832SOL    HW121395   2.168   4.351   0.740
 6832SOL    HW221396   2.062   4.403   0.852
 6833SOL     OW21397   2.455   4.808   0.051
 6833SOL    HW121398   2.397   4.816   6.997
 6833SOL    HW221399   2.415   4.861   0.126
 6834SOL     OW21400   6.667   6.998   0.734
 6834SOL    HW121401   6.597   6.927   0.726
 6834SOL    HW221402   6.674   0.020   0.647
 6835SOL     OW21403   3.805   1.145   4.516
 6835SOL    HW121404   3.743   1.094   4.576
 6835SOL    HW221405   3.862   1.206   4.571
 6836SOL     OW21406   3.035   4.709   6.690
 6836SOL    HW121407   3.034   4.760   6.776
 6836SOL    HW221408   3.018   4.612   6.709
 6837SOL     OW21409   0.589   2.455   3.315
 6837SOL    HW121410   0.658   2.402   3.266
 6837SOL    HW221411   0.606   2.553   3.303
 6838SOL     OW21412   3.140   5.980   6.353
 6838SOL    HW121413   3.139   5.928   6.438
 6838SOL    HW221414   3.222   5.958   6.301
 6839SOL     OW21415   5.644   0.754   5.403
 6839SOL    HW121416   5.727   0.714   5.442
 6839SOL    HW221417   5.594   0.803   5.474
 6840SOL     OW21418   3.342   6.705   4.733
 6840SOL    HW121419   3.347   6.606   4.725
 6840SOL    HW221420   3.251   6.733   4.761
 6841SOL     OW21421   3.841   4.741   0.376
 6841SOL    HW121422   3.858   4.736   0.278
 6841SOL    HW221423   3.806   4.653   0.408
 6842SOL     OW21424   2.502   2.983   0.938
 6842SOL    HW121425   2.546   2.915   0.997
 6842SOL    HW221426   2.418   2.945   0.899
 6843SOL     OW21427   5.524   0.109   1.900
 6843SOL    HW121428   5.427   0.096   1.919
 6843SOL    HW221429   5.539   0.112   1.801
 6844SOL     OW21430   5.718   7.001   3.518
 6844SOL    HW121431   5.637   6.964   3.473
 6844SOL    HW221432   5.731   0.069   3.490
 6845SOL     OW21433   5.741   5.094   2.964
 6845SOL    HW121434   5.800   5.015   2.980
 6845SOL    HW221435   5.797   5.175   2.947
 6846SOL     OW21436   4.387   3.424   1.093
 6846SOL    HW121437   4.485   3.438   1.075
 6846SOL    HW221438   4.343   3.387   1.011
 6847SOL     OW21439   6.813   5.108   3.042
 6847SOL    HW121440   6.867   5.192   3.032
 6847SOL    HW221441   6.770   5.106   3.133
 6848SOL     OW21442   3.475   6.526   3.927
 6848SOL    HW121443   3.456   6.450   3.988
 6848SOL    HW221444   3.493   6.609   3.980
 6849SOL     OW21445   3.257   5.086   5.291
 6849SOL    HW121446   3.193   5.114   5.218
 6849SOL    HW221447   3.205   5.066   5.374
 6850SOL     OW21448   5.865   3.834   2.250
 6850SOL    HW121449   5.829   3.765   2.188
 6850SOL    HW221450   5.960   3.855   2.226
 6851SOL     OW21451   0.860   2.887   3.437
 6851SOL    HW121452   0.917   2.953   3.387
 6851SOL    HW221453   0.883   2.794   3.407
 6852SOL     OW21454   1.540   4.926   0.565
 6852SOL    HW121455   1.615   4.940   0.630
 6852SOL    HW221456   1.459   4.975   0.596
 6853SOL     OW21457   6.729   3.825   0.009
 6853SOL    HW121458   6.678   3.757   6.984
 6853SOL    HW221459   6.701   3.822   0.105
 6854SOL     OW21460   4.802   1.740   6.100
 6854SOL    HW121461   4.727   1.709   6.041
 6854SOL    HW221462   4.771   1.817   6.156
 6855SOL     OW21463   2.978   5.723   3.470
 6855SOL    HW121464   2.941   5.634   3.494
 6855SOL    HW221465   3.077   5.724   3.487
 6856SOL     OW21466   4.819   3.951   5.599
 6856SOL    HW121467   4.781   3.944   5.507
 6856SOL    HW221468   4.756   3.910   5.665
 6857SOL     OW21469   3.101   2.309   6.934
 6857SOL    HW121470   3.139   2.401   6.935
 6857SOL    HW221471   3.120   2.264   7.022
 6858SOL     OW21472   3.813   3.718   4.014
 6858SOL    HW121473   3.787   3.732   4.110
 6858SOL    HW221474   3.759   3.778   3.956
 6859SOL     OW21475   0.530   0.608   0.902
 6859SOL    HW121476   0.497   0.677   0.967
 6859SOL    HW221477   0.467   0.603   0.824
 6860SOL     OW21478   6.293   5.196   0.819
 6860SOL    HW121479   6.325   5.207   0.913
 6860SOL    HW221480   6.258   5.104   0.806
 6861SOL     OW21481   4.808   3.879   0.614
 6861SOL    HW121482   4.756   3.794   0.604
 6861SOL    HW221483   4.891   3.874   0.559
 6862SOL     OW21484   1.933   4.431   5.675
 6862SOL    HW121485   2.028   4.403   5.659
 6862SOL    HW221486   1.875   4.388   5.606
 6863SOL     OW21487   5.774   0.894   5.654
 6863SOL    HW121488   5.743   0.884   5.749
 6863SOL    HW221489   5.770   0.805   5.608
 6864SOL     OW21490   2.721   5.836   4.373
 6864SOL    HW121491   2.818   5.853   4.390
 6864SOL    HW221492   2.684   5.778   4.446
 6865SOL     OW21493   0.239   5.800   2.869
 6865SOL    HW121494   0.273   5.885   2.910
 6865SOL    HW221495   0.309   5.729   2.875
 6866SOL     OW21496   6.462   4.898   2.969
 6866SOL    HW121497   6.453   4.862   2.876
 6866SOL    HW221498   6.422   4.833   3.033
 6867SOL     OW21499   1.822   4.520   1.425
 6867SOL    HW121500   1.875   4.604   1.439
 6867SOL    HW221501   1.884   4.444   1.406
 6868SOL     OW21502   1.084   5.567   6.394
 6868SOL    HW121503   1.059   5.609   6.481
 6868SOL    HW221504   1.105   5.470   6.409
 6869SOL     OW21505   5.017   0.251   4.810
 6869SOL    HW121506   5.070   0.228   4.728
 6869SOL    HW221507   5.022   0.175   4.875
 6870SOL     OW21508   6.729   4.698   2.282
 6870SOL    HW121509   6.775   4.771   2.232
 6870SOL    HW221510   6.721   4.618   2.223
 6871SOL     OW21511   6.385   4.648   3.100
 6871SOL    HW121512   6.452   4.576   3.121
 6871SOL    HW221513   6.334   4.622   3.018
 6872SOL     OW21514   0.543   3.074   1.386
 6872SOL    HW121515   0.531   3.070   1.485
 6872SOL    HW221516   0.470   3.022   1.341
 6873SOL     OW21517   7.013   3.997   5.133
 6873SOL    HW121518   6.948   4.045   5.192
 6873SOL    HW221519   6.972   3.911   5.101
 6874SOL     OW21520   0.711   6.011   2.337
 6874SOL    HW121521   0.811   6.019   2.345
 6874SOL    HW221522   0.686   5.914   2.338
 6875SOL     OW21523   1.639   2.480   3.471
 6875SOL    HW121524   1.635   2.435   3.560
 6875SOL    HW221525   1.548   2.514   3.447
 6876SOL     OW21526   3.919   6.297   3.713
 6876SOL    HW121527   3.939   6.279   3.809
 6876SOL    HW221528   3.822   6.321   3.703
 6877SOL     OW21529   2.722   3.701   0.817
 6877SOL    HW121530   2.820   3.713   0.832
 6877SOL    HW221531   2.707   3.653   0.731
 6878SOL     OW21532   3.420   1.568   5.448
 6878SOL    HW121533   3.422   1.600   5.354
 6878SOL    HW221534   3.490   1.617   5.501
 6879SOL     OW21535   1.433   1.992   0.071
 6879SOL    HW121536   1.503   1.932   0.108
 6879SOL    HW221537   1.350   1.985   0.126
 6880SOL     OW21538   2.166   4.070   5.301
 6880SOL    HW121539   2.245   4.054   5.243
 6880SOL    HW221540   2.128   4.160   5.282
 6881SOL     OW21541   1.175   3.474   1.622
 6881SOL    HW121542   1.126   3.543   1.674
 6881SOL    HW221543   1.236   3.518   1.556
 6882SOL     OW21544   3.024   0.296   6.984
 6882SOL    HW121545   2.929   0.305   6.955
 6882SOL    HW221546   3.032   0.220   0.021
 6883SOL     OW21547   4.154   1.512   0.508
 6883SOL    HW121548   4.239   1.493   0.557
 6883SOL    HW221549   4.130   1.609   0.519
 6884SOL     OW21550   1.922   4.316   4.428
 6884SOL    HW121551   1.881   4.406   4.442
 6884SOL    HW221552   1.990   4.298   4.500
 6885SOL     OW21553   3.788   5.652   4.044
 6885SOL    HW121554   3.719   5.599   4.094
 6885SOL    HW221555   3.790   5.745   4.079
 6886SOL     OW21556   6.645   0.326   4.375
 6886SOL    HW121557   6.729   0.376   4.354
 6886SOL    HW221558   6.649   0.293   4.470
 6887SOL     OW21559   5.359   6.123   5.713
 6887SOL    HW121560   5.328   6.208   5.671
 6887SOL    HW221561   5.286   6.085   5.769
 6888SOL     OW21562   5.547   6.219   6.414
 6888SOL    HW121563   5.544   6.207   6.315
 6888SOL    HW221564   5.547   6.129   6.458
 6889SOL     OW21565   1.888   1.990   5.090
 6889SOL    HW121566   1.906   1.995   4.992
 6889SOL    HW221567   1.858   1.897   5.114
 6890SOL     OW21568   4.053   6.344   1.731
 6890SOL    HW121569   4.045   6.328   1.829
 6890SOL    HW221570   4.142   6.313   1.699
 6891SOL     OW21571   2.119   4.508   3.607
 6891SOL    HW121572   2.036   4.462   3.639
 6891SOL    HW221573   2.180   4.524   3.685
 6892SOL     OW21574   3.225   2.173   3.797
 6892SOL    HW121575   3.128   2.185   3.775
 6892SOL    HW221576   3.270   2.262   3.800
 6893SOL     OW21577   4.677   4.511   6.621
 6893SOL    HW121578   4.723   4.593   6.589
 6893SOL    HW221579   4.742   4.451   6.667
 6894SOL     OW21580   6.040   4.881   0.133
 6894SOL    HW121581   6.126   4.927   0.154
 6894SOL    HW221582   6.050   4.829   0.048
 6895SOL     OW21583   2.696   6.088   6.837
 6895SOL    HW121584   2.703   6.176   6.886
 6895SOL    HW221585   2.638   6.100   6.756
 6896SOL     OW21586   1.957   0.001   3.595
 6896SOL    HW121587   2.045   0.018   3.550
 6896SOL    HW221588   1.973   7.007   3.691
 6897SOL     OW21589   3.335   3.479   6.349
 6897SOL    HW121590   3.346   3.456   6.446
 6897SOL    HW221591   3.291   3.402   6.302
 6898SOL     OW21592   3.953   1.770   2.177
 6898SOL    HW121593   3.885   1.843   2.187
 6898SOL    HW221594   3.934   1.717   2.094
 6899SOL     OW21595   5.843   0.041   0.785
 6899SOL    HW121596   5.852   0.103   0.863
 6899SOL    HW221597   5.748   0.011   0.778
 6900SOL     OW21598   6.738   6.729   5.543
 6900SOL    HW121599   6.812   6.789   5.512
 6900SOL    HW221600   6.680   6.778   5.608
 6901SOL     OW21601   0.249   6.385   6.122
 6901SOL    HW121602   0.263   6.400   6.024
 6901SOL    HW221603   0.156   6.352   6.138
 6902SOL     OW21604   5.778   6.400   6.980
 6902SOL    HW121605   5.778   6.500   6.977
 6902SOL    HW221606   5.687   6.366   6.959
 6903SOL     OW21607   3.585   5.666   4.639
 6903SOL    HW121608   3.663   5.712   4.680
 6903SOL    HW221609   3.541   5.607   4.706
 6904SOL     OW21610   6.150   1.308   4.481
 6904SOL    HW121611   6.125   1.222   4.525
 6904SOL    HW221612   6.150   1.381   4.549
 6905SOL     OW21613   6.015   6.051   6.727
 6905SOL    HW121614   5.926   6.036   6.770
 6905SOL    HW221615   6.046   5.966   6.684
 6906SOL     OW21616   5.010   1.278   3.859
 6906SOL    HW121617   5.106   1.305   3.853
 6906SOL    HW221618   4.976   1.299   3.950
 6907SOL     OW21619   5.350   2.520   1.076
 6907SOL    HW121620   5.392   2.451   1.018
 6907SOL    HW221621   5.254   2.496   1.093
 6908SOL     OW21622   0.895   5.956   6.268
 6908SOL    HW121623   0.816   6.004   6.307
 6908SOL    HW221624   0.978   6.008   6.288
 6909SOL     OW21625   6.261   4.615   1.182
 6909SOL    HW121626   6.344   4.562   1.192
 6909SOL    HW221627   6.191   4.582   1.245
 6910SOL     OW21628   6.550   2.815   3.578
 6910SOL    HW121629   6.622   2.884   3.586
 6910SOL    HW221630   6.470   2.842   3.632
 6911SOL     OW21631   4.392   5.957   3.426
 6911SOL    HW121632   4.444   6.041   3.413
 6911SOL    HW221633   4.391   5.933   3.523
 6912SOL     OW21634   3.246   5.351   0.547
 6912SOL    HW121635   3.172   5.322   0.487
 6912SOL    HW221636   3.210   5.413   0.617
 6913SOL     OW21637   4.637   4.827   4.935
 6913SOL    HW121638   4.685   4.750   4.977
 6913SOL    HW221639   4.676   4.845   4.845
 6914SOL     OW21640   6.139   3.954   5.817
 6914SOL    HW121641   6.044   3.921   5.817
 6914SOL    HW221642   6.170   3.963   5.912
 6915SOL     OW21643   6.078   3.650   1.576
 6915SOL    HW121644   6.171   3.674   1.548
 6915SOL    HW221645   6.013   3.715   1.536
 6916SOL     OW21646   6.835   3.421   0.024
 6916SOL    HW121647   6.825   3.408   0.122
 6916SOL    HW221648   6.851   3.333   7.007
 6917SOL     OW21649   2.905   6.081   1.103
 6917SOL    HW121650   2.957   6.161   1.072
 6917SOL    HW221651   2.949   5.998   1.068
 6918SOL     OW21652   6.724   3.107   4.742
 6918SOL    HW121653   6.801   3.104   4.805
 6918SOL    HW221654   6.752   3.149   4.656
 6919SOL     OW21655   0.244   6.052   2.319
 6919SOL    HW121656   0.339   6.074   2.297
 6919SOL    HW221657   0.188   6.057   2.237
 6920SOL     OW21658   4.708   4.969   5.501
 6920SOL    HW121659   4.792   4.997   5.454
 6920SOL    HW221660   4.721   4.880   5.544
 6921SOL     OW21661   5.525   6.085   3.048
 6921SOL    HW121662   5.568   6.147   3.113
 6921SOL    HW221663   5.428   6.077   3.069
 6922SOL     OW21664   2.132   5.822   6.102
 6922SOL    HW121665   2.226   5.847   6.084
 6922SOL    HW221666   2.087   5.894   6.154
 6923SOL     OW21667   4.733   5.328   3.548
 6923SOL    HW121668   4.652   5.275   3.524
 6923SOL    HW221669   4.705   5.420   3.575
 6924SOL     OW21670   1.804   3.897   6.769
 6924SOL    HW121671   1.738   3.832   6.808
 6924SOL    HW221672   1.897   3.864   6.782
 6925SOL     OW21673   4.370   6.015   4.941
 6925SOL    HW121674   4.351   6.112   4.959
 6925SOL    HW221675   4.403   6.004   4.847
 6926SOL     OW21676   3.624   2.891   1.309
 6926SOL    HW121677   3.564   2.820   1.273
 6926SOL    HW221678   3.572   2.975   1.323
 6927SOL     OW21679   5.207   3.016   6.065
 6927SOL    HW121680   5.135   3.056   6.008
 6927SOL    HW221681   5.209   2.917   6.052
 6928SOL     OW21682   6.476   5.916   0.921
 6928SOL    HW121683   6.549   5.866   0.968
 6928SOL    HW221684   6.515   5.966   0.843
 6929SOL     OW21685   5.570   4.841   0.845
 6929SOL    HW121686   5.599   4.758   0.894
 6929SOL    HW221687   5.483   4.824   0.799
 6930SOL     OW21688   0.308   6.380   2.127
 6930SOL    HW121689   0.283   6.366   2.031
 6930SOL    HW221690   0.229   6.361   2.185
 6931SOL     OW21691   1.915   0.688   2.303
 6931SOL    HW121692   1.934   0.718   2.209
 6931SOL    HW221693   1.883   0.765   2.358
 6932SOL     OW21694   4.063   6.799   0.493
 6932SOL    HW121695   4.005   6.730   0.448
 6932SOL    HW221696   4.088   6.766   0.584
 6933SOL     OW21697   2.973   6.763   4.514
 6933SOL    HW121698   2.882   6.726   4.538
 6933SOL    HW221699   3.017   6.702   4.448
 6934SOL     OW21700   4.730   3.370   6.138
 6934SOL    HW121701   4.739   3.383   6.039
 6934SOL    HW221702   4.742   3.457   6.185
 6935SOL     OW21703   3.861   4.962   3.012
 6935SOL    HW121704   3.923   5.030   2.971
 6935SOL    HW221705   3.886   4.871   2.981
 6936SOL     OW21706   6.432   2.290   4.428
 6936SOL    HW121707   6.438   2.380   4.386
 6936SOL    HW221708   6.387   2.297   4.517
 6937SOL     OW21709   0.045   6.445   0.041
 6937SOL    HW121710   0.019   6.417   0.134
 6937SOL    HW221711   0.141   6.422   0.026
 6938SOL     OW21712   5.322   3.620   5.765
 6938SOL    HW121713   5.302   3.671   5.849
 6938SOL    HW221714   5.312   3.681   5.686
 6939SOL     OW21715   0.608   4.511   2.240
 6939SOL    HW121716   0.550   4.478   2.314
 6939SOL    HW221717   0.680   4.570   2.276
 6940SOL     OW21718   4.513   0.798   0.309
 6940SOL    HW121719   4.500   0.703   0.336
 6940SOL    HW221720   4.604   0.828   0.335
 6941SOL     OW21721   3.719   3.263   2.157
 6941SOL    HW121722   3.664   3.180   2.154
 6941SOL    HW221723   3.785   3.263   2.083
 6942SOL     OW21724   5.216   1.406   1.594
 6942SOL    HW121725   5.124   1.443   1.602
 6942SOL    HW221726   5.221   1.345   1.515
 6943SOL     OW21727   4.113   5.918   6.807
 6943SOL    HW121728   4.140   5.822   6.818
 6943SOL    HW221729   4.062   5.948   6.887
 6944SOL     OW21730   0.883   3.660   6.571
 6944SOL    HW121731   0.839   3.634   6.486
 6944SOL    HW221732   0.930   3.581   6.611
 6945SOL     OW21733   6.471   2.711   6.680
 6945SOL    HW121734   6.417   2.764   6.746
 6945SOL    HW221735   6.436   2.727   6.588
 6946SOL     OW21736   5.985   6.594   1.367
 6946SOL    HW121737   6.030   6.536   1.299
 6946SOL    HW221738   6.023   6.686   1.363
 6947SOL     OW21739   3.783   6.039   6.282
 6947SOL    HW121740   3.792   6.138   6.289
 6947SOL    HW221741   3.791   6.011   6.186
 6948SOL     OW21742   6.747   0.508   6.605
 6948SOL    HW121743   6.736   0.462   6.693
 6948SOL    HW221744   6.688   0.464   6.537
 6949SOL     OW21745   5.047   6.516   2.804
 6949SOL    HW121746   4.982   6.501   2.877
 6949SOL    HW221747   5.006   6.573   2.733
 6950SOL     OW21748   2.733   1.262   4.582
 6950SOL    HW121749   2.643   1.243   4.620
 6950SOL    HW221750   2.736   1.357   4.550
 6951SOL     OW21751   6.722   5.977   5.668
 6951SOL    HW121752   6.625   5.997   5.677
 6951SOL    HW221753   6.735   5.880   5.647
 6952SOL     OW21754   0.191   6.085   3.623
 6952SOL    HW121755   0.279   6.064   3.666
 6952SOL    HW221756   0.204   6.155   3.554
 6953SOL     OW21757   4.946   5.962   0.521
 6953SOL    HW121758   5.028   5.978   0.466
 6953SOL    HW221759   4.944   6.027   0.597
 6954SOL     OW21760   0.111   3.774   3.782
 6954SOL    HW121761   0.069   3.865   3.781
 6954SOL    HW221762   0.040   3.705   3.794
 6955SOL     OW21763   6.570   0.997   1.993
 6955SOL    HW121764   6.579   1.079   1.935
 6955SOL    HW221765   6.511   0.931   1.947
 6956SOL     OW21766   4.893   6.130   3.210
 6956SOL    HW121767   4.881   6.034   3.182
 6956SOL    HW221768   4.950   6.134   3.292
 6957SOL     OW21769   6.154   4.959   0.735
 6957SOL    HW121770   6.067   4.965   0.686
 6957SOL    HW221771   6.189   4.866   0.729
 6958SOL     OW21772   3.059   3.362   4.246
 6958SOL    HW121773   3.083   3.284   4.303
 6958SOL    HW221774   3.105   3.354   4.157
 6959SOL     OW21775   1.848   1.435   4.540
 6959SOL    HW121776   1.942   1.459   4.517
 6959SOL    HW221777   1.798   1.519   4.565
 6960SOL     OW21778   2.303   5.518   1.719
 6960SOL    HW121779   2.218   5.498   1.768
 6960SOL    HW221780   2.306   5.465   1.634
 6961SOL     OW21781   5.762   2.038   4.321
 6961SOL    HW121782   5.832   2.021   4.390
 6961SOL    HW221783   5.788   1.994   4.235
 6962SOL     OW21784   5.113   5.957   1.916
 6962SOL    HW121785   5.114   5.983   1.820
 6962SOL    HW221786   5.199   5.982   1.959
 6963SOL     OW21787   5.833   6.187   1.541
 6963SOL    HW121788   5.906   6.206   1.475
 6963SOL    HW221789   5.854   6.104   1.592
 6964SOL     OW21790   3.134   0.349   4.926
 6964SOL    HW121791   3.141   0.408   4.846
 6964SOL    HW221792   3.198   0.273   4.917
 6965SOL     OW21793   0.500   3.388   1.086
 6965SOL    HW121794   0.413   3.351   1.054
 6965SOL    HW221795   0.491   3.416   1.182
 6966SOL     OW21796   0.179   2.284   3.143
 6966SOL    HW121797   0.238   2.364   3.134
 6966SOL    HW221798   0.121   2.276   3.062
 6967SOL     OW21799   2.132   6.568   4.634
 6967SOL    HW121800   2.067   6.570   4.558
 6967SOL    HW221801   2.195   6.491   4.622
 6968SOL     OW21802   4.489   6.491   2.620
 6968SOL    HW121803   4.517   6.414   2.563
 6968SOL    HW221804   4.406   6.467   2.671
 6969SOL     OW21805   2.778   2.209   1.284
 6969SOL    HW121806   2.833   2.247   1.210
 6969SOL    HW221807   2.797   2.259   1.369
 6970SOL     OW21808   3.275   4.354   6.561
 6970SOL    HW121809   3.256   4.258   6.540
 6970SOL    HW221810   3.198   4.393   6.611
 6971SOL     OW21811   6.164   4.786   1.840
 6971SOL    HW121812   6.146   4.876   1.880
 6971SOL    HW221813   6.248   4.749   1.879
 6972SOL     OW21814   4.848   3.979   3.337
 6972SOL    HW121815   4.871   3.885   3.311
 6972SOL    HW221816   4.931   4.033   3.343
 6973SOL     OW21817   0.153   3.483   4.425
 6973SOL    HW121818   0.223   3.442   4.366
 6973SOL    HW221819   0.185   3.484   4.519
 6974SOL     OW21820   3.007   3.766   2.254
 6974SOL    HW121821   3.086   3.714   2.222
 6974SOL    HW221822   2.954   3.712   2.319
 6975SOL     OW21823   2.119   6.600   6.739
 6975SOL    HW121824   2.135   6.529   6.807
 6975SOL    HW221825   2.054   6.567   6.671
 6976SOL     OW21826   4.735   5.950   5.007
 6976SOL    HW121827   4.650   5.940   4.955
 6976SOL    HW221828   4.781   5.861   5.012
 6977SOL     OW21829   4.333   2.452   1.544
 6977SOL    HW121830   4.363   2.510   1.620
 6977SOL    HW221831   4.414   2.420   1.494
 6978SOL     OW21832   3.940   1.123   2.789
 6978SOL    HW121833   3.940   1.221   2.768
 6978SOL    HW221834   3.907   1.072   2.710
 6979SOL     OW21835   1.165   4.240   1.222
 6979SOL    HW121836   1.196   4.277   1.135
 6979SOL    HW221837   1.076   4.279   1.245
 6980SOL     OW21838   1.577   1.129   3.901
 6980SOL    HW121839   1.664   1.167   3.870
 6980SOL    HW221840   1.566   1.036   3.864
 6981SOL     OW21841   4.082   2.539   5.642
 6981SOL    HW121842   4.079   2.515   5.545
 6981SOL    HW221843   4.126   2.466   5.693
 6982SOL     OW21844   1.503   0.493   4.445
 6982SOL    HW121845   1.560   0.423   4.488
 6982SOL    HW221846   1.433   0.524   4.510
 6983SOL     OW21847   3.957   2.223   3.602
 6983SOL    HW121848   4.050   2.241   3.634
 6983SOL    HW221849   3.891   2.262   3.667
 6984SOL     OW21850   2.498   1.822   3.597
 6984SOL    HW121851   2.519   1.745   3.657
 6984SOL    HW221852   2.481   1.903   3.652
 6985SOL     OW21853   4.287   5.166   1.799
 6985SOL    HW121854   4.340   5.169   1.714
 6985SOL    HW221855   4.273   5.259   1.833
 6986SOL     OW21856   1.661   6.712   6.599
 6986SOL    HW121857   1.626   6.784   6.659
 6986SOL    HW221858   1.595   6.694   6.526
 6987SOL     OW21859   6.732   1.421   5.904
 6987SOL    HW121860   6.723   1.343   5.967
 6987SOL    HW221861   6.776   1.497   5.952
 6988SOL     OW21862   0.670   0.510   5.424
 6988SOL    HW121863   0.658   0.449   5.503
 6988SOL    HW221864   0.721   0.591   5.452
 6989SOL     OW21865   1.031   4.393   2.815
 6989SOL    HW121866   0.974   4.314   2.841
 6989SOL    HW221867   1.059   4.383   2.720
 6990SOL     OW21868   4.980   2.777   1.278
 6990SOL    HW121869   4.976   2.800   1.376
 6990SOL    HW221870   4.911   2.831   1.229
 6991SOL     OW21871   3.073   4.837   3.686
 6991SOL    HW121872   3.012   4.870   3.614
 6991SOL    HW221873   3.026   4.768   3.741
 6992SOL     OW21874   5.249   6.042   6.209
 6992SOL    HW121875   5.241   6.033   6.308
 6992SOL    HW221876   5.262   5.952   6.168
 6993SOL     OW21877   6.140   0.758   3.090
 6993SOL    HW121878   6.194   0.733   3.171
 6993SOL    HW221879   6.173   0.708   3.010
 6994SOL     OW21880   0.400   2.560   4.466
 6994SOL    HW121881   0.346   2.502   4.405
 6994SOL    HW221882   0.339   2.619   4.519
 6995SOL     OW21883   6.693   4.585   6.021
 6995SOL    HW121884   6.697   4.612   6.117
 6995SOL    HW221885   6.709   4.665   5.963
 6996SOL     OW21886   1.554   6.925   6.728
 6996SOL    HW121887   1.592   6.949   6.818
 6996SOL    HW221888   1.469   6.974   6.713
 6997SOL     OW21889   6.574   5.564   5.153
 6997SOL    HW121890   6.518   5.645   5.136
 6997SOL    HW221891   6.670   5.592   5.161
 6998SOL     OW21892   2.281   1.216   1.937
 6998SOL    HW121893   2.303   1.284   2.006
 6998SOL    HW221894   2.201   1.164   1.964
 6999SOL     OW21895   2.598   2.560   6.015
 6999SOL    HW121896   2.530   2.491   6.042
 6999SOL    HW221897   2.657   2.580   6.093
 7000SOL     OW21898   5.555   6.359   1.290
 7000SOL    HW121899   5.574   6.287   1.223
 7000SOL    HW221900   5.545   6.318   1.381
 7001SOL     OW21901   1.786   2.597   5.228
 7001SOL    HW121902   1.840   2.600   5.143
 7001SOL    HW221903   1.792   2.685   5.274
 7002SOL     OW21904   2.090   5.470   3.431
 7002SOL    HW121905   2.118   5.413   3.354
 7002SOL    HW221906   2.103   5.566   3.407
 7003SOL     OW21907   3.873   5.233   0.522
 7003SOL    HW121908   3.842   5.152   0.473
 7003SOL    HW221909   3.893   5.210   0.617
 7004SOL     OW21910   1.135   4.711   2.388
 7004SOL    HW121911   1.213   4.657   2.420
 7004SOL    HW221912   1.063   4.709   2.457
 7005SOL     OW21913   1.855   0.406   0.328
 7005SOL    HW121914   1.802   0.479   0.286
 7005SOL    HW221915   1.901   0.353   0.257
 7006SOL     OW21916   4.942   4.842   4.058
 7006SOL    HW121917   4.991   4.890   3.985
 7006SOL    HW221918   4.993   4.760   4.084
 7007SOL     OW21919   5.311   0.143   3.150
 7007SOL    HW121920   5.371   0.222   3.140
 7007SOL    HW221921   5.338   0.072   3.085
 7008SOL     OW21922   0.584   4.026   4.719
 7008SOL    HW121923   0.523   3.951   4.744
 7008SOL    HW221924   0.631   4.004   4.633
 7009SOL     OW21925   5.965   6.336   1.965
 7009SOL    HW121926   5.989   6.387   1.882
 7009SOL    HW221927   6.035   6.352   2.035
 7010SOL     OW21928   5.021   4.561   4.101
 7010SOL    HW121929   5.061   4.477   4.064
 7010SOL    HW221930   5.041   4.567   4.199
 7011SOL     OW21931   3.426   6.631   6.669
 7011SOL    HW121932   3.423   6.549   6.613
 7011SOL    HW221933   3.406   6.711   6.612
 7012SOL     OW21934   1.582   2.529   1.565
 7012SOL    HW121935   1.499   2.497   1.609
 7012SOL    HW221936   1.583   2.629   1.562
 7013SOL     OW21937   0.564   0.330   0.697
 7013SOL    HW121938   0.511   0.365   0.775
 7013SOL    HW221939   0.518   0.250   0.659
 7014SOL     OW21940   4.313   3.647   1.243
 7014SOL    HW121941   4.352   3.560   1.213
 7014SOL    HW221942   4.218   3.655   1.213
 7015SOL     OW21943   5.492   4.923   2.216
 7015SOL    HW121944   5.494   4.847   2.281
 7015SOL    HW221945   5.449   5.002   2.260
 7016SOL     OW21946   3.519   4.701   1.421
 7016SOL    HW121947   3.581   4.737   1.350
 7016SOL    HW221948   3.424   4.714   1.392
 7017SOL     OW21949   2.120   4.937   2.267
 7017SOL    HW121950   2.116   4.874   2.190
 7017SOL    HW221951   2.208   4.984   2.268
 7018SOL     OW21952   5.598   3.909   4.459
 7018SOL    HW121953   5.548   3.913   4.373
 7018SOL    HW221954   5.666   3.836   4.455
 7019SOL     OW21955   3.231   3.946   0.301
 7019SOL    HW121956   3.175   3.941   0.384
 7019SOL    HW221957   3.269   4.038   0.291
 7020SOL     OW21958   6.706   5.683   6.687
 7020SOL    HW121959   6.683   5.769   6.642
 7020SOL    HW221960   6.623   5.633   6.708
 7021SOL     OW21961   1.556   1.467   5.917
 7021SOL    HW121962   1.478   1.405   5.908
 7021SOL    HW221963   1.579   1.477   6.014
 7022SOL     OW21964   4.837   6.734   6.401
 7022SOL    HW121965   4.911   6.795   6.430
 7022SOL    HW221966   4.850   6.711   6.305
 7023SOL     OW21967   0.498   1.905   4.502
 7023SOL    HW121968   0.528   1.855   4.421
 7023SOL    HW221969   0.577   1.925   4.560
 7024SOL     OW21970   2.613   3.981   5.358
 7024SOL    HW121971   2.544   4.010   5.292
 7024SOL    HW221972   2.654   3.895   5.327
 7025SOL     OW21973   2.558   1.467   0.230
 7025SOL    HW121974   2.551   1.414   0.145
 7025SOL    HW221975   2.654   1.486   0.250
 7026SOL     OW21976   3.521   1.837   1.909
 7026SOL    HW121977   3.569   1.924   1.900
 7026SOL    HW221978   3.422   1.853   1.905
 7027SOL     OW21979   2.252   5.414   4.286
 7027SOL    HW121980   2.157   5.384   4.291
 7027SOL    HW221981   2.261   5.503   4.331
 7028SOL     OW21982   3.928   0.644   3.813
 7028SOL    HW121983   3.931   0.740   3.842
 7028SOL    HW221984   3.990   0.591   3.870
 7029SOL     OW21985   5.023   4.815   5.249
 7029SOL    HW121986   5.114   4.834   5.213
 7029SOL    HW221987   5.017   4.720   5.279
 7030SOL     OW21988   1.313   0.888   5.309
 7030SOL    HW121989   1.322   0.931   5.399
 7030SOL    HW221990   1.382   0.816   5.299
 7031SOL     OW21991   2.557   6.017   4.915
 7031SOL    HW121992   2.517   6.083   4.979
 7031SOL    HW221993   2.492   6.000   4.840
 7032SOL     OW21994   3.678   0.695   3.300
 7032SOL    HW121995   3.759   0.723   3.249
 7032SOL    HW221996   3.600   0.751   3.273
 7033SOL     OW21997   1.356   2.435   3.854
 7033SOL    HW121998   1.426   2.490   3.900
 7033SOL    HW221999   1.397   2.353   3.816
 7034SOL     OW22000   5.936   0.603   3.882
 7034SOL    HW122001   5.856   0.542   3.880
 7034SOL    HW222002   5.987   0.588   3.966
 7035SOL     OW22003   1.569   6.845   1.429
 7035SOL    HW122004   1.586   6.754   1.467
 7035SOL    HW222005   1.474   6.871   1.446
 7036SOL     OW22006   0.393   0.779   2.848
 7036SOL    HW122007   0.433   0.865   2.882
 7036SOL    HW222008   0.294   0.789   2.841
 7037SOL     OW22009   1.830   1.995   6.675
 7037SOL    HW122010   1.910   1.953   6.718
 7037SOL    HW222011   1.760   2.013   6.744
 7038SOL     OW22012   2.643   3.225   5.781
 7038SOL    HW122013   2.731   3.257   5.816
 7038SOL    HW222014   2.658   3.146   5.721
 7039SOL     OW22015   2.946   5.255   1.552
 7039SOL    HW122016   2.901   5.187   1.495
 7039SOL    HW222017   2.981   5.212   1.635
 7040SOL     OW22018   6.448   1.523   4.941
 7040SOL    HW122019   6.503   1.605   4.928
 7040SOL    HW222020   6.490   1.465   5.011
 7041SOL     OW22021   6.586   1.907   2.016
 7041SOL    HW122022   6.490   1.935   2.015
 7041SOL    HW222023   6.620   1.909   2.109
 7042SOL     OW22024   4.653   4.780   5.296
 7042SOL    HW122025   4.566   4.807   5.255
 7042SOL    HW222026   4.680   4.847   5.365
 7043SOL     OW22027   1.853   3.886   2.618
 7043SOL    HW122028   1.823   3.809   2.561
 7043SOL    HW222029   1.785   3.959   2.611
 7044SOL     OW22030   4.257   4.728   4.155
 7044SOL    HW122031   4.181   4.784   4.188
 7044SOL    HW222032   4.339   4.785   4.146
 7045SOL     OW22033   4.947   5.851   3.659
 7045SOL    HW122034   4.995   5.780   3.608
 7045SOL    HW222035   4.893   5.907   3.595
 7046SOL     OW22036   3.505   0.830   3.169
 7046SOL    HW122037   3.456   0.910   3.135
 7046SOL    HW222038   3.546   0.781   3.092
 7047SOL     OW22039   0.253   2.053   2.570
 7047SOL    HW122040   0.192   2.029   2.646
 7047SOL    HW222041   0.292   1.969   2.531
 7048SOL     OW22042   5.640   6.387   2.877
 7048SOL    HW122043   5.710   6.333   2.924
 7048SOL    HW222044   5.562   6.401   2.939
 7049SOL     OW22045   3.791   1.775   0.893
 7049SOL    HW122046   3.856   1.710   0.853
 7049SOL    HW222047   3.714   1.787   0.830
 7050SOL     OW22048   4.095   3.733   1.562
 7050SOL    HW122049   4.042   3.757   1.480
 7050SOL    HW222050   4.127   3.817   1.606
 7051SOL     OW22051   6.883   0.322   1.823
 7051SOL    HW122052   6.969   0.331   1.773
 7051SOL    HW222053   6.894   0.256   1.897
 7052SOL     OW22054   5.725   2.784   3.553
 7052SOL    HW122055   5.819   2.788   3.518
 7052SOL    HW222056   5.702   2.871   3.595
 7053SOL     OW22057   0.895   3.190   5.332
 7053SOL    HW122058   0.820   3.252   5.356
 7053SOL    HW222059   0.917   3.133   5.411
 7054SOL     OW22060   0.745   6.571   0.321
 7054SOL    HW122061   0.802   6.616   0.390
 7054SOL    HW222062   0.782   6.590   0.230
 7055SOL     OW22063   2.610   0.002   5.258
 7055SOL    HW122064   2.696   0.003   5.207
 7055SOL    HW222065   2.543   0.059   5.210
 7056SOL     OW22066   6.444   4.679   1.921
 7056SOL    HW122067   6.496   4.601   1.884
 7056SOL    HW222068   6.502   4.760   1.920
 7057SOL     OW22069   1.893   5.442   3.637
 7057SOL    HW122070   1.820   5.375   3.642
 7057SOL    HW222071   1.950   5.424   3.557
 7058SOL     OW22072   6.083   4.693   5.673
 7058SOL    HW122073   6.099   4.656   5.764
 7058SOL    HW222074   5.985   4.694   5.654
 7059SOL     OW22075   6.912   1.196   3.781
 7059SOL    HW122076   6.884   1.198   3.685
 7059SOL    HW222077   6.836   1.228   3.838
 7060SOL     OW22078   4.203   0.252   1.544
 7060SOL    HW122079   4.285   0.194   1.535
 7060SOL    HW222080   4.123   0.201   1.514
 7061SOL     OW22081   0.497   2.840   3.343
 7061SOL    HW122082   0.582   2.810   3.299
 7061SOL    HW222083   0.519   2.907   3.414
 7062SOL     OW22084   4.136   0.734   5.380
 7062SOL    HW122085   4.091   0.822   5.361
 7062SOL    HW222086   4.067   0.664   5.394
 7063SOL     OW22087   1.361   6.851   1.719
 7063SOL    HW122088   1.448   6.899   1.729
 7063SOL    HW222089   1.318   6.878   1.632
 7064SOL     OW22090   4.310   1.995   0.996
 7064SOL    HW122091   4.274   1.902   0.997
 7064SOL    HW222092   4.363   2.012   1.079
 7065SOL     OW22093   3.931   3.923   6.003
 7065SOL    HW122094   4.027   3.947   6.015
 7065SOL    HW222095   3.918   3.825   6.021
 7066SOL     OW22096   4.920   0.671   6.911
 7066SOL    HW122097   4.931   0.758   6.864
 7066SOL    HW222098   4.823   0.659   6.936
 7067SOL     OW22099   2.211   2.531   5.011
 7067SOL    HW122100   2.299   2.563   5.045
 7067SOL    HW222101   2.222   2.497   4.918
 7068SOL     OW22102   6.450   4.296   4.247
 7068SOL    HW122103   6.455   4.334   4.339
 7068SOL    HW222104   6.354   4.293   4.218
 7069SOL     OW22105   5.517   1.345   4.710
 7069SOL    HW122106   5.551   1.423   4.657
 7069SOL    HW222107   5.594   1.299   4.754
 7070SOL     OW22108   0.005   6.108   4.857
 7070SOL    HW122109   0.088   6.164   4.848
 7070SOL    HW222110   0.020   6.038   4.927
 7071SOL     OW22111   3.026   5.451   6.029
 7071SOL    HW122112   3.046   5.353   6.026
 7071SOL    HW222113   2.966   5.471   6.107
 7072SOL     OW22114   1.447   6.139   0.344
 7072SOL    HW122115   1.349   6.156   0.333
 7072SOL    HW222116   1.474   6.161   0.438
 7073SOL     OW22117   4.766   6.543   4.475
 7073SOL    HW122118   4.699   6.498   4.416
 7073SOL    HW222119   4.824   6.604   4.420
 7074SOL     OW22120   5.077   2.681   1.924
 7074SOL    HW122121   5.121   2.650   2.009
 7074SOL    HW222122   4.990   2.725   1.946
 7075SOL     OW22123   2.117   4.222   5.558
 7075SOL    HW122124   2.200   4.278   5.552
 7075SOL    HW222125   2.103   4.174   5.472
 7076SOL     OW22126   6.163   2.165   5.944
 7076SOL    HW122127   6.137   2.069   5.935
 7076SOL    HW222128   6.081   2.222   5.946
 7077SOL     OW22129   2.470   4.934   4.141
 7077SOL    HW122130   2.428   4.844   4.151
 7077SOL    HW222131   2.565   4.930   4.169
 7078SOL     OW22132   0.154   6.849   1.675
 7078SOL    HW122133   0.092   6.900   1.735
 7078SOL    HW222134   0.208   6.912   1.620
 7079SOL     OW22135   0.259   6.078   4.156
 7079SOL    HW122136   0.347   6.071   4.110
 7079SOL    HW222137   0.229   6.173   4.157
 7080SOL     OW22138   3.492   1.228   4.646
 7080SOL    HW122139   3.535   1.138   4.634
 7080SOL    HW222140   3.559   1.292   4.682
 7081SOL     OW22141   2.988   6.681   6.887
 7081SOL    HW122142   2.924   6.712   6.816
 7081SOL    HW222143   3.005   6.583   6.876
 7082SOL     OW22144   6.463   3.871   6.779
 7082SOL    HW122145   6.553   3.882   6.739
 7082SOL    HW222146   6.396   3.922   6.725
 7083SOL     OW22147   2.787   0.160   0.693
 7083SOL    HW122148   2.775   0.122   0.785
 7083SOL    HW222149   2.715   0.124   0.633
 7084SOL     OW22150   0.121   5.512   5.709
 7084SOL    HW122151   0.128   5.421   5.667
 7084SOL    HW222152   0.139   5.582   5.640
 7085SOL     OW22153   0.803   1.796   2.302
 7085SOL    HW122154   0.776   1.766   2.211
 7085SOL    HW222155   0.888   1.751   2.329
 7086SOL     OW22156   4.960   0.080   5.432
 7086SOL    HW122157   4.996   0.171   5.452
 7086SOL    HW222158   4.988   0.016   5.504
 7087SOL     OW22159   6.235   4.051   4.288
 7087SOL    HW122160   6.223   4.141   4.245
 7087SOL    HW222161   6.329   4.020   4.274
 7088SOL     OW22162   5.196   2.787   3.524
 7088SOL    HW122163   5.162   2.868   3.572
 7088SOL    HW222164   5.200   2.805   3.426
 7089SOL     OW22165   2.808   2.135   4.597
 7089SOL    HW122166   2.824   2.174   4.507
 7089SOL    HW222167   2.800   2.208   4.665
 7090SOL     OW22168   2.161   0.607   6.917
 7090SOL    HW122169   2.227   0.633   6.988
 7090SOL    HW222170   2.139   0.687   6.862
 7091SOL     OW22171   0.502   2.132   0.208
 7091SOL    HW122172   0.527   2.087   0.123
 7091SOL    HW222173   0.570   2.201   0.231
 7092SOL     OW22174   3.735   3.361   5.690
 7092SOL    HW122175   3.704   3.305   5.766
 7092SOL    HW222176   3.835   3.357   5.685
 7093SOL     OW22177   3.005   3.778   2.655
 7093SOL    HW122178   3.103   3.781   2.635
 7093SOL    HW222179   2.964   3.868   2.640
 7094SOL     OW22180   0.118   5.807   6.063
 7094SOL    HW122181   0.149   5.897   6.095
 7094SOL    HW222182   0.157   5.736   6.121
 7095SOL     OW22183   4.278   4.556   5.652
 7095SOL    HW122184   4.187   4.533   5.617
 7095SOL    HW222185   4.269   4.593   5.744
 7096SOL     OW22186   6.724   0.715   3.902
 7096SOL    HW122187   6.633   0.751   3.921
 7096SOL    HW222188   6.750   0.740   3.809
 7097SOL     OW22189   5.818   1.932   1.363
 7097SOL    HW122190   5.792   1.857   1.424
 7097SOL    HW222191   5.910   1.915   1.327
 7098SOL     OW22192   1.633   5.604   5.618
 7098SOL    HW122193   1.664   5.512   5.643
 7098SOL    HW222194   1.535   5.612   5.637
 7099SOL     OW22195   3.994   1.405   5.223
 7099SOL    HW122196   4.044   1.376   5.304
 7099SOL    HW222197   4.042   1.375   5.141
 7100SOL     OW22198   5.659   3.123   0.495
 7100SOL    HW122199   5.562   3.100   0.506
 7100SOL    HW222200   5.706   3.047   0.450
 7101SOL     OW22201   1.853   1.011   4.702
 7101SOL    HW122202   1.809   1.074   4.639
 7101SOL    HW222203   1.951   1.007   4.683
 7102SOL     OW22204   5.345   6.476   0.667
 7102SOL    HW122205   5.281   6.533   0.719
 7102SOL    HW222206   5.349   6.509   0.572
 7103SOL     OW22207   4.783   4.766   2.205
 7103SOL    HW122208   4.685   4.749   2.204
 7103SOL    HW222209   4.805   4.840   2.142
 7104SOL     OW22210   0.180   3.019   3.772
 7104SOL    HW122211   0.137   3.065   3.849
 7104SOL    HW222212   0.111   2.973   3.717
 7105SOL     OW22213   3.461   3.150   5.350
 7105SOL    HW122214   3.470   3.204   5.433
 7105SOL    HW222215   3.417   3.063   5.371
 7106SOL     OW22216   3.737   3.734   2.413
 7106SOL    HW122217   3.760   3.732   2.510
 7106SOL    HW222218   3.742   3.641   2.375
 7107SOL     OW22219   4.757   0.920   0.320
 7107SOL    HW122220   4.802   0.942   0.407
 7107SOL    HW222221   4.788   0.985   0.250
 7108SOL     OW22222   3.859   6.326   2.713
 7108SOL    HW122223   3.936   6.347   2.652
 7108SOL    HW222224   3.808   6.248   2.676
 7109SOL     OW22225   2.582   0.235   5.912
 7109SOL    HW122226   2.675   0.270   5.914
 7109SOL    HW222227   2.583   0.136   5.919
 7110SOL     OW22228   3.137   5.678   4.411
 7110SOL    HW122229   3.127   5.673   4.312
 7110SOL    HW222230   3.120   5.588   4.451
 7111SOL     OW22231   1.398   2.897   4.896
 7111SOL    HW122232   1.330   2.966   4.872
 7111SOL    HW222233   1.364   2.841   4.972
 7112SOL     OW22234   1.804   4.710   4.750
 7112SOL    HW122235   1.890   4.700   4.698
 7112SOL    HW222236   1.773   4.620   4.781
 7113SOL     OW22237   3.791   3.747   4.594
 7113SOL    HW122238   3.804   3.846   4.588
 7113SOL    HW222239   3.853   3.708   4.662
 7114SOL     OW22240   4.971   6.325   1.453
 7114SOL    HW122241   5.009   6.259   1.389
 7114SOL    HW222242   4.885   6.361   1.416
 7115SOL     OW22243   5.222   3.075   0.753
 7115SOL    HW122244   5.260   3.049   0.841
 7115SOL    HW222245   5.131   3.116   0.767
 7116SOL     OW22246   6.033   4.240   3.176
 7116SOL    HW122247   5.978   4.309   3.223
 7116SOL    HW222248   5.976   4.160   3.158
 7117SOL     OW22249   0.117   6.049   5.239
 7117SOL    HW122250   0.209   6.023   5.211
 7117SOL    HW222251   0.116   6.147   5.262
 7118SOL     OW22252   2.758   4.907   0.801
 7118SOL    HW122253   2.752   4.913   0.901
 7118SOL    HW222254   2.728   4.817   0.771
 7119SOL     OW22255   4.878   2.463   4.116
 7119SOL    HW122256   4.785   2.496   4.097
 7119SOL    HW222257   4.904   2.397   4.046
 7120SOL     OW22258   3.708   1.992   2.404
 7120SOL    HW122259   3.662   1.905   2.383
 7120SOL    HW222260   3.685   2.020   2.497
 7121SOL     OW22261   1.060   0.091   3.671
 7121SOL    HW122262   1.036   0.104   3.768
 7121SOL    HW222263   1.038   7.025   3.643
 7122SOL     OW22264   1.239   0.258   5.868
 7122SOL    HW122265   1.337   0.260   5.853
 7122SOL    HW222266   1.192   0.293   5.787
 7123SOL     OW22267   1.684   4.331   3.203
 7123SOL    HW122268   1.773   4.374   3.221
 7123SOL    HW222269   1.658   4.346   3.108
 7124SOL     OW22270   6.830   2.021   1.617
 7124SOL    HW122271   6.813   2.002   1.521
 7124SOL    HW222272   6.757   1.981   1.673
 7125SOL     OW22273   0.486   6.842   1.238
 7125SOL    HW122274   0.548   6.916   1.266
 7125SOL    HW222275   0.394   6.879   1.229
 7126SOL     OW22276   3.113   4.987   0.520
 7126SOL    HW122277   3.042   5.029   0.577
 7126SOL    HW222278   3.202   5.025   0.543
 7127SOL     OW22279   1.904   4.875   5.979
 7127SOL    HW122280   2.002   4.874   5.961
 7127SOL    HW222281   1.862   4.792   5.943
 7128SOL     OW22282   2.744   5.037   7.004
 7128SOL    HW122283   2.821   5.049   0.040
 7128SOL    HW222284   2.658   5.040   0.027
 7129SOL     OW22285   2.667   1.875   6.988
 7129SOL    HW122286   2.597   1.806   6.967
 7129SOL    HW222287   2.657   1.952   6.924
 7130SOL     OW22288   4.056   5.355   5.286
 7130SOL    HW122289   3.962   5.322   5.293
 7130SOL    HW222290   4.056   5.454   5.275
 7131SOL     OW22291   2.918   0.625   1.105
 7131SOL    HW122292   2.895   0.672   1.190
 7131SOL    HW222293   3.000   0.666   1.066
 7132SOL     OW22294   4.105   4.357   0.339
 7132SOL    HW122295   4.106   4.371   0.240
 7132SOL    HW222296   4.012   4.338   0.369
 7133SOL     OW22297   5.184   5.410   6.090
 7133SOL    HW122298   5.110   5.353   6.055
 7133SOL    HW222299   5.214   5.375   6.179
 7134SOL     OW22300   5.111   6.716   1.865
 7134SOL    HW122301   5.124   6.619   1.886
 7134SOL    HW222302   5.044   6.755   1.928
 7135SOL     OW22303   1.339   2.794   3.515
 7135SOL    HW122304   1.436   2.816   3.513
 7135SOL    HW222305   1.314   2.764   3.607
 7136SOL     OW22306   2.373   1.888   0.750
 7136SOL    HW122307   2.464   1.929   0.760
 7136SOL    HW222308   2.341   1.858   0.839
 7137SOL     OW22309   4.069   0.072   6.672
 7137SOL    HW122310   4.010   7.019   6.660
 7137SOL    HW222311   4.051   0.138   6.600
 7138SOL     OW22312   2.592   2.124   0.453
 7138SOL    HW122313   2.683   2.113   0.494
 7138SOL    HW222314   2.566   2.039   0.407
 7139SOL     OW22315   6.145   4.127   1.705
 7139SOL    HW122316   6.105   4.058   1.644
 7139SOL    HW222317   6.082   4.204   1.713
 7140SOL     OW22318   6.616   3.812   2.919
 7140SOL    HW122319   6.630   3.740   2.850
 7140SOL    HW222320   6.606   3.770   3.009
 7141SOL     OW22321   3.636   6.349   0.915
 7141SOL    HW122322   3.554   6.337   0.971
 7141SOL    HW222323   3.705   6.282   0.942
 7142SOL     OW22324   4.073   0.207   2.882
 7142SOL    HW122325   4.157   0.258   2.863
 7142SOL    HW222326   4.095   0.119   2.923
 7143SOL     OW22327   1.644   2.924   5.835
 7143SOL    HW122328   1.730   2.957   5.797
 7143SOL    HW222329   1.656   2.831   5.871
 7144SOL     OW22330   2.010   2.125   2.456
 7144SOL    HW122331   2.023   2.089   2.363
 7144SOL    HW222332   2.071   2.203   2.470
 7145SOL     OW22333   4.358   0.158   0.323
 7145SOL    HW122334   4.344   0.127   0.229
 7145SOL    HW222335   4.275   0.203   0.356
 7146SOL     OW22336   1.871   6.781   0.600
 7146SOL    HW122337   1.960   6.815   0.628
 7146SOL    HW222338   1.853   6.810   0.506
 7147SOL     OW22339   6.999   0.112   2.377
 7147SOL    HW122340   0.072   0.114   2.369
 7147SOL    HW222341   6.974   0.079   2.468
 7148SOL     OW22342   0.047   6.046   0.993
 7148SOL    HW122343   0.012   6.138   0.975
 7148SOL    HW222344   0.012   6.014   1.081
 7149SOL     OW22345   6.423   6.830   3.191
 7149SOL    HW122346   6.403   6.752   3.132
 7149SOL    HW222347   6.345   6.893   3.189
 7150SOL     OW22348   3.740   2.575   1.037
 7150SOL    HW122349   3.810   2.590   1.107
 7150SOL    HW222350   3.723   2.476   1.029
 7151SOL     OW22351   2.647   6.519   0.590
 7151SOL    HW122352   2.566   6.463   0.608
 7151SOL    HW222353   2.708   6.471   0.528
 7152SOL     OW22354   0.592   0.852   5.724
 7152SOL    HW122355   0.575   0.879   5.818
 7152SOL    HW222356   0.563   0.925   5.662
 7153SOL     OW22357   4.282   5.442   1.797
 7153SOL    HW122358   4.257   5.495   1.878
 7153SOL    HW222359   4.218   5.462   1.724
 7154SOL     OW22360   4.799   6.740   3.261
 7154SOL    HW122361   4.729   6.800   3.299
 7154SOL    HW222362   4.887   6.787   3.262
 7155SOL     OW22363   1.691   3.490   0.926
 7155SOL    HW122364   1.745   3.428   0.981
 7155SOL    HW222365   1.710   3.585   0.952
 7156SOL     OW22366   6.777   3.332   4.239
 7156SOL    HW122367   6.796   3.281   4.154
 7156SOL    HW222368   6.851   3.397   4.255
 7157SOL     OW22369   0.204   3.534   1.542
 7157SOL    HW122370   0.183   3.571   1.451
 7157SOL    HW222371   0.137   3.566   1.608
 7158SOL     OW22372   1.605   0.032   3.853
 7158SOL    HW122373   1.641   0.122   3.827
 7158SOL    HW222374   1.506   0.039   3.871
 7159SOL     OW22375   0.845   4.627   2.866
 7159SOL    HW122376   0.924   4.573   2.837
 7159SOL    HW222377   0.785   4.570   2.922
 7160SOL     OW22378   5.790   0.544   2.731
 7160SOL    HW122379   5.805   0.463   2.788
 7160SOL    HW222380   5.828   0.624   2.775
 7161SOL     OW22381   3.491   4.157   3.485
 7161SOL    HW122382   3.393   4.139   3.493
 7161SOL    HW222383   3.534   4.145   3.574
 7162SOL     OW22384   1.185   5.542   6.839
 7162SOL    HW122385   1.092   5.508   6.819
 7162SOL    HW222386   1.244   5.523   6.760
 7163SOL     OW22387   3.007   6.450   2.543
 7163SOL    HW122388   2.977   6.541   2.511
 7163SOL    HW222389   2.929   6.401   2.582
 7164SOL     OW22390   3.026   0.563   4.128
 7164SOL    HW122391   2.958   0.533   4.195
 7164SOL    HW222392   3.115   0.573   4.173
 7165SOL     OW22393   6.987   1.068   2.907
 7165SOL    HW122394   7.026   1.128   2.837
 7165SOL    HW222395   6.889   1.083   2.912
 7166SOL     OW22396   5.016   2.153   0.913
 7166SOL    HW122397   5.069   2.069   0.929
 7166SOL    HW222398   4.938   2.132   0.853
 7167SOL     OW22399   5.855   3.490   4.304
 7167SOL    HW122400   5.934   3.494   4.365
 7167SOL    HW222401   5.771   3.493   4.357
 7168SOL     OW22402   1.488   2.829   2.831
 7168SOL    HW122403   1.540   2.765   2.775
 7168SOL    HW222404   1.508   2.813   2.927
 7169SOL     OW22405   0.977   2.906   5.401
 7169SOL    HW122406   0.958   2.906   5.499
 7169SOL    HW222407   0.914   2.844   5.354
 7170SOL     OW22408   5.068   6.893   3.602
 7170SOL    HW122409   5.111   6.918   3.689
 7170SOL    HW222410   4.969   6.890   3.613
 7171SOL     OW22411   6.301   3.578   0.142
 7171SOL    HW122412   6.246   3.495   0.138
 7171SOL    HW222413   6.375   3.572   0.075
 7172SOL     OW22414   1.001   0.029   4.344
 7172SOL    HW122415   0.920   6.998   4.352
 7172SOL    HW222416   1.047   0.034   4.433
 7173SOL     OW22417   6.800   4.447   6.650
 7173SOL    HW122418   6.778   4.435   6.747
 7173SOL    HW222419   6.858   4.372   6.619
 7174SOL     OW22420   1.369   3.581   0.484
 7174SOL    HW122421   1.317   3.579   0.398
 7174SOL    HW222422   1.384   3.487   0.516
 7175SOL     OW22423   5.509   3.048   6.454
 7175SOL    HW122424   5.452   2.966   6.459
 7175SOL    HW222425   5.507   3.096   6.542
 7176SOL     OW22426   6.727   0.566   3.046
 7176SOL    HW122427   6.773   0.616   2.972
 7176SOL    HW222428   6.714   0.627   3.124
 7177SOL     OW22429   1.375   4.912   4.688
 7177SOL    HW122430   1.472   4.887   4.682
 7177SOL    HW222431   1.367   5.009   4.709
 7178SOL     OW22432   0.882   1.423   5.745
 7178SOL    HW122433   0.974   1.464   5.748
 7178SOL    HW222434   0.819   1.486   5.702
 7179SOL     OW22435   2.005   3.531   4.355
 7179SOL    HW122436   1.931   3.466   4.372
 7179SOL    HW222437   2.044   3.560   4.443
 7180SOL     OW22438   2.185   5.177   0.218
 7180SOL    HW122439   2.191   5.270   0.183
 7180SOL    HW222440   2.200   5.112   0.144
 7181SOL     OW22441   2.274   6.853   0.501
 7181SOL    HW122442   2.293   6.768   0.453
 7181SOL    HW222443   2.212   6.836   0.578
 7182SOL     OW22444   0.243   2.913   5.070
 7182SOL    HW122445   0.332   2.898   5.113
 7182SOL    HW222446   0.213   2.829   5.025
 7183SOL     OW22447   1.955   5.637   0.909
 7183SOL    HW122448   1.910   5.548   0.913
 7183SOL    HW222449   1.944   5.684   0.997
 7184SOL     OW22450   6.682   1.356   3.316
 7184SOL    HW122451   6.613   1.309   3.261
 7184SOL    HW222452   6.645   1.379   3.405
 7185SOL     OW22453   5.778   0.326   4.592
 7185SOL    HW122454   5.684   0.296   4.577
 7185SOL    HW222455   5.780   0.426   4.596
 7186SOL     OW22456   6.807   2.022   1.354
 7186SOL    HW122457   6.764   1.934   1.334
 7186SOL    HW222458   6.800   2.081   1.273
 7187SOL     OW22459   4.065   4.169   6.352
 7187SOL    HW122460   4.056   4.264   6.381
 7187SOL    HW222461   3.979   4.121   6.369
 7188SOL     OW22462   5.729   0.512   0.167
 7188SOL    HW122463   5.739   0.412   0.166
 7188SOL    HW222464   5.695   0.543   0.079
 7189SOL     OW22465   6.913   0.965   5.365
 7189SOL    HW122466   6.847   1.018   5.419
 7189SOL    HW222467   6.999   0.958   5.414
 7190SOL     OW22468   0.006   3.854   2.295
 7190SOL    HW122469   0.010   3.754   2.295
 7190SOL    HW222470   7.009   3.886   2.203
 7191SOL     OW22471   0.961   5.329   2.582
 7191SOL    HW122472   1.046   5.344   2.631
 7191SOL    HW222473   0.886   5.373   2.631
 7192SOL     OW22474   2.858   4.474   5.775
 7192SOL    HW122475   2.936   4.524   5.738
 7192SOL    HW222476   2.809   4.428   5.700
 7193SOL     OW22477   0.833   2.887   2.482
 7193SOL    HW122478   0.904   2.818   2.468
 7193SOL    HW222479   0.869   2.960   2.541
 7194SOL     OW22480   2.851   2.829   0.523
 7194SOL    HW122481   2.786   2.904   0.535
 7194SOL    HW222482   2.941   2.865   0.500
 7195SOL     OW22483   1.102   3.769   7.005
 7195SOL    HW122484   1.130   3.800   6.914
 7195SOL    HW222485   1.127   3.673   7.017
 7196SOL     OW22486   2.956   3.784   1.522
 7196SOL    HW122487   2.906   3.734   1.594
 7196SOL    HW222488   2.924   3.754   1.433
 7197SOL     OW22489   0.479   2.339   6.342
 7197SOL    HW122490   0.544   2.262   6.342
 7197SOL    HW222491   0.526   2.422   6.373
 7198SOL     OW22492   6.686   0.541   0.868
 7198SOL    HW122493   6.738   0.620   0.902
 7198SOL    HW222494   6.720   0.458   0.910
 7199SOL     OW22495   1.586   0.718   2.270
 7199SOL    HW122496   1.683   0.739   2.282
 7199SOL    HW222497   1.533   0.803   2.274
 7200SOL     OW22498   2.793   2.646   6.912
 7200SOL    HW122499   2.707   2.597   6.926
 7200SOL    HW222500   2.796   2.726   6.973
 7201SOL     OW22501   0.610   5.549   4.537
 7201SOL    HW122502   0.563   5.512   4.457
 7201SOL    HW222503   0.689   5.602   4.508
 7202SOL     OW22504   5.395   6.923   6.757
 7202SOL    HW122505   5.474   6.984   6.766
 7202SOL    HW222506   5.385   6.870   6.841
 7203SOL     OW22507   0.449   1.746   1.031
 7203SOL    HW122508   0.481   1.744   0.936
 7203SOL    HW222509   0.387   1.669   1.046
 7204SOL     OW22510   0.398   0.583   5.425
 7204SOL    HW122511   0.496   0.576   5.411
 7204SOL    HW222512   0.351   0.511   5.373
 7205SOL     OW22513   0.836   4.124   3.817
 7205SOL    HW122514   0.758   4.146   3.875
 7205SOL    HW222515   0.901   4.200   3.817
 7206SOL     OW22516   1.457   0.586   1.730
 7206SOL    HW122517   1.462   0.623   1.823
 7206SOL    HW222518   1.370   0.611   1.689
 7207SOL     OW22519   3.535   0.778   2.627
 7207SOL    HW122520   3.522   0.810   2.533
 7207SOL    HW222521   3.632   0.784   2.652
 7208SOL     OW22522   3.996   7.002   3.480
 7208SOL    HW122523   4.096   6.994   3.481
 7208SOL    HW222524   3.968   0.033   3.404
 7209SOL     OW22525   2.888   3.373   1.592
 7209SOL    HW122526   2.973   3.359   1.542
 7209SOL    HW222527   2.811   3.359   1.530
 7210SOL     OW22528   4.531   1.240   3.590
 7210SOL    HW122529   4.550   1.180   3.512
 7210SOL    HW222530   4.617   1.274   3.628
 7211SOL     OW22531   3.086   6.995   4.547
 7211SOL    HW122532   3.119   7.025   4.457
 7211SOL    HW222533   3.048   6.903   4.539
 7212SOL     OW22534   0.611   6.124   4.743
 7212SOL    HW122535   0.601   6.026   4.725
 7212SOL    HW222536   0.609   6.174   4.657
 7213SOL     OW22537   5.336   6.156   0.297
 7213SOL    HW122538   5.380   6.225   0.239
 7213SOL    HW222539   5.260   6.198   0.347
 7214SOL     OW22540   6.308   6.519   5.542
 7214SOL    HW122541   6.239   6.551   5.607
 7214SOL    HW222542   6.357   6.598   5.504
 7215SOL     OW22543   6.937   3.592   4.697
 7215SOL    HW122544   6.983   3.674   4.731
 7215SOL    HW222545   6.916   3.604   4.600
 7216SOL     OW22546   3.337   6.979   6.868
 7216SOL    HW122547   3.335   6.947   6.963
 7216SOL    HW222548   3.262   6.936   6.817
 7217SOL     OW22549   2.047   3.778   3.437
 7217SOL    HW122550   2.096   3.856   3.397
 7217SOL    HW222551   2.005   3.724   3.364
 7218SOL     OW22552   5.595   3.450   5.427
 7218SOL    HW122553   5.572   3.462   5.523
 7218SOL    HW222554   5.689   3.479   5.410
 7219SOL     OW22555   5.111   0.253   3.022
 7219SOL    HW122556   5.173   0.184   3.060
 7219SOL    HW222557   5.056   0.292   3.096
 7220SOL     OW22558   1.190   4.739   5.097
 7220SOL    HW122559   1.123   4.717   5.026
 7220SOL    HW222560   1.279   4.754   5.054
 7221SOL     OW22561   3.557   6.112   4.377
 7221SOL    HW122562   3.461   6.114   4.349
 7221SOL    HW222563   3.563   6.097   4.475
 7222SOL     OW22564   5.965   0.121   2.983
 7222SOL    HW122565   5.954   0.152   2.889
 7222SOL    HW222566   5.954   0.022   2.986
 7223SOL     OW22567   2.842   1.146   0.551
 7223SOL    HW122568   2.850   1.093   0.466
 7223SOL    HW222569   2.840   1.083   0.629
 7224SOL     OW22570   5.581   1.669   4.098
 7224SOL    HW122571   5.643   1.606   4.145
 7224SOL    HW222572   5.574   1.644   4.002
 7225SOL     OW22573   1.053   5.301   0.689
 7225SOL    HW122574   1.048   5.364   0.611
 7225SOL    HW222575   1.018   5.346   0.771
 7226SOL     OW22576   6.918   1.707   1.585
 7226SOL    HW122577   6.887   1.764   1.661
 7226SOL    HW222578   6.859   1.724   1.506
 7227SOL     OW22579   1.704   2.314   1.100
 7227SOL    HW122580   1.762   2.242   1.139
 7227SOL    HW222581   1.625   2.329   1.160
 7228SOL     OW22582   1.111   2.004   2.922
 7228SOL    HW122583   1.051   2.001   2.842
 7228SOL    HW222584   1.191   2.061   2.902
 7229SOL     OW22585   1.859   6.301   5.632
 7229SOL    HW122586   1.865   6.300   5.732
 7229SOL    HW222587   1.906   6.382   5.597
 7230SOL     OW22588   3.563   5.207   4.622
 7230SOL    HW122589   3.524   5.151   4.696
 7230SOL    HW222590   3.496   5.215   4.548
 7231SOL     OW22591   4.049   0.918   6.805
 7231SOL    HW122592   4.019   0.967   6.724
 7231SOL    HW222593   4.139   0.951   6.833
 7232SOL     OW22594   5.179   5.892   3.404
 7232SOL    HW122595   5.105   5.825   3.402
 7232SOL    HW222596   5.267   5.846   3.398
 7233SOL     OW22597   0.870   1.920   3.864
 7233SOL    HW122598   0.878   1.855   3.940
 7233SOL    HW222599   0.791   1.896   3.807
 7234SOL     OW22600   5.339   3.230   4.150
 7234SOL    HW122601   5.318   3.320   4.188
 7234SOL    HW222602   5.433   3.228   4.118
 7235SOL     OW22603   0.196   4.511   2.176
 7235SOL    HW122604   0.196   4.472   2.084
 7235SOL    HW222605   0.158   4.444   2.240
 7236SOL     OW22606   2.002   1.921   1.770
 7236SOL    HW122607   2.059   1.910   1.688
 7236SOL    HW222608   2.061   1.934   1.850
 7237SOL     OW22609   3.943   0.525   5.146
 7237SOL    HW122610   4.039   0.509   5.121
 7237SOL    HW222611   3.885   0.462   5.094
 7238SOL     OW22612   3.282   1.721   0.756
 7238SOL    HW122613   3.251   1.787   0.825
 7238SOL    HW222614   3.203   1.679   0.712
 7239SOL     OW22615   1.187   2.589   2.572
 7239SOL    HW122616   1.111   2.526   2.554
 7239SOL    HW222617   1.159   2.682   2.548
 7240SOL     OW22618   1.168   6.705   5.864
 7240SOL    HW122619   1.196   6.666   5.952
 7240SOL    HW222620   1.104   6.644   5.818
 7241SOL     OW22621   1.591   0.824   0.519
 7241SOL    HW122622   1.678   0.859   0.485
 7241SOL    HW222623   1.604   0.731   0.554
 7242SOL     OW22624   6.420   6.205   0.545
 7242SOL    HW122625   6.374   6.151   0.615
 7242SOL    HW222626   6.423   6.301   0.574
 7243SOL     OW22627   6.691   4.602   6.338
 7243SOL    HW122628   6.772   4.544   6.348
 7243SOL    HW222629   6.610   4.553   6.371
 7244SOL     OW22630   5.995   1.084   1.747
 7244SOL    HW122631   6.079   1.047   1.708
 7244SOL    HW222632   6.012   1.115   1.840
 7245SOL     OW22633   1.081   2.127   4.895
 7245SOL    HW122634   1.177   2.137   4.868
 7245SOL    HW222635   1.067   2.172   4.984
 7246SOL     OW22636   0.092   0.189   4.229
 7246SOL    HW122637   0.169   0.144   4.185
 7246SOL    HW222638   0.034   0.232   4.159
 7247SOL     OW22639   2.114   0.803   4.167
 7247SOL    HW122640   2.206   0.841   4.163
 7247SOL    HW222641   2.072   0.826   4.255
 7248SOL     OW22642   2.276   1.465   3.363
 7248SOL    HW122643   2.361   1.458   3.414
 7248SOL    HW222644   2.279   1.547   3.305
 7249SOL     OW22645   6.417   4.792   2.680
 7249SOL    HW122646   6.507   4.779   2.640
 7249SOL    HW222647   6.374   4.874   2.642
 7250SOL     OW22648   4.546   6.811   6.246
 7250SOL    HW122649   4.552   6.712   6.229
 7250SOL    HW222650   4.468   6.830   6.304
 7251SOL     OW22651   0.602   6.563   5.789
 7251SOL    HW122652   0.647   6.574   5.700
 7251SOL    HW222653   0.610   6.467   5.817
 7252SOL     OW22654   3.785   3.720   2.689
 7252SOL    HW122655   3.732   3.783   2.745
 7252SOL    HW222656   3.882   3.743   2.696
 7253SOL     OW22657   2.098   6.224   6.764
 7253SOL    HW122658   2.000   6.242   6.776
 7253SOL    HW222659   2.116   6.127   6.780
 7254SOL     OW22660   4.600   5.331   4.142
 7254SOL    HW122661   4.554   5.264   4.200
 7254SOL    HW222662   4.601   5.297   4.047
 7255SOL     OW22663   3.117   3.858   1.061
 7255SOL    HW122664   3.192   3.821   1.117
 7255SOL    HW222665   3.092   3.791   0.991
 7256SOL     OW22666   3.630   5.116   4.277
 7256SOL    HW122667   3.546   5.140   4.228
 7256SOL    HW222668   3.613   5.040   4.340
 7257SOL     OW22669   5.817   2.967   3.758
 7257SOL    HW122670   5.872   3.047   3.780
 7257SOL    HW222671   5.877   2.890   3.736
 7258SOL     OW22672   4.213   1.843   3.748
 7258SOL    HW122673   4.242   1.862   3.654
 7258SOL    HW222674   4.225   1.925   3.804
 7259SOL     OW22675   3.039   3.487   1.231
 7259SOL    HW122676   3.089   3.420   1.286
 7259SOL    HW222677   2.947   3.499   1.268
 7260SOL     OW22678   3.605   1.619   2.128
 7260SOL    HW122679   3.532   1.666   2.078
 7260SOL    HW222680   3.664   1.572   2.063
 7261SOL     OW22681   1.710   2.519   1.320
 7261SOL    HW122682   1.699   2.611   1.280
 7261SOL    HW222683   1.654   2.512   1.403
 7262SOL     OW22684   5.091   1.880   5.564
 7262SOL    HW122685   5.081   1.810   5.493
 7262SOL    HW222686   5.187   1.906   5.573
 7263SOL     OW22687   0.983   0.130   0.472
 7263SOL    HW122688   1.002   0.225   0.449
 7263SOL    HW222689   0.885   0.111   0.459
 7264SOL     OW22690   5.577   1.489   6.450
 7264SOL    HW122691   5.584   1.429   6.370
 7264SOL    HW222692   5.569   1.433   6.533
 7265SOL     OW22693   5.558   5.306   5.904
 7265SOL    HW122694   5.569   5.401   5.934
 7265SOL    HW222695   5.584   5.298   5.808
 7266SOL     OW22696   5.539   0.251   1.138
 7266SOL    HW122697   5.518   0.167   1.188
 7266SOL    HW222698   5.634   0.250   1.110
 7267SOL     OW22699   6.786   5.713   5.570
 7267SOL    HW122700   6.850   5.731   5.495
 7267SOL    HW222701   6.833   5.666   5.644
 7268SOL     OW22702   5.481   5.118   3.688
 7268SOL    HW122703   5.463   5.162   3.600
 7268SOL    HW222704   5.413   5.146   3.755
 7269SOL     OW22705   0.299   6.571   0.207
 7269SOL    HW122706   0.309   6.537   0.114
 7269SOL    HW222707   0.306   6.671   0.207
 7270SOL     OW22708   1.643   3.265   5.876
 7270SOL    HW122709   1.738   3.273   5.909
 7270SOL    HW222710   1.643   3.262   5.776
 7271SOL     OW22711   0.264   6.033   3.026
 7271SOL    HW122712   0.226   6.033   3.119
 7271SOL    HW222713   0.237   6.116   2.979
 7272SOL     OW22714   5.838   5.331   1.997
 7272SOL    HW122715   5.911   5.349   1.931
 7272SOL    HW222716   5.762   5.285   1.952
 7273SOL     OW22717   5.516   4.844   1.904
 7273SOL    HW122718   5.457   4.785   1.960
 7273SOL    HW222719   5.589   4.881   1.961
 7274SOL     OW22720   0.748   5.707   6.830
 7274SOL    HW122721   0.661   5.745   6.800
 7274SOL    HW222722   0.788   5.765   6.901
 7275SOL     OW22723   6.504   0.287   2.433
 7275SOL    HW122724   6.570   0.251   2.368
 7275SOL    HW222725   6.542   0.367   2.479
 7276SOL     OW22726   3.498   1.720   3.023
 7276SOL    HW122727   3.557   1.642   3.045
 7276SOL    HW222728   3.454   1.753   3.107
 7277SOL     OW22729   5.007   0.433   3.465
 7277SOL    HW122730   4.972   0.526   3.461
 7277SOL    HW222731   4.966   0.385   3.544
 7278SOL     OW22732   3.322   2.698   1.443
 7278SOL    HW122733   3.238   2.660   1.403
 7278SOL    HW222734   3.391   2.707   1.372
 7279SOL     OW22735   3.606   3.872   5.699
 7279SOL    HW122736   3.694   3.824   5.691
 7279SOL    HW222737   3.533   3.813   5.667
 7280SOL     OW22738   0.230   1.889   4.080
 7280SOL    HW122739   0.224   1.856   3.986
 7280SOL    HW222740   0.189   1.821   4.141
 7281SOL     OW22741   1.480   1.305   0.077
 7281SOL    HW122742   1.539   1.230   0.046
 7281SOL    HW222743   1.384   1.277   0.069
 7282SOL     OW22744   5.726   6.572   1.459
 7282SOL    HW122745   5.646   6.532   1.413
 7282SOL    HW222746   5.799   6.585   1.392
 7283SOL     OW22747   3.845   0.846   1.884
 7283SOL    HW122748   3.864   0.815   1.791
 7283SOL    HW222749   3.789   0.778   1.931
 7284SOL     OW22750   6.983   2.082   5.600
 7284SOL    HW122751   7.018   2.001   5.554
 7284SOL    HW222752   6.983   2.067   5.699
 7285SOL     OW22753   5.262   3.712   1.882
 7285SOL    HW122754   5.242   3.807   1.860
 7285SOL    HW222755   5.215   3.687   1.966
 7286SOL     OW22756   0.648   0.620   1.203
 7286SOL    HW122757   0.713   0.680   1.250
 7286SOL    HW222758   0.666   0.624   1.104
 7287SOL     OW22759   6.449   3.061   5.081
 7287SOL    HW122760   6.350   3.052   5.070
 7287SOL    HW222761   6.471   3.082   5.177
 7288SOL     OW22762   1.515   1.833   1.310
 7288SOL    HW122763   1.436   1.772   1.314
 7288SOL    HW222764   1.574   1.817   1.389
 7289SOL     OW22765   5.900   2.690   4.237
 7289SOL    HW122766   5.872   2.603   4.278
 7289SOL    HW222767   5.987   2.677   4.188
 7290SOL     OW22768   2.226   1.490   4.870
 7290SOL    HW122769   2.323   1.497   4.894
 7290SOL    HW222770   2.182   1.423   4.930
 7291SOL     OW22771   1.592   6.974   0.400
 7291SOL    HW122772   1.633   7.001   0.487
 7291SOL    HW222773   1.493   6.967   0.410
 7292SOL     OW22774   3.371   0.504   3.163
 7292SOL    HW122775   3.271   0.510   3.157
 7292SOL    HW222776   3.412   0.570   3.100
 7293SOL     OW22777   1.073   1.782   5.337
 7293SOL    HW122778   1.013   1.715   5.380
 7293SOL    HW222779   1.062   1.871   5.382
 7294SOL     OW22780   2.970   4.892   0.314
 7294SOL    HW122781   3.011   4.809   0.276
 7294SOL    HW222782   3.036   4.937   0.375
 7295SOL     OW22783   6.204   3.943   0.959
 7295SOL    HW122784   6.179   3.915   0.867
 7295SOL    HW222785   6.122   3.956   1.014
 7296SOL     OW22786   4.238   5.882   2.006
 7296SOL    HW122787   4.237   5.961   1.945
 7296SOL    HW222788   4.283   5.906   2.092
 7297SOL     OW22789   3.362   6.734   1.235
 7297SOL    HW122790   3.286   6.705   1.177
 7297SOL    HW222791   3.331   6.735   1.331
 7298SOL     OW22792   4.608   5.044   5.836
 7298SOL    HW122793   4.546   5.060   5.912
 7298SOL    HW222794   4.558   5.053   5.749
 7299SOL     OW22795   1.196   2.443   0.724
 7299SOL    HW122796   1.240   2.423   0.637
 7299SOL    HW222797   1.165   2.357   0.767
 7300SOL     OW22798   0.688   6.820   2.374
 7300SOL    HW122799   0.735   6.902   2.341
 7300SOL    HW222800   0.730   6.740   2.332
 7301SOL     OW22801   5.444   2.417   5.078
 7301SOL    HW122802   5.492   2.475   5.012
 7301SOL    HW222803   5.485   2.428   5.168
 7302SOL     OW22804   0.177   2.459   6.374
 7302SOL    HW122805   0.223   2.508   6.448
 7302SOL    HW222806   0.084   2.436   6.402
 7303SOL     OW22807   3.564   0.821   6.611
 7303SOL    HW122808   3.546   0.738   6.664
 7303SOL    HW222809   3.576   0.898   6.673
 7304SOL     OW22810   3.157   5.442   1.510
 7304SOL    HW122811   3.111   5.530   1.520
 7304SOL    HW222812   3.089   5.368   1.519
 7305SOL     OW22813   5.302   1.766   1.544
 7305SOL    HW122814   5.251   1.731   1.466
 7305SOL    HW222815   5.256   1.740   1.629
 7306SOL     OW22816   3.894   1.931   1.627
 7306SOL    HW122817   3.956   1.877   1.684
 7306SOL    HW222818   3.816   1.962   1.682
 7307SOL     OW22819   3.162   6.313   2.380
 7307SOL    HW122820   3.169   6.225   2.427
 7307SOL    HW222821   3.112   6.377   2.439
 7308SOL     OW22822   6.209   1.695   4.304
 7308SOL    HW122823   6.127   1.639   4.293
 7308SOL    HW222824   6.277   1.669   4.235
 7309SOL     OW22825   4.141   5.758   1.619
 7309SOL    HW122826   4.231   5.797   1.639
 7309SOL    HW222827   4.072   5.830   1.623
 7310SOL     OW22828   2.121   3.560   0.575
 7310SOL    HW122829   2.087   3.647   0.538
 7310SOL    HW222830   2.044   3.498   0.592
 7311SOL     OW22831   1.581   1.899   1.061
 7311SOL    HW122832   1.560   1.855   1.149
 7311SOL    HW222833   1.496   1.921   1.014
 7312SOL     OW22834   0.915   2.551   4.777
 7312SOL    HW122835   0.896   2.479   4.710
 7312SOL    HW222836   0.881   2.638   4.742
 7313SOL     OW22837   2.035   1.595   0.177
 7313SOL    HW122838   2.116   1.583   0.234
 7313SOL    HW222839   1.958   1.621   0.235
 7314SOL     OW22840   0.216   3.857   6.300
 7314SOL    HW122841   0.179   3.799   6.228
 7314SOL    HW222842   0.144   3.915   6.338
 7315SOL     OW22843   5.285   5.781   1.649
 7315SOL    HW122844   5.241   5.871   1.649
 7315SOL    HW222845   5.350   5.775   1.725
 7316SOL     OW22846   2.974   3.200   6.673
 7316SOL    HW122847   3.027   3.276   6.636
 7316SOL    HW222848   2.980   3.122   6.611
 7317SOL     OW22849   4.251   1.824   1.515
 7317SOL    HW122850   4.317   1.888   1.554
 7317SOL    HW222851   4.221   1.856   1.425
 7318SOL     OW22852   2.794   0.203   2.085
 7318SOL    HW122853   2.749   0.277   2.037
 7318SOL    HW222854   2.831   0.138   2.019
 7319SOL     OW22855   6.129   3.414   7.018
 7319SOL    HW122856   6.192   3.396   6.943
 7319SOL    HW222857   6.046   3.458   6.982
 7320SOL     OW22858   0.436   3.412   1.382
 7320SOL    HW122859   0.515   3.463   1.415
 7320SOL    HW222860   0.352   3.456   1.416
 7321SOL     OW22861   2.187   6.596   5.569
 7321SOL    HW122862   2.217   6.611   5.475
 7321SOL    HW222863   2.255   6.635   5.632
 7322SOL     OW22864   6.745   2.573   3.226
 7322SOL    HW122865   6.844   2.586   3.218
 7322SOL    HW222866   6.701   2.599   3.140
 7323SOL     OW22867   2.107   2.832   1.565
 7323SOL    HW122868   2.016   2.804   1.536
 7323SOL    HW222869   2.115   2.932   1.557
 7324SOL     OW22870   5.414   4.960   1.668
 7324SOL    HW122871   5.473   5.025   1.620
 7324SOL    HW222872   5.464   4.921   1.745
 7325SOL     OW22873   2.840   0.265   5.994
 7325SOL    HW122874   2.860   0.333   6.065
 7325SOL    HW222875   2.925   0.233   5.953
 7326SOL     OW22876   3.531   5.819   6.189
 7326SOL    HW122877   3.615   5.795   6.237
 7326SOL    HW222878   3.457   5.760   6.221
 7327SOL     OW22879   6.357   2.529   5.019
 7327SOL    HW122880   6.397   2.469   5.088
 7327SOL    HW222881   6.430   2.584   4.977
 7328SOL     OW22882   4.754   6.963   5.827
 7328SOL    HW122883   4.661   6.970   5.865
 7328SOL    HW222884   4.794   6.876   5.853
 7329SOL     OW22885   0.472   4.199   0.645
 7329SOL    HW122886   0.373   4.202   0.656
 7329SOL    HW222887   0.512   4.288   0.664
 7330SOL     OW22888   2.584   3.277   0.136
 7330SOL    HW122889   2.559   3.281   0.233
 7330SOL    HW222890   2.637   3.194   0.119
 7331SOL     OW22891   5.561   6.484   0.858
 7331SOL    HW122892   5.544   6.385   0.865
 7331SOL    HW222893   5.504   6.522   0.786
 7332SOL     OW22894   3.341   4.880   0.123
 7332SOL    HW122895   3.387   4.949   0.178
 7332SOL    HW222896   3.259   4.920   0.081
 7333SOL     OW22897   5.984   2.592   3.299
 7333SOL    HW122898   5.902   2.534   3.302
 7333SOL    HW222899   5.963   2.682   3.337
 7334SOL     OW22900   1.838   6.811   6.343
 7334SOL    HW122901   1.755   6.807   6.398
 7334SOL    HW222902   1.864   6.906   6.328
 7335SOL     OW22903   0.369   3.079   3.257
 7335SOL    HW122904   0.432   3.040   3.324
 7335SOL    HW222905   0.412   3.157   3.212
 7336SOL     OW22906   2.380   6.816   2.316
 7336SOL    HW122907   2.320   6.896   2.316
 7336SOL    HW222908   2.363   6.763   2.233
 7337SOL     OW22909   1.724   2.923   2.253
 7337SOL    HW122910   1.690   3.013   2.224
 7337SOL    HW222911   1.819   2.932   2.283
 7338SOL     OW22912   5.510   1.688   1.699
 7338SOL    HW122913   5.434   1.737   1.656
 7338SOL    HW222914   5.542   1.739   1.779
 7339SOL     OW22915   6.030   0.238   4.948
 7339SOL    HW122916   6.004   0.219   4.854
 7339SOL    HW222917   6.063   0.154   4.992
 7340SOL     OW22918   3.378   1.501   0.226
 7340SOL    HW122919   3.309   1.562   0.265
 7340SOL    HW222920   3.361   1.407   0.257
 7341SOL     OW22921   1.152   4.632   4.739
 7341SOL    HW122922   1.086   4.620   4.814
 7341SOL    HW222923   1.175   4.542   4.701
 7342SOL     OW22924   0.199   6.729   6.476
 7342SOL    HW122925   0.243   6.654   6.427
 7342SOL    HW222926   0.100   6.722   6.466
 7343SOL     OW22927   5.832   4.560   1.398
 7343SOL    HW122928   5.793   4.479   1.353
 7343SOL    HW222929   5.800   4.563   1.492
 7344SOL     OW22930   1.209   0.593   5.849
 7344SOL    HW122931   1.125   0.542   5.832
 7344SOL    HW222932   1.284   0.529   5.867
 7345SOL     OW22933   5.091   5.579   5.277
 7345SOL    HW122934   5.180   5.550   5.243
 7345SOL    HW222935   5.031   5.500   5.286
 7346SOL     OW22936   4.443   4.087   1.582
 7346SOL    HW122937   4.400   4.122   1.666
 7346SOL    HW222938   4.373   4.063   1.516
 7347SOL     OW22939   0.749   3.059   1.209
 7347SOL    HW122940   0.754   3.148   1.163
 7347SOL    HW222941   0.654   3.033   1.222
 7348SOL     OW22942   1.208   3.669   3.499
 7348SOL    HW122943   1.144   3.658   3.575
 7348SOL    HW222944   1.270   3.745   3.519
 7349SOL     OW22945   4.566   2.059   0.401
 7349SOL    HW122946   4.597   1.987   0.463
 7349SOL    HW222947   4.618   2.053   0.315
 7350SOL     OW22948   1.856   3.054   5.478
 7350SOL    HW122949   1.936   3.106   5.448
 7350SOL    HW222950   1.831   2.986   5.408
 7351SOL     OW22951   5.013   5.912   5.282
 7351SOL    HW122952   4.987   5.893   5.376
 7351SOL    HW222953   5.022   5.826   5.231
 7352SOL     OW22954   1.874   2.913   2.975
 7352SOL    HW122955   1.906   2.819   2.978
 7352SOL    HW222956   1.834   2.938   3.063
 7353SOL     OW22957   0.320   6.868   5.866
 7353SOL    HW122958   0.313   6.835   5.772
 7353SOL    HW222959   0.302   6.966   5.868
 7354SOL     OW22960   0.837   1.872   6.739
 7354SOL    HW122961   0.902   1.913   6.803
 7354SOL    HW222962   0.835   1.773   6.752
 7355SOL     OW22963   1.895   1.560   0.591
 7355SOL    HW122964   1.867   1.649   0.628
 7355SOL    HW222965   1.949   1.512   0.660
 7356SOL     OW22966   3.801   3.660   5.701
 7356SOL    HW122967   3.719   3.614   5.667
 7356SOL    HW222968   3.829   3.619   5.788
 7357SOL     OW22969   4.686   0.147   1.814
 7357SOL    HW122970   4.676   0.123   1.717
 7357SOL    HW222971   4.667   0.244   1.827
 7358SOL     OW22972   0.177   2.789   2.628
 7358SOL    HW122973   0.242   2.730   2.580
 7358SOL    HW222974   0.090   2.742   2.638
 7359SOL     OW22975   2.628   2.893   6.240
 7359SOL    HW122976   2.655   2.917   6.146
 7359SOL    HW222977   2.644   2.972   6.300
 7360SOL     OW22978   3.520   4.343   6.009
 7360SOL    HW122979   3.459   4.271   5.976
 7360SOL    HW222980   3.469   4.428   6.019
 7361SOL     OW22981   4.287   0.265   1.839
 7361SOL    HW122982   4.241   0.334   1.894
 7361SOL    HW222983   4.259   0.274   1.744
 7362SOL     OW22984   0.896   5.343   4.314
 7362SOL    HW122985   0.916   5.406   4.238
 7362SOL    HW222986   0.951   5.368   4.393
 7363SOL     OW22987   4.299   1.383   1.109
 7363SOL    HW122988   4.385   1.406   1.065
 7363SOL    HW222989   4.232   1.357   1.041
 7364SOL     OW22990   4.108   0.823   1.100
 7364SOL    HW122991   4.062   0.911   1.096
 7364SOL    HW222992   4.207   0.837   1.105
 7365SOL     OW22993   1.396   0.181   1.811
 7365SOL    HW122994   1.360   0.187   1.718
 7365SOL    HW222995   1.456   0.102   1.818
 7366SOL     OW22996   2.274   5.665   0.004
 7366SOL    HW122997   2.284   5.760   0.035
 7366SOL    HW222998   2.178   5.648   7.008
 7367SOL     OW22999   4.834   3.630   1.393
 7367SOL    HW123000   4.735   3.621   1.402
 7367SOL    HW223001   4.875   3.643   1.483
 7368SOL     OW23002   3.852   2.978   3.379
 7368SOL    HW123003   3.818   2.927   3.458
 7368SOL    HW223004   3.886   3.067   3.408
 7369SOL     OW23005   4.216   2.550   6.951
 7369SOL    HW123006   4.132   2.592   6.984
 7369SOL    HW223007   4.266   2.616   6.895
 7370SOL     OW23008   2.944   0.775   4.752
 7370SOL    HW123009   2.947   0.758   4.653
 7370SOL    HW223010   3.010   0.847   4.775
 7371SOL     OW23011   2.029   6.033   3.574
 7371SOL    HW123012   1.989   6.107   3.520
 7371SOL    HW223013   2.110   5.998   3.527
 7372SOL     OW23014   4.127   1.314   5.027
 7372SOL    HW123015   4.107   1.220   4.999
 7372SOL    HW223016   4.183   1.359   4.957
 7373SOL     OW23017   5.792   1.319   4.495
 7373SOL    HW123018   5.724   1.392   4.480
 7373SOL    HW223019   5.861   1.351   4.560
 7374SOL     OW23020   3.243   1.402   5.594
 7374SOL    HW123021   3.290   1.468   5.536
 7374SOL    HW223022   3.293   1.390   5.680
 7375SOL     OW23023   2.103   3.214   3.240
 7375SOL    HW123024   2.006   3.192   3.239
 7375SOL    HW223025   2.141   3.202   3.149
 7376SOL     OW23026   3.382   1.877   0.328
 7376SOL    HW123027   3.366   1.969   0.364
 7376SOL    HW223028   3.413   1.883   0.233
 7377SOL     OW23029   5.466   4.676   0.576
 7377SOL    HW123030   5.410   4.594   0.588
 7377SOL    HW223031   5.426   4.751   0.629
 7378SOL     OW23032   0.733   1.191   5.731
 7378SOL    HW123033   0.776   1.281   5.737
 7378SOL    HW223034   0.791   1.130   5.677
 7379SOL     OW23035   3.072   2.172   2.938
 7379SOL    HW123036   3.005   2.208   2.874
 7379SOL    HW223037   3.163   2.174   2.896
 7380SOL     OW23038   0.459   3.866   5.040
 7380SOL    HW123039   0.451   3.840   5.136
 7380SOL    HW223040   0.437   3.963   5.029
 7381SOL     OW23041   4.851   3.722   1.969
 7381SOL    HW123042   4.847   3.822   1.965
 7381SOL    HW223043   4.913   3.688   1.898
 7382SOL     OW23044   0.473   5.509   6.524
 7382SOL    HW123045   0.439   5.464   6.442
 7382SOL    HW223046   0.573   5.519   6.518
 7383SOL     OW23047   1.141   6.664   1.030
 7383SOL    HW123048   1.083   6.744   1.017
 7383SOL    HW223049   1.182   6.638   0.943
 7384SOL     OW23050   5.550   0.877   3.425
 7384SOL    HW123051   5.563   0.782   3.454
 7384SOL    HW223052   5.637   0.925   3.431
 7385SOL     OW23053   4.556   6.025   2.065
 7385SOL    HW123054   4.527   6.102   2.008
 7385SOL    HW223055   4.641   5.987   2.030
 7386SOL     OW23056   0.626   2.131   5.509
 7386SOL    HW123057   0.626   2.121   5.409
 7386SOL    HW223058   0.654   2.044   5.551
 7387SOL     OW23059   4.614   6.366   4.340
 7387SOL    HW123060   4.533   6.309   4.350
 7387SOL    HW223061   4.686   6.314   4.294
 7388SOL     OW23062   0.173   4.820   2.576
 7388SOL    HW123063   0.124   4.744   2.533
 7388SOL    HW223064   0.252   4.784   2.626
 7389SOL     OW23065   0.393   3.069   6.324
 7389SOL    HW123066   0.490   3.089   6.316
 7389SOL    HW223067   0.351   3.070   6.233
 7390SOL     OW23068   2.156   2.132   0.182
 7390SOL    HW123069   2.208   2.217   0.170
 7390SOL    HW223070   2.217   2.060   0.216
 7391SOL     OW23071   4.022   3.750   5.245
 7391SOL    HW123072   4.075   3.834   5.248
 7391SOL    HW223073   3.960   3.753   5.166
 7392SOL     OW23074   2.264   6.002   6.734
 7392SOL    HW123075   2.269   5.908   6.702
 7392SOL    HW223076   2.349   6.050   6.711
 7393SOL     OW23077   4.951   4.899   2.417
 7393SOL    HW123078   4.890   4.853   2.352
 7393SOL    HW223079   5.043   4.863   2.406
 7394SOL     OW23080   3.024   2.187   5.839
 7394SOL    HW123081   3.070   2.235   5.765
 7394SOL    HW223082   2.972   2.110   5.802
 7395SOL     OW23083   1.939   2.487   0.156
 7395SOL    HW123084   2.006   2.556   0.185
 7395SOL    HW223085   1.857   2.495   0.212
 7396SOL     OW23086   1.301   6.850   0.398
 7396SOL    HW123087   1.242   6.861   0.478
 7396SOL    HW223088   1.246   6.856   0.315
 7397SOL     OW23089   4.333   5.153   5.037
 7397SOL    HW123090   4.385   5.238   5.030
 7397SOL    HW223091   4.346   5.114   5.128
 7398SOL     OW23092   2.532   4.820   4.519
 7398SOL    HW123093   2.490   4.747   4.572
 7398SOL    HW223094   2.563   4.784   4.431
 7399SOL     OW23095   1.026   2.157   5.845
 7399SOL    HW123096   1.067   2.227   5.904
 7399SOL    HW223097   0.964   2.099   5.899
 7400SOL     OW23098   4.002   2.923   6.106
 7400SOL    HW123099   3.970   3.015   6.127
 7400SOL    HW223100   4.017   2.915   6.007
 7401SOL     OW23101   1.747   0.584   4.630
 7401SOL    HW123102   1.672   0.607   4.568
 7401SOL    HW223103   1.829   0.561   4.577
 7402SOL     OW23104   3.176   5.924   6.669
 7402SOL    HW123105   3.076   5.916   6.671
 7402SOL    HW223106   3.204   6.007   6.717
 7403SOL     OW23107   2.314   4.138   2.486
 7403SOL    HW123108   2.249   4.063   2.499
 7403SOL    HW223109   2.325   4.187   2.573
 7404SOL     OW23110   2.075   5.100   1.290
 7404SOL    HW123111   2.083   5.162   1.212
 7404SOL    HW223112   1.982   5.064   1.294
 7405SOL     OW23113   3.799   4.968   4.078
 7405SOL    HW123114   3.721   4.951   4.017
 7405SOL    HW223115   3.778   5.045   4.138
 7406SOL     OW23116   0.569   3.119   3.470
 7406SOL    HW123117   0.613   3.113   3.559
 7406SOL    HW223118   0.638   3.134   3.399
 7407SOL     OW23119   0.056   6.135   4.347
 7407SOL    HW123120   0.125   6.112   4.278
 7407SOL    HW223121   0.057   6.065   4.419
 7408SOL     OW23122   2.407   4.330   6.695
 7408SOL    HW123123   2.403   4.282   6.783
 7408SOL    HW223124   2.493   4.309   6.649
 7409SOL     OW23125   0.287   1.617   6.144
 7409SOL    HW123126   0.345   1.538   6.166
 7409SOL    HW223127   0.338   1.701   6.161
 7410SOL     OW23128   0.124   6.589   1.081
 7410SOL    HW123129   0.192   6.523   1.114
 7410SOL    HW223130   0.084   6.638   1.159
 7411SOL     OW23131   2.932   0.163   4.954
 7411SOL    HW123132   2.886   0.211   5.029
 7411SOL    HW223133   3.000   0.223   4.913
 7412SOL     OW23134   4.631   0.420   1.945
 7412SOL    HW123135   4.554   0.407   2.007
 7412SOL    HW223136   4.716   0.391   1.990
 7413SOL     OW23137   4.925   5.943   4.239
 7413SOL    HW123138   4.867   5.895   4.306
 7413SOL    HW223139   4.964   6.024   4.281
 7414SOL     OW23140   0.594   0.278   3.671
 7414SOL    HW123141   0.507   0.230   3.679
 7414SOL    HW223142   0.579   0.376   3.683
 7415SOL     OW23143   1.826   4.111   4.247
 7415SOL    HW123144   1.856   4.120   4.151
 7415SOL    HW223145   1.843   4.197   4.295
 7416SOL     OW23146   2.419   2.013   3.772
 7416SOL    HW123147   2.379   1.953   3.840
 7416SOL    HW223148   2.466   2.089   3.817
 7417SOL     OW23149   2.029   0.399   6.759
 7417SOL    HW123150   2.091   0.321   6.749
 7417SOL    HW223151   2.082   0.480   6.784
 7418SOL     OW23152   3.335   5.907   0.921
 7418SOL    HW123153   3.378   5.913   0.831
 7418SOL    HW223154   3.383   5.840   0.976
 7419SOL     OW23155   5.499   3.423   5.171
 7419SOL    HW123156   5.541   3.431   5.262
 7419SOL    HW223157   5.570   3.428   5.101
 7420SOL     OW23158   0.461   6.949   2.008
 7420SOL    HW123159   0.520   6.999   2.072
 7420SOL    HW223160   0.374   6.929   2.053
 7421SOL     OW23161   3.464   4.055   0.748
 7421SOL    HW123162   3.397   4.129   0.743
 7421SOL    HW223163   3.470   4.009   0.659
 7422SOL     OW23164   6.998   3.352   2.650
 7422SOL    HW123165   6.968   3.439   2.689
 7422SOL    HW223166   6.965   3.277   2.707
 7423SOL     OW23167   6.205   3.797   5.458
 7423SOL    HW123168   6.178   3.892   5.478
 7423SOL    HW223169   6.127   3.747   5.421
 7424SOL     OW23170   0.082   6.962   5.259
 7424SOL    HW123171   7.016   6.970   5.224
 7424SOL    HW223172   0.144   6.935   5.186
 7425SOL     OW23173   4.354   5.511   6.804
 7425SOL    HW123174   4.440   5.560   6.791
 7425SOL    HW223175   4.339   5.450   6.726
 7426SOL     OW23176   2.398   1.134   5.780
 7426SOL    HW123177   2.378   1.083   5.697
 7426SOL    HW223178   2.327   1.204   5.794
 7427SOL     OW23179   3.531   0.131   4.036
 7427SOL    HW123180   3.611   0.176   3.998
 7427SOL    HW223181   3.455   0.196   4.041
 7428SOL     OW23182   4.053   1.150   6.287
 7428SOL    HW123183   4.067   1.249   6.296
 7428SOL    HW223184   3.961   1.132   6.252
 7429SOL     OW23185   0.056   6.848   3.963
 7429SOL    HW123186   0.035   6.884   3.872
 7429SOL    HW223187   0.135   6.896   4.000
 7430SOL     OW23188   1.108   3.227   6.921
 7430SOL    HW123189   1.153   3.219   6.833
 7430SOL    HW223190   1.021   3.177   6.919
 7431SOL     OW23191   0.726   3.198   2.978
 7431SOL    HW123192   0.776   3.154   2.903
 7431SOL    HW223193   0.630   3.171   2.974
 7432SOL     OW23194   0.576   1.088   3.447
 7432SOL    HW123195   0.535   1.012   3.396
 7432SOL    HW223196   0.619   1.151   3.382
 7433SOL     OW23197   4.707   5.635   6.270
 7433SOL    HW123198   4.725   5.658   6.174
 7433SOL    HW223199   4.779   5.575   6.304
 7434SOL     OW23200   5.102   6.400   5.866
 7434SOL    HW123201   5.142   6.452   5.940
 7434SOL    HW223202   5.169   6.389   5.792
 7435SOL     OW23203   3.730   5.645   1.031
 7435SOL    HW123204   3.723   5.733   0.986
 7435SOL    HW223205   3.732   5.572   0.963
 7436SOL     OW23206   5.741   3.855   6.500
 7436SOL    HW123207   5.733   3.860   6.401
 7436SOL    HW223208   5.706   3.767   6.532
 7437SOL     OW23209   0.972   6.350   0.483
 7437SOL    HW123210   0.989   6.448   0.495
 7437SOL    HW223211   0.884   6.326   0.525
 7438SOL     OW23212   1.176   5.596   0.109
 7438SOL    HW123213   1.212   5.549   0.028
 7438SOL    HW223214   1.093   5.550   0.140
 7439SOL     OW23215   1.418   5.719   5.424
 7439SOL    HW123216   1.423   5.641   5.362
 7439SOL    HW223217   1.329   5.764   5.414
 7440SOL     OW23218   0.080   3.688   4.121
 7440SOL    HW123219   0.129   3.721   4.040
 7440SOL    HW223220   0.103   3.745   4.200
 7441SOL     OW23221   5.408   6.359   3.910
 7441SOL    HW123222   5.459   6.441   3.885
 7441SOL    HW223223   5.353   6.378   3.992
 7442SOL     OW23224   6.630   1.096   5.758
 7442SOL    HW123225   6.574   1.013   5.752
 7442SOL    HW223226   6.627   1.132   5.851
 7443SOL     OW23227   0.131   0.213   2.085
 7443SOL    HW123228   0.156   0.228   2.181
 7443SOL    HW223229   0.049   0.157   2.081
 7444SOL     OW23230   6.199   2.999   5.524
 7444SOL    HW123231   6.230   2.911   5.489
 7444SOL    HW223232   6.141   2.985   5.604
 7445SOL     OW23233   3.808   1.551   1.236
 7445SOL    HW123234   3.764   1.520   1.152
 7445SOL    HW223235   3.907   1.555   1.223
 7446SOL     OW23236   5.520   3.630   1.252
 7446SOL    HW123237   5.536   3.582   1.338
 7446SOL    HW223238   5.505   3.563   1.179
 7447SOL     OW23239   0.677   3.251   6.266
 7447SOL    HW123240   0.695   3.260   6.363
 7447SOL    HW223241   0.626   3.331   6.234
 7448SOL     OW23242   6.513   6.414   5.677
 7448SOL    HW123243   6.480   6.348   5.745
 7448SOL    HW223244   6.436   6.470   5.645
 7449SOL     OW23245   6.406   3.284   1.680
 7449SOL    HW123246   6.307   3.298   1.678
 7449SOL    HW223247   6.430   3.228   1.760
 7450SOL     OW23248   5.525   1.968   4.450
 7450SOL    HW123249   5.492   1.877   4.425
 7450SOL    HW223250   5.623   1.973   4.435
 7451SOL     OW23251   7.000   0.298   3.201
 7451SOL    HW123252   7.020   0.255   3.113
 7451SOL    HW223253   0.046   0.362   3.224
 7452SOL     OW23254   0.922   6.048   4.707
 7452SOL    HW123255   0.887   5.954   4.708
 7452SOL    HW223256   0.866   6.103   4.645
 7453SOL     OW23257   4.892   6.716   5.662
 7453SOL    HW123258   4.819   6.732   5.595
 7453SOL    HW223259   4.885   6.623   5.697
 7454SOL     OW23260   0.619   2.433   2.722
 7454SOL    HW123261   0.588   2.340   2.741
 7454SOL    HW223262   0.578   2.466   2.637
 7455SOL     OW23263   6.905   1.925   2.513
 7455SOL    HW123264   6.988   1.885   2.473
 7455SOL    HW223265   6.828   1.908   2.452
 7456SOL     OW23266   0.904   1.449   4.293
 7456SOL    HW123267   0.901   1.431   4.392
 7456SOL    HW223268   0.864   1.539   4.274
 7457SOL     OW23269   3.774   0.111   6.185
 7457SOL    HW123270   3.846   0.180   6.189
 7457SOL    HW223271   3.790   0.043   6.256
 7458SOL     OW23272   1.848   6.819   5.925
 7458SOL    HW123273   1.752   6.819   5.899
 7458SOL    HW223274   1.881   6.913   5.931
 7459SOL     OW23275   4.858   0.691   1.805
 7459SOL    HW123276   4.884   0.607   1.852
 7459SOL    HW223277   4.876   0.770   1.864
 7460SOL     OW23278   1.419   5.291   0.806
 7460SOL    HW123279   1.516   5.314   0.797
 7460SOL    HW223280   1.367   5.336   0.733
 7461SOL     OW23281   6.054   1.618   5.784
 7461SOL    HW123282   6.118   1.596   5.710
 7461SOL    HW223283   6.096   1.594   5.872
 7462SOL     OW23284   1.714   4.149   2.706
 7462SOL    HW123285   1.651   4.109   2.773
 7462SOL    HW223286   1.662   4.203   2.640
 7463SOL     OW23287   2.608   4.512   1.059
 7463SOL    HW123288   2.592   4.455   1.139
 7463SOL    HW223289   2.522   4.529   1.011
 7464SOL     OW23290   4.762   0.264   6.511
 7464SOL    HW123291   4.752   0.217   6.423
 7464SOL    HW223292   4.676   0.259   6.561
 7465SOL     OW23293   0.852   5.864   0.450
 7465SOL    HW123294   0.860   5.937   0.383
 7465SOL    HW223295   0.802   5.897   0.530
 7466SOL     OW23296   0.199   0.737   5.800
 7466SOL    HW123297   0.244   0.715   5.887
 7466SOL    HW223298   0.168   0.653   5.757
 7467SOL     OW23299   0.285   2.033   0.945
 7467SOL    HW123300   0.356   2.019   0.876
 7467SOL    HW223301   0.308   2.113   1.001
 7468SOL     OW23302   5.461   2.864   3.595
 7468SOL    HW123303   5.514   2.863   3.510
 7468SOL    HW223304   5.367   2.836   3.575
 7469SOL     OW23305   7.017   0.874   0.679
 7469SOL    HW123306   6.939   0.901   0.622
 7469SOL    HW223307   0.014   0.949   0.740
 7470SOL     OW23308   6.668   3.531   3.858
 7470SOL    HW123309   6.664   3.445   3.806
 7470SOL    HW223310   6.612   3.524   3.940
 7471SOL     OW23311   6.607   5.853   6.181
 7471SOL    HW123312   6.702   5.852   6.149
 7471SOL    HW223313   6.546   5.863   6.103
 7472SOL     OW23314   6.326   6.889   4.904
 7472SOL    HW123315   6.348   6.806   4.956
 7472SOL    HW223316   6.325   6.868   4.806
 7473SOL     OW23317   6.515   5.061   3.195
 7473SOL    HW123318   6.507   5.008   3.111
 7473SOL    HW223319   6.543   5.155   3.173
 7474SOL     OW23320   1.764   1.287   5.388
 7474SOL    HW123321   1.837   1.291   5.456
 7474SOL    HW223322   1.711   1.203   5.400
 7475SOL     OW23323   4.563   2.231   2.127
 7475SOL    HW123324   4.581   2.188   2.215
 7475SOL    HW223325   4.641   2.215   2.066
 7476SOL     OW23326   3.080   6.135   3.502
 7476SOL    HW123327   3.079   6.114   3.600
 7476SOL    HW223328   3.159   6.192   3.481
 7477SOL     OW23329   0.499   0.954   5.084
 7477SOL    HW123330   0.509   0.866   5.039
 7477SOL    HW223331   0.404   0.967   5.112
 7478SOL     OW23332   4.772   5.482   6.555
 7478SOL    HW123333   4.819   5.445   6.635
 7478SOL    HW223334   4.840   5.512   6.488
 7479SOL     OW23335   4.418   2.557   1.761
 7479SOL    HW123336   4.476   2.634   1.736
 7479SOL    HW223337   4.457   2.509   1.839
 7480SOL     OW23338   0.415   4.255   1.904
 7480SOL    HW123339   0.462   4.237   1.817
 7480SOL    HW223340   0.330   4.203   1.908
 7481SOL     OW23341   6.060   5.082   0.997
 7481SOL    HW123342   6.075   5.096   0.900
 7481SOL    HW223343   6.079   5.167   1.047
 7482SOL     OW23344   4.401   2.003   2.943
 7482SOL    HW123345   4.350   1.923   2.911
 7482SOL    HW223346   4.357   2.086   2.908
 7483SOL     OW23347   4.859   2.966   4.484
 7483SOL    HW123348   4.929   3.014   4.537
 7483SOL    HW223349   4.828   2.885   4.535
 7484SOL     OW23350   1.643   0.598   3.557
 7484SOL    HW123351   1.626   0.696   3.561
 7484SOL    HW223352   1.741   0.580   3.566
 7485SOL     OW23353   3.532   0.448   5.225
 7485SOL    HW123354   3.556   0.493   5.140
 7485SOL    HW223355   3.464   0.376   5.207
 7486SOL     OW23356   1.998   0.091   0.449
 7486SOL    HW123357   2.064   0.137   0.509
 7486SOL    HW223358   2.043   0.015   0.402
 7487SOL     OW23359   2.489   6.434   2.574
 7487SOL    HW123360   2.572   6.405   2.528
 7487SOL    HW223361   2.493   6.406   2.670
 7488SOL     OW23362   2.456   6.883   4.035
 7488SOL    HW123363   2.382   6.949   4.053
 7488SOL    HW223364   2.537   6.932   4.003
 7489SOL     OW23365   5.214   3.061   5.260
 7489SOL    HW123366   5.185   3.098   5.171
 7489SOL    HW223367   5.179   2.968   5.270
 7490SOL     OW23368   1.242   0.646   1.964
 7490SOL    HW123369   1.311   0.581   1.996
 7490SOL    HW223370   1.152   0.617   1.994
 7491SOL     OW23371   6.118   2.301   5.592
 7491SOL    HW123372   6.148   2.350   5.675
 7491SOL    HW223373   6.124   2.203   5.608
 7492SOL     OW23374   1.761   0.397   3.075
 7492SOL    HW123375   1.667   0.414   3.043
 7492SOL    HW223376   1.824   0.413   2.999
 7493SOL     OW23377   0.163   3.661   6.663
 7493SOL    HW123378   0.074   3.615   6.651
 7493SOL    HW223379   0.236   3.592   6.661
 7494SOL     OW23380   4.635   1.001   2.477
 7494SOL    HW123381   4.637   0.920   2.418
 7494SOL    HW223382   4.642   1.084   2.422
 7495SOL     OW23383   1.985   1.521   6.955
 7495SOL    HW123384   2.002   1.523   0.027
 7495SOL    HW223385   2.072   1.523   6.906
 7496SOL     OW23386   6.353   3.781   5.933
 7496SOL    HW123387   6.398   3.716   5.994
 7496SOL    HW223388   6.319   3.859   5.986
 7497SOL     OW23389   1.957   4.329   0.079
 7497SOL    HW123390   2.043   4.380   0.082
 7497SOL    HW223391   1.902   4.362   0.002
 7498SOL     OW23392   2.924   0.927   6.083
 7498SOL    HW123393   2.841   0.982   6.094
 7498SOL    HW223394   2.906   0.851   6.021
 7499SOL     OW23395   3.090   1.941   3.076
 7499SOL    HW123396   3.104   1.971   3.171
 7499SOL    HW223397   3.112   2.016   3.014
 7500SOL     OW23398   3.114   5.453   3.018
 7500SOL    HW123399   3.142   5.478   2.926
 7500SOL    HW223400   3.146   5.360   3.039
 7501SOL     OW23401   5.196   4.259   4.487
 7501SOL    HW123402   5.210   4.172   4.440
 7501SOL    HW223403   5.130   4.248   4.560
 7502SOL     OW23404   1.728   0.246   3.753
 7502SOL    HW123405   1.796   0.277   3.686
 7502SOL    HW223406   1.675   0.324   3.784
 7503SOL     OW23407   2.630   0.873   1.115
 7503SOL    HW123408   2.578   0.923   1.045
 7503SOL    HW223409   2.726   0.900   1.111
 7504SOL     OW23410   1.293   0.240   3.071
 7504SOL    HW123411   1.249   0.184   3.141
 7504SOL    HW223412   1.223   0.279   3.011
 7505SOL     OW23413   2.155   1.467   5.465
 7505SOL    HW123414   2.140   1.529   5.542
 7505SOL    HW223415   2.083   1.398   5.464
 7506SOL     OW23416   5.878   0.682   3.158
 7506SOL    HW123417   5.830   0.609   3.110
 7506SOL    HW223418   5.973   0.686   3.127
 7507SOL     OW23419   0.604   0.884   2.342
 7507SOL    HW123420   0.634   0.819   2.272
 7507SOL    HW223421   0.614   0.843   2.433
 7508SOL     OW23422   0.718   6.982   1.291
 7508SOL    HW123423   0.781   0.032   1.278
 7508SOL    HW223424   0.740   6.910   1.225
 7509SOL     OW23425   5.195   4.258   0.419
 7509SOL    HW123426   5.167   4.350   0.390
 7509SOL    HW223427   5.214   4.203   0.338
 7510SOL     OW23428   3.626   4.094   5.445
 7510SOL    HW123429   3.554   4.104   5.375
 7510SOL    HW223430   3.608   4.012   5.499
 7511SOL     OW23431   2.930   6.992   3.987
 7511SOL    HW123432   2.923   6.968   3.890
 7511SOL    HW223433   2.874   0.046   4.005
 7512SOL     OW23434   2.649   6.501   6.324
 7512SOL    HW123435   2.721   6.569   6.336
 7512SOL    HW223436   2.569   6.543   6.281
 7513SOL     OW23437   2.767   0.867   1.552
 7513SOL    HW123438   2.821   0.836   1.474
 7513SOL    HW223439   2.768   0.967   1.556
 7514SOL     OW23440   2.287   5.862   1.902
 7514SOL    HW123441   2.223   5.900   1.835
 7514SOL    HW223442   2.341   5.789   1.859
 7515SOL     OW23443   6.853   4.823   2.682
 7515SOL    HW123444   6.925   4.876   2.727
 7515SOL    HW223445   6.885   4.730   2.666
 7516SOL     OW23446   6.883   6.441   5.279
 7516SOL    HW123447   6.819   6.512   5.306
 7516SOL    HW223448   6.862   6.410   5.186
 7517SOL     OW23449   0.268   2.859   0.861
 7517SOL    HW123450   0.257   2.953   0.829
 7517SOL    HW223451   0.193   2.836   0.923
 7518SOL     OW23452   4.157   4.732   3.896
 7518SOL    HW123453   4.214   4.709   3.976
 7518SOL    HW223454   4.217   4.753   3.819
 7519SOL     OW23455   0.363   6.773   3.740
 7519SOL    HW123456   0.338   6.682   3.773
 7519SOL    HW223457   0.307   6.797   3.661
 7520SOL     OW23458   2.480   0.184   2.394
 7520SOL    HW123459   2.386   0.151   2.403
 7520SOL    HW223460   2.485   0.252   2.321
 7521SOL     OW23461   5.027   4.172   6.097
 7521SOL    HW123462   5.090   4.249   6.086
 7521SOL    HW223463   4.933   4.206   6.103
 7522SOL     OW23464   1.823   0.838   6.273
 7522SOL    HW123465   1.861   0.779   6.344
 7522SOL    HW223466   1.890   0.908   6.248
 7523SOL     OW23467   5.805   0.123   5.216
 7523SOL    HW123468   5.767   0.166   5.297
 7523SOL    HW223469   5.899   0.094   5.234
 7524SOL     OW23470   1.470   1.983   5.407
 7524SOL    HW123471   1.563   2.017   5.395
 7524SOL    HW223472   1.416   2.003   5.325
 7525SOL     OW23473   3.396   0.604   6.339
 7525SOL    HW123474   3.424   0.699   6.324
 7525SOL    HW223475   3.298   0.601   6.358
 7526SOL     OW23476   2.914   3.154   1.852
 7526SOL    HW123477   2.891   3.215   1.927
 7526SOL    HW223478   2.832   3.133   1.799
 7527SOL     OW23479   2.925   6.066   2.979
 7527SOL    HW123480   2.831   6.035   2.963
 7527SOL    HW223481   2.946   6.058   3.077
 7528SOL     OW23482   5.581   1.784   0.016
 7528SOL    HW123483   5.516   1.850   7.005
 7528SOL    HW223484   5.585   1.794   0.115
 7529SOL     OW23485   4.650   0.822   4.489
 7529SOL    HW123486   4.626   0.898   4.429
 7529SOL    HW223487   4.725   0.850   4.550
 7530SOL     OW23488   0.253   3.297   2.674
 7530SOL    HW123489   0.162   3.337   2.686
 7530SOL    HW223490   0.283   3.309   2.580
 7531SOL     OW23491   5.326   3.227   4.475
 7531SOL    HW123492   5.261   3.278   4.532
 7531SOL    HW223493   5.276   3.166   4.414
 7532SOL     OW23494   5.415   5.814   0.111
 7532SOL    HW123495   5.426   5.819   0.211
 7532SOL    HW223496   5.349   5.743   0.089
 7533SOL     OW23497   2.717   1.799   1.827
 7533SOL    HW123498   2.700   1.704   1.801
 7533SOL    HW223499   2.773   1.843   1.758
 7534SOL     OW23500   4.637   5.895   5.365
 7534SOL    HW123501   4.718   5.947   5.339
 7534SOL    HW223502   4.579   5.881   5.284
 7535SOL     OW23503   1.694   0.065   5.082
 7535SOL    HW123504   1.625   0.090   5.014
 7535SOL    HW223505   1.780   0.044   5.037
 7536SOL     OW23506   4.565   4.445   4.903
 7536SOL    HW123507   4.505   4.511   4.948
 7536SOL    HW223508   4.561   4.460   4.804
 7537SOL     OW23509   3.168   5.748   2.425
 7537SOL    HW123510   3.078   5.790   2.439
 7537SOL    HW223511   3.155   5.657   2.384
 7538SOL     OW23512   2.538   3.148   1.599
 7538SOL    HW123513   2.512   3.170   1.505
 7538SOL    HW223514   2.511   3.223   1.660
 7539SOL     OW23515   1.017   3.775   4.608
 7539SOL    HW123516   1.068   3.750   4.690
 7539SOL    HW223517   0.946   3.707   4.590
 7540SOL     OW23518   4.010   7.007   4.693
 7540SOL    HW123519   3.912   6.990   4.708
 7540SOL    HW223520   4.061   6.923   4.714
 7541SOL     OW23521   0.235   4.257   5.499
 7541SOL    HW123522   0.141   4.257   5.534
 7541SOL    HW223523   0.240   4.317   5.419
 7542SOL     OW23524   1.301   5.036   6.503
 7542SOL    HW123525   1.357   5.012   6.423
 7542SOL    HW223526   1.356   5.087   6.568
 7543SOL     OW23527   3.579   2.134   6.727
 7543SOL    HW123528   3.617   2.142   6.634
 7543SOL    HW223529   3.526   2.217   6.748
 7544SOL     OW23530   0.006   2.616   3.180
 7544SOL    HW123531   0.097   2.649   3.156
 7544SOL    HW223532   0.014   2.546   3.252
 7545SOL     OW23533   0.120   5.828   0.696
 7545SOL    HW123534   0.041   5.809   0.755
 7545SOL    HW223535   0.101   5.795   0.603
 7546SOL     OW23536   3.290   1.911   1.690
 7546SOL    HW123537   3.258   1.996   1.732
 7546SOL    HW223538   3.383   1.924   1.654
 7547SOL     OW23539   5.431   1.136   0.939
 7547SOL    HW123540   5.348   1.087   0.967
 7547SOL    HW223541   5.423   1.232   0.964
 7548SOL     OW23542   3.961   1.409   0.162
 7548SOL    HW123543   3.954   1.501   0.125
 7548SOL    HW223544   3.884   1.391   0.223
 7549SOL     OW23545   4.775   2.506   0.680
 7549SOL    HW123546   4.744   2.591   0.723
 7549SOL    HW223547   4.753   2.509   0.583
 7550SOL     OW23548   2.520   4.899   2.302
 7550SOL    HW123549   2.587   4.904   2.228
 7550SOL    HW223550   2.467   4.983   2.305
 7551SOL     OW23551   5.418   3.650   6.952
 7551SOL    HW123552   5.338   3.615   7.001
 7551SOL    HW223553   5.390   3.684   6.863
 7552SOL     OW23554   1.656   6.212   2.836
 7552SOL    HW123555   1.629   6.222   2.932
 7552SOL    HW223556   1.653   6.301   2.791
 7553SOL     OW23557   4.534   6.184   5.990
 7553SOL    HW123558   4.600   6.220   5.924
 7553SOL    HW223559   4.519   6.252   6.062
 7554SOL     OW23560   4.416   1.103   0.447
 7554SOL    HW123561   4.337   1.094   0.386
 7554SOL    HW223562   4.453   1.012   0.468
 7555SOL     OW23563   2.363   4.683   6.123
 7555SOL    HW123564   2.425   4.661   6.047
 7555SOL    HW223565   2.413   4.678   6.209
 7556SOL     OW23566   2.203   3.286   0.182
 7556SOL    HW123567   2.191   3.383   0.202
 7556SOL    HW223568   2.115   3.240   0.184
 7557SOL     OW23569   4.970   1.302   5.326
 7557SOL    HW123570   4.997   1.264   5.414
 7557SOL    HW223571   5.051   1.330   5.275
 7558SOL     OW23572   1.319   2.793   4.069
 7558SOL    HW123573   1.403   2.835   4.104
 7558SOL    HW223574   1.239   2.843   4.105
 7559SOL     OW23575   5.292   3.888   0.062
 7559SOL    HW123576   5.222   3.825   0.097
 7559SOL    HW223577   5.250   3.951   7.024
 7560SOL     OW23578   4.726   0.088   1.020
 7560SOL    HW123579   4.626   0.095   1.021
 7560SOL    HW223580   4.764   0.159   0.962
 7561SOL     OW23581   0.848   3.690   6.954
 7561SOL    HW123582   0.939   3.727   6.935
 7561SOL    HW223583   0.848   3.645   0.016
 7562SOL     OW23584   0.097   6.573   3.946
 7562SOL    HW123585   0.094   6.668   3.977
 7562SOL    HW223586   0.039   6.563   3.866
 7563SOL     OW23587   3.029   0.313   1.051
 7563SOL    HW123588   3.024   0.223   1.007
 7563SOL    HW223589   3.121   0.327   1.088
 7564SOL     OW23590   4.935   0.334   3.212
 7564SOL    HW123591   4.991   0.364   3.289
 7564SOL    HW223592   4.865   0.404   3.193
 7565SOL     OW23593   5.229   3.413   0.921
 7565SOL    HW123594   5.223   3.368   1.010
 7565SOL    HW223595   5.192   3.353   0.851
 7566SOL     OW23596   5.600   4.980   2.723
 7566SOL    HW123597   5.576   4.885   2.700
 7566SOL    HW223598   5.655   4.982   2.806
 7567SOL     OW23599   1.942   2.222   4.355
 7567SOL    HW123600   1.982   2.183   4.438
 7567SOL    HW223601   2.012   2.226   4.283
 7568SOL     OW23602   5.199   5.845   2.815
 7568SOL    HW123603   5.204   5.930   2.868
 7568SOL    HW223604   5.248   5.773   2.863
 7569SOL     OW23605   3.876   5.333   6.356
 7569SOL    HW123606   3.828   5.246   6.350
 7569SOL    HW223607   3.854   5.377   6.444
 7570SOL     OW23608   5.898   3.352   5.627
 7570SOL    HW123609   5.904   3.329   5.530
 7570SOL    HW223610   5.838   3.287   5.673
 7571SOL     OW23611   3.909   5.327   3.409
 7571SOL    HW123612   3.853   5.410   3.419
 7571SOL    HW223613   3.860   5.261   3.352
 7572SOL     OW23614   4.721   1.204   1.294
 7572SOL    HW123615   4.639   1.156   1.264
 7572SOL    HW223616   4.700   1.262   1.372
 7573SOL     OW23617   0.610   0.376   5.162
 7573SOL    HW123618   0.637   0.438   5.236
 7573SOL    HW223619   0.595   0.428   5.078
 7574SOL     OW23620   5.550   0.637   5.657
 7574SOL    HW123621   5.614   0.615   5.731
 7574SOL    HW223622   5.517   0.553   5.614
 7575SOL     OW23623   5.070   6.899   6.470
 7575SOL    HW123624   5.081   6.994   6.440
 7575SOL    HW223625   5.046   6.898   6.567
 7576SOL     OW23626   4.885   4.509   0.054
 7576SOL    HW123627   4.946   4.501   7.002
 7576SOL    HW223628   4.816   4.580   0.036
 7577SOL     OW23629   0.579   6.933   0.058
 7577SOL    HW123630   0.541   6.922   6.993
 7577SOL    HW223631   0.678   6.941   0.052
 7578SOL     OW23632   1.826   5.294   1.807
 7578SOL    HW123633   1.748   5.320   1.750
 7578SOL    HW223634   1.814   5.201   1.841
 7579SOL     OW23635   6.771   0.769   1.806
 7579SOL    HW123636   6.735   0.679   1.831
 7579SOL    HW223637   6.764   0.830   1.885
 7580SOL     OW23638   0.306   3.919   4.717
 7580SOL    HW123639   0.230   3.911   4.782
 7580SOL    HW223640   0.323   3.829   4.675
 7581SOL     OW23641   6.763   1.080   1.224
 7581SOL    HW123642   6.813   1.015   1.281
 7581SOL    HW223643   6.703   1.135   1.281
 7582SOL     OW23644   4.305   1.238   1.798
 7582SOL    HW123645   4.232   1.170   1.792
 7582SOL    HW223646   4.275   1.324   1.757
 7583SOL     OW23647   6.084   3.290   2.276
 7583SOL    HW123648   6.151   3.222   2.307
 7583SOL    HW223649   6.131   3.363   2.226
 7584SOL     OW23650   3.518   6.967   1.236
 7584SOL    HW123651   3.448   7.022   1.281
 7584SOL    HW223652   3.490   6.871   1.237
 7585SOL     OW23653   1.507   2.990   6.616
 7585SOL    HW123654   1.601   2.957   6.620
 7585SOL    HW223655   1.445   2.911   6.609
 7586SOL     OW23656   2.597   0.525   3.601
 7586SOL    HW123657   2.628   0.430   3.608
 7586SOL    HW223658   2.560   0.555   3.689
 7587SOL     OW23659   2.781   2.838   0.069
 7587SOL    HW123660   2.818   2.814   0.159
 7587SOL    HW223661   2.689   2.875   0.080
 7588SOL     OW23662   1.682   3.057   3.443
 7588SOL    HW123663   1.684   3.147   3.487
 7588SOL    HW223664   1.649   2.989   3.508
 7589SOL     OW23665   0.871   0.548   2.648
 7589SOL    HW123666   0.919   0.477   2.699
 7589SOL    HW223667   0.861   0.630   2.705
 7590SOL     OW23668   4.043   1.455   5.974
 7590SOL    HW123669   4.007   1.537   6.019
 7590SOL    HW223670   4.141   1.449   5.989
 7591SOL     OW23671   0.361   3.715   0.723
 7591SOL    HW123672   0.442   3.702   0.780
 7591SOL    HW223673   0.331   3.811   0.729
 7592SOL     OW23674   6.453   4.651   4.745
 7592SOL    HW123675   6.366   4.603   4.757
 7592SOL    HW223676   6.510   4.602   4.680
 7593SOL     OW23677   5.915   3.529   1.047
 7593SOL    HW123678   5.947   3.570   1.132
 7593SOL    HW223679   5.866   3.598   0.993
 7594SOL     OW23680   1.231   5.594   2.440
 7594SOL    HW123681   1.174   5.529   2.490
 7594SOL    HW223682   1.205   5.687   2.466
 7595SOL     OW23683   6.357   3.178   5.829
 7595SOL    HW123684   6.359   3.267   5.874
 7595SOL    HW223685   6.451   3.145   5.815
 7596SOL     OW23686   4.009   5.462   4.460
 7596SOL    HW123687   4.060   5.514   4.529
 7596SOL    HW223688   4.009   5.365   4.485
 7597SOL     OW23689   2.918   6.886   2.638
 7597SOL    HW123690   3.014   6.866   2.659
 7597SOL    HW223691   2.907   6.893   2.538
 7598SOL     OW23692   0.041   1.541   3.263
 7598SOL    HW123693   0.017   1.458   3.212
 7598SOL    HW223694   7.025   1.537   3.353
 7599SOL     OW23695   5.428   2.091   2.472
 7599SOL    HW123696   5.362   2.062   2.542
 7599SOL    HW223697   5.427   2.026   2.396
 7600SOL     OW23698   1.497   1.580   2.648
 7600SOL    HW123699   1.524   1.663   2.696
 7600SOL    HW223700   1.535   1.581   2.556
 7601SOL     OW23701   1.860   5.780   2.776
 7601SOL    HW123702   1.865   5.707   2.707
 7601SOL    HW223703   1.807   5.857   2.739
 7602SOL     OW23704   2.022   4.189   6.437
 7602SOL    HW123705   1.986   4.129   6.367
 7602SOL    HW223706   2.122   4.193   6.430
 7603SOL     OW23707   1.650   5.992   6.038
 7603SOL    HW123708   1.618   5.961   5.948
 7603SOL    HW223709   1.602   5.941   6.109
 7604SOL     OW23710   2.136   3.752   4.518
 7604SOL    HW123711   2.103   3.802   4.438
 7604SOL    HW223712   2.130   3.811   4.599
 7605SOL     OW23713   1.105   0.732   1.001
 7605SOL    HW123714   1.006   0.731   1.012
 7605SOL    HW223715   1.141   0.639   1.010
 7606SOL     OW23716   5.696   4.161   5.211
 7606SOL    HW123717   5.763   4.109   5.264
 7606SOL    HW223718   5.619   4.103   5.186
 7607SOL     OW23719   3.056   5.280   0.396
 7607SOL    HW123720   3.109   5.276   0.311
 7607SOL    HW223721   2.969   5.233   0.383
 7608SOL     OW23722   3.961   3.946   2.136
 7608SOL    HW123723   3.873   3.915   2.103
 7608SOL    HW223724   3.963   4.046   2.136
 7609SOL     OW23725   1.021   3.271   4.545
 7609SOL    HW123726   1.043   3.174   4.538
 7609SOL    HW223727   1.029   3.314   4.455
 7610SOL     OW23728   4.511   4.836   6.199
 7610SOL    HW123729   4.455   4.818   6.119
 7610SOL    HW223730   4.484   4.924   6.240
 7611SOL     OW23731   6.150   3.340   1.654
 7611SOL    HW123732   6.103   3.266   1.703
 7611SOL    HW223733   6.111   3.349   1.562
 7612SOL     OW23734   4.618   2.606   3.391
 7612SOL    HW123735   4.706   2.646   3.365
 7612SOL    HW223736   4.588   2.543   3.320
 7613SOL     OW23737   6.632   3.104   1.007
 7613SOL    HW123738   6.652   3.101   1.104
 7613SOL    HW223739   6.563   3.174   0.989
 7614SOL     OW23740   4.900   3.346   0.437
 7614SOL    HW123741   4.878   3.366   0.532
 7614SOL    HW223742   4.911   3.431   0.386
 7615SOL     OW23743   3.599   5.533   0.624
 7615SOL    HW123744   3.686   5.547   0.577
 7615SOL    HW223745   3.610   5.462   0.693
 7616SOL     OW23746   5.916   6.169   4.523
 7616SOL    HW123747   5.818   6.154   4.519
 7616SOL    HW223748   5.938   6.229   4.600
 7617SOL     OW23749   4.051   5.403   2.474
 7617SOL    HW123750   4.118   5.416   2.547
 7617SOL    HW223751   3.974   5.465   2.489
 7618SOL     OW23752   0.026   1.255   5.477
 7618SOL    HW123753   0.053   1.170   5.523
 7618SOL    HW223754   6.991   1.234   5.402
 7619SOL     OW23755   5.783   2.798   5.381
 7619SOL    HW123756   5.842   2.786   5.301
 7619SOL    HW223757   5.695   2.835   5.351
 7620SOL     OW23758   3.983   6.018   1.178
 7620SOL    HW123759   3.907   5.959   1.208
 7620SOL    HW223760   4.022   6.065   1.258
 7621SOL     OW23761   6.524   1.548   1.076
 7621SOL    HW123762   6.570   1.516   1.158
 7621SOL    HW223763   6.538   1.647   1.066
 7622SOL     OW23764   4.813   5.320   0.010
 7622SOL    HW123765   4.830   5.389   0.080
 7622SOL    HW223766   4.823   5.229   0.050
 7623SOL     OW23767   4.539   4.056   6.939
 7623SOL    HW123768   4.563   4.151   6.919
 7623SOL    HW223769   4.464   4.053   7.005
 7624SOL     OW23770   6.943   3.765   5.012
 7624SOL    HW123771   6.899   3.741   4.926
 7624SOL    HW223772   6.924   3.694   5.081
 7625SOL     OW23773   4.816   0.881   1.582
 7625SOL    HW123774   4.719   0.906   1.573
 7625SOL    HW223775   4.833   0.847   1.674
 7626SOL     OW23776   5.949   0.101   4.176
 7626SOL    HW123777   5.932   0.186   4.228
 7626SOL    HW223778   5.903   0.106   4.088
 7627SOL     OW23779   4.823   2.858   6.775
 7627SOL    HW123780   4.894   2.852   6.706
 7627SOL    HW223781   4.733   2.848   6.732
 7628SOL     OW23782   3.472   2.026   2.176
 7628SOL    HW123783   3.507   2.101   2.119
 7628SOL    HW223784   3.548   1.980   2.220
 7629SOL     OW23785   6.874   6.301   2.905
 7629SOL    HW123786   6.775   6.300   2.914
 7629SOL    HW223787   6.915   6.260   2.986
 7630SOL     OW23788   0.068   6.710   1.311
 7630SOL    HW123789   0.072   6.694   1.409
 7630SOL    HW223790   0.117   6.794   1.288
 7631SOL     OW23791   0.730   1.142   6.396
 7631SOL    HW123792   0.643   1.144   6.445
 7631SOL    HW223793   0.750   1.233   6.359
 7632SOL     OW23794   3.921   3.180   1.417
 7632SOL    HW123795   3.851   3.163   1.486
 7632SOL    HW223796   4.007   3.206   1.461
 7633SOL     OW23797   5.263   0.766   1.089
 7633SOL    HW123798   5.359   0.795   1.085
 7633SOL    HW223799   5.209   0.836   1.135
 7634SOL     OW23800   1.677   2.227   2.496
 7634SOL    HW123801   1.578   2.220   2.487
 7634SOL    HW223802   1.721   2.194   2.412
 7635SOL     OW23803   3.295   5.243   4.903
 7635SOL    HW123804   3.313   5.146   4.889
 7635SOL    HW223805   3.208   5.267   4.859
 7636SOL     OW23806   1.571   2.914   4.108
 7636SOL    HW123807   1.537   2.978   4.177
 7636SOL    HW223808   1.632   2.848   4.150
 7637SOL     OW23809   1.879   5.326   2.531
 7637SOL    HW123810   1.891   5.237   2.575
 7637SOL    HW223811   1.824   5.316   2.448
 7638SOL     OW23812   2.563   6.051   1.481
 7638SOL    HW123813   2.600   6.134   1.522
 7638SOL    HW223814   2.599   6.041   1.388
 7639SOL     OW23815   0.882   2.296   0.607
 7639SOL    HW123816   0.926   2.370   0.556
 7639SOL    HW223817   0.910   2.208   0.568
 7640SOL     OW23818   3.247   0.925   5.696
 7640SOL    HW123819   3.178   0.990   5.664
 7640SOL    HW223820   3.337   0.952   5.662
 7641SOL     OW23821   1.161   3.802   2.752
 7641SOL    HW123822   1.213   3.751   2.821
 7641SOL    HW223823   1.065   3.773   2.755
 7642SOL     OW23824   3.580   1.316   2.973
 7642SOL    HW123825   3.586   1.228   3.020
 7642SOL    HW223826   3.485   1.345   2.968
 7643SOL     OW23827   4.733   2.805   3.554
 7643SOL    HW123828   4.650   2.782   3.502
 7643SOL    HW223829   4.785   2.722   3.573
 7644SOL     OW23830   5.850   1.645   2.026
 7644SOL    HW123831   5.817   1.617   1.936
 7644SOL    HW223832   5.925   1.711   2.015
 7645SOL     OW23833   4.468   3.550   5.682
 7645SOL    HW123834   4.385   3.581   5.730
 7645SOL    HW223835   4.445   3.529   5.587
 7646SOL     OW23836   1.168   3.627   3.239
 7646SOL    HW123837   1.075   3.620   3.204
 7646SOL    HW223838   1.165   3.644   3.337
 7647SOL     OW23839   6.718   2.537   3.614
 7647SOL    HW123840   6.666   2.620   3.636
 7647SOL    HW223841   6.744   2.490   3.698
 7648SOL     OW23842   3.120   1.665   3.080
 7648SOL    HW123843   3.087   1.755   3.050
 7648SOL    HW223844   3.058   1.594   3.048
 7649SOL     OW23845   0.515   1.088   2.848
 7649SOL    HW123846   0.574   1.105   2.928
 7649SOL    HW223847   0.425   1.129   2.864
 7650SOL     OW23848   4.927   1.333   0.490
 7650SOL    HW123849   4.855   1.335   0.559
 7650SOL    HW223850   4.998   1.400   0.514
 7651SOL     OW23851   2.307   0.710   3.595
 7651SOL    HW123852   2.240   0.734   3.526
 7651SOL    HW223853   2.314   0.610   3.601
 7652SOL     OW23854   6.252   3.353   6.012
 7652SOL    HW123855   6.180   3.287   6.037
 7652SOL    HW223856   6.230   3.393   5.923
 7653SOL     OW23857   1.031   1.630   0.156
 7653SOL    HW123858   1.023   1.609   0.254
 7653SOL    HW223859   0.961   1.697   0.131
 7654SOL     OW23860   4.878   3.093   4.240
 7654SOL    HW123861   4.864   2.998   4.212
 7654SOL    HW223862   4.889   3.098   4.339
 7655SOL     OW23863   4.661   6.998   2.845
 7655SOL    HW123864   4.664   6.994   2.745
 7655SOL    HW223865   4.716   6.923   2.883
 7656SOL     OW23866   2.980   4.015   6.175
 7656SOL    HW123867   3.053   4.060   6.123
 7656SOL    HW223868   2.896   4.070   6.169
 7657SOL     OW23869   1.188   2.536   4.077
 7657SOL    HW123870   1.209   2.488   3.992
 7657SOL    HW223871   1.247   2.617   4.084
 7658SOL     OW23872   4.292   6.808   6.359
 7658SOL    HW123873   4.242   6.887   6.323
 7658SOL    HW223874   4.283   6.731   6.297
 7659SOL     OW23875   6.095   4.688   5.973
 7659SOL    HW123876   6.141   4.774   5.994
 7659SOL    HW223877   6.098   4.628   6.052
 7660SOL     OW23878   0.421   5.981   3.701
 7660SOL    HW123879   0.398   5.994   3.797
 7660SOL    HW223880   0.435   5.883   3.684
 7661SOL     OW23881   5.704   2.251   5.022
 7661SOL    HW123882   5.679   2.345   4.997
 7661SOL    HW223883   5.728   2.248   5.119
 7662SOL     OW23884   1.028   3.057   3.266
 7662SOL    HW123885   1.014   3.154   3.247
 7662SOL    HW223886   1.107   3.046   3.326
 7663SOL     OW23887   0.137   4.913   5.219
 7663SOL    HW123888   0.070   4.839   5.228
 7663SOL    HW223889   0.199   4.892   5.143
 7664SOL     OW23890   4.203   6.980   1.696
 7664SOL    HW123891   4.124   6.982   1.758
 7664SOL    HW223892   4.198   6.899   1.638
 7665SOL     OW23893   6.277   0.382   4.841
 7665SOL    HW123894   6.265   0.404   4.938
 7665SOL    HW223895   6.312   0.289   4.832
 7666SOL     OW23896   0.693   5.529   2.105
 7666SOL    HW123897   0.781   5.548   2.062
 7666SOL    HW223898   0.702   5.453   2.169
 7667SOL     OW23899   4.777   6.720   2.287
 7667SOL    HW123900   4.723   6.636   2.298
 7667SOL    HW223901   4.734   6.794   2.339
 7668SOL     OW23902   3.117   4.652   0.247
 7668SOL    HW123903   3.074   4.646   0.157
 7668SOL    HW223904   3.209   4.691   0.237
 7669SOL     OW23905   4.564   1.402   5.026
 7669SOL    HW123906   4.584   1.305   5.019
 7669SOL    HW223907   4.620   1.453   4.961
 7670SOL     OW23908   0.994   4.707   0.145
 7670SOL    HW123909   1.093   4.697   0.138
 7670SOL    HW223910   0.967   4.799   0.117
 7671SOL     OW23911   4.822   1.332   1.726
 7671SOL    HW123912   4.824   1.424   1.686
 7671SOL    HW223913   4.736   1.287   1.703
 7672SOL     OW23914   0.489   6.518   2.282
 7672SOL    HW123915   0.416   6.470   2.233
 7672SOL    HW223916   0.566   6.534   2.220
 7673SOL     OW23917   1.676   6.739   1.005
 7673SOL    HW123918   1.635   6.822   0.966
 7673SOL    HW223919   1.605   6.669   1.015
 7674SOL     OW23920   5.778   0.933   3.231
 7674SOL    HW123921   5.702   0.945   3.167
 7674SOL    HW223922   5.823   0.845   3.213
 7675SOL     OW23923   6.479   6.620   2.175
 7675SOL    HW123924   6.517   6.611   2.083
 7675SOL    HW223925   6.461   6.529   2.212
 7676SOL     OW23926   3.158   2.332   0.928
 7676SOL    HW123927   3.107   2.409   0.890
 7676SOL    HW223928   3.255   2.342   0.906
 7677SOL     OW23929   0.247   5.107   1.551
 7677SOL    HW123930   0.337   5.088   1.511
 7677SOL    HW223931   0.245   5.072   1.645
 7678SOL     OW23932   1.925   3.159   5.034
 7678SOL    HW123933   1.919   3.171   5.133
 7678SOL    HW223934   2.016   3.186   5.003
 7679SOL     OW23935   3.056   6.146   5.372
 7679SOL    HW123936   2.978   6.129   5.432
 7679SOL    HW223937   3.035   6.221   5.310
 7680SOL     OW23938   0.977   0.865   0.474
 7680SOL    HW123939   0.896   0.917   0.445
 7680SOL    HW223940   1.059   0.918   0.455
 7681SOL     OW23941   2.793   1.395   1.047
 7681SOL    HW123942   2.749   1.483   1.030
 7681SOL    HW223943   2.885   1.397   1.009
 7682SOL     OW23944   3.313   0.165   1.909
 7682SOL    HW123945   3.240   0.216   1.862
 7682SOL    HW223946   3.366   0.113   1.841
 7683SOL     OW23947   5.297   1.696   4.678
 7683SOL    HW123948   5.338   1.786   4.665
 7683SOL    HW223949   5.358   1.640   4.735
 7684SOL     OW23950   2.942   1.937   1.722
 7684SOL    HW123951   2.995   2.013   1.760
 7684SOL    HW223952   2.998   1.854   1.723
 7685SOL     OW23953   2.802   2.209   6.166
 7685SOL    HW123954   2.849   2.260   6.238
 7685SOL    HW223955   2.716   2.254   6.144
 7686SOL     OW23956   6.741   6.611   3.144
 7686SOL    HW123957   6.773   6.698   3.182
 7686SOL    HW223958   6.681   6.566   3.210
 7687SOL     OW23959   5.858   5.199   3.423
 7687SOL    HW123960   5.921   5.222   3.349
 7687SOL    HW223961   5.883   5.111   3.463
 7688SOL     OW23962   0.781   5.784   5.337
 7688SOL    HW123963   0.790   5.704   5.397
 7688SOL    HW223964   0.855   5.848   5.354
 7689SOL     OW23965   5.695   6.465   2.480
 7689SOL    HW123966   5.692   6.564   2.467
 7689SOL    HW223967   5.605   6.433   2.508
 7690SOL     OW23968   5.358   5.482   0.582
 7690SOL    HW123969   5.372   5.486   0.483
 7690SOL    HW223970   5.446   5.498   0.628
 7691SOL     OW23971   5.173   3.896   4.337
 7691SOL    HW123972   5.163   3.973   4.400
 7691SOL    HW223973   5.204   3.816   4.388
 7692SOL     OW23974   0.644   6.234   2.046
 7692SOL    HW123975   0.588   6.257   1.966
 7692SOL    HW223976   0.697   6.152   2.026
 7693SOL     OW23977   3.386   6.527   1.608
 7693SOL    HW123978   3.330   6.452   1.571
 7693SOL    HW223979   3.452   6.490   1.673
 7694SOL     OW23980   6.132   3.911   4.718
 7694SOL    HW123981   6.145   3.814   4.740
 7694SOL    HW223982   6.091   3.957   4.797
 7695SOL     OW23983   5.176   0.616   0.872
 7695SOL    HW123984   5.204   0.684   0.940
 7695SOL    HW223985   5.231   0.533   0.884
 7696SOL     OW23986   0.779   0.821   5.549
 7696SOL    HW123987   0.730   0.849   5.466
 7696SOL    HW223988   0.721   0.834   5.629
 7697SOL     OW23989   2.262   6.669   2.738
 7697SOL    HW123990   2.341   6.717   2.701
 7697SOL    HW223991   2.185   6.733   2.749
 7698SOL     OW23992   5.727   1.018   3.966
 7698SOL    HW123993   5.670   0.940   3.992
 7698SOL    HW223994   5.817   1.009   4.009
 7699SOL     OW23995   3.578   5.669   6.964
 7699SOL    HW123996   3.501   5.679   7.027
 7699SOL    HW223997   3.654   5.623   7.011
 7700SOL     OW23998   3.912   5.945   3.073
 7700SOL    HW123999   3.915   6.006   3.152
 7700SOL    HW224000   3.902   5.999   2.990
 7701SOL     OW24001   6.573   1.801   1.038
 7701SOL    HW124002   6.508   1.784   0.965
 7701SOL    HW224003   6.661   1.826   0.999
 7702SOL     OW24004   3.156   6.664   5.182
 7702SOL    HW124005   3.160   6.652   5.281
 7702SOL    HW224006   3.221   6.602   5.138
 7703SOL     OW24007   6.666   6.030   6.785
 7703SOL    HW124008   6.637   5.980   6.704
 7703SOL    HW224009   6.608   6.111   6.797
 7704SOL     OW24010   5.983   6.739   4.621
 7704SOL    HW124011   6.068   6.714   4.574
 7704SOL    HW224012   5.943   6.819   4.577
 7705SOL     OW24013   2.622   5.713   6.724
 7705SOL    HW124014   2.618   5.694   6.626
 7705SOL    HW224015   2.718   5.722   6.752
 7706SOL     OW24016   4.040   3.399   5.297
 7706SOL    HW124017   3.972   3.431   5.231
 7706SOL    HW224018   4.121   3.458   5.294
 7707SOL     OW24019   6.847   5.005   5.562
 7707SOL    HW124020   6.773   4.999   5.629
 7707SOL    HW224021   6.878   4.913   5.539
 7708SOL     OW24022   0.526   6.616   6.294
 7708SOL    HW124023   0.460   6.546   6.321
 7708SOL    HW224024   0.499   6.655   6.206
 7709SOL     OW24025   6.449   4.185   1.961
 7709SOL    HW124026   6.433   4.219   1.869
 7709SOL    HW224027   6.374   4.124   1.988
 7710SOL     OW24028   3.038   2.193   0.343
 7710SOL    HW124029   3.009   2.281   0.382
 7710SOL    HW224030   3.132   2.175   0.372
 7711SOL     OW24031   6.021   6.447   6.086
 7711SOL    HW124032   6.111   6.408   6.066
 7711SOL    HW224033   5.952   6.400   6.031
 7712SOL     OW24034   6.289   5.374   1.911
 7712SOL    HW124035   6.313   5.278   1.918
 7712SOL    HW224036   6.359   5.429   1.958
 7713SOL     OW24037   2.344   4.277   1.391
 7713SOL    HW124038   2.301   4.218   1.459
 7713SOL    HW224039   2.440   4.250   1.380
 7714SOL     OW24040   0.383   3.537   5.727
 7714SOL    HW124041   0.356   3.631   5.708
 7714SOL    HW224042   0.427   3.532   5.816
 7715SOL     OW24043   3.059   1.616   0.640
 7715SOL    HW124044   3.110   1.597   0.557
 7715SOL    HW224045   3.000   1.696   0.626
 7716SOL     OW24046   6.649   4.350   2.138
 7716SOL    HW124047   6.569   4.314   2.089
 7716SOL    HW224048   6.684   4.431   2.090
 7717SOL     OW24049   2.181   0.759   5.364
 7717SOL    HW124050   2.199   0.856   5.382
 7717SOL    HW224051   2.145   0.716   5.446
 7718SOL     OW24052   6.906   4.032   3.816
 7718SOL    HW124053   6.891   3.971   3.738
 7718SOL    HW224054   6.844   4.110   3.809
 7719SOL     OW24055   6.946   4.205   5.488
 7719SOL    HW124056   6.921   4.295   5.452
 7719SOL    HW224057   6.865   4.161   5.528
 7720SOL     OW24058   7.010   1.274   6.950
 7720SOL    HW124059   7.004   1.259   6.851
 7720SOL    HW224060   6.950   1.349   6.976
 7721SOL     OW24061   0.508   5.325   2.657
 7721SOL    HW124062   0.436   5.261   2.629
 7721SOL    HW224063   0.518   5.322   2.757
 7722SOL     OW24064   1.368   4.204   3.604
 7722SOL    HW124065   1.324   4.128   3.652
 7722SOL    HW224066   1.329   4.213   3.512
 7723SOL     OW24067   4.479   3.186   6.182
 7723SOL    HW124068   4.423   3.180   6.100
 7723SOL    HW224069   4.560   3.241   6.164
 7724SOL     OW24070   2.986   4.102   1.169
 7724SOL    HW124071   3.017   4.025   1.114
 7724SOL    HW224072   3.051   4.119   1.243
 7725SOL     OW24073   6.715   1.702   3.015
 7725SOL    HW124074   6.731   1.745   2.926
 7725SOL    HW224075   6.641   1.635   3.006
 7726SOL     OW24076   1.348   4.695   5.315
 7726SOL    HW124077   1.443   4.724   5.305
 7726SOL    HW224078   1.294   4.727   5.237
 7727SOL     OW24079   0.207   2.454   2.793
 7727SOL    HW124080   0.269   2.488   2.864
 7727SOL    HW224081   0.229   2.497   2.706
 7728SOL     OW24082   1.939   3.658   5.060
 7728SOL    HW124083   2.024   3.658   5.008
 7728SOL    HW224084   1.957   3.690   5.153
 7729SOL     OW24085   5.633   2.130   1.428
 7729SOL    HW124086   5.565   2.165   1.364
 7729SOL    HW224087   5.687   2.058   1.384
 7730SOL     OW24088   6.206   5.861   0.281
 7730SOL    HW124089   6.211   5.954   0.244
 7730SOL    HW224090   6.117   5.821   0.258
 7731SOL     OW24091   6.966   1.545   0.220
 7731SOL    HW124092   6.934   1.451   0.214
 7731SOL    HW224093   6.973   1.571   0.317
 7732SOL     OW24094   5.053   0.027   0.578
 7732SOL    HW124095   5.080   6.959   0.588
 7732SOL    HW224096   4.962   0.031   0.537
 7733SOL     OW24097   4.685   6.273   2.694
 7733SOL    HW124098   4.611   6.217   2.656
 7733SOL    HW224099   4.740   6.217   2.756
 7734SOL     OW24100   1.511   5.029   3.315
 7734SOL    HW124101   1.560   5.115   3.300
 7734SOL    HW224102   1.576   4.953   3.311
 7735SOL     OW24103   4.418   6.453   6.813
 7735SOL    HW124104   4.497   6.482   6.868
 7735SOL    HW224105   4.428   6.489   6.720
 7736SOL     OW24106   3.706   2.993   6.902
 7736SOL    HW124107   3.793   2.945   6.908
 7736SOL    HW224108   3.632   2.931   6.931
 7737SOL     OW24109   3.360   6.603   2.602
 7737SOL    HW124110   3.312   6.524   2.641
 7737SOL    HW224111   3.309   6.639   2.524
 7738SOL     OW24112   2.926   5.813   0.130
 7738SOL    HW124113   2.926   5.729   0.184
 7738SOL    HW224114   2.874   5.883   0.178
 7739SOL     OW24115   0.062   2.277   1.047
 7739SOL    HW124116   0.157   2.295   1.023
 7739SOL    HW224117   0.042   2.319   1.136
 7740SOL     OW24118   2.541   1.753   2.662
 7740SOL    HW124119   2.633   1.715   2.655
 7740SOL    HW224120   2.485   1.721   2.585
 7741SOL     OW24121   0.769   4.873   5.809
 7741SOL    HW124122   0.723   4.953   5.770
 7741SOL    HW224123   0.795   4.811   5.735
 7742SOL     OW24124   4.323   2.082   3.540
 7742SOL    HW124125   4.413   2.047   3.566
 7742SOL    HW224126   4.310   2.070   3.442
 7743SOL     OW24127   5.505   1.595   0.179
 7743SOL    HW124128   5.503   1.658   0.101
 7743SOL    HW224129   5.599   1.574   0.204
 7744SOL     OW24130   0.568   0.219   4.194
 7744SOL    HW124131   0.579   0.233   4.292
 7744SOL    HW224132   0.641   0.266   4.145
 7745SOL     OW24133   3.634   1.236   0.335
 7745SOL    HW124134   3.687   1.153   0.321
 7745SOL    HW224135   3.547   1.229   0.286
 7746SOL     OW24136   1.741   0.624   0.233
 7746SOL    HW124137   1.753   0.697   0.300
 7746SOL    HW224138   1.809   0.635   0.160
 7747SOL     OW24139   5.420   6.049   1.575
 7747SOL    HW124140   5.471   6.134   1.569
 7747SOL    HW224141   5.436   6.006   1.664
 7748SOL     OW24142   2.880   3.528   4.394
 7748SOL    HW124143   2.929   3.464   4.336
 7748SOL    HW224144   2.876   3.492   4.487
 7749SOL     OW24145   2.927   3.263   5.523
 7749SOL    HW124146   3.025   3.284   5.519
 7749SOL    HW224147   2.877   3.329   5.468
 7750SOL     OW24148   0.372   6.152   1.374
 7750SOL    HW124149   0.367   6.156   1.473
 7750SOL    HW224150   0.345   6.241   1.336
 7751SOL     OW24151   1.943   2.653   2.187
 7751SOL    HW124152   1.932   2.628   2.283
 7751SOL    HW224153   1.947   2.753   2.179
 7752SOL     OW24154   5.799   6.345   5.922
 7752SOL    HW124155   5.748   6.337   5.836
 7752SOL    HW224156   5.837   6.256   5.946
 7753SOL     OW24157   2.041   0.791   3.907
 7753SOL    HW124158   2.031   0.695   3.882
 7753SOL    HW224159   2.080   0.798   3.999
 7754SOL     OW24160   3.684   0.003   2.305
 7754SOL    HW124161   3.740   0.036   2.229
 7754SOL    HW224162   3.597   6.996   2.269
 7755SOL     OW24163   1.304   1.988   5.809
 7755SOL    HW124164   1.225   2.037   5.773
 7755SOL    HW224165   1.383   2.002   5.749
 7756SOL     OW24166   2.603   6.051   2.406
 7756SOL    HW124167   2.585   5.963   2.450
 7756SOL    HW224168   2.653   6.110   2.469
 7757SOL     OW24169   6.331   4.845   6.285
 7757SOL    HW124170   6.288   4.806   6.366
 7757SOL    HW224171   6.385   4.925   6.311
 7758SOL     OW24172   1.470   0.521   5.989
 7758SOL    HW124173   1.556   0.504   6.036
 7758SOL    HW224174   1.415   0.587   6.041
 7759SOL     OW24175   1.492   1.366   5.536
 7759SOL    HW124176   1.564   1.435   5.530
 7759SOL    HW224177   1.407   1.403   5.500
 7760SOL     OW24178   5.673   3.530   2.962
 7760SOL    HW124179   5.728   3.491   3.035
 7760SOL    HW224180   5.687   3.478   2.878
 7761SOL     OW24181   0.307   0.651   4.865
 7761SOL    HW124182   0.287   0.591   4.788
 7761SOL    HW224183   0.242   0.727   4.865
 7762SOL     OW24184   3.183   6.642   3.986
 7762SOL    HW124185   3.084   6.648   3.997
 7762SOL    HW224186   3.207   6.659   3.890
 7763SOL     OW24187   1.592   1.006   6.349
 7763SOL    HW124188   1.669   0.950   6.317
 7763SOL    HW224189   1.622   1.064   6.425
 7764SOL     OW24190   3.743   3.145   3.725
 7764SOL    HW124191   3.711   3.051   3.714
 7764SOL    HW224192   3.834   3.145   3.766
 7765SOL     OW24193   6.494   3.331   5.236
 7765SOL    HW124194   6.541   3.330   5.149
 7765SOL    HW224195   6.436   3.413   5.242
 7766SOL     OW24196   0.073   3.388   0.409
 7766SOL    HW124197   0.156   3.424   0.452
 7766SOL    HW224198   0.021   3.463   0.368
 7767SOL     OW24199   4.806   6.413   2.495
 7767SOL    HW124200   4.749   6.383   2.572
 7767SOL    HW224201   4.823   6.335   2.434
 7768SOL     OW24202   4.122   4.805   2.876
 7768SOL    HW124203   4.081   4.801   2.785
 7768SOL    HW224204   4.179   4.887   2.884
 7769SOL     OW24205   4.086   1.904   3.224
 7769SOL    HW124206   4.015   1.840   3.254
 7769SOL    HW224207   4.067   1.934   3.131
 7770SOL     OW24208   1.935   4.448   3.312
 7770SOL    HW124209   1.953   4.448   3.214
 7770SOL    HW224210   1.936   4.542   3.346
 7771SOL     OW24211   3.482   1.924   5.064
 7771SOL    HW124212   3.551   1.971   5.119
 7771SOL    HW224213   3.421   1.992   5.023
 7772SOL     OW24214   4.467   0.171   2.603
 7772SOL    HW124215   4.516   0.106   2.662
 7772SOL    HW224216   4.473   0.263   2.642
 7773SOL     OW24217   2.793   5.893   4.855
 7773SOL    HW124218   2.721   5.954   4.887
 7773SOL    HW224219   2.849   5.941   4.786
 7774SOL     OW24220   4.985   2.110   5.467
 7774SOL    HW124221   4.906   2.151   5.512
 7774SOL    HW224222   4.982   2.010   5.479
 7775SOL     OW24223   4.492   5.562   0.959
 7775SOL    HW124224   4.524   5.579   0.866
 7775SOL    HW224225   4.428   5.485   0.959
 7776SOL     OW24226   0.631   5.362   5.837
 7776SOL    HW124227   0.668   5.356   5.744
 7776SOL    HW224228   0.705   5.380   5.901
 7777SOL     OW24229   6.275   6.461   4.494
 7777SOL    HW124230   6.266   6.447   4.593
 7777SOL    HW224231   6.263   6.373   4.447
 7778SOL     OW24232   5.221   4.071   0.638
 7778SOL    HW124233   5.190   4.153   0.590
 7778SOL    HW224234   5.150   4.041   0.702
 7779SOL     OW24235   2.730   2.501   1.764
 7779SOL    HW124236   2.662   2.489   1.836
 7779SOL    HW224237   2.818   2.466   1.795
 7780SOL     OW24238   0.886   4.652   5.161
 7780SOL    HW124239   0.894   4.731   5.221
 7780SOL    HW224240   0.968   4.596   5.169
 7781SOL     OW24241   1.850   4.958   1.041
 7781SOL    HW124242   1.936   5.006   1.027
 7781SOL    HW224243   1.862   4.861   1.018
 7782SOL     OW24244   5.673   5.308   4.179
 7782SOL    HW124245   5.614   5.229   4.164
 7782SOL    HW224246   5.622   5.392   4.158
 7783SOL     OW24247   1.313   5.659   5.099
 7783SOL    HW124248   1.318   5.758   5.111
 7783SOL    HW224249   1.239   5.636   5.036
 7784SOL     OW24250   3.432   2.259   1.720
 7784SOL    HW124251   3.504   2.275   1.787
 7784SOL    HW224252   3.435   2.331   1.650
 7785SOL     OW24253   1.858   5.913   4.398
 7785SOL    HW124254   1.895   5.879   4.312
 7785SOL    HW224255   1.909   5.874   4.475
 7786SOL     OW24256   2.890   6.500   0.432
 7786SOL    HW124257   2.900   6.502   0.532
 7786SOL    HW224258   2.936   6.419   0.396
 7787SOL     OW24259   2.122   2.397   5.798
 7787SOL    HW124260   2.218   2.419   5.785
 7787SOL    HW224261   2.114   2.321   5.863
 7788SOL     OW24262   2.154   4.824   1.265
 7788SOL    HW124263   2.170   4.920   1.243
 7788SOL    HW224264   2.071   4.816   1.320
 7789SOL     OW24265   1.759   6.471   6.310
 7789SOL    HW124266   1.673   6.443   6.267
 7789SOL    HW224267   1.791   6.556   6.268
 7790SOL     OW24268   5.415   5.731   3.373
 7790SOL    HW124269   5.445   5.750   3.467
 7790SOL    HW224270   5.480   5.771   3.308
 7791SOL     OW24271   3.196   4.864   3.114
 7791SOL    HW124272   3.180   4.789   3.050
 7791SOL    HW224273   3.199   4.951   3.065
 7792SOL     OW24274   1.790   5.105   4.721
 7792SOL    HW124275   1.865   5.114   4.656
 7792SOL    HW224276   1.777   5.191   4.769
 7793SOL     OW24277   3.434   0.920   1.017
 7793SOL    HW124278   3.503   0.879   1.077
 7793SOL    HW224279   3.419   0.862   0.938
 7794SOL     OW24280   6.353   3.935   2.937
 7794SOL    HW124281   6.324   3.985   3.018
 7794SOL    HW224282   6.447   3.902   2.950
 7795SOL     OW24283   1.801   3.965   5.885
 7795SOL    HW124284   1.841   3.875   5.869
 7795SOL    HW224285   1.816   3.992   5.980
 7796SOL     OW24286   3.969   3.119   3.851
 7796SOL    HW124287   4.020   3.195   3.811
 7796SOL    HW224288   4.032   3.059   3.901
 7797SOL     OW24289   1.670   0.362   1.840
 7797SOL    HW124290   1.720   0.286   1.798
 7797SOL    HW224291   1.584   0.376   1.790
 7798SOL     OW24292   1.792   3.785   4.543
 7798SOL    HW124293   1.808   3.686   4.552
 7798SOL    HW224294   1.831   3.817   4.457
 7799SOL     OW24295   2.075   6.131   2.221
 7799SOL    HW124296   2.071   6.034   2.195
 7799SOL    HW224297   2.165   6.153   2.257
 7800SOL     OW24298   1.201   5.714   1.590
 7800SOL    HW124299   1.118   5.725   1.645
 7800SOL    HW224300   1.241   5.624   1.608
 7801SOL     OW24301   2.398   1.848   2.121
 7801SOL    HW124302   2.498   1.856   2.121
 7801SOL    HW224303   2.365   1.854   2.026
 7802SOL     OW24304   5.637   3.050   1.095
 7802SOL    HW124305   5.688   2.966   1.109
 7802SOL    HW224306   5.697   3.118   1.052
 7803SOL     OW24307   4.580   2.199   5.815
 7803SOL    HW124308   4.516   2.254   5.761
 7803SOL    HW224309   4.528   2.142   5.879
 7804SOL     OW24310   4.378   2.006   4.920
 7804SOL    HW124311   4.360   2.053   4.833
 7804SOL    HW224312   4.375   2.072   4.995
 7805SOL     OW24313   5.593   2.575   1.430
 7805SOL    HW124314   5.617   2.574   1.527
 7805SOL    HW224315   5.573   2.669   1.401
 7806SOL     OW24316   6.224   2.294   6.727
 7806SOL    HW124317   6.284   2.219   6.698
 7806SOL    HW224318   6.135   2.258   6.752
 7807SOL     OW24319   1.088   4.940   5.950
 7807SOL    HW124320   0.992   4.923   5.925
 7807SOL    HW224321   1.111   5.035   5.928
 7808SOL     OW24322   6.244   3.508   4.917
 7808SOL    HW124323   6.233   3.560   5.001
 7808SOL    HW224324   6.199   3.419   4.926
 7809SOL     OW24325   3.544   4.913   4.421
 7809SOL    HW124326   3.542   4.938   4.517
 7809SOL    HW224327   3.601   4.831   4.409
 7810SOL     OW24328   3.485   6.772   4.498
 7810SOL    HW124329   3.474   6.855   4.444
 7810SOL    HW224330   3.427   6.778   4.580
 7811SOL     OW24331   1.445   6.001   2.150
 7811SOL    HW124332   1.506   6.032   2.077
 7811SOL    HW224333   1.482   6.031   2.238
 7812SOL     OW24334   0.208   2.354   4.359
 7812SOL    HW124335   0.229   2.262   4.328
 7812SOL    HW224336   0.109   2.368   4.357
 7813SOL     OW24337   3.996   2.231   0.247
 7813SOL    HW124338   3.941   2.167   0.300
 7813SOL    HW224339   4.037   2.299   0.308
 7814SOL     OW24340   0.328   3.747   3.638
 7814SOL    HW124341   0.251   3.733   3.701
 7814SOL    HW224342   0.339   3.667   3.580
 7815SOL     OW24343   6.037   1.051   4.719
 7815SOL    HW124344   5.946   1.012   4.734
 7815SOL    HW224345   6.044   1.139   4.766
 7816SOL     OW24346   1.734   2.396   6.251
 7816SOL    HW124347   1.705   2.321   6.191
 7816SOL    HW224348   1.769   2.472   6.195
 7817SOL     OW24349   4.717   4.326   4.120
 7817SOL    HW124350   4.793   4.312   4.185
 7817SOL    HW224351   4.633   4.344   4.171
 7818SOL     OW24352   4.468   0.398   2.151
 7818SOL    HW124353   4.438   0.332   2.220
 7818SOL    HW224354   4.388   0.439   2.107
 7819SOL     OW24355   0.145   4.205   2.906
 7819SOL    HW124356   0.088   4.278   2.943
 7819SOL    HW224357   0.091   4.122   2.895
 7820SOL     OW24358   1.647   1.239   5.739
 7820SOL    HW124359   1.733   1.285   5.717
 7820SOL    HW224360   1.573   1.280   5.686
 7821SOL     OW24361   6.087   5.610   6.745
 7821SOL    HW124362   6.058   5.652   6.659
 7821SOL    HW224363   6.047   5.519   6.753
 7822SOL     OW24364   0.885   1.612   6.859
 7822SOL    HW124365   0.926   1.541   6.916
 7822SOL    HW224366   0.881   1.581   6.764
 7823SOL     OW24367   2.881   3.393   5.078
 7823SOL    HW124368   2.809   3.369   5.142
 7823SOL    HW224369   2.909   3.313   5.026
 7824SOL     OW24370   5.677   1.020   3.678
 7824SOL    HW124371   5.719   0.983   3.761
 7824SOL    HW224372   5.702   1.116   3.668
 7825SOL     OW24373   1.206   3.224   1.005
 7825SOL    HW124374   1.232   3.272   0.921
 7825SOL    HW224375   1.213   3.126   0.990
 7826SOL     OW24376   5.950   1.430   0.239
 7826SOL    HW124377   6.024   1.474   0.188
 7826SOL    HW224378   5.928   1.485   0.319
 7827SOL     OW24379   3.268   4.902   1.579
 7827SOL    HW124380   3.304   4.987   1.618
 7827SOL    HW224381   3.325   4.874   1.502
 7828SOL     OW24382   0.922   5.010   0.017
 7828SOL    HW124383   0.875   4.999   0.104
 7828SOL    HW224384   0.856   5.033   6.973
 7829SOL     OW24385   2.050   3.082   0.395
 7829SOL    HW124386   2.044   2.992   0.440
 7829SOL    HW224387   2.098   3.145   0.455
 7830SOL     OW24388   3.125   4.129   5.734
 7830SOL    HW124389   3.047   4.178   5.693
 7830SOL    HW224390   3.210   4.164   5.695
 7831SOL     OW24391   1.652   5.770   1.005
 7831SOL    HW124392   1.741   5.737   1.035
 7831SOL    HW224393   1.641   5.866   1.029
 7832SOL     OW24394   4.744   1.360   3.761
 7832SOL    HW124395   4.688   1.417   3.822
 7832SOL    HW224396   4.834   1.345   3.801
 7833SOL     OW24397   0.480   0.965   6.843
 7833SOL    HW124398   0.578   0.982   6.853
 7833SOL    HW224399   0.444   0.927   6.928
 7834SOL     OW24400   6.480   1.169   3.192
 7834SOL    HW124401   6.501   1.146   3.288
 7834SOL    HW224402   6.492   1.087   3.136
 7835SOL     OW24403   2.673   1.861   5.447
 7835SOL    HW124404   2.667   1.902   5.356
 7835SOL    HW224405   2.590   1.882   5.498
 7836SOL     OW24406   3.379   2.889   5.334
 7836SOL    HW124407   3.322   2.809   5.354
 7836SOL    HW224408   3.473   2.870   5.363
 7837SOL     OW24409   6.263   5.990   1.048
 7837SOL    HW124410   6.351   5.960   1.012
 7837SOL    HW224411   6.266   5.992   1.148
 7838SOL     OW24412   4.527   6.910   0.047
 7838SOL    HW124413   4.553   6.823   0.088
 7838SOL    HW224414   4.436   6.936   0.080
 7839SOL     OW24415   6.494   4.030   5.141
 7839SOL    HW124416   6.574   4.040   5.081
 7839SOL    HW224417   6.426   4.100   5.119
 7840SOL     OW24418   6.138   2.659   4.120
 7840SOL    HW124419   6.155   2.681   4.024
 7840SOL    HW224420   6.211   2.697   4.176
 7841SOL     OW24421   4.181   1.637   6.539
 7841SOL    HW124422   4.233   1.587   6.470
 7841SOL    HW224423   4.112   1.577   6.579
 7842SOL     OW24424   1.678   2.455   2.626
 7842SOL    HW124425   1.630   2.455   2.714
 7842SOL    HW224426   1.678   2.362   2.588
 7843SOL     OW24427   5.370   5.097   2.392
 7843SOL    HW124428   5.365   5.065   2.486
 7843SOL    HW224429   5.311   5.177   2.381
 7844SOL     OW24430   3.962   6.785   2.450
 7844SOL    HW124431   3.976   6.881   2.472
 7844SOL    HW224432   3.936   6.735   2.532
 7845SOL     OW24433   5.558   1.934   4.137
 7845SOL    HW124434   5.548   1.944   4.236
 7845SOL    HW224435   5.564   1.837   4.114
 7846SOL     OW24436   0.706   1.266   3.306
 7846SOL    HW124437   0.705   1.358   3.267
 7846SOL    HW224438   0.790   1.254   3.359
 7847SOL     OW24439   6.653   1.675   3.298
 7847SOL    HW124440   6.575   1.613   3.296
 7847SOL    HW224441   6.674   1.705   3.205
 7848SOL     OW24442   3.344   3.087   0.675
 7848SOL    HW124443   3.430   3.038   0.691
 7848SOL    HW224444   3.270   3.040   0.722
 7849SOL     OW24445   5.575   4.225   3.269
 7849SOL    HW124446   5.631   4.285   3.213
 7849SOL    HW224447   5.479   4.246   3.255
 7850SOL     OW24448   0.687   1.794   5.341
 7850SOL    HW124449   0.597   1.771   5.379
 7850SOL    HW224450   0.756   1.736   5.382
 7851SOL     OW24451   6.387   1.281   1.946
 7851SOL    HW124452   6.312   1.222   1.977
 7851SOL    HW224453   6.423   1.247   1.859
 7852SOL     OW24454   2.510   1.429   6.195
 7852SOL    HW124455   2.592   1.402   6.246
 7852SOL    HW224456   2.520   1.403   6.099
 7853SOL     OW24457   4.518   2.192   1.781
 7853SOL    HW124458   4.471   2.254   1.844
 7853SOL    HW224459   4.615   2.190   1.803
 7854SOL     OW24460   3.349   3.523   0.153
 7854SOL    HW124461   3.270   3.546   0.097
 7854SOL    HW224462   3.432   3.529   0.098
 7855SOL     OW24463   3.750   5.820   5.488
 7855SOL    HW124464   3.713   5.911   5.506
 7855SOL    HW224465   3.679   5.761   5.450
 7856SOL     OW24466   6.370   4.226   5.527
 7856SOL    HW124467   6.366   4.172   5.611
 7856SOL    HW224468   6.408   4.317   5.548
 7857SOL     OW24469   5.968   2.118   5.139
 7857SOL    HW124470   5.956   2.136   5.236
 7857SOL    HW224471   5.898   2.166   5.086
 7858SOL     OW24472   5.127   5.312   3.213
 7858SOL    HW124473   5.226   5.297   3.220
 7858SOL    HW224474   5.088   5.318   3.305
 7859SOL     OW24475   5.633   2.605   6.266
 7859SOL    HW124476   5.685   2.671   6.212
 7859SOL    HW224477   5.688   2.522   6.279
 7860SOL     OW24478   4.539   0.422   2.729
 7860SOL    HW124479   4.595   0.491   2.683
 7860SOL    HW224480   4.448   0.460   2.747
 7861SOL     OW24481   3.920   5.569   1.829
 7861SOL    HW124482   3.989   5.601   1.895
 7861SOL    HW224483   3.961   5.568   1.738
 7862SOL     OW24484   3.164   4.315   1.607
 7862SOL    HW124485   3.125   4.272   1.688
 7862SOL    HW224486   3.154   4.254   1.528
 7863SOL     OW24487   0.579   5.759   3.997
 7863SOL    HW124488   0.576   5.666   3.960
 7863SOL    HW224489   0.489   5.801   3.987
 7864SOL     OW24490   0.742   5.370   5.572
 7864SOL    HW124491   0.706   5.293   5.518
 7864SOL    HW224492   0.699   5.455   5.540
 7865SOL     OW24493   5.547   7.024   4.446
 7865SOL    HW124494   5.626   6.966   4.462
 7865SOL    HW224495   5.466   6.968   4.433
 7866SOL     OW24496   1.259   1.897   6.588
 7866SOL    HW124497   1.295   1.905   6.681
 7866SOL    HW224498   1.199   1.975   6.569
 7867SOL     OW24499   5.055   6.848   2.823
 7867SOL    HW124500   5.071   6.852   2.922
 7867SOL    HW224501   5.143   6.851   2.775
 7868SOL     OW24502   5.237   6.821   2.180
 7868SOL    HW124503   5.241   6.741   2.240
 7868SOL    HW224504   5.144   6.831   2.145
 7869SOL     OW24505   5.914   4.074   0.178
 7869SOL    HW124506   5.925   3.993   0.122
 7869SOL    HW224507   6.001   4.097   0.222
 7870SOL     OW24508   3.843   5.102   4.592
 7870SOL    HW124509   3.871   5.047   4.513
 7870SOL    HW224510   3.744   5.106   4.596
 7871SOL     OW24511   4.954   3.163   2.341
 7871SOL    HW124512   4.911   3.072   2.338
 7871SOL    HW224513   5.038   3.157   2.394
 7872SOL     OW24514   2.257   4.379   3.029
 7872SOL    HW124515   2.241   4.389   3.127
 7872SOL    HW224516   2.294   4.288   3.010
 7873SOL     OW24517   5.938   0.651   6.155
 7873SOL    HW124518   5.990   0.713   6.097
 7873SOL    HW224519   5.905   0.574   6.101
 7874SOL     OW24520   5.565   1.935   0.684
 7874SOL    HW124521   5.536   1.994   0.609
 7874SOL    HW224522   5.500   1.943   0.760
 7875SOL     OW24523   5.683   2.050   6.577
 7875SOL    HW124524   5.618   1.975   6.592
 7875SOL    HW224525   5.722   2.042   6.485
 7876SOL     OW24526   0.228   6.287   4.827
 7876SOL    HW124527   0.263   6.311   4.737
 7876SOL    HW224528   0.190   6.369   4.870
 7877SOL     OW24529   0.864   2.322   2.744
 7877SOL    HW124530   0.891   2.325   2.648
 7877SOL    HW224531   0.774   2.364   2.755
 7878SOL     OW24532   5.821   5.472   3.837
 7878SOL    HW124533   5.777   5.383   3.842
 7878SOL    HW224534   5.844   5.503   3.930
 7879SOL     OW24535   4.381   5.735   3.965
 7879SOL    HW124536   4.310   5.794   4.003
 7879SOL    HW224537   4.349   5.640   3.965
 7880SOL     OW24538   2.142   5.034   1.542
 7880SOL    HW124539   2.103   5.041   1.450
 7880SOL    HW224540   2.175   5.124   1.570
 7881SOL     OW24541   5.412   4.375   5.023
 7881SOL    HW124542   5.359   4.293   5.046
 7881SOL    HW224543   5.445   4.418   5.108
 7882SOL     OW24544   0.729   3.139   3.259
 7882SOL    HW124545   0.728   3.158   3.160
 7882SOL    HW224546   0.815   3.094   3.283
 7883SOL     OW24547   1.327   0.312   0.582
 7883SOL    HW124548   1.356   0.335   0.489
 7883SOL    HW224549   1.229   0.326   0.591
 7884SOL     OW24550   2.339   4.263   3.666
 7884SOL    HW124551   2.385   4.271   3.755
 7884SOL    HW224552   2.296   4.173   3.659
 7885SOL     OW24553   6.217   5.766   1.456
 7885SOL    HW124554   6.231   5.794   1.552
 7885SOL    HW224555   6.272   5.685   1.436
 7886SOL     OW24556   3.130   5.799   0.628
 7886SOL    HW124557   3.059   5.857   0.669
 7886SOL    HW224558   3.175   5.850   0.555
 7887SOL     OW24559   3.304   2.567   5.364
 7887SOL    HW124560   3.294   2.501   5.290
 7887SOL    HW224561   3.214   2.597   5.395
 7888SOL     OW24562   6.629   6.624   5.315
 7888SOL    HW124563   6.591   6.677   5.240
 7888SOL    HW224564   6.651   6.685   5.391
 7889SOL     OW24565   0.943   4.564   0.972
 7889SOL    HW124566   1.002   4.559   0.891
 7889SOL    HW224567   0.967   4.645   1.025
 7890SOL     OW24568   0.392   3.234   3.692
 7890SOL    HW124569   0.434   3.218   3.603
 7890SOL    HW224570   0.300   3.195   3.693
 7891SOL     OW24571   2.165   4.393   4.261
 7891SOL    HW124572   2.112   4.351   4.334
 7891SOL    HW224573   2.181   4.326   4.189
 7892SOL     OW24574   2.036   1.856   3.788
 7892SOL    HW124575   1.965   1.786   3.782
 7892SOL    HW224576   2.119   1.817   3.829
 7893SOL     OW24577   6.528   6.096   1.928
 7893SOL    HW124578   6.501   6.017   1.983
 7893SOL    HW224579   6.455   6.165   1.931
 7894SOL     OW24580   4.064   6.393   0.716
 7894SOL    HW124581   3.983   6.389   0.658
 7894SOL    HW224582   4.090   6.300   0.743
 7895SOL     OW24583   5.406   0.404   5.024
 7895SOL    HW124584   5.468   0.326   5.033
 7895SOL    HW224585   5.355   0.397   4.939
 7896SOL     OW24586   3.988   3.367   1.065
 7896SOL    HW124587   3.934   3.285   1.081
 7896SOL    HW224588   4.072   3.343   1.016
 7897SOL     OW24589   3.399   2.833   0.796
 7897SOL    HW124590   3.301   2.813   0.805
 7897SOL    HW224591   3.423   2.840   0.700
 7898SOL     OW24592   3.914   1.356   3.695
 7898SOL    HW124593   3.860   1.436   3.721
 7898SOL    HW224594   3.962   1.375   3.609
 7899SOL     OW24595   5.759   0.263   0.966
 7899SOL    HW124596   5.821   0.340   0.948
 7899SOL    HW224597   5.690   0.259   0.895
 7900SOL     OW24598   1.426   5.294   1.835
 7900SOL    HW124599   1.516   5.275   1.796
 7900SOL    HW224600   1.390   5.211   1.879
 7901SOL     OW24601   4.471   1.044   6.417
 7901SOL    HW124602   4.516   0.955   6.410
 7901SOL    HW224603   4.372   1.031   6.419
 7902SOL     OW24604   6.048   6.878   1.357
 7902SOL    HW124605   6.047   6.978   1.368
 7902SOL    HW224606   6.086   6.837   1.440
 7903SOL     OW24607   4.828   1.765   1.888
 7903SOL    HW124608   4.749   1.783   1.830
 7903SOL    HW224609   4.912   1.772   1.833
 7904SOL     OW24610   5.835   6.905   2.752
 7904SOL    HW124611   5.757   6.956   2.787
 7904SOL    HW224612   5.892   6.875   2.828
 7905SOL     OW24613   5.499   1.932   0.398
 7905SOL    HW124614   5.585   1.901   0.358
 7905SOL    HW224615   5.474   2.021   0.360
 7906SOL     OW24616   0.403   5.113   0.817
 7906SOL    HW124617   0.458   5.071   0.746
 7906SOL    HW224618   0.353   5.191   0.779
 7907SOL     OW24619   5.380   2.034   3.148
 7907SOL    HW124620   5.355   1.981   3.067
 7907SOL    HW224621   5.439   1.979   3.207
 7908SOL     OW24622   1.702   0.951   5.683
 7908SOL    HW124623   1.673   1.038   5.723
 7908SOL    HW224624   1.748   0.897   5.753
 7909SOL     OW24625   4.972   4.780   4.471
 7909SOL    HW124626   4.887   4.798   4.522
 7909SOL    HW224627   5.045   4.840   4.505
 7910SOL     OW24628   3.344   3.723   6.222
 7910SOL    HW124629   3.386   3.640   6.261
 7910SOL    HW224630   3.353   3.721   6.123
 7911SOL     OW24631   1.241   3.973   0.620
 7911SOL    HW124632   1.325   3.921   0.607
 7911SOL    HW224633   1.181   3.962   0.541
 7912SOL     OW24634   6.435   4.791   0.541
 7912SOL    HW124635   6.510   4.790   0.475
 7912SOL    HW224636   6.406   4.885   0.557
 7913SOL     OW24637   1.206   4.426   2.040
 7913SOL    HW124638   1.231   4.514   2.080
 7913SOL    HW224639   1.238   4.423   1.945
 7914SOL     OW24640   0.713   4.557   0.227
 7914SOL    HW124641   0.664   4.478   0.189
 7914SOL    HW224642   0.751   4.533   0.316
 7915SOL     OW24643   5.160   2.384   2.238
 7915SOL    HW124644   5.136   2.478   2.216
 7915SOL    HW224645   5.169   2.331   2.154
 7916SOL     OW24646   0.400   4.841   5.086
 7916SOL    HW124647   0.403   4.807   4.992
 7916SOL    HW224648   0.493   4.849   5.122
 7917SOL     OW24649   3.308   3.313   4.689
 7917SOL    HW124650   3.312   3.223   4.730
 7917SOL    HW224651   3.326   3.306   4.590
 7918SOL     OW24652   0.662   1.156   4.977
 7918SOL    HW124653   0.754   1.164   5.015
 7918SOL    HW224654   0.609   1.093   5.033
 7919SOL     OW24655   1.945   4.449   3.027
 7919SOL    HW124656   1.994   4.507   2.962
 7919SOL    HW224657   1.938   4.356   2.992
 7920SOL     OW24658   0.390   0.130   0.616
 7920SOL    HW124659   0.323   0.092   0.679
 7920SOL    HW224660   0.343   0.171   0.538
 7921SOL     OW24661   5.431   5.965   1.840
 7921SOL    HW124662   5.399   6.047   1.886
 7921SOL    HW224663   5.474   5.904   1.906
 7922SOL     OW24664   6.984   6.353   0.969
 7922SOL    HW124665   6.962   6.382   1.062
 7922SOL    HW224666   0.025   6.416   0.930
 7923SOL     OW24667   3.627   0.489   0.578
 7923SOL    HW124668   3.547   0.515   0.524
 7923SOL    HW224669   3.628   0.389   0.590
 7924SOL     OW24670   4.932   6.834   2.074
 7924SOL    HW124671   4.878   6.794   2.148
 7924SOL    HW224672   4.911   6.931   2.065
 7925SOL     OW24673   1.074   1.151   6.380
 7925SOL    HW124674   1.157   1.096   6.370
 7925SOL    HW224675   1.007   1.123   6.310
 7926SOL     OW24676   4.508   1.483   5.670
 7926SOL    HW124677   4.541   1.391   5.692
 7926SOL    HW224678   4.570   1.551   5.709
 7927SOL     OW24679   4.303   5.621   2.915
 7927SOL    HW124680   4.290   5.679   2.995
 7927SOL    HW224681   4.397   5.587   2.914
 7928SOL     OW24682   1.424   1.523   4.949
 7928SOL    HW124683   1.511   1.526   4.900
 7928SOL    HW224684   1.436   1.475   5.036
 7929SOL     OW24685   4.724   4.470   5.865
 7929SOL    HW124686   4.661   4.505   5.796
 7929SOL    HW224687   4.746   4.542   5.931
 7930SOL     OW24688   4.119   5.561   4.697
 7930SOL    HW124689   4.206   5.589   4.657
 7930SOL    HW224690   4.129   5.556   4.796
 7931SOL     OW24691   3.368   2.918   0.072
 7931SOL    HW124692   3.346   3.013   0.093
 7931SOL    HW224693   3.380   2.867   0.157
 7932SOL     OW24694   1.189   6.426   0.014
 7932SOL    HW124695   1.185   6.450   6.944
 7932SOL    HW224696   1.283   6.439   0.047
 7933SOL     OW24697   0.481   5.759   6.269
 7933SOL    HW124698   0.545   5.693   6.308
 7933SOL    HW224699   0.494   5.764   6.170
 7934SOL     OW24700   1.703   4.778   6.890
 7934SOL    HW124701   1.719   4.743   6.798
 7934SOL    HW224702   1.608   4.808   6.897
 7935SOL     OW24703   5.598   6.597   1.100
 7935SOL    HW124704   5.614   6.530   1.173
 7935SOL    HW224705   5.613   6.554   1.011
 7936SOL     OW24706   3.655   5.880   2.534
 7936SOL    HW124707   3.695   5.970   2.516
 7936SOL    HW224708   3.728   5.812   2.541
 7937SOL     OW24709   6.583   6.487   3.596
 7937SOL    HW124710   6.579   6.525   3.503
 7937SOL    HW224711   6.599   6.389   3.590
 7938SOL     OW24712   6.950   5.468   3.802
 7938SOL    HW124713   6.887   5.438   3.873
 7938SOL    HW224714   7.023   5.400   3.792
 7939SOL     OW24715   1.375   2.663   4.476
 7939SOL    HW124716   1.412   2.678   4.568
 7939SOL    HW224717   1.275   2.670   4.479
 7940SOL     OW24718   1.859   3.291   1.604
 7940SOL    HW124719   1.781   3.232   1.581
 7940SOL    HW224720   1.940   3.260   1.554
 7941SOL     OW24721   5.669   0.670   1.685
 7941SOL    HW124722   5.587   0.658   1.739
 7941SOL    HW224723   5.722   0.747   1.720
 7942SOL     OW24724   6.815   5.626   2.514
 7942SOL    HW124725   6.912   5.634   2.493
 7942SOL    HW224726   6.793   5.532   2.538
 7943SOL     OW24727   5.899   3.535   6.946
 7943SOL    HW124728   5.809   3.535   6.988
 7943SOL    HW224729   5.896   3.588   6.861
 7944SOL     OW24730   0.749   2.350   1.275
 7944SOL    HW124731   0.803   2.434   1.271
 7944SOL    HW224732   0.717   2.336   1.369
 7945SOL     OW24733   6.071   5.312   1.123
 7945SOL    HW124734   6.012   5.386   1.091
 7945SOL    HW224735   6.109   5.335   1.212
 7946SOL     OW24736   3.020   0.791   5.833
 7946SOL    HW124737   3.096   0.846   5.796
 7946SOL    HW224738   3.037   0.695   5.814
 7947SOL     OW24739   3.932   1.965   6.226
 7947SOL    HW124740   3.850   2.021   6.242
 7947SOL    HW224741   4.013   2.022   6.238
 7948SOL     OW24742   1.319   0.186   0.973
 7948SOL    HW124743   1.292   0.100   0.930
 7948SOL    HW224744   1.361   0.245   0.904
 7949SOL     OW24745   4.379   4.755   4.846
 7949SOL    HW124746   4.346   4.668   4.884
 7949SOL    HW224747   4.455   4.789   4.901
 7950SOL     OW24748   5.068   5.114   4.225
 7950SOL    HW124749   4.987   5.088   4.278
 7950SOL    HW224750   5.114   5.190   4.270
 7951SOL     OW24751   2.242   4.088   2.095
 7951SOL    HW124752   2.308   4.074   2.021
 7951SOL    HW224753   2.159   4.128   2.057
 7952SOL     OW24754   0.168   3.678   0.082
 7952SOL    HW124755   0.107   3.670   0.004
 7952SOL    HW224756   0.232   3.601   0.082
 7953SOL     OW24757   2.927   2.258   3.713
 7953SOL    HW124758   2.876   2.173   3.723
 7953SOL    HW224759   2.871   2.335   3.743
 7954SOL     OW24760   3.476   4.677   6.912
 7954SOL    HW124761   3.427   4.750   6.959
 7954SOL    HW224762   3.411   4.610   6.876
 7955SOL     OW24763   1.776   0.045   6.635
 7955SOL    HW124764   1.794   0.100   6.716
 7955SOL    HW224765   1.693   7.018   6.648
 7956SOL     OW24766   3.680   6.496   2.281
 7956SOL    HW124767   3.662   6.501   2.380
 7956SOL    HW224768   3.767   6.541   2.262
 7957SOL     OW24769   0.805   0.851   1.362
 7957SOL    HW124770   0.807   0.895   1.272
 7957SOL    HW224771   0.878   0.890   1.419
 7958SOL     OW24772   3.814   5.200   5.047
 7958SOL    HW124773   3.751   5.236   4.978
 7958SOL    HW224774   3.903   5.183   5.005
 7959SOL     OW24775   4.604   5.765   0.563
 7959SOL    HW124776   4.627   5.800   0.472
 7959SOL    HW224777   4.513   5.798   0.589
 7960SOL     OW24778   2.759   1.339   6.281
 7960SOL    HW124779   2.769   1.268   6.351
 7960SOL    HW224780   2.822   1.321   6.206
 7961SOL     OW24781   6.595   1.322   0.873
 7961SOL    HW124782   6.571   1.235   0.915
 7961SOL    HW224783   6.584   1.396   0.940
 7962SOL     OW24784   0.989   0.690   6.431
 7962SOL    HW124785   0.940   0.666   6.515
 7962SOL    HW224786   0.943   0.650   6.353
 7963SOL     OW24787   6.588   6.307   4.251
 7963SOL    HW124788   6.588   6.209   4.232
 7963SOL    HW224789   6.604   6.322   4.348
 7964SOL     OW24790   0.360   4.679   2.310
 7964SOL    HW124791   0.321   4.610   2.249
 7964SOL    HW224792   0.388   4.635   2.395
 7965SOL     OW24793   4.296   2.663   5.748
 7965SOL    HW124794   4.314   2.751   5.703
 7965SOL    HW224795   4.200   2.637   5.734
 7966SOL     OW24796   1.672   2.335   5.797
 7966SOL    HW124797   1.626   2.296   5.717
 7966SOL    HW224798   1.756   2.381   5.768
 7967SOL     OW24799   2.974   6.680   3.034
 7967SOL    HW124800   2.915   6.608   2.996
 7967SOL    HW224801   3.060   6.682   2.984
 7968SOL     OW24802   1.590   2.862   3.628
 7968SOL    HW124803   1.660   2.796   3.654
 7968SOL    HW224804   1.591   2.939   3.692
 7969SOL     OW24805   3.944   6.206   6.964
 7969SOL    HW124806   4.036   6.223   6.929
 7969SOL    HW224807   3.877   6.249   6.904
 7970SOL     OW24808   6.270   3.188   2.926
 7970SOL    HW124809   6.266   3.096   2.888
 7970SOL    HW224810   6.177   3.226   2.931
 7971SOL     OW24811   3.291   2.153   0.412
 7971SOL    HW124812   3.333   2.243   0.398
 7971SOL    HW224813   3.294   2.130   0.510
 7972SOL     OW24814   2.306   3.037   0.247
 7972SOL    HW124815   2.251   3.120   0.236
 7972SOL    HW224816   2.311   3.012   0.344
 7973SOL     OW24817   4.377   4.595   4.404
 7973SOL    HW124818   4.321   4.597   4.321
 7973SOL    HW224819   4.392   4.688   4.436
 7974SOL     OW24820   5.989   0.972   5.499
 7974SOL    HW124821   5.961   1.026   5.420
 7974SOL    HW224822   5.909   0.925   5.537
 7975SOL     OW24823   6.469   1.602   2.036
 7975SOL    HW124824   6.440   1.539   1.963
 7975SOL    HW224825   6.415   1.686   2.031
 7976SOL     OW24826   0.299   0.083   6.195
 7976SOL    HW124827   0.279   0.110   6.289
 7976SOL    HW224828   0.367   0.009   6.196
 7977SOL     OW24829   4.467   6.267   2.416
 7977SOL    HW124830   4.389   6.230   2.366
 7977SOL    HW224831   4.499   6.199   2.482
 7978SOL     OW24832   5.452   3.777   6.668
 7978SOL    HW124833   5.504   3.853   6.708
 7978SOL    HW224834   5.414   3.806   6.580
 7979SOL     OW24835   4.451   5.841   5.129
 7979SOL    HW124836   4.363   5.793   5.138
 7979SOL    HW224837   4.441   5.916   5.064
 7980SOL     OW24838   2.899   5.493   0.087
 7980SOL    HW124839   2.825   5.439   0.127
 7980SOL    HW224840   2.976   5.496   0.151
 7981SOL     OW24841   0.563   5.188   1.247
 7981SOL    HW124842   0.483   5.167   1.191
 7981SOL    HW224843   0.607   5.271   1.213
 7982SOL     OW24844   1.011   1.442   7.008
 7982SOL    HW124845   1.020   1.515   0.049
 7982SOL    HW224846   1.024   1.353   0.024
 7983SOL     OW24847   5.881   2.229   1.833
 7983SOL    HW124848   5.848   2.139   1.861
 7983SOL    HW224849   5.832   2.257   1.750
 7984SOL     OW24850   1.339   1.377   0.778
 7984SOL    HW124851   1.401   1.443   0.736
 7984SOL    HW224852   1.387   1.291   0.792
 7985SOL     OW24853   2.953   1.206   4.097
 7985SOL    HW124854   2.896   1.127   4.124
 7985SOL    HW224855   2.971   1.263   4.177
 7986SOL     OW24856   2.959   1.031   6.361
 7986SOL    HW124857   3.050   0.999   6.387
 7986SOL    HW224858   2.931   0.988   6.275
 7987SOL     OW24859   1.527   2.784   6.171
 7987SOL    HW124860   1.601   2.820   6.115
 7987SOL    HW224861   1.441   2.791   6.120
 7988SOL     OW24862   0.708   2.465   4.104
 7988SOL    HW124863   0.803   2.491   4.084
 7988SOL    HW224864   0.647   2.507   4.037
 7989SOL     OW24865   3.835   2.730   5.878
 7989SOL    HW124866   3.816   2.646   5.828
 7989SOL    HW224867   3.929   2.758   5.861
 7990SOL     OW24868   0.341   3.690   4.562
 7990SOL    HW124869   0.295   3.654   4.480
 7990SOL    HW224870   0.347   3.618   4.631
 7991SOL     OW24871   6.016   6.717   3.237
 7991SOL    HW124872   5.917   6.717   3.247
 7991SOL    HW224873   6.057   6.774   3.308
 7992SOL     OW24874   1.640   0.273   1.313
 7992SOL    HW124875   1.614   0.319   1.228
 7992SOL    HW224876   1.603   0.324   1.391
 7993SOL     OW24877   0.726   0.016   0.346
 7993SOL    HW124878   0.755   0.006   0.251
 7993SOL    HW224879   0.693   0.110   0.360
 7994SOL     OW24880   4.448   6.561   3.345
 7994SOL    HW124881   4.444   6.568   3.444
 7994SOL    HW224882   4.403   6.477   3.315
 7995SOL     OW24883   4.654   5.773   4.017
 7995SOL    HW124884   4.676   5.719   4.099
 7995SOL    HW224885   4.562   5.750   3.986
 7996SOL     OW24886   2.752   6.776   4.695
 7996SOL    HW124887   2.704   6.722   4.764
 7996SOL    HW224888   2.758   6.871   4.725
 7997SOL     OW24889   0.150   1.418   1.386
 7997SOL    HW124890   0.192   1.420   1.477
 7997SOL    HW224891   0.165   1.329   1.344
 7998SOL     OW24892   2.974   6.341   1.083
 7998SOL    HW124893   3.055   6.326   1.027
 7998SOL    HW224894   2.977   6.434   1.120
 7999SOL     OW24895   0.685   0.065   6.450
 7999SOL    HW124896   0.633   7.006   6.449
 7999SOL    HW224897   0.777   0.047   6.486
 8000SOL     OW24898   4.966   0.271   6.682
 8000SOL    HW124899   4.893   0.263   6.615
 8000SOL    HW224900   5.010   0.182   6.695
 8001SOL     OW24901   4.309   6.445   1.252
 8001SOL    HW124902   4.336   6.535   1.218
 8001SOL    HW224903   4.250   6.401   1.184
 8002SOL     OW24904   0.782   1.821   6.103
 8002SOL    HW124905   0.772   1.916   6.072
 8002SOL    HW224906   0.696   1.790   6.144
 8003SOL     OW24907   2.618   5.347   2.427
 8003SOL    HW124908   2.534   5.376   2.472
 8003SOL    HW224909   2.696   5.394   2.469
 8004SOL     OW24910   2.099   3.503   2.879
 8004SOL    HW124911   2.009   3.462   2.891
 8004SOL    HW224912   2.140   3.470   2.794
 8005SOL     OW24913   3.235   0.853   1.407
 8005SOL    HW124914   3.241   0.815   1.500
 8005SOL    HW224915   3.226   0.779   1.341
 8006SOL     OW24916   1.625   0.231   6.199
 8006SOL    HW124917   1.525   0.234   6.205
 8006SOL    HW224918   1.659   0.318   6.162
 8007SOL     OW24919   0.085   0.372   4.439
 8007SOL    HW124920   0.004   0.425   4.416
 8007SOL    HW224921   0.092   0.294   4.377
 8008SOL     OW24922   4.070   5.548   6.992
 8008SOL    HW124923   3.999   5.479   6.984
 8008SOL    HW224924   4.076   5.601   6.907
 8009SOL     OW24925   5.628   0.978   2.400
 8009SOL    HW124926   5.562   1.052   2.390
 8009SOL    HW224927   5.688   0.997   2.477
 8010SOL     OW24928   0.832   1.306   6.067
 8010SOL    HW124929   0.891   1.354   6.002
 8010SOL    HW224930   0.792   1.225   6.023
 8011SOL     OW24931   3.456   2.704   1.170
 8011SOL    HW124932   3.372   2.663   1.134
 8011SOL    HW224933   3.531   2.688   1.106
 8012SOL     OW24934   1.710   4.501   1.813
 8012SOL    HW124935   1.683   4.515   1.717
 8012SOL    HW224936   1.762   4.581   1.844
 8013SOL     OW24937   1.076   5.372   3.355
 8013SOL    HW124938   1.012   5.435   3.400
 8013SOL    HW224939   1.151   5.424   3.315
 8014SOL     OW24940   0.961   6.674   5.107
 8014SOL    HW124941   0.999   6.766   5.098
 8014SOL    HW224942   0.882   6.676   5.167
 8015SOL     OW24943   2.478   0.679   6.791
 8015SOL    HW124944   2.434   0.768   6.800
 8015SOL    HW224945   2.419   0.618   6.738
 8016SOL     OW24946   5.373   6.906   5.780
 8016SOL    HW124947   5.413   6.853   5.706
 8016SOL    HW224948   5.280   6.933   5.756
 8017SOL     OW24949   5.446   6.944   0.455
 8017SOL    HW124950   5.494   6.997   0.386
 8017SOL    HW224951   5.436   6.999   0.539
 8018SOL     OW24952   3.309   1.921   5.608
 8018SOL    HW124953   3.356   2.009   5.603
 8018SOL    HW224954   3.253   1.908   5.526
 8019SOL     OW24955   2.429   4.204   6.937
 8019SOL    HW124956   2.353   4.242   6.990
 8019SOL    HW224957   2.503   4.177   6.998
 8020SOL     OW24958   5.412   0.805   0.706
 8020SOL    HW124959   5.492   0.745   0.713
 8020SOL    HW224960   5.389   0.840   0.797
 8021SOL     OW24961   0.965   2.563   1.240
 8021SOL    HW124962   1.033   2.564   1.166
 8021SOL    HW224963   1.011   2.553   1.328
 8022SOL     OW24964   5.302   6.623   2.884
 8022SOL    HW124965   5.342   6.546   2.933
 8022SOL    HW224966   5.204   6.608   2.871
 8023SOL     OW24967   5.828   5.371   2.893
 8023SOL    HW124968   5.738   5.391   2.931
 8023SOL    HW224969   5.878   5.456   2.878
 8024SOL     OW24970   2.118   4.813   6.954
 8024SOL    HW124971   2.042   4.753   6.980
 8024SOL    HW224972   2.192   4.759   6.915
 8025SOL     OW24973   1.880   6.552   6.537
 8025SOL    HW124974   1.834   6.504   6.462
 8025SOL    HW224975   1.830   6.636   6.558
 8026SOL     OW24976   0.766   4.147   0.013
 8026SOL    HW124977   0.790   4.064   6.988
 8026SOL    HW224978   0.807   4.227   6.996
 8027SOL     OW24979   4.596   0.864   5.245
 8027SOL    HW124980   4.534   0.800   5.290
 8027SOL    HW224981   4.608   0.945   5.304
 8028SOL     OW24982   3.288   5.589   4.650
 8028SOL    HW124983   3.322   5.656   4.584
 8028SOL    HW224984   3.250   5.510   4.602
 8029SOL     OW24985   5.018   2.886   1.543
 8029SOL    HW124986   5.058   2.893   1.634
 8029SOL    HW224987   5.041   2.968   1.490
 8030SOL     OW24988   4.323   4.484   0.967
 8030SOL    HW124989   4.274   4.544   1.031
 8030SOL    HW224990   4.353   4.537   0.888
 8031SOL     OW24991   6.007   6.694   1.882
 8031SOL    HW124992   5.915   6.701   1.919
 8031SOL    HW224993   6.015   6.613   1.825
 8032SOL     OW24994   6.811   5.200   1.626
 8032SOL    HW124995   6.855   5.267   1.687
 8032SOL    HW224996   6.848   5.109   1.645
 8033SOL     OW24997   5.435   1.338   5.446
 8033SOL    HW124998   5.520   1.390   5.453
 8033SOL    HW224999   5.398   1.322   5.538
 8034SOL     OW25000   5.341   6.821   4.407
 8034SOL    HW125001   5.256   6.871   4.423
 8034SOL    HW225002   5.362   6.765   4.487
 8035SOL     OW25003   5.094   1.753   4.524
 8035SOL    HW125004   5.135   1.740   4.433
 8035SOL    HW225005   5.165   1.749   4.593
 8036SOL     OW25006   6.987   3.943   3.530
 8036SOL    HW125007   6.958   4.037   3.510
 8036SOL    HW225008   0.060   3.938   3.528
 8037SOL     OW25009   1.834   3.673   0.010
 8037SOL    HW125010   1.844   3.651   6.940
 8037SOL    HW225011   1.918   3.646   0.059
 8038SOL     OW25012   3.933   6.710   2.737
 8038SOL    HW125013   3.930   6.805   2.768
 8038SOL    HW225014   3.858   6.658   2.780
 8039SOL     OW25015   0.577   2.170   4.552
 8039SOL    HW125016   0.507   2.108   4.516
 8039SOL    HW225017   0.619   2.220   4.476
 8040SOL     OW25018   1.569   5.649   6.985
 8040SOL    HW125019   1.560   5.641   6.885
 8040SOL    HW225020   1.652   5.698   7.008
 8041SOL     OW25021   2.306   1.706   2.819
 8041SOL    HW125022   2.388   1.723   2.765
 8041SOL    HW225023   2.312   1.614   2.859
 8042SOL     OW25024   3.059   3.206   3.689
 8042SOL    HW125025   3.035   3.252   3.604
 8042SOL    HW225026   3.148   3.239   3.721
 8043SOL     OW25027   3.517   6.844   1.523
 8043SOL    HW125028   3.544   6.749   1.537
 8043SOL    HW225029   3.418   6.849   1.512
 8044SOL     OW25030   4.152   2.333   1.366
 8044SOL    HW125031   4.110   2.246   1.394
 8044SOL    HW225032   4.220   2.360   1.434
 8045SOL     OW25033   5.521   1.769   2.548
 8045SOL    HW125034   5.590   1.805   2.611
 8045SOL    HW225035   5.431   1.801   2.576
 8046SOL     OW25036   0.338   5.253   1.078
 8046SOL    HW125037   0.309   5.348   1.088
 8046SOL    HW225038   0.388   5.243   0.991
 8047SOL     OW25039   4.199   5.955   4.329
 8047SOL    HW125040   4.146   5.871   4.342
 8047SOL    HW225041   4.138   6.028   4.297
 8048SOL     OW25042   5.011   0.796   5.609
 8048SOL    HW125043   4.940   0.752   5.554
 8048SOL    HW225044   5.101   0.775   5.571
 8049SOL     OW25045   0.859   0.444   0.118
 8049SOL    HW125046   0.894   0.358   0.155
 8049SOL    HW225047   0.760   0.436   0.104
 8050SOL     OW25048   1.560   4.419   3.426
 8050SOL    HW125049   1.616   4.393   3.347
 8050SOL    HW225050   1.465   4.431   3.398
 8051SOL     OW25051   4.471   5.867   3.727
 8051SOL    HW125052   4.436   5.865   3.821
 8051SOL    HW225053   4.466   5.775   3.687
 8052SOL     OW25054   4.528   1.379   1.916
 8052SOL    HW125055   4.523   1.475   1.888
 8052SOL    HW225056   4.510   1.320   1.837
 8053SOL     OW25057   3.018   3.764   3.475
 8053SOL    HW125058   3.095   3.728   3.529
 8053SOL    HW225059   3.054   3.813   3.396
 8054SOL     OW25060   5.642   6.765   4.727
 8054SOL    HW125061   5.639   6.852   4.775
 8054SOL    HW225062   5.549   6.735   4.704
 8055SOL     OW25063   0.703   0.403   5.677
 8055SOL    HW125064   0.661   0.468   5.740
 8055SOL    HW225065   0.663   0.312   5.691
 8056SOL     OW25066   2.773   1.464   4.287
 8056SOL    HW125067   2.849   1.407   4.316
 8056SOL    HW225068   2.807   1.542   4.234
 8057SOL     OW25069   2.920   2.240   3.179
 8057SOL    HW125070   2.864   2.178   3.125
 8057SOL    HW225071   2.998   2.272   3.124
 8058SOL     OW25072   3.770   0.324   2.041
 8058SOL    HW125073   3.790   0.409   2.090
 8058SOL    HW225074   3.675   0.298   2.057
 8059SOL     OW25075   3.327   2.105   4.896
 8059SOL    HW125076   3.268   2.163   4.952
 8059SOL    HW225077   3.299   2.112   4.800
 8060SOL     OW25078   6.072   2.197   4.390
 8060SOL    HW125079   6.120   2.282   4.408
 8060SOL    HW225080   6.138   2.122   4.380
 8061SOL     OW25081   0.128   1.078   3.117
 8061SOL    HW125082   0.069   1.050   3.041
 8061SOL    HW225083   0.215   1.029   3.111
 8062SOL     OW25084   3.907   4.830   3.848
 8062SOL    HW125085   4.000   4.796   3.861
 8062SOL    HW225086   3.871   4.864   3.936
 8063SOL     OW25087   1.212   2.293   1.469
 8063SOL    HW125088   1.271   2.314   1.547
 8063SOL    HW225089   1.148   2.368   1.454
 8064SOL     OW25090   0.165   4.106   1.953
 8064SOL    HW125091   0.080   4.117   2.004
 8064SOL    HW225092   0.193   4.010   1.954
 8065SOL     OW25093   2.456   5.391   3.435
 8065SOL    HW125094   2.420   5.422   3.523
 8065SOL    HW225095   2.411   5.442   3.362
 8066SOL     OW25096   0.373   1.847   5.121
 8066SOL    HW125097   0.281   1.820   5.091
 8066SOL    HW225098   0.368   1.935   5.168
 8067SOL     OW25099   4.595   2.817   1.756
 8067SOL    HW125100   4.591   2.911   1.789
 8067SOL    HW225101   4.643   2.815   1.668
 8068SOL     OW25102   6.927   3.613   1.382
 8068SOL    HW125103   6.863   3.659   1.320
 8068SOL    HW225104   6.981   3.547   1.331
 8069SOL     OW25105   2.557   6.484   1.329
 8069SOL    HW125106   2.601   6.415   1.386
 8069SOL    HW225107   2.614   6.567   1.326
 8070SOL     OW25108   3.897   3.537   0.301
 8070SOL    HW125109   3.847   3.466   0.351
 8070SOL    HW225110   3.904   3.513   0.205
 8071SOL     OW25111   2.893   6.222   4.669
 8071SOL    HW125112   2.879   6.242   4.572
 8071SOL    HW225113   2.909   6.124   4.681
 8072SOL     OW25114   3.556   1.241   0.812
 8072SOL    HW125115   3.608   1.156   0.807
 8072SOL    HW225116   3.533   1.271   0.720
 8073SOL     OW25117   3.033   5.233   4.685
 8073SOL    HW125118   3.048   5.135   4.699
 8073SOL    HW225119   2.943   5.258   4.721
 8074SOL     OW25120   3.869   2.662   0.437
 8074SOL    HW125121   3.804   2.590   0.413
 8074SOL    HW225122   3.822   2.734   0.488
 8075SOL     OW25123   0.132   0.548   0.824
 8075SOL    HW125124   0.142   0.607   0.905
 8075SOL    HW225125   0.100   0.458   0.853
 8076SOL     OW25126   6.819   1.448   5.246
 8076SOL    HW125127   6.828   1.506   5.328
 8076SOL    HW225128   6.878   1.368   5.255
 8077SOL     OW25129   2.742   5.707   2.353
 8077SOL    HW125130   2.775   5.673   2.265
 8077SOL    HW225131   2.642   5.708   2.353
 8078SOL     OW25132   0.387   1.470   0.389
 8078SOL    HW125133   0.460   1.425   0.441
 8078SOL    HW225134   0.300   1.424   0.406
 8079SOL     OW25135   4.856   1.712   3.938
 8079SOL    HW125136   4.799   1.720   3.857
 8079SOL    HW225137   4.810   1.655   4.006
 8080SOL     OW25138   0.556   2.387   0.625
 8080SOL    HW125139   0.541   2.305   0.681
 8080SOL    HW225140   0.653   2.392   0.600
 8081SOL     OW25141   6.041   5.984   5.626
 8081SOL    HW125142   6.059   6.078   5.597
 8081SOL    HW225143   5.960   5.949   5.579
 8082SOL     OW25144   4.633   6.944   2.320
 8082SOL    HW125145   4.536   6.957   2.340
 8082SOL    HW225146   4.656   6.990   2.235
 8083SOL     OW25147   4.925   3.527   2.737
 8083SOL    HW125148   4.870   3.484   2.665
 8083SOL    HW225149   5.006   3.569   2.696
 8084SOL     OW25150   4.791   7.023   0.453
 8084SOL    HW125151   4.746   0.081   0.426
 8084SOL    HW225152   4.725   6.962   0.495
 8085SOL     OW25153   6.599   6.665   1.939
 8085SOL    HW125154   6.668   6.736   1.927
 8085SOL    HW225155   6.510   6.699   1.909
 8086SOL     OW25156   5.504   0.951   2.920
 8086SOL    HW125157   5.553   1.034   2.946
 8086SOL    HW225158   5.411   0.974   2.891
 8087SOL     OW25159   2.807   1.394   0.651
 8087SOL    HW125160   2.833   1.318   0.591
 8087SOL    HW225161   2.800   1.478   0.597
 8088SOL     OW25162   5.425   2.212   1.270
 8088SOL    HW125163   5.408   2.301   1.312
 8088SOL    HW225164   5.361   2.144   1.308
 8089SOL     OW25165   5.500   2.360   0.594
 8089SOL    HW125166   5.445   2.438   0.565
 8089SOL    HW225167   5.444   2.300   0.651
 8090SOL     OW25168   4.633   1.815   0.128
 8090SOL    HW125169   4.682   1.748   0.074
 8090SOL    HW225170   4.558   1.770   0.177
 8091SOL     OW25171   2.478   3.500   5.341
 8091SOL    HW125172   2.449   3.582   5.390
 8091SOL    HW225173   2.576   3.487   5.353
 8092SOL     OW25174   6.087   2.380   4.987
 8092SOL    HW125175   6.176   2.423   4.976
 8092SOL    HW225176   6.083   2.295   4.934
 8093SOL     OW25177   3.674   5.466   2.879
 8093SOL    HW125178   3.613   5.478   2.801
 8093SOL    HW225179   3.708   5.554   2.910
 8094SOL     OW25180   1.684   3.620   4.827
 8094SOL    HW125181   1.725   3.708   4.853
 8094SOL    HW225182   1.657   3.572   4.910
 8095SOL     OW25183   7.003   4.438   4.539
 8095SOL    HW125184   6.989   4.513   4.604
 8095SOL    HW225185   7.026   4.475   4.449
 8096SOL     OW25186   2.480   6.516   3.288
 8096SOL    HW125187   2.464   6.564   3.202
 8096SOL    HW225188   2.575   6.528   3.316
 8097SOL     OW25189   4.538   0.176   3.972
 8097SOL    HW125190   4.439   0.172   3.984
 8097SOL    HW225191   4.560   0.243   3.901
 8098SOL     OW25192   1.565   0.142   3.412
 8098SOL    HW125193   1.602   0.086   3.487
 8098SOL    HW225194   1.607   0.113   3.326
 8099SOL     OW25195   3.742   0.007   4.376
 8099SOL    HW125196   3.758   0.106   4.378
 8099SOL    HW225197   3.787   6.994   4.297
 8100SOL     OW25198   5.938   1.122   0.420
 8100SOL    HW125199   6.002   1.092   0.491
 8100SOL    HW225200   5.986   1.132   0.333
 8101SOL     OW25201   1.622   7.005   2.683
 8101SOL    HW125202   1.612   7.025   2.781
 8101SOL    HW225203   1.699   0.031   2.646
 8102SOL     OW25204   0.596   4.393   3.855
 8102SOL    HW125205   0.510   4.429   3.819
 8102SOL    HW225206   0.671   4.417   3.793
 8103SOL     OW25207   4.082   6.815   0.901
 8103SOL    HW125208   4.111   6.802   0.996
 8103SOL    HW225209   4.118   6.741   0.845
 8104SOL     OW25210   3.540   0.209   6.285
 8104SOL    HW125211   3.576   0.296   6.320
 8104SOL    HW225212   3.609   0.168   6.225
 8105SOL     OW25213   0.675   2.705   3.202
 8105SOL    HW125214   0.774   2.713   3.216
 8105SOL    HW225215   0.657   2.643   3.126
 8106SOL     OW25216   2.144   5.772   2.888
 8106SOL    HW125217   2.155   5.870   2.869
 8106SOL    HW225218   2.048   5.747   2.877
 8107SOL     OW25219   0.875   4.871   4.293
 8107SOL    HW125220   0.963   4.915   4.278
 8107SOL    HW225221   0.887   4.788   4.347
 8108SOL     OW25222   6.131   3.198   5.332
 8108SOL    HW125223   6.164   3.275   5.387
 8108SOL    HW225224   6.130   3.116   5.388
 8109SOL     OW25225   1.297   3.602   4.923
 8109SOL    HW125226   1.317   3.535   4.995
 8109SOL    HW225227   1.277   3.553   4.838
 8110SOL     OW25228   3.224   6.395   0.954
 8110SOL    HW125229   3.285   6.328   0.911
 8110SOL    HW225230   3.271   6.483   0.960
 8111SOL     OW25231   4.804   0.350   4.973
 8111SOL    HW125232   4.814   0.266   5.025
 8111SOL    HW225233   4.869   0.351   4.897
 8112SOL     OW25234   2.295   2.368   4.643
 8112SOL    HW125235   2.199   2.397   4.648
 8112SOL    HW225236   2.299   2.274   4.608
 8113SOL     OW25237   3.081   3.321   0.778
 8113SOL    HW125238   3.052   3.365   0.694
 8113SOL    HW225239   3.092   3.390   0.850
 8114SOL     OW25240   1.591   3.793   1.908
 8114SOL    HW125241   1.661   3.722   1.896
 8114SOL    HW225242   1.630   3.870   1.958
 8115SOL     OW25243   3.592   0.499   0.093
 8115SOL    HW125244   3.526   0.554   0.143
 8115SOL    HW225245   3.676   0.491   0.147
 8116SOL     OW25246   5.104   5.151   5.873
 8116SOL    HW125247   5.044   5.093   5.818
 8116SOL    HW225248   5.079   5.247   5.858
 8117SOL     OW25249   1.484   0.954   3.515
 8117SOL    HW125250   1.534   0.933   3.599
 8117SOL    HW225251   1.440   1.044   3.524
 8118SOL     OW25252   5.729   4.179   5.641
 8118SOL    HW125253   5.812   4.220   5.603
 8118SOL    HW225254   5.728   4.081   5.622
 8119SOL     OW25255   5.824   5.662   5.634
 8119SOL    HW125256   5.889   5.591   5.610
 8119SOL    HW225257   5.802   5.716   5.553
 8120SOL     OW25258   2.316   5.092   0.448
 8120SOL    HW125259   2.262   5.121   0.369
 8120SOL    HW225260   2.404   5.057   0.417
 8121SOL     OW25261   0.853   4.479   1.914
 8121SOL    HW125262   0.756   4.454   1.909
 8121SOL    HW225263   0.879   4.493   2.010
 8122SOL     OW25264   0.810   6.166   2.527
 8122SOL    HW125265   0.734   6.138   2.467
 8122SOL    HW225266   0.794   6.259   2.559
 8123SOL     OW25267   6.754   0.703   5.886
 8123SOL    HW125268   6.834   0.654   5.918
 8123SOL    HW225269   6.730   0.672   5.794
 8124SOL     OW25270   6.079   6.921   0.812
 8124SOL    HW125271   5.992   6.969   0.803
 8124SOL    HW225272   6.124   6.948   0.897
 8125SOL     OW25273   1.382   1.330   3.828
 8125SOL    HW125274   1.333   1.333   3.916
 8125SOL    HW225275   1.446   1.254   3.828
 8126SOL     OW25276   4.849   5.091   2.630
 8126SOL    HW125277   4.859   5.010   2.688
 8126SOL    HW225278   4.890   5.074   2.541
 8127SOL     OW25279   3.164   5.128   6.300
 8127SOL    HW125280   3.261   5.146   6.281
 8127SOL    HW225281   3.115   5.215   6.307
 8128SOL     OW25282   2.823   1.695   1.590
 8128SOL    HW125283   2.914   1.684   1.630
 8128SOL    HW225284   2.824   1.771   1.525
 8129SOL     OW25285   4.580   0.565   5.995
 8129SOL    HW125286   4.603   0.505   5.919
 8129SOL    HW225287   4.660   0.618   6.022
 8130SOL     OW25288   0.331   3.060   6.047
 8130SOL    HW125289   0.369   2.968   6.039
 8130SOL    HW225290   0.336   3.106   5.959
 8131SOL     OW25291   3.539   2.029   0.855
 8131SOL    HW125292   3.558   1.960   0.785
 8131SOL    HW225293   3.625   2.059   0.896
 8132SOL     OW25294   6.340   0.003   5.778
 8132SOL    HW125295   6.373   0.062   5.852
 8132SOL    HW225296   6.241   0.010   5.770
 8133SOL     OW25297   2.976   4.764   1.357
 8133SOL    HW125298   2.917   4.759   1.277
 8133SOL    HW225299   2.999   4.671   1.387
 8134SOL     OW25300   0.394   2.939   5.559
 8134SOL    HW125301   0.481   2.962   5.516
 8134SOL    HW225302   0.408   2.867   5.627
 8135SOL     OW25303   2.264   5.740   1.236
 8135SOL    HW125304   2.222   5.813   1.182
 8135SOL    HW225305   2.286   5.775   1.327
 8136SOL     OW25306   4.189   5.397   3.276
 8136SOL    HW125307   4.261   5.334   3.304
 8136SOL    HW225308   4.103   5.371   3.320
 8137SOL     OW25309   3.499   1.381   5.232
 8137SOL    HW125310   3.451   1.298   5.203
 8137SOL    HW225311   3.589   1.384   5.189
 8138SOL     OW25312   5.681   1.323   0.202
 8138SOL    HW125313   5.760   1.381   0.222
 8138SOL    HW225314   5.656   1.271   0.284
 8139SOL     OW25315   0.734   1.535   3.326
 8139SOL    HW125316   0.797   1.507   3.399
 8139SOL    HW225317   0.786   1.551   3.242
 8140SOL     OW25318   4.906   0.574   0.859
 8140SOL    HW125319   4.849   0.590   0.940
 8140SOL    HW225320   5.001   0.594   0.880
 8141SOL     OW25321   4.547   6.284   5.546
 8141SOL    HW125322   4.647   6.278   5.546
 8141SOL    HW225323   4.520   6.379   5.564
 8142SOL     OW25324   1.223   4.325   0.162
 8142SOL    HW125325   1.213   4.235   0.122
 8142SOL    HW225326   1.261   4.388   0.094
 8143SOL     OW25327   6.939   4.609   0.825
 8143SOL    HW125328   6.901   4.694   0.788
 8143SOL    HW225329   6.933   4.611   0.925
 8144SOL     OW25330   6.929   6.518   6.016
 8144SOL    HW125331   6.878   6.454   5.958
 8144SOL    HW225332   7.002   6.560   5.963
 8145SOL     OW25333   5.851   5.740   1.656
 8145SOL    HW125334   5.788   5.802   1.609
 8145SOL    HW225335   5.885   5.672   1.591
 8146SOL     OW25336   4.919   0.999   5.060
 8146SOL    HW125337   4.847   0.944   5.016
 8146SOL    HW225338   4.881   1.043   5.142
 8147SOL     OW25339   6.863   1.637   2.112
 8147SOL    HW125340   6.944   1.578   2.112
 8147SOL    HW225341   6.785   1.586   2.149
 8148SOL     OW25342   4.972   4.029   0.785
 8148SOL    HW125343   4.970   4.011   0.884
 8148SOL    HW225344   4.905   3.970   0.740
 8149SOL     OW25345   2.141   6.044   2.578
 8149SOL    HW125346   2.048   6.078   2.588
 8149SOL    HW225347   2.139   5.945   2.561
 8150SOL     OW25348   1.967   3.841   1.236
 8150SOL    HW125349   1.923   3.931   1.226
 8150SOL    HW225350   1.911   3.772   1.190
 8151SOL     OW25351   5.358   4.573   2.439
 8151SOL    HW125352   5.262   4.568   2.465
 8151SOL    HW225353   5.400   4.483   2.452
 8152SOL     OW25354   6.008   2.004   2.951
 8152SOL    HW125355   6.036   2.095   2.982
 8152SOL    HW225356   5.980   2.009   2.855
 8153SOL     OW25357   1.329   1.224   4.079
 8153SOL    HW125358   1.418   1.251   4.117
 8153SOL    HW225359   1.325   1.124   4.074
 8154SOL     OW25360   3.801   5.073   2.521
 8154SOL    HW125361   3.829   5.076   2.425
 8154SOL    HW225362   3.833   5.155   2.568
 8155SOL     OW25363   1.813   3.222   1.862
 8155SOL    HW125364   1.840   3.266   1.776
 8155SOL    HW225365   1.741   3.154   1.843
 8156SOL     OW25366   5.114   6.338   0.871
 8156SOL    HW125367   5.127   6.354   0.969
 8156SOL    HW225368   5.049   6.264   0.857
 8157SOL     OW25369   6.233   4.922   6.055
 8157SOL    HW125370   6.296   4.919   5.978
 8157SOL    HW225371   6.279   4.892   6.138
 8158SOL     OW25372   5.155   4.247   6.958
 8158SOL    HW125373   5.212   4.254   0.013
 8158SOL    HW225374   5.127   4.338   6.928
 8159SOL     OW25375   2.465   5.919   2.787
 8159SOL    HW125376   2.382   5.955   2.830
 8159SOL    HW225377   2.510   5.856   2.850
 8160SOL     OW25378   5.386   0.933   3.217
 8160SOL    HW125379   5.439   0.924   3.301
 8160SOL    HW225380   5.385   0.845   3.169
 8161SOL     OW25381   6.098   2.633   6.390
 8161SOL    HW125382   6.168   2.585   6.443
 8161SOL    HW225383   6.031   2.672   6.453
 8162SOL     OW25384   5.955   6.715   6.771
 8162SOL    HW125385   5.898   6.786   6.730
 8162SOL    HW225386   5.926   6.699   6.865
 8163SOL     OW25387   2.922   4.092   5.328
 8163SOL    HW125388   2.909   4.019   5.395
 8163SOL    HW225389   2.909   4.054   5.236
 8164SOL     OW25390   5.192   2.138   0.055
 8164SOL    HW125391   5.169   2.216   7.025
 8164SOL    HW225392   5.193   2.165   0.152
 8165SOL     OW25393   1.015   3.822   5.950
 8165SOL    HW125394   1.011   3.849   5.853
 8165SOL    HW225395   1.086   3.875   5.996
 8166SOL     OW25396   1.465   0.833   3.253
 8166SOL    HW125397   1.472   0.890   3.336
 8166SOL    HW225398   1.440   0.740   3.279
 8167SOL     OW25399   0.326   0.241   3.860
 8167SOL    HW125400   0.360   0.150   3.884
 8167SOL    HW225401   0.258   0.234   3.788
 8168SOL     OW25402   2.209   1.423   2.866
 8168SOL    HW125403   2.179   1.360   2.794
 8168SOL    HW225404   2.129   1.455   2.918
 8169SOL     OW25405   4.795   2.066   0.757
 8169SOL    HW125406   4.709   2.026   0.788
 8169SOL    HW225407   4.832   2.012   0.682
 8170SOL     OW25408   1.223   5.186   2.189
 8170SOL    HW125409   1.203   5.098   2.231
 8170SOL    HW225410   1.322   5.200   2.185
 8171SOL     OW25411   1.717   1.774   6.260
 8171SOL    HW125412   1.779   1.791   6.184
 8171SOL    HW225413   1.740   1.835   6.336
 8172SOL     OW25414   0.645   2.419   2.224
 8172SOL    HW125415   0.562   2.458   2.183
 8172SOL    HW225416   0.721   2.484   2.213
 8173SOL     OW25417   5.549   1.515   2.472
 8173SOL    HW125418   5.549   1.613   2.495
 8173SOL    HW225419   5.634   1.493   2.423
 8174SOL     OW25420   6.382   2.023   1.625
 8174SOL    HW125421   6.400   2.116   1.593
 8174SOL    HW225422   6.293   1.993   1.591
 8175SOL     OW25423   0.711   3.060   5.143
 8175SOL    HW125424   0.667   3.035   5.230
 8175SOL    HW225425   0.802   3.096   5.161
 8176SOL     OW25426   2.218   5.290   1.574
 8176SOL    HW125427   2.307   5.317   1.536
 8176SOL    HW225428   2.217   5.309   1.673
 8177SOL     OW25429   3.858   6.873   3.840
 8177SOL    HW125430   3.778   6.867   3.780
 8177SOL    HW225431   3.846   6.949   3.905
 8178SOL     OW25432   2.568   6.202   0.318
 8178SOL    HW125433   2.588   6.261   0.239
 8178SOL    HW225434   2.621   6.233   0.397
 8179SOL     OW25435   4.835   1.535   5.359
 8179SOL    HW125436   4.736   1.529   5.344
 8179SOL    HW225437   4.873   1.442   5.363
 8180SOL     OW25438   6.500   0.130   5.033
 8180SOL    HW125439   6.419   0.100   4.983
 8180SOL    HW225440   6.576   0.143   4.969
 8181SOL     OW25441   2.030   1.478   0.926
 8181SOL    HW125442   1.931   1.484   0.916
 8181SOL    HW225443   2.072   1.462   0.837
 8182SOL     OW25444   3.261   3.571   5.749
 8182SOL    HW125445   3.259   3.598   5.845
 8182SOL    HW225446   3.294   3.647   5.694
 8183SOL     OW25447   6.749   2.009   5.200
 8183SOL    HW125448   6.682   1.950   5.246
 8183SOL    HW225449   6.702   2.063   5.130
 8184SOL     OW25450   6.307   1.048   0.364
 8184SOL    HW125451   6.282   1.129   0.418
 8184SOL    HW225452   6.245   0.973   0.385
 8185SOL     OW25453   2.681   6.940   0.277
 8185SOL    HW125454   2.584   6.916   0.271
 8185SOL    HW225455   2.734   6.859   0.301
 8186SOL     OW25456   3.699   5.080   5.739
 8186SOL    HW125457   3.691   5.169   5.694
 8186SOL    HW225458   3.717   5.010   5.670
 8187SOL     OW25459   1.506   2.061   4.601
 8187SOL    HW125460   1.433   2.122   4.571
 8187SOL    HW225461   1.468   1.990   4.660
 8188SOL     OW25462   5.900   2.811   2.679
 8188SOL    HW125463   5.951   2.878   2.625
 8188SOL    HW225464   5.803   2.815   2.654
 8189SOL     OW25465   4.750   4.632   3.060
 8189SOL    HW125466   4.814   4.614   3.135
 8189SOL    HW225467   4.733   4.730   3.054
 8190SOL     OW25468   4.448   5.138   4.291
 8190SOL    HW125469   4.375   5.192   4.333
 8190SOL    HW225470   4.526   5.135   4.354
 8191SOL     OW25471   3.567   6.438   1.783
 8191SOL    HW125472   3.526   6.435   1.874
 8191SOL    HW225473   3.647   6.378   1.779
 8192SOL     OW25474   4.018   4.892   0.588
 8192SOL    HW125475   4.020   4.826   0.663
 8192SOL    HW225476   3.969   4.852   0.510
 8193SOL     OW25477   6.775   6.161   4.728
 8193SOL    HW125478   6.783   6.221   4.649
 8193SOL    HW225479   6.866   6.141   4.765
 8194SOL     OW25480   5.601   2.662   1.039
 8194SOL    HW125481   5.528   2.605   1.076
 8194SOL    HW225482   5.674   2.603   1.003
 8195SOL     OW25483   1.395   0.258   1.500
 8195SOL    HW125484   1.429   0.182   1.445
 8195SOL    HW225485   1.326   0.309   1.448
 8196SOL     OW25486   3.843   5.981   6.000
 8196SOL    HW125487   3.891   5.896   6.020
 8196SOL    HW225488   3.909   6.057   5.999
 8197SOL     OW25489   4.774   2.023   0.234
 8197SOL    HW125490   4.837   2.063   0.167
 8197SOL    HW225491   4.710   1.963   0.188
 8198SOL     OW25492   3.445   6.811   2.933
 8198SOL    HW125493   3.444   6.909   2.952
 8198SOL    HW225494   3.478   6.795   2.840
 8199SOL     OW25495   6.001   3.040   6.773
 8199SOL    HW125496   5.937   3.091   6.716
 8199SOL    HW225497   5.979   3.055   6.870
 8200SOL     OW25498   5.360   4.269   1.822
 8200SOL    HW125499   5.285   4.289   1.760
 8200SOL    HW225500   5.327   4.270   1.916
 8201SOL     OW25501   5.620   0.325   3.702
 8201SOL    HW125502   5.564   0.244   3.719
 8201SOL    HW225503   5.650   0.364   3.789
 8202SOL     OW25504   0.485   5.525   4.263
 8202SOL    HW125505   0.397   5.515   4.310
 8202SOL    HW225506   0.492   5.618   4.226
 8203SOL     OW25507   4.681   2.499   0.117
 8203SOL    HW125508   4.604   2.472   0.174
 8203SOL    HW225509   4.759   2.522   0.176
 8204SOL     OW25510   2.647   5.258   6.869
 8204SOL    HW125511   2.578   5.293   6.933
 8204SOL    HW225512   2.718   5.210   6.919
 8205SOL     OW25513   0.181   4.566   0.720
 8205SOL    HW125514   0.215   4.645   0.772
 8205SOL    HW225515   0.081   4.564   0.726
 8206SOL     OW25516   4.974   2.863   6.530
 8206SOL    HW125517   4.882   2.867   6.491
 8206SOL    HW225518   5.038   2.909   6.469
 8207SOL     OW25519   3.001   3.912   4.694
 8207SOL    HW125520   3.026   3.854   4.772
 8207SOL    HW225521   2.945   3.860   4.630
 8208SOL     OW25522   2.126   0.228   1.480
 8208SOL    HW125523   2.039   0.186   1.453
 8208SOL    HW225524   2.115   0.328   1.483
 8209SOL     OW25525   0.559   1.128   5.912
 8209SOL    HW125526   0.605   1.149   5.826
 8209SOL    HW225527   0.610   1.057   5.961
 8210SOL     OW25528   2.360   0.923   1.425
 8210SOL    HW125529   2.407   1.010   1.413
 8210SOL    HW225530   2.427   0.849   1.423
 8211SOL     OW25531   3.309   4.075   2.090
 8211SOL    HW125532   3.307   3.992   2.034
 8211SOL    HW225533   3.396   4.122   2.077
 8212SOL     OW25534   1.638   1.834   1.560
 8212SOL    HW125535   1.669   1.762   1.623
 8212SOL    HW225536   1.689   1.918   1.578
 8213SOL     OW25537   6.456   4.867   2.188
 8213SOL    HW125538   6.454   4.789   2.251
 8213SOL    HW225539   6.483   4.835   2.097
 8214SOL     OW25540   6.707   5.468   4.635
 8214SOL    HW125541   6.615   5.484   4.600
 8214SOL    HW225542   6.709   5.383   4.687
 8215SOL     OW25543   2.881   5.432   6.268
 8215SOL    HW125544   2.880   5.487   6.352
 8215SOL    HW225545   2.841   5.343   6.287
 8216SOL     OW25546   4.688   5.618   3.670
 8216SOL    HW125547   4.601   5.593   3.630
 8216SOL    HW225548   4.707   5.561   3.750
 8217SOL     OW25549   2.246   4.114   1.587
 8217SOL    HW125550   2.330   4.084   1.633
 8217SOL    HW225551   2.191   4.035   1.563
 8218SOL     OW25552   1.114   6.295   4.491
 8218SOL    HW125553   1.159   6.383   4.480
 8218SOL    HW225554   1.048   6.300   4.566
 8219SOL     OW25555   4.198   3.298   0.873
 8219SOL    HW125556   4.157   3.369   0.816
 8219SOL    HW225557   4.162   3.209   0.846
 8220SOL     OW25558   3.128   3.888   4.101
 8220SOL    HW125559   3.072   3.806   4.105
 8220SOL    HW225560   3.109   3.946   4.180
 8221SOL     OW25561   6.355   6.149   3.317
 8221SOL    HW125562   6.321   6.119   3.228
 8221SOL    HW225563   6.320   6.088   3.389
 8222SOL     OW25564   5.202   1.169   1.445
 8222SOL    HW125565   5.147   1.087   1.462
 8222SOL    HW225566   5.278   1.145   1.384
 8223SOL     OW25567   1.438   4.153   5.424
 8223SOL    HW125568   1.461   4.250   5.435
 8223SOL    HW225569   1.340   4.139   5.443
 8224SOL     OW25570   5.832   2.529   2.236
 8224SOL    HW125571   5.824   2.435   2.203
 8224SOL    HW225572   5.911   2.537   2.296
 8225SOL     OW25573   4.239   1.495   1.345
 8225SOL    HW125574   4.169   1.565   1.330
 8225SOL    HW225575   4.282   1.471   1.258
 8226SOL     OW25576   3.587   6.229   0.632
 8226SOL    HW125577   3.619   6.278   0.712
 8226SOL    HW225578   3.628   6.268   0.550
 8227SOL     OW25579   6.531   1.632   2.530
 8227SOL    HW125580   6.479   1.553   2.563
 8227SOL    HW225581   6.512   1.711   2.589
 8228SOL     OW25582   0.092   1.841   6.358
 8228SOL    HW125583   0.097   1.818   6.456
 8228SOL    HW225584   0.159   1.787   6.308
 8229SOL     OW25585   3.916   3.506   1.539
 8229SOL    HW125586   3.960   3.483   1.452
 8229SOL    HW225587   3.967   3.580   1.584
 8230SOL     OW25588   3.582   6.405   5.556
 8230SOL    HW125589   3.515   6.470   5.521
 8230SOL    HW225590   3.651   6.387   5.485
 8231SOL     OW25591   3.030   2.795   1.590
 8231SOL    HW125592   2.932   2.781   1.600
 8231SOL    HW225593   3.080   2.719   1.633
 8232SOL     OW25594   5.894   2.058   2.706
 8232SOL    HW125595   5.963   2.129   2.690
 8232SOL    HW225596   5.803   2.096   2.692
 8233SOL     OW25597   1.537   6.860   6.230
 8233SOL    HW125598   1.566   6.787   6.168
 8233SOL    HW225599   1.458   6.907   6.192
 8234SOL     OW25600   2.777   3.934   0.072
 8234SOL    HW125601   2.724   3.852   0.055
 8234SOL    HW225602   2.850   3.914   0.138
 8235SOL     OW25603   0.300   3.920   6.966
 8235SOL    HW125604   0.209   3.957   6.948
 8235SOL    HW225605   0.296   3.858   0.018
 8236SOL     OW25606   0.198   4.740   0.189
 8236SOL    HW125607   0.180   4.641   0.187
 8236SOL    HW225608   0.296   4.756   0.179
 8237SOL     OW25609   4.761   5.929   6.222
 8237SOL    HW125610   4.775   5.926   6.123
 8237SOL    HW225611   4.768   5.837   6.260
 8238SOL     OW25612   0.429   5.379   0.255
 8238SOL    HW125613   0.419   5.354   0.159
 8238SOL    HW225614   0.342   5.412   0.291
 8239SOL     OW25615   0.473   1.044   5.528
 8239SOL    HW125616   0.394   0.983   5.529
 8239SOL    HW225617   0.445   1.133   5.492
 8240SOL     OW25618   3.427   4.093   2.328
 8240SOL    HW125619   3.388   4.098   2.420
 8240SOL    HW225620   3.354   4.079   2.261
 8241SOL     OW25621   3.007   4.989   6.118
 8241SOL    HW125622   3.075   4.922   6.087
 8241SOL    HW225623   3.037   5.031   6.203
 8242SOL     OW25624   0.549   3.902   6.215
 8242SOL    HW125625   0.487   3.871   6.287
 8242SOL    HW225626   0.588   3.990   6.241
 8243SOL     OW25627   6.596   3.798   0.908
 8243SOL    HW125628   6.557   3.857   0.838
 8243SOL    HW225629   6.578   3.703   0.886
 8244SOL     OW25630   0.141   0.761   3.171
 8244SOL    HW125631   0.203   0.817   3.116
 8244SOL    HW225632   0.159   0.778   3.268
 8245SOL     OW25633   3.734   2.049   2.691
 8245SOL    HW125634   3.657   2.112   2.689
 8245SOL    HW225635   3.809   2.085   2.635
 8246SOL     OW25636   0.735   3.548   6.355
 8246SOL    HW125637   0.812   3.490   6.330
 8246SOL    HW225638   0.661   3.536   6.287
 8247SOL     OW25639   2.181   0.767   3.359
 8247SOL    HW125640   2.250   0.826   3.318
 8247SOL    HW225641   2.156   0.695   3.295
 8248SOL     OW25642   0.263   4.437   4.296
 8248SOL    HW125643   0.225   4.515   4.247
 8248SOL    HW225644   0.301   4.468   4.383
 8249SOL     OW25645   1.969   1.300   5.591
 8249SOL    HW125646   1.931   1.376   5.645
 8249SOL    HW225647   2.008   1.232   5.653
 8250SOL     OW25648   2.410   2.420   1.648
 8250SOL    HW125649   2.441   2.438   1.742
 8250SOL    HW225650   2.453   2.337   1.614
 8251SOL     OW25651   5.195   3.049   4.283
 8251SOL    HW125652   5.098   3.046   4.260
 8251SOL    HW225653   5.242   3.112   4.222
 8252SOL     OW25654   3.836   1.693   6.356
 8252SOL    HW125655   3.844   1.752   6.276
 8252SOL    HW225656   3.809   1.747   6.435
 8253SOL     OW25657   3.767   5.659   5.716
 8253SOL    HW125658   3.752   5.703   5.627
 8253SOL    HW225659   3.699   5.692   5.782
 8254SOL     OW25660   4.887   4.532   5.546
 8254SOL    HW125661   4.942   4.561   5.468
 8254SOL    HW225662   4.917   4.442   5.576
 8255SOL     OW25663   1.784   6.204   5.161
 8255SOL    HW125664   1.854   6.147   5.205
 8255SOL    HW225665   1.727   6.247   5.231
 8256SOL     OW25666   6.476   6.346   2.491
 8256SOL    HW125667   6.548   6.287   2.528
 8256SOL    HW225668   6.476   6.339   2.391
 8257SOL     OW25669   5.231   3.913   2.893
 8257SOL    HW125670   5.186   3.975   2.829
 8257SOL    HW225671   5.295   3.854   2.843
 8258SOL     OW25672   5.176   2.674   2.248
 8258SOL    HW125673   5.126   2.760   2.232
 8258SOL    HW225674   5.222   2.678   2.337
 8259SOL     OW25675   3.885   1.878   5.082
 8259SOL    HW125676   3.848   1.969   5.067
 8259SOL    HW225677   3.917   1.840   4.995
 8260SOL     OW25678   2.636   7.011   1.313
 8260SOL    HW125679   2.574   0.049   1.356
 8260SOL    HW225680   2.601   6.987   1.222
 8261SOL     OW25681   5.061   6.319   3.142
 8261SOL    HW125682   5.008   6.240   3.173
 8261SOL    HW225683   5.007   6.402   3.154
 8262SOL     OW25684   1.060   4.015   0.402
 8262SOL    HW125685   0.986   4.063   0.356
 8262SOL    HW225686   1.056   3.918   0.380
 8263SOL     OW25687   0.076   2.801   6.510
 8263SOL    HW125688   0.057   2.890   6.468
 8263SOL    HW225689   7.020   2.768   6.556
 8264SOL     OW25690   1.833   7.018   0.936
 8264SOL    HW125691   1.878   6.961   1.004
 8264SOL    HW225692   1.882   0.077   0.928
 8265SOL     OW25693   5.935   0.140   1.678
 8265SOL    HW125694   5.931   0.208   1.751
 8265SOL    HW225695   5.907   0.051   1.713
 8266SOL     OW25696   2.464   1.122   4.504
 8266SOL    HW125697   2.494   1.205   4.456
 8266SOL    HW225698   2.482   1.131   4.602
 8267SOL     OW25699   1.647   3.741   1.582
 8267SOL    HW125700   1.708   3.820   1.580
 8267SOL    HW225701   1.639   3.707   1.676
 8268SOL     OW25702   2.873   6.474   6.599
 8268SOL    HW125703   2.833   6.564   6.579
 8268SOL    HW225704   2.965   6.469   6.559
 8269SOL     OW25705   4.735   2.480   2.546
 8269SOL    HW125706   4.701   2.541   2.618
 8269SOL    HW225707   4.763   2.393   2.587
 8270SOL     OW25708   3.042   6.371   4.825
 8270SOL    HW125709   2.992   6.321   4.754
 8270SOL    HW225710   2.981   6.435   4.871
 8271SOL     OW25711   6.890   0.067   2.634
 8271SOL    HW125712   6.866   0.030   2.724
 8271SOL    HW225713   6.911   0.164   2.643
 8272SOL     OW25714   6.416   1.957   2.803
 8272SOL    HW125715   6.407   1.896   2.881
 8272SOL    HW225716   6.453   2.045   2.833
 8273SOL     OW25717   2.517   1.417   0.911
 8273SOL    HW125718   2.499   1.456   0.821
 8273SOL    HW225719   2.577   1.478   0.963
 8274SOL     OW25720   4.546   5.442   4.509
 8274SOL    HW125721   4.478   5.399   4.450
 8274SOL    HW225722   4.507   5.452   4.601
 8275SOL     OW25723   5.210   0.276   4.551
 8275SOL    HW125724   5.123   0.288   4.504
 8275SOL    HW225725   5.233   0.179   4.555
 8276SOL     OW25726   0.883   1.614   5.433
 8276SOL    HW125727   0.822   1.619   5.512
 8276SOL    HW225728   0.855   1.538   5.374
 8277SOL     OW25729   1.426   6.199   5.881
 8277SOL    HW125730   1.489   6.148   5.823
 8277SOL    HW225731   1.432   6.296   5.860
 8278SOL     OW25732   3.378   1.924   6.841
 8278SOL    HW125733   3.443   1.999   6.827
 8278SOL    HW225734   3.303   1.933   6.776
 8279SOL     OW25735   0.521   6.512   4.886
 8279SOL    HW125736   0.514   6.595   4.941
 8279SOL    HW225737   0.607   6.512   4.835
 8280SOL     OW25738   3.547   3.035   0.358
 8280SOL    HW125739   3.535   3.025   0.259
 8280SOL    HW225740   3.558   3.132   0.381
 8281SOL     OW25741   2.301   4.731   1.468
 8281SOL    HW125742   2.358   4.808   1.495
 8281SOL    HW225743   2.293   4.728   1.368
 8282SOL     OW25744   3.965   4.548   6.900
 8282SOL    HW125745   4.008   4.499   6.825
 8282SOL    HW225746   3.973   4.646   6.885
 8283SOL     OW25747   1.643   4.715   4.315
 8283SOL    HW125748   1.631   4.644   4.385
 8283SOL    HW225749   1.735   4.754   4.324
 8284SOL     OW25750   1.354   3.918   1.848
 8284SOL    HW125751   1.423   3.850   1.871
 8284SOL    HW225752   1.263   3.884   1.872
 8285SOL     OW25753   3.207   4.071   4.593
 8285SOL    HW125754   3.121   4.028   4.619
 8285SOL    HW225755   3.283   4.025   4.640
 8286SOL     OW25756   5.664   1.993   4.921
 8286SOL    HW125757   5.590   1.986   4.854
 8286SOL    HW225758   5.680   2.089   4.943
 8287SOL     OW25759   0.863   5.039   4.022
 8287SOL    HW125760   0.945   4.984   4.005
 8287SOL    HW225761   0.873   5.089   4.108
 8288SOL     OW25762   2.629   2.452   2.330
 8288SOL    HW125763   2.677   2.528   2.287
 8288SOL    HW225764   2.695   2.381   2.356
 8289SOL     OW25765   0.006   6.291   6.151
 8289SOL    HW125766   6.972   6.263   6.225
 8289SOL    HW225767   6.990   6.362   6.096
 8290SOL     OW25768   5.508   1.616   0.820
 8290SOL    HW125769   5.504   1.645   0.724
 8290SOL    HW225770   5.432   1.657   0.870
 8291SOL     OW25771   5.565   5.041   6.007
 8291SOL    HW125772   5.538   5.130   5.970
 8291SOL    HW225773   5.585   5.049   6.104
 8292SOL     OW25774   3.407   5.827   6.534
 8292SOL    HW125775   3.475   5.792   6.599
 8292SOL    HW225776   3.341   5.884   6.583
 8293SOL     OW25777   2.107   5.038   0.982
 8293SOL    HW125778   2.135   5.131   1.004
 8293SOL    HW225779   2.182   4.990   0.936
 8294SOL     OW25780   6.148   3.636   4.689
 8294SOL    HW125781   6.183   3.591   4.771
 8294SOL    HW225782   6.085   3.575   4.641
 8295SOL     OW25783   4.980   3.826   2.625
 8295SOL    HW125784   4.941   3.757   2.563
 8295SOL    HW225785   4.979   3.915   2.580
 8296SOL     OW25786   2.504   5.483   0.311
 8296SOL    HW125787   2.444   5.444   0.380
 8296SOL    HW225788   2.520   5.580   0.331
 8297SOL     OW25789   6.623   3.559   2.795
 8297SOL    HW125790   6.577   3.481   2.838
 8297SOL    HW225791   6.607   3.557   2.696
 8298SOL     OW25792   6.953   1.334   0.625
 8298SOL    HW125793   6.930   1.291   0.538
 8298SOL    HW225794   6.889   1.409   0.643
 8299SOL     OW25795   0.566   3.071   2.647
 8299SOL    HW125796   0.553   3.126   2.729
 8299SOL    HW225797   0.586   3.131   2.570
 8300SOL     OW25798   0.202   6.325   4.072
 8300SOL    HW125799   0.290   6.339   4.026
 8300SOL    HW225800   0.157   6.413   4.082
 8301SOL     OW25801   4.187   1.054   0.287
 8301SOL    HW125802   4.122   1.042   0.212
 8301SOL    HW225803   4.151   1.120   0.353
 8302SOL     OW25804   5.504   6.256   6.127
 8302SOL    HW125805   5.541   6.268   6.035
 8302SOL    HW225806   5.444   6.333   6.149
 8303SOL     OW25807   5.841   0.703   3.645
 8303SOL    HW125808   5.898   0.656   3.578
 8303SOL    HW225809   5.896   0.727   3.725
 8304SOL     OW25810   5.802   4.368   1.199
 8304SOL    HW125811   5.822   4.399   1.106
 8304SOL    HW225812   5.713   4.324   1.200
 8305SOL     OW25813   4.637   4.733   4.348
 8305SOL    HW125814   4.583   4.733   4.432
 8305SOL    HW225815   4.623   4.819   4.299
 8306SOL     OW25816   6.132   1.333   3.559
 8306SOL    HW125817   6.100   1.239   3.559
 8306SOL    HW225818   6.065   1.391   3.513
 8307SOL     OW25819   4.139   5.491   1.591
 8307SOL    HW125820   4.147   5.588   1.567
 8307SOL    HW225821   4.077   5.446   1.527
 8308SOL     OW25822   2.225   6.063   0.347
 8308SOL    HW125823   2.139   6.012   0.348
 8308SOL    HW225824   2.284   6.029   0.274
 8309SOL     OW25825   6.440   5.918   2.344
 8309SOL    HW125826   6.372   5.988   2.366
 8309SOL    HW225827   6.508   5.913   2.417
 8310SOL     OW25828   1.110   5.319   1.354
 8310SOL    HW125829   1.194   5.266   1.354
 8310SOL    HW225830   1.045   5.279   1.420
 8311SOL     OW25831   6.505   1.579   5.330
 8311SOL    HW125832   6.407   1.597   5.326
 8311SOL    HW225833   6.530   1.512   5.260
 8312SOL     OW25834   5.304   1.171   6.213
 8312SOL    HW125835   5.284   1.130   6.301
 8312SOL    HW225836   5.253   1.257   6.203
 8313SOL     OW25837   5.699   0.460   5.828
 8313SOL    HW125838   5.639   0.393   5.785
 8313SOL    HW225839   5.794   0.428   5.824
 8314SOL     OW25840   6.305   6.505   6.565
 8314SOL    HW125841   6.251   6.486   6.647
 8314SOL    HW225842   6.244   6.508   6.485
 8315SOL     OW25843   4.108   3.196   2.704
 8315SOL    HW125844   4.193   3.177   2.654
 8315SOL    HW225845   4.064   3.109   2.728
 8316SOL     OW25846   1.438   3.088   1.751
 8316SOL    HW125847   1.397   3.065   1.663
 8316SOL    HW225848   1.402   3.028   1.822
 8317SOL     OW25849   1.349   2.414   2.697
 8317SOL    HW125850   1.293   2.487   2.656
 8317SOL    HW225851   1.410   2.454   2.765
 8318SOL     OW25852   4.258   1.317   5.770
 8318SOL    HW125853   4.287   1.331   5.864
 8318SOL    HW225854   4.221   1.402   5.733
 8319SOL     OW25855   1.495   1.258   1.463
 8319SOL    HW125856   1.479   1.329   1.395
 8319SOL    HW225857   1.479   1.168   1.422
 8320SOL     OW25858   2.879   3.564   2.506
 8320SOL    HW125859   2.935   3.616   2.570
 8320SOL    HW225860   2.793   3.612   2.491
 8321SOL     OW25861   6.400   0.182   7.022
 8321SOL    HW125862   6.352   0.253   0.045
 8321SOL    HW225863   6.372   0.183   6.926
 8322SOL     OW25864   6.227   1.029   0.822
 8322SOL    HW125865   6.150   0.965   0.816
 8322SOL    HW225866   6.299   1.000   0.759
 8323SOL     OW25867   4.245   4.726   1.575
 8323SOL    HW125868   4.283   4.799   1.518
 8323SOL    HW225869   4.279   4.638   1.544
 8324SOL     OW25870   5.522   0.341   0.815
 8324SOL    HW125871   5.436   0.343   0.866
 8324SOL    HW225872   5.508   0.296   0.727
 8325SOL     OW25873   1.740   3.629   5.582
 8325SOL    HW125874   1.698   3.563   5.645
 8325SOL    HW225875   1.688   3.631   5.497
 8326SOL     OW25876   4.489   4.365   5.665
 8326SOL    HW125877   4.414   4.427   5.687
 8326SOL    HW225878   4.484   4.341   5.568
 8327SOL     OW25879   7.010   0.575   6.087
 8327SOL    HW125880   0.062   0.594   6.145
 8327SOL    HW225881   0.003   0.496   6.029
 8328SOL     OW25882   2.660   5.967   6.400
 8328SOL    HW125883   2.722   6.038   6.365
 8328SOL    HW225884   2.569   5.981   6.363
 8329SOL     OW25885   0.692   2.648   4.951
 8329SOL    HW125886   0.596   2.619   4.956
 8329SOL    HW225887   0.748   2.571   4.920
 8330SOL     OW25888   3.090   0.876   6.616
 8330SOL    HW125889   3.088   0.835   6.708
 8330SOL    HW225890   3.048   0.967   6.619
 8331SOL     OW25891   3.508   0.439   0.823
 8331SOL    HW125892   3.442   0.514   0.824
 8331SOL    HW225893   3.567   0.449   0.742
 8332SOL     OW25894   5.853   5.415   2.527
 8332SOL    HW125895   5.905   5.385   2.447
 8332SOL    HW225896   5.805   5.337   2.567
 8333SOL     OW25897   1.141   4.965   6.879
 8333SOL    HW125898   1.053   4.984   6.922
 8333SOL    HW225899   1.173   5.046   6.830
 8334SOL     OW25900   3.382   1.821   4.829
 8334SOL    HW125901   3.428   1.842   4.916
 8334SOL    HW225902   3.331   1.901   4.798
 8335SOL     OW25903   4.544   1.357   0.440
 8335SOL    HW125904   4.524   1.260   0.459
 8335SOL    HW225905   4.545   1.372   0.341
 8336SOL     OW25906   0.851   4.142   2.779
 8336SOL    HW125907   0.871   4.098   2.691
 8336SOL    HW225908   0.911   4.103   2.850
 8337SOL     OW25909   0.596   6.147   4.164
 8337SOL    HW125910   0.667   6.080   4.144
 8337SOL    HW225911   0.581   6.150   4.263
 8338SOL     OW25912   3.714   5.347   1.356
 8338SOL    HW125913   3.632   5.293   1.376
 8338SOL    HW225914   3.698   5.443   1.379
 8339SOL     OW25915   6.445   0.427   1.959
 8339SOL    HW125916   6.402   0.514   1.985
 8339SOL    HW225917   6.460   0.426   1.860
 8340SOL     OW25918   4.777   3.902   1.374
 8340SOL    HW125919   4.842   3.826   1.382
 8340SOL    HW225920   4.715   3.884   1.297
 8341SOL     OW25921   2.273   0.200   6.657
 8341SOL    HW125922   2.347   0.230   6.597
 8341SOL    HW225923   2.218   0.130   6.610
 8342SOL     OW25924   4.804   6.877   0.225
 8342SOL    HW125925   4.730   6.813   0.205
 8342SOL    HW225926   4.784   6.926   0.310
 8343SOL     OW25927   0.402   6.261   3.286
 8343SOL    HW125928   0.432   6.223   3.199
 8343SOL    HW225929   0.439   6.207   3.361
 8344SOL     OW25930   6.503   5.849   4.513
 8344SOL    HW125931   6.527   5.836   4.609
 8344SOL    HW225932   6.582   5.830   4.456
 8345SOL     OW25933   4.237   2.336   2.651
 8345SOL    HW125934   4.289   2.251   2.638
 8345SOL    HW225935   4.233   2.386   2.564
 8346SOL     OW25936   3.686   4.814   0.922
 8346SOL    HW125937   3.648   4.899   0.957
 8346SOL    HW225938   3.778   4.800   0.961
 8347SOL     OW25939   3.056   6.720   4.789
 8347SOL    HW125940   2.986   6.662   4.832
 8347SOL    HW225941   3.036   6.730   4.692
 8348SOL     OW25942   2.007   1.394   1.357
 8348SOL    HW125943   1.979   1.367   1.450
 8348SOL    HW225944   2.082   1.335   1.327
 8349SOL     OW25945   0.994   6.778   2.506
 8349SOL    HW125946   0.938   6.705   2.467
 8349SOL    HW225947   0.941   6.827   2.575
 8350SOL     OW25948   2.836   6.322   6.224
 8350SOL    HW125949   2.887   6.291   6.304
 8350SOL    HW225950   2.781   6.402   6.249
 8351SOL     OW25951   5.076   5.594   4.435
 8351SOL    HW125952   5.063   5.634   4.344
 8351SOL    HW225953   5.062   5.665   4.504
 8352SOL     OW25954   0.537   0.010   3.375
 8352SOL    HW125955   0.573   0.087   3.323
 8352SOL    HW225956   0.451   0.037   3.419
 8353SOL     OW25957   0.626   3.975   1.386
 8353SOL    HW125958   0.625   4.066   1.344
 8353SOL    HW225959   0.652   3.907   1.317
 8354SOL     OW25960   3.531   0.113   4.563
 8354SOL    HW125961   3.614   0.080   4.518
 8354SOL    HW225962   3.510   0.205   4.530
 8355SOL     OW25963   2.705   1.426   5.460
 8355SOL    HW125964   2.735   1.470   5.376
 8355SOL    HW225965   2.777   1.433   5.530
 8356SOL     OW25966   0.840   0.571   1.756
 8356SOL    HW125967   0.890   0.643   1.805
 8356SOL    HW225968   0.810   0.502   1.822
 8357SOL     OW25969   3.294   6.922   5.580
 8357SOL    HW125970   3.377   6.890   5.535
 8357SOL    HW225971   3.223   6.851   5.573
 8358SOL     OW25972   2.030   3.953   4.994
 8358SOL    HW125973   2.015   3.864   5.036
 8358SOL    HW225974   2.114   3.993   5.030
 8359SOL     OW25975   3.390   1.173   5.091
 8359SOL    HW125976   3.419   1.209   5.002
 8359SOL    HW225977   3.291   1.160   5.090
 8360SOL     OW25978   4.085   0.019   0.298
 8360SOL    HW125979   4.009   0.014   0.233
 8360SOL    HW225980   4.049   0.020   0.391
 8361SOL     OW25981   3.462   0.464   1.714
 8361SOL    HW125982   3.481   0.548   1.664
 8361SOL    HW225983   3.477   0.385   1.654
 8362SOL     OW25984   5.050   1.356   0.840
 8362SOL    HW125985   5.142   1.347   0.802
 8362SOL    HW225986   5.022   1.269   0.881
 8363SOL     OW25987   4.604   2.659   6.711
 8363SOL    HW125988   4.595   2.562   6.734
 8363SOL    HW225989   4.573   2.673   6.617
 8364SOL     OW25990   0.329   2.099   4.231
 8364SOL    HW125991   0.398   2.158   4.189
 8364SOL    HW225992   0.320   2.015   4.177
 8365SOL     OW25993   1.816   2.882   2.696
 8365SOL    HW125994   1.805   2.909   2.792
 8365SOL    HW225995   1.741   2.821   2.670
 8366SOL     OW25996   2.394   5.393   1.028
 8366SOL    HW125997   2.396   5.321   0.958
 8366SOL    HW225998   2.317   5.454   1.011
 8367SOL     OW25999   3.433   5.908   4.788
 8367SOL    HW126000   3.408   5.830   4.845
 8367SOL    HW226001   3.399   5.893   4.695
 8368SOL     OW26002   0.962   6.635   6.757
 8368SOL    HW126003   0.904   6.611   6.835
 8368SOL    HW226004   1.055   6.603   6.774
 8369SOL     OW26005   0.590   0.164   5.718
 8369SOL    HW126006   0.553   0.173   5.811
 8369SOL    HW226007   0.557   0.079   5.677
 8370SOL     OW26008   2.999   1.725   5.901
 8370SOL    HW126009   3.076   1.720   5.837
 8370SOL    HW226010   3.025   1.683   5.988
 8371SOL     OW26011   1.868   4.444   0.871
 8371SOL    HW126012   1.783   4.430   0.922
 8371SOL    HW226013   1.852   4.425   0.774
 8372SOL     OW26014   1.622   5.408   1.579
 8372SOL    HW126015   1.655   5.497   1.549
 8372SOL    HW226016   1.558   5.371   1.512
 8373SOL     OW26017   2.137   6.160   3.808
 8373SOL    HW126018   2.203   6.162   3.733
 8373SOL    HW226019   2.045   6.175   3.771
 8374SOL     OW26020   6.980   0.187   5.015
 8374SOL    HW126021   0.020   0.133   4.964
 8374SOL    HW226022   6.983   0.282   4.983
 8375SOL     OW26023   4.274   6.092   5.260
 8375SOL    HW126024   4.366   6.125   5.283
 8375SOL    HW226025   4.278   5.995   5.239
 8376SOL     OW26026   0.929   1.389   4.593
 8376SOL    HW126027   0.944   1.294   4.619
 8376SOL    HW226028   0.877   1.436   4.664
 8377SOL     OW26029   5.520   6.218   0.790
 8377SOL    HW126030   5.429   6.223   0.748
 8377SOL    HW226031   5.564   6.132   0.763
 8378SOL     OW26032   3.540   4.958   2.914
 8378SOL    HW126033   3.443   4.968   2.938
 8378SOL    HW226034   3.554   4.983   2.818
 8379SOL     OW26035   5.305   2.758   1.233
 8379SOL    HW126036   5.327   2.672   1.186
 8379SOL    HW226037   5.312   2.744   1.332
 8380SOL     OW26038   0.980   0.451   1.518
 8380SOL    HW126039   0.903   0.388   1.510
 8380SOL    HW226040   0.982   0.490   1.611
 8381SOL     OW26041   0.513   2.878   4.271
 8381SOL    HW126042   0.414   2.878   4.258
 8381SOL    HW226043   0.547   2.784   4.268
 8382SOL     OW26044   2.102   6.901   2.367
 8382SOL    HW126045   2.073   6.908   2.271
 8382SOL    HW226046   2.023   6.881   2.424
 8383SOL     OW26047   2.920   6.798   6.020
 8383SOL    HW126048   2.846   6.866   6.022
 8383SOL    HW226049   2.931   6.759   6.111
 8384SOL     OW26050   6.495   1.803   1.507
 8384SOL    HW126051   6.458   1.872   1.570
 8384SOL    HW226052   6.481   1.712   1.544
 8385SOL     OW26053   5.000   2.627   6.942
 8385SOL    HW126054   5.066   2.660   6.874
 8385SOL    HW226055   5.013   2.675   0.001
 8386SOL     OW26056   1.650   6.321   2.036
 8386SOL    HW126057   1.615   6.275   1.954
 8386SOL    HW226058   1.583   6.387   2.069
 8387SOL     OW26059   1.387   1.293   1.713
 8387SOL    HW126060   1.429   1.268   1.625
 8387SOL    HW226061   1.367   1.391   1.713
 8388SOL     OW26062   2.409   0.078   0.758
 8388SOL    HW126063   2.441   0.063   0.852
 8388SOL    HW226064   2.440   0.002   0.700
 8389SOL     OW26065   6.780   3.933   4.095
 8389SOL    HW126066   6.823   3.857   4.045
 8389SOL    HW226067   6.851   3.986   4.141
 8390SOL     OW26068   4.538   6.219   0.094
 8390SOL    HW126069   4.589   6.290   0.142
 8390SOL    HW226070   4.508   6.150   0.160
 8391SOL     OW26071   5.641   4.616   0.985
 8391SOL    HW126072   5.676   4.662   1.067
 8391SOL    HW226073   5.716   4.573   0.937
 8392SOL     OW26074   6.991   4.728   5.176
 8392SOL    HW126075   7.004   4.763   5.083
 8392SOL    HW226076   6.973   4.630   5.173
 8393SOL     OW26077   0.263   0.462   2.639
 8393SOL    HW126078   0.324   0.532   2.602
 8393SOL    HW226079   0.168   0.494   2.634
 8394SOL     OW26080   0.268   2.991   1.722
 8394SOL    HW126081   0.198   3.027   1.660
 8394SOL    HW226082   0.232   2.912   1.770
 8395SOL     OW26083   1.926   6.120   4.717
 8395SOL    HW126084   1.985   6.144   4.640
 8395SOL    HW226085   1.830   6.132   4.691
 8396SOL     OW26086   3.980   5.386   3.036
 8396SOL    HW126087   4.053   5.391   3.105
 8396SOL    HW226088   3.988   5.300   2.987
 8397SOL     OW26089   2.337   0.945   2.612
 8397SOL    HW126090   2.395   0.899   2.545
 8397SOL    HW226091   2.261   0.991   2.565
 8398SOL     OW26092   4.314   2.358   6.798
 8398SOL    HW126093   4.246   2.288   6.822
 8398SOL    HW226094   4.296   2.440   6.851
 8399SOL     OW26095   6.071   6.464   0.594
 8399SOL    HW126096   6.060   6.556   0.558
 8399SOL    HW226097   6.026   6.399   0.533
 8400SOL     OW26098   1.578   0.714   3.995
 8400SOL    HW126099   1.515   0.680   4.064
 8400SOL    HW226100   1.640   0.781   4.035
 8401SOL     OW26101   3.513   1.728   5.850
 8401SOL    HW126102   3.437   1.793   5.850
 8401SOL    HW226103   3.556   1.727   5.760
 8402SOL     OW26104   3.914   2.200   5.591
 8402SOL    HW126105   4.004   2.210   5.634
 8402SOL    HW226106   3.860   2.133   5.643
 8403SOL     OW26107   1.071   2.535   4.493
 8403SOL    HW126108   1.024   2.457   4.533
 8403SOL    HW226109   1.046   2.542   4.396
 8404SOL     OW26110   4.141   6.715   5.984
 8404SOL    HW126111   4.047   6.685   5.992
 8404SOL    HW226112   4.145   6.801   5.933
 8405SOL     OW26113   2.553   0.106   5.500
 8405SOL    HW126114   2.575   0.079   5.406
 8405SOL    HW226115   2.460   0.142   5.504
 8406SOL     OW26116   5.733   6.839   0.468
 8406SOL    HW126117   5.695   6.768   0.408
 8406SOL    HW226118   5.665   6.862   0.538
 8407SOL     OW26119   3.593   6.147   4.023
 8407SOL    HW126120   3.546   6.109   3.943
 8407SOL    HW226121   3.527   6.197   4.079
 8408SOL     OW26122   5.485   3.884   2.359
 8408SOL    HW126123   5.510   3.854   2.267
 8408SOL    HW226124   5.508   3.811   2.425
 8409SOL     OW26125   5.617   3.061   4.042
 8409SOL    HW126126   5.585   2.997   3.973
 8409SOL    HW226127   5.643   3.011   4.125
 8410SOL     OW26128   4.975   0.538   1.541
 8410SOL    HW126129   4.929   0.626   1.533
 8410SOL    HW226130   5.023   0.518   1.455
 8411SOL     OW26131   0.755   5.075   6.845
 8411SOL    HW126132   0.664   5.037   6.858
 8411SOL    HW226133   0.774   5.085   6.748
 8412SOL     OW26134   3.302   2.161   1.466
 8412SOL    HW126135   3.318   2.184   1.562
 8412SOL    HW226136   3.385   2.177   1.413
 8413SOL     OW26137   4.223   5.479   0.540
 8413SOL    HW126138   4.297   5.433   0.491
 8413SOL    HW226139   4.253   5.570   0.567
 8414SOL     OW26140   3.649   5.357   3.628
 8414SOL    HW126141   3.727   5.294   3.631
 8414SOL    HW226142   3.588   5.331   3.553
 8415SOL     OW26143   6.815   6.230   3.383
 8415SOL    HW126144   6.890   6.168   3.404
 8415SOL    HW226145   6.838   6.286   3.304
 8416SOL     OW26146   5.447   3.836   2.731
 8416SOL    HW126147   5.482   3.772   2.662
 8416SOL    HW226148   5.512   3.843   2.806
 8417SOL     OW26149   1.391   4.800   5.569
 8417SOL    HW126150   1.368   4.891   5.535
 8417SOL    HW226151   1.365   4.731   5.501
 8418SOL     OW26152   5.824   5.166   1.215
 8418SOL    HW126153   5.846   5.100   1.286
 8418SOL    HW226154   5.904   5.182   1.157
 8419SOL     OW26155   5.390   0.383   1.928
 8419SOL    HW126156   5.341   0.298   1.947
 8419SOL    HW226157   5.434   0.416   2.011
 8420SOL     OW26158   4.528   6.480   0.434
 8420SOL    HW126159   4.576   6.428   0.505
 8420SOL    HW226160   4.433   6.449   0.429
 8421SOL     OW26161   2.138   5.567   6.616
 8421SOL    HW126162   2.184   5.518   6.689
 8421SOL    HW226163   2.104   5.655   6.651
 8422SOL     OW26164   3.962   1.059   1.149
 8422SOL    HW126165   3.898   1.052   1.073
 8422SOL    HW226166   3.914   1.043   1.235
 8423SOL     OW26167   3.718   4.625   5.695
 8423SOL    HW126168   3.791   4.557   5.692
 8423SOL    HW226169   3.669   4.618   5.781
 8424SOL     OW26170   1.814   2.680   3.202
 8424SOL    HW126171   1.883   2.652   3.134
 8424SOL    HW226172   1.861   2.712   3.285
 8425SOL     OW26173   5.126   5.613   0.364
 8425SOL    HW126174   5.145   5.691   0.305
 8425SOL    HW226175   5.051   5.634   0.426
 8426SOL     OW26176   3.393   3.530   3.887
 8426SOL    HW126177   3.363   3.621   3.858
 8426SOL    HW226178   3.437   3.538   3.977
 8427SOL     OW26179   3.899   3.227   4.778
 8427SOL    HW126180   3.835   3.293   4.739
 8427SOL    HW226181   3.991   3.267   4.779
 8428SOL     OW26182   0.528   4.611   1.688
 8428SOL    HW126183   0.567   4.675   1.622
 8428SOL    HW226184   0.542   4.644   1.781
 8429SOL     OW26185   1.600   5.558   3.518
 8429SOL    HW126186   1.699   5.558   3.509
 8429SOL    HW226187   1.574   5.612   3.598
 8430SOL     OW26188   3.183   4.966   3.901
 8430SOL    HW126189   3.264   5.017   3.871
 8430SOL    HW226190   3.147   4.912   3.825
 8431SOL     OW26191   2.907   5.101   0.666
 8431SOL    HW126192   2.833   5.051   0.711
 8431SOL    HW226193   2.965   5.145   0.735
 8432SOL     OW26194   5.892   6.659   6.398
 8432SOL    HW126195   5.950   6.616   6.467
 8432SOL    HW226196   5.808   6.692   6.441
 8433SOL     OW26197   5.154   2.429   0.373
 8433SOL    HW126198   5.091   2.359   0.406
 8433SOL    HW226199   5.197   2.476   0.450
 8434SOL     OW26200   2.610   6.629   4.910
 8434SOL    HW126201   2.556   6.569   4.969
 8434SOL    HW226202   2.605   6.722   4.944
 8435SOL     OW26203   5.887   0.954   1.471
 8435SOL    HW126204   5.850   1.044   1.448
 8435SOL    HW226205   5.846   0.922   1.557
 8436SOL     OW26206   3.746   0.285   3.911
 8436SOL    HW126207   3.724   0.382   3.917
 8436SOL    HW226208   3.728   0.252   3.818
 8437SOL     OW26209   2.341   6.959   3.702
 8437SOL    HW126210   2.429   7.006   3.712
 8437SOL    HW226211   2.351   6.864   3.732
 8438SOL     OW26212   2.651   4.778   2.494
 8438SOL    HW126213   2.613   4.819   2.411
 8438SOL    HW226214   2.587   4.710   2.530
 8439SOL     OW26215   6.246   5.010   2.530
 8439SOL    HW126216   6.233   5.109   2.534
 8439SOL    HW226217   6.305   4.987   2.453
 8440SOL     OW26218   0.690   2.278   3.826
 8440SOL    HW126219   0.734   2.332   3.898
 8440SOL    HW226220   0.700   2.326   3.739
 8441SOL     OW26221   5.742   6.667   6.980
 8441SOL    HW126222   5.657   6.668   6.927
 8441SOL    HW226223   5.741   6.740   0.021
 8442SOL     OW26224   2.892   1.695   5.461
 8442SOL    HW126225   2.954   1.710   5.384
 8442SOL    HW226226   2.807   1.745   5.446
 8443SOL     OW26227   2.057   5.724   3.335
 8443SOL    HW126228   2.127   5.782   3.294
 8443SOL    HW226229   1.989   5.699   3.266
 8444SOL     OW26230   2.606   5.703   3.546
 8444SOL    HW126231   2.633   5.767   3.474
 8444SOL    HW226232   2.642   5.613   3.525
 8445SOL     OW26233   4.275   6.379   0.426
 8445SOL    HW126234   4.260   6.282   0.446
 8445SOL    HW226235   4.279   6.393   0.327
 8446SOL     OW26236   4.239   5.027   6.764
 8446SOL    HW126237   4.284   5.022   6.675
 8446SOL    HW226238   4.297   5.076   6.829
 8447SOL     OW26239   4.843   2.254   2.626
 8447SOL    HW126240   4.848   2.158   2.651
 8447SOL    HW226241   4.935   2.293   2.622
 8448SOL     OW26242   4.549   5.961   4.294
 8448SOL    HW126243   4.507   6.024   4.359
 8448SOL    HW226244   4.545   6.000   4.202
 8449SOL     OW26245   6.870   2.484   4.173
 8449SOL    HW126246   6.771   2.485   4.160
 8449SOL    HW226247   6.903   2.390   4.173
 8450SOL     OW26248   0.877   6.307   1.491
 8450SOL    HW126249   0.809   6.356   1.437
 8450SOL    HW226250   0.961   6.361   1.497
 8451SOL     OW26251   4.106   2.245   7.024
 8451SOL    HW126252   4.076   2.338   7.002
 8451SOL    HW226253   4.094   2.228   0.094
 8452SOL     OW26254   6.330   1.303   2.885
 8452SOL    HW126255   6.428   1.315   2.903
 8452SOL    HW226256   6.278   1.347   2.958
 8453SOL     OW26257   0.189   4.238   6.353
 8453SOL    HW126258   0.222   4.197   6.268
 8453SOL    HW226259   0.233   4.327   6.367
 8454SOL     OW26260   0.186   6.953   1.242
 8454SOL    HW126261   0.092   6.979   1.267
 8454SOL    HW226262   0.212   6.999   1.157
 8455SOL     OW26263   6.030   2.815   1.736
 8455SOL    HW126264   6.065   2.803   1.643
 8455SOL    HW226265   6.096   2.779   1.802
 8456SOL     OW26266   4.238   6.131   2.875
 8456SOL    HW126267   4.216   6.131   2.972
 8456SOL    HW226268   4.286   6.046   2.852
 8457SOL     OW26269   6.417   6.619   5.007
 8457SOL    HW126270   6.338   6.568   5.042
 8457SOL    HW226271   6.480   6.555   4.962
 8458SOL     OW26272   3.303   1.613   6.804
 8458SOL    HW126273   3.266   1.697   6.844
 8458SOL    HW226274   3.338   1.633   6.712
 8459SOL     OW26275   3.274   6.789   2.371
 8459SOL    HW126276   3.198   6.800   2.306
 8459SOL    HW226277   3.358   6.823   2.329
 8460SOL     OW26278   4.521   3.439   5.378
 8460SOL    HW126279   4.571   3.477   5.300
 8460SOL    HW226280   4.558   3.349   5.401
 8461SOL     OW26281   6.831   4.565   3.511
 8461SOL    HW126282   6.898   4.559   3.437
 8461SOL    HW226283   6.843   4.650   3.560
 8462SOL     OW26284   3.338   2.582   6.727
 8462SOL    HW126285   3.262   2.600   6.791
 8462SOL    HW226286   3.359   2.485   6.727
 8463SOL     OW26287   6.934   6.988   0.870
 8463SOL    HW126288   7.000   6.922   0.833
 8463SOL    HW226289   6.857   6.998   0.806
 8464SOL     OW26290   5.230   3.598   5.436
 8464SOL    HW126291   5.320   3.627   5.404
 8464SOL    HW226292   5.192   3.668   5.497
 8465SOL     OW26293   1.317   2.761   1.152
 8465SOL    HW126294   1.414   2.748   1.174
 8465SOL    HW226295   1.274   2.673   1.137
 8466SOL     OW26296   0.514   6.745   5.028
 8466SOL    HW126297   0.451   6.818   5.054
 8466SOL    HW226298   0.567   6.716   5.108
 8467SOL     OW26299   4.452   0.045   0.994
 8467SOL    HW126300   4.396   0.126   0.975
 8467SOL    HW226301   4.445   7.008   0.918
 8468SOL     OW26302   4.124   1.885   6.447
 8468SOL    HW126303   4.142   1.791   6.473
 8468SOL    HW226304   4.064   1.887   6.367
 8469SOL     OW26305   3.576   1.249   6.139
 8469SOL    HW126306   3.611   1.241   6.045
 8469SOL    HW226307   3.604   1.337   6.177
 8470SOL     OW26308   1.766   3.877   0.306
 8470SOL    HW126309   1.790   3.914   0.216
 8470SOL    HW226310   1.708   3.796   0.295
 8471SOL     OW26311   3.619   0.877   3.809
 8471SOL    HW126312   3.678   0.955   3.787
 8471SOL    HW226313   3.618   0.864   3.908
 8472SOL     OW26314   6.849   0.541   5.210
 8472SOL    HW126315   6.789   0.503   5.281
 8472SOL    HW226316   6.795   0.569   5.131
 8473SOL     OW26317   6.659   6.505   0.554
 8473SOL    HW126318   6.738   6.551   0.594
 8473SOL    HW226319   6.590   6.574   0.529
 8474SOL     OW26320   3.492   3.269   1.896
 8474SOL    HW126321   3.525   3.199   1.959
 8474SOL    HW226322   3.565   3.293   1.832
 8475SOL     OW26323   6.612   2.435   4.035
 8475SOL    HW126324   6.555   2.493   3.977
 8475SOL    HW226325   6.577   2.436   4.129
 8476SOL     OW26326   6.591   2.177   0.952
 8476SOL    HW126327   6.537   2.245   1.003
 8476SOL    HW226328   6.670   2.150   1.007
 8477SOL     OW26329   4.939   6.634   1.384
 8477SOL    HW126330   4.955   6.609   1.480
 8477SOL    HW226331   4.842   6.657   1.372
 8478SOL     OW26332   1.778   0.011   6.205
 8478SOL    HW126333   1.726   6.953   6.208
 8478SOL    HW226334   1.715   0.088   6.191
 8479SOL     OW26335   0.799   2.960   0.931
 8479SOL    HW126336   0.863   2.884   0.920
 8479SOL    HW226337   0.715   2.928   0.974
 8480SOL     OW26338   4.258   1.766   0.036
 8480SOL    HW126339   4.225   1.845   7.011
 8480SOL    HW226340   4.302   1.701   7.002
 8481SOL     OW26341   4.491   2.491   4.726
 8481SOL    HW126342   4.588   2.479   4.747
 8481SOL    HW226343   4.480   2.565   4.659
 8482SOL     OW26344   4.302   6.099   1.842
 8482SOL    HW126345   4.290   6.116   1.744
 8482SOL    HW226346   4.332   6.183   1.888
 8483SOL     OW26347   4.587   6.477   2.234
 8483SOL    HW126348   4.599   6.409   2.306
 8483SOL    HW226349   4.522   6.547   2.264
 8484SOL     OW26350   0.205   6.440   3.576
 8484SOL    HW126351   0.227   6.520   3.520
 8484SOL    HW226352   0.287   6.408   3.622
 8485SOL     OW26353   4.018   2.596   0.133
 8485SOL    HW126354   4.059   2.687   0.136
 8485SOL    HW226355   4.085   2.529   0.163
 8486SOL     OW26356   2.985   1.982   2.695
 8486SOL    HW126357   2.989   1.888   2.663
 8486SOL    HW226358   3.002   2.044   2.619
 8487SOL     OW26359   5.908   1.155   5.750
 8487SOL    HW126360   5.849   1.181   5.826
 8487SOL    HW226361   5.882   1.063   5.718
 8488SOL     OW26362   5.180   5.934   0.390
 8488SOL    HW126363   5.249   6.002   0.365
 8488SOL    HW226364   5.218   5.871   0.458
 8489SOL     OW26365   6.264   2.028   1.004
 8489SOL    HW126366   6.320   2.057   1.081
 8489SOL    HW226367   6.188   2.091   0.993
 8490SOL     OW26368   4.681   6.521   3.886
 8490SOL    HW126369   4.665   6.436   3.836
 8490SOL    HW226370   4.780   6.538   3.891
 8491SOL     OW26371   3.011   6.061   1.357
 8491SOL    HW126372   2.956   6.032   1.435
 8491SOL    HW226373   2.956   6.054   1.274
 8492SOL     OW26374   4.366   3.788   5.459
 8492SOL    HW126375   4.351   3.822   5.552
 8492SOL    HW226376   4.457   3.748   5.452
 8493SOL     OW26377   2.152   2.947   6.443
 8493SOL    HW126378   2.104   3.012   6.385
 8493SOL    HW226379   2.239   2.923   6.400
 8494SOL     OW26380   3.678   5.486   1.740
 8494SOL    HW126381   3.749   5.532   1.794
 8494SOL    HW226382   3.591   5.490   1.789
 8495SOL     OW26383   5.649   5.244   2.690
 8495SOL    HW126384   5.732   5.239   2.745
 8495SOL    HW226385   5.604   5.155   2.689
 8496SOL     OW26386   1.216   2.813   1.408
 8496SOL    HW126387   1.231   2.798   1.310
 8496SOL    HW226388   1.283   2.761   1.461
 8497SOL     OW26389   6.616   0.873   3.559
 8497SOL    HW126390   6.703   0.857   3.604
 8497SOL    HW226391   6.627   0.860   3.460
 8498SOL     OW26392   6.610   0.011   3.096
 8498SOL    HW126393   6.582   6.943   3.111
 8498SOL    HW226394   6.654   0.047   3.178
 8499SOL     OW26395   1.742   4.645   6.665
 8499SOL    HW126396   1.668   4.658   6.599
 8499SOL    HW226397   1.780   4.553   6.655
 8500SOL     OW26398   2.012   6.029   5.558
 8500SOL    HW126399   1.988   6.125   5.544
 8500SOL    HW226400   1.983   6.000   5.649
 8501SOL     OW26401   0.340   2.324   0.008
 8501SOL    HW126402   0.245   2.347   7.014
 8501SOL    HW226403   0.354   2.326   0.107
 8502SOL     OW26404   1.313   3.535   1.376
 8502SOL    HW126405   1.396   3.494   1.339
 8502SOL    HW226406   1.234   3.499   1.327
 8503SOL     OW26407   1.364   6.310   4.005
 8503SOL    HW126408   1.301   6.275   4.075
 8503SOL    HW226409   1.438   6.361   4.050
 8504SOL     OW26410   2.656   4.924   2.054
 8504SOL    HW126411   2.748   4.913   2.017
 8504SOL    HW226412   2.591   4.936   1.980
 8505SOL     OW26413   5.280   3.460   3.874
 8505SOL    HW126414   5.257   3.365   3.893
 8505SOL    HW226415   5.312   3.469   3.780
 8506SOL     OW26416   6.968   0.786   6.795
 8506SOL    HW126417   6.955   0.710   6.731
 8506SOL    HW226418   6.878   0.826   6.817
 8507SOL     OW26419   3.803   0.861   5.626
 8507SOL    HW126420   3.774   0.774   5.586
 8507SOL    HW226421   3.902   0.861   5.639
 8508SOL     OW26422   6.153   1.613   4.980
 8508SOL    HW126423   6.155   1.709   5.008
 8508SOL    HW226424   6.247   1.579   4.971
 8509SOL     OW26425   4.854   1.683   4.423
 8509SOL    HW126426   4.942   1.707   4.462
 8509SOL    HW226427   4.840   1.584   4.429
 8510SOL     OW26428   6.046   4.502   2.584
 8510SOL    HW126429   6.047   4.601   2.573
 8510SOL    HW226430   6.131   4.463   2.548
 8511SOL     OW26431   5.853   3.332   2.400
 8511SOL    HW126432   5.942   3.336   2.356
 8511SOL    HW226433   5.838   3.241   2.438
 8512SOL     OW26434   3.261   1.972   1.985
 8512SOL    HW126435   3.165   1.964   2.012
 8512SOL    HW226436   3.317   1.991   2.067
 8513SOL     OW26437   5.857   4.409   0.911
 8513SOL    HW126438   5.941   4.461   0.922
 8513SOL    HW226439   5.862   4.354   0.828
 8514SOL     OW26440   2.715   2.428   3.866
 8514SOL    HW126441   2.710   2.422   3.966
 8514SOL    HW226442   2.737   2.522   3.840
 8515SOL     OW26443   5.315   2.195   0.710
 8515SOL    HW126444   5.285   2.142   0.631
 8515SOL    HW226445   5.296   2.143   0.794
 8516SOL     OW26446   5.579   2.209   1.903
 8516SOL    HW126447   5.662   2.239   1.855
 8516SOL    HW226448   5.604   2.145   1.975
 8517SOL     OW26449   1.413   2.547   6.291
 8517SOL    HW126450   1.452   2.628   6.246
 8517SOL    HW226451   1.486   2.494   6.334
 8518SOL     OW26452   4.360   4.215   0.055
 8518SOL    HW126453   4.320   4.257   7.001
 8518SOL    HW226454   4.288   4.176   0.112
 8519SOL     OW26455   1.488   4.122   1.986
 8519SOL    HW126456   1.426   4.052   1.949
 8519SOL    HW226457   1.534   4.169   1.911
 8520SOL     OW26458   3.333   2.509   0.170
 8520SOL    HW126459   3.388   2.592   0.175
 8520SOL    HW226460   3.308   2.479   0.262
 8521SOL     OW26461   2.232   5.096   6.393
 8521SOL    HW126462   2.171   5.032   6.439
 8521SOL    HW226463   2.326   5.066   6.404
 8522SOL     OW26464   1.355   6.429   1.236
 8522SOL    HW126465   1.299   6.452   1.316
 8522SOL    HW226466   1.383   6.333   1.241
 8523SOL     OW26467   2.239   6.658   6.482
 8523SOL    HW126468   2.310   6.729   6.487
 8523SOL    HW226469   2.228   6.615   6.571
 8524SOL     OW26470   0.384   2.320   5.044
 8524SOL    HW126471   0.313   2.252   5.024
 8524SOL    HW226472   0.408   2.315   5.141
 8525SOL     OW26473   6.423   4.155   3.332
 8525SOL    HW126474   6.427   4.230   3.399
 8525SOL    HW226475   6.455   4.071   3.375
 8526SOL     OW26476   3.834   5.731   0.219
 8526SOL    HW126477   3.850   5.760   0.125
 8526SOL    HW226478   3.908   5.670   0.248
 8527SOL     OW26479   2.939   0.430   6.185
 8527SOL    HW126480   2.899   0.518   6.210
 8527SOL    HW226481   2.983   0.390   6.265
 8528SOL     OW26482   4.022   2.199   6.029
 8528SOL    HW126483   4.095   2.198   6.098
 8528SOL    HW226484   3.973   2.286   6.034
 8529SOL     OW26485   0.196   0.263   1.430
 8529SOL    HW126486   0.251   0.336   1.471
 8529SOL    HW226487   0.135   0.303   1.362
 8530SOL     OW26488   3.345   3.307   5.169
 8530SOL    HW126489   3.386   3.235   5.225
 8530SOL    HW226490   3.401   3.390   5.175
 8531SOL     OW26491   6.447   5.248   2.575
 8531SOL    HW126492   6.475   5.171   2.519
 8531SOL    HW226493   6.427   5.217   2.668
 8532SOL     OW26494   4.091   5.211   4.555
 8532SOL    HW126495   4.017   5.150   4.586
 8532SOL    HW226496   4.170   5.200   4.615
 8533SOL     OW26497   1.829   6.973   5.304
 8533SOL    HW126498   1.783   7.022   5.378
 8533SOL    HW226499   1.779   6.987   5.219
 8534SOL     OW26500   6.327   2.965   4.041
 8534SOL    HW126501   6.266   3.044   4.041
 8534SOL    HW226502   6.324   2.921   4.131
 8535SOL     OW26503   6.808   1.560   4.800
 8535SOL    HW126504   6.733   1.540   4.736
 8535SOL    HW226505   6.896   1.551   4.752
 8536SOL     OW26506   5.909   1.968   4.555
 8536SOL    HW126507   5.882   2.058   4.589
 8536SOL    HW226508   6.008   1.963   4.548
 8537SOL     OW26509   5.585   1.848   1.921
 8537SOL    HW126510   5.676   1.884   1.941
 8537SOL    HW226511   5.519   1.924   1.921
 8538SOL     OW26512   0.760   1.393   6.307
 8538SOL    HW126513   0.789   1.361   6.217
 8538SOL    HW226514   0.732   1.489   6.301
 8539SOL     OW26515   5.862   1.031   2.092
 8539SOL    HW126516   5.927   0.960   2.118
 8539SOL    HW226517   5.785   0.989   2.042
 8540SOL     OW26518   4.983   1.388   6.930
 8540SOL    HW126519   4.906   1.440   6.969
 8540SOL    HW226520   5.039   1.351   7.004
 8541SOL     OW26521   2.661   2.346   4.503
 8541SOL    HW126522   2.595   2.419   4.480
 8541SOL    HW226523   2.689   2.355   4.598
 8542SOL     OW26524   2.742   4.574   6.801
 8542SOL    HW126525   2.658   4.520   6.791
 8542SOL    HW226526   2.718   4.669   6.821
 8543SOL     OW26527   3.307   0.889   0.103
 8543SOL    HW126528   3.270   0.962   0.046
 8543SOL    HW226529   3.368   0.929   0.172
 8544SOL     OW26530   5.648   2.980   4.618
 8544SOL    HW126531   5.676   3.027   4.702
 8544SOL    HW226532   5.711   3.005   4.544
 8545SOL     OW26533   4.766   6.711   4.119
 8545SOL    HW126534   4.700   6.773   4.076
 8545SOL    HW226535   4.766   6.624   4.070
 8546SOL     OW26536   0.381   0.304   3.288
 8546SOL    HW126537   0.388   0.323   3.190
 8546SOL    HW226538   0.467   0.328   3.333
 8547SOL     OW26539   1.428   6.657   6.395
 8547SOL    HW126540   1.461   6.737   6.345
 8547SOL    HW226541   1.348   6.682   6.450
 8548SOL     OW26542   6.724   3.322   5.819
 8548SOL    HW126543   6.688   3.406   5.779
 8548SOL    HW226544   6.816   3.305   5.784
 8549SOL     OW26545   1.508   3.164   4.985
 8549SOL    HW126546   1.479   3.068   4.992
 8549SOL    HW226547   1.583   3.171   4.919
 8550SOL     OW26548   1.855   5.219   6.621
 8550SOL    HW126549   1.853   5.119   6.620
 8550SOL    HW226550   1.862   5.251   6.715
 8551SOL     OW26551   2.257   3.429   6.499
 8551SOL    HW126552   2.312   3.370   6.440
 8551SOL    HW226553   2.231   3.511   6.448
 8552SOL     OW26554   2.196   0.027   2.921
 8552SOL    HW126555   2.163   0.121   2.929
 8552SOL    HW226556   2.261   0.008   2.995
 8553SOL     OW26557   4.480   4.527   6.815
 8553SOL    HW126558   4.442   4.619   6.808
 8553SOL    HW226559   4.544   4.511   6.740
 8554SOL     OW26560   0.530   4.858   0.913
 8554SOL    HW126561   0.606   4.856   0.849
 8554SOL    HW226562   0.480   4.944   0.903
 8555SOL     OW26563   2.517   1.049   3.983
 8555SOL    HW126564   2.589   1.023   4.047
 8555SOL    HW226565   2.548   1.034   3.889
 8556SOL     OW26566   1.583   5.895   5.266
 8556SOL    HW126567   1.551   5.813   5.312
 8556SOL    HW226568   1.681   5.905   5.280
 8557SOL     OW26569   6.713   6.920   2.472
 8557SOL    HW126570   6.765   6.995   2.514
 8557SOL    HW226571   6.660   6.873   2.542
 8558SOL     OW26572   2.154   4.732   3.078
 8558SOL    HW126573   2.126   4.690   2.991
 8558SOL    HW226574   2.233   4.791   3.062
 8559SOL     OW26575   1.660   0.646   2.541
 8559SOL    HW126576   1.644   0.661   2.444
 8559SOL    HW226577   1.577   0.609   2.583
 8560SOL     OW26578   0.022   6.587   1.610
 8560SOL    HW126579   7.009   6.622   1.695
 8560SOL    HW226580   0.118   6.566   1.624
 8561SOL     OW26581   3.283   0.889   2.725
 8561SOL    HW126582   3.231   0.921   2.646
 8561SOL    HW226583   3.358   0.830   2.694
 8562SOL     OW26584   4.076   6.346   6.177
 8562SOL    HW126585   4.058   6.441   6.154
 8562SOL    HW226586   4.036   6.287   6.107
 8563SOL     OW26587   1.292   4.535   1.144
 8563SOL    HW126588   1.225   4.604   1.115
 8563SOL    HW226589   1.295   4.461   1.077
 8564SOL     OW26590   3.046   0.447   5.416
 8564SOL    HW126591   2.972   0.514   5.425
 8564SOL    HW226592   3.008   0.358   5.392
 8565SOL     OW26593   3.412   5.701   1.067
 8565SOL    HW126594   3.342   5.635   1.041
 8565SOL    HW226595   3.470   5.661   1.138
 8566SOL     OW26596   1.038   6.848   1.536
 8566SOL    HW126597   1.021   6.945   1.517
 8566SOL    HW226598   1.076   6.804   1.455
 8567SOL     OW26599   0.591   2.121   3.641
 8567SOL    HW126600   0.642   2.177   3.707
 8567SOL    HW226601   0.551   2.180   3.571
 8568SOL     OW26602   5.822   1.295   6.844
 8568SOL    HW126603   5.751   1.258   6.904
 8568SOL    HW226604   5.867   1.219   6.796
 8569SOL     OW26605   4.467   0.919   6.110
 8569SOL    HW126606   4.508   0.858   6.177
 8569SOL    HW226607   4.419   0.866   6.040
 8570SOL     OW26608   1.696   1.652   4.657
 8570SOL    HW126609   1.604   1.633   4.624
 8570SOL    HW226610   1.696   1.735   4.712
 8571SOL     OW26611   0.456   5.676   4.989
 8571SOL    HW126612   0.511   5.759   4.998
 8571SOL    HW226613   0.375   5.684   5.047
 8572SOL     OW26614   3.042   5.131   6.643
 8572SOL    HW126615   3.132   5.102   6.610
 8572SOL    HW226616   3.054   5.199   6.716
 8573SOL     OW26617   3.636   5.992   6.508
 8573SOL    HW126618   3.687   6.012   6.424
 8573SOL    HW226619   3.563   5.927   6.488
 8574SOL     OW26620   0.255   6.153   6.373
 8574SOL    HW126621   0.342   6.191   6.402
 8574SOL    HW226622   0.182   6.187   6.433
 8575SOL     OW26623   2.131   2.743   4.054
 8575SOL    HW126624   2.186   2.721   4.135
 8575SOL    HW226625   2.192   2.771   3.980
 8576SOL     OW26626   1.367   4.427   5.823
 8576SOL    HW126627   1.420   4.343   5.834
 8576SOL    HW226628   1.300   4.435   5.897
 8577SOL     OW26629   1.214   6.542   4.439
 8577SOL    HW126630   1.228   6.566   4.535
 8577SOL    HW226631   1.300   6.551   4.389
 8578SOL     OW26632   5.959   6.567   3.951
 8578SOL    HW126633   5.954   6.492   4.017
 8578SOL    HW226634   5.977   6.653   3.999
 8579SOL     OW26635   2.237   0.615   1.942
 8579SOL    HW126636   2.229   0.708   1.979
 8579SOL    HW226637   2.172   0.555   1.988
 8580SOL     OW26638   2.298   6.084   1.351
 8580SOL    HW126639   2.253   6.044   1.272
 8580SOL    HW226640   2.343   6.012   1.404
 8581SOL     OW26641   3.412   3.931   1.151
 8581SOL    HW126642   3.357   3.867   1.204
 8581SOL    HW226643   3.504   3.894   1.139
 8582SOL     OW26644   4.733   4.250   4.525
 8582SOL    HW126645   4.653   4.257   4.584
 8582SOL    HW226646   4.751   4.339   4.483
 8583SOL     OW26647   5.024   0.543   4.170
 8583SOL    HW126648   5.100   0.599   4.201
 8583SOL    HW226649   5.041   0.447   4.193
 8584SOL     OW26650   0.545   5.168   6.362
 8584SOL    HW126651   0.555   5.080   6.409
 8584SOL    HW226652   0.449   5.181   6.336
 8585SOL     OW26653   0.176   6.694   6.052
 8585SOL    HW126654   0.250   6.660   6.110
 8585SOL    HW226655   0.209   6.772   5.999
 8586SOL     OW26656   3.177   6.856   2.106
 8586SOL    HW126657   3.172   6.955   2.095
 8586SOL    HW226658   3.202   6.814   2.019
 8587SOL     OW26659   1.193   0.566   4.074
 8587SOL    HW126660   1.205   0.643   4.011
 8587SOL    HW226661   1.199   0.481   4.023
 8588SOL     OW26662   3.061   0.541   0.396
 8588SOL    HW126663   3.029   0.486   0.474
 8588SOL    HW226664   2.989   0.545   0.327
 8589SOL     OW26665   5.397   2.723   5.502
 8589SOL    HW126666   5.428   2.670   5.580
 8589SOL    HW226667   5.417   2.820   5.517
 8590SOL     OW26668   6.966   6.603   3.289
 8590SOL    HW126669   6.883   6.608   3.233
 8590SOL    HW226670   6.959   6.669   3.365
 8591SOL     OW26671   0.269   4.092   0.469
 8591SOL    HW126672   0.345   4.089   0.405
 8591SOL    HW226673   0.276   4.015   0.533
 8592SOL     OW26674   6.691   2.662   6.828
 8592SOL    HW126675   6.621   2.688   6.761
 8592SOL    HW226676   6.701   2.563   6.829
 8593SOL     OW26677   2.006   2.237   0.423
 8593SOL    HW126678   2.045   2.222   0.333
 8593SOL    HW226679   2.051   2.178   0.489
 8594SOL     OW26680   4.461   2.519   5.001
 8594SOL    HW126681   4.529   2.587   5.027
 8594SOL    HW226682   4.459   2.510   4.901
 8595SOL     OW26683   0.418   2.008   3.870
 8595SOL    HW126684   0.473   2.058   3.802
 8595SOL    HW226685   0.355   1.947   3.823
 8596SOL     OW26686   1.248   5.096   2.941
 8596SOL    HW126687   1.177   5.167   2.944
 8596SOL    HW226688   1.220   5.024   2.876
 8597SOL     OW26689   4.588   1.869   0.812
 8597SOL    HW126690   4.669   1.811   0.822
 8597SOL    HW226691   4.562   1.905   0.902
 8598SOL     OW26692   5.945   0.039   0.325
 8598SOL    HW126693   5.904   0.044   0.416
 8598SOL    HW226694   6.014   6.993   0.324
 8599SOL     OW26695   1.790   2.637   4.589
 8599SOL    HW126696   1.730   2.562   4.617
 8599SOL    HW226697   1.808   2.629   4.491
 8600SOL     OW26698   5.226   4.621   5.743
 8600SOL    HW126699   5.268   4.704   5.780
 8600SOL    HW226700   5.291   4.545   5.748
 8601SOL     OW26701   1.420   1.664   4.546
 8601SOL    HW126702   1.323   1.641   4.541
 8601SOL    HW226703   1.465   1.637   4.460
 8602SOL     OW26704   3.230   5.940   2.255
 8602SOL    HW126705   3.223   5.864   2.319
 8602SOL    HW226706   3.147   5.996   2.261
 8603SOL     OW26707   4.425   5.835   1.079
 8603SOL    HW126708   4.424   5.816   1.178
 8603SOL    HW226709   4.444   5.750   1.030
 8604SOL     OW26710   0.208   3.163   5.183
 8604SOL    HW126711   0.206   3.078   5.130
 8604SOL    HW226712   0.249   3.145   5.272
 8605SOL     OW26713   2.254   5.680   4.402
 8605SOL    HW126714   2.157   5.660   4.392
 8605SOL    HW226715   2.270   5.724   4.490
 8606SOL     OW26716   1.726   3.264   6.279
 8606SOL    HW126717   1.692   3.288   6.370
 8606SOL    HW226718   1.802   3.200   6.287
 8607SOL     OW26719   3.421   5.494   0.395
 8607SOL    HW126720   3.358   5.426   0.433
 8607SOL    HW226721   3.486   5.523   0.466
 8608SOL     OW26722   3.001   4.899   2.640
 8608SOL    HW126723   2.933   4.971   2.656
 8608SOL    HW226724   3.014   4.846   2.723
 8609SOL     OW26725   5.315   1.068   2.760
 8609SOL    HW126726   5.223   1.107   2.763
 8609SOL    HW226727   5.376   1.130   2.710
 8610SOL     OW26728   1.325   2.144   2.805
 8610SOL    HW126729   1.314   2.233   2.759
 8610SOL    HW226730   1.399   2.093   2.761
 8611SOL     OW26731   3.012   1.711   4.443
 8611SOL    HW126732   3.079   1.671   4.381
 8611SOL    HW226733   2.979   1.797   4.404
 8612SOL     OW26734   2.675   3.418   0.671
 8612SOL    HW126735   2.590   3.469   0.658
 8612SOL    HW226736   2.657   3.338   0.729
 8613SOL     OW26737   2.936   1.962   1.196
 8613SOL    HW126738   2.859   1.987   1.254
 8613SOL    HW226739   3.022   1.986   1.242
 8614SOL     OW26740   1.002   2.984   3.014
 8614SOL    HW126741   0.993   3.034   3.100
 8614SOL    HW226742   0.995   3.048   2.937
 8615SOL     OW26743   4.144   1.097   4.857
 8615SOL    HW126744   4.205   1.047   4.918
 8615SOL    HW226745   4.160   1.066   4.763
 8616SOL     OW26746   3.100   4.620   1.692
 8616SOL    HW126747   3.025   4.583   1.748
 8616SOL    HW226748   3.156   4.681   1.749
 8617SOL     OW26749   6.171   1.566   6.148
 8617SOL    HW126750   6.259   1.586   6.190
 8617SOL    HW226751   6.098   1.598   6.208
 8618SOL     OW26752   6.277   4.708   0.750
 8618SOL    HW126753   6.346   4.719   0.679
 8618SOL    HW226754   6.236   4.617   0.743
 8619SOL     OW26755   3.703   4.927   2.245
 8619SOL    HW126756   3.702   4.874   2.160
 8619SOL    HW226757   3.611   4.926   2.285
 8620SOL     OW26758   1.292   0.165   3.399
 8620SOL    HW126759   1.266   0.069   3.398
 8620SOL    HW226760   1.392   0.172   3.410
 8621SOL     OW26761   5.302   1.939   3.483
 8621SOL    HW126762   5.223   1.974   3.432
 8621SOL    HW226763   5.356   2.015   3.517
 8622SOL     OW26764   5.758   3.333   0.943
 8622SOL    HW126765   5.771   3.341   0.844
 8622SOL    HW226766   5.833   3.379   0.990
 8623SOL     OW26767   0.442   3.943   4.228
 8623SOL    HW126768   0.398   3.984   4.147
 8623SOL    HW226769   0.475   4.016   4.288
 8624SOL     OW26770   1.749   3.892   4.941
 8624SOL    HW126771   1.694   3.943   5.007
 8624SOL    HW226772   1.840   3.933   4.936
 8625SOL     OW26773   4.542   0.526   6.400
 8625SOL    HW126774   4.458   0.563   6.360
 8625SOL    HW226775   4.523   0.439   6.445
 8626SOL     OW26776   3.302   3.020   6.131
 8626SOL    HW126777   3.394   2.995   6.103
 8626SOL    HW226778   3.285   2.985   6.223
 8627SOL     OW26779   1.177   1.790   3.369
 8627SOL    HW126780   1.207   1.806   3.274
 8627SOL    HW226781   1.169   1.878   3.416
 8628SOL     OW26782   6.318   6.468   1.363
 8628SOL    HW126783   6.266   6.418   1.294
 8628SOL    HW226784   6.348   6.556   1.326
 8629SOL     OW26785   1.610   5.413   4.919
 8629SOL    HW126786   1.551   5.392   4.996
 8629SOL    HW226787   1.703   5.429   4.951
 8630SOL     OW26788   5.434   4.535   4.074
 8630SOL    HW126789   5.377   4.523   3.993
 8630SOL    HW226790   5.489   4.453   4.090
 8631SOL     OW26791   0.457   4.853   6.196
 8631SOL    HW126792   0.491   4.763   6.223
 8631SOL    HW226793   0.525   4.899   6.139
 8632SOL     OW26794   4.254   5.137   4.755
 8632SOL    HW126795   4.201   5.054   4.738
 8632SOL    HW226796   4.292   5.135   4.848
 8633SOL     OW26797   5.679   1.750   5.811
 8633SOL    HW126798   5.609   1.688   5.776
 8633SOL    HW226799   5.640   1.808   5.883
 8634SOL     OW26800   4.577   3.193   0.112
 8634SOL    HW126801   4.648   3.145   0.061
 8634SOL    HW226802   4.594   3.184   0.210
 8635SOL     OW26803   5.260   3.212   6.538
 8635SOL    HW126804   5.331   3.185   6.603
 8635SOL    HW226805   5.285   3.299   6.496
 8636SOL     OW26806   5.899   5.791   0.819
 8636SOL    HW126807   5.826   5.770   0.884
 8636SOL    HW226808   5.897   5.889   0.798
 8637SOL     OW26809   2.304   1.241   6.774
 8637SOL    HW126810   2.320   1.324   6.826
 8637SOL    HW226811   2.386   1.184   6.776
 8638SOL     OW26812   3.439   2.236   5.335
 8638SOL    HW126813   3.501   2.185   5.275
 8638SOL    HW226814   3.366   2.276   5.280
 8639SOL     OW26815   5.233   2.537   0.127
 8639SOL    HW126816   5.261   2.632   0.142
 8639SOL    HW226817   5.192   2.501   0.210
 8640SOL     OW26818   4.203   3.697   6.560
 8640SOL    HW126819   4.245   3.712   6.649
 8640SOL    HW226820   4.109   3.666   6.572
 8641SOL     OW26821   4.671   4.839   3.685
 8641SOL    HW126822   4.770   4.826   3.679
 8641SOL    HW226823   4.625   4.749   3.682
 8642SOL     OW26824   1.466   6.042   3.323
 8642SOL    HW126825   1.471   6.141   3.309
 8642SOL    HW226826   1.555   6.009   3.354
 8643SOL     OW26827   2.461   0.175   6.962
 8643SOL    HW126828   2.542   0.118   6.978
 8643SOL    HW226829   2.486   0.253   6.904
 8644SOL     OW26830   5.198   2.765   5.302
 8644SOL    HW126831   5.240   2.737   5.388
 8644SOL    HW226832   5.263   2.752   5.227
 8645SOL     OW26833   4.271   4.029   1.393
 8645SOL    HW126834   4.187   3.976   1.383
 8645SOL    HW226835   4.256   4.121   1.358
 8646SOL     OW26836   6.880   1.878   0.936
 8646SOL    HW126837   6.946   1.905   0.866
 8646SOL    HW226838   6.928   1.840   1.015
 8647SOL     OW26839   2.841   5.470   6.567
 8647SOL    HW126840   2.854   5.474   6.666
 8647SOL    HW226841   2.749   5.439   6.546
 8648SOL     OW26842   6.654   0.494   2.574
 8648SOL    HW126843   6.706   0.461   2.652
 8648SOL    HW226844   6.583   0.557   2.605
 8649SOL     OW26845   5.553   5.548   6.033
 8649SOL    HW126846   5.501   5.517   6.113
 8649SOL    HW226847   5.609   5.627   6.058
 8650SOL     OW26848   2.264   5.040   4.331
 8650SOL    HW126849   2.262   5.032   4.431
 8650SOL    HW226850   2.344   4.992   4.295
 8651SOL     OW26851   4.643   0.643   6.993
 8651SOL    HW126852   4.697   0.567   0.001
 8651SOL    HW226853   4.546   0.627   7.013
 8652SOL     OW26854   2.016   4.976   3.431
 8652SOL    HW126855   1.987   4.886   3.398
 8652SOL    HW226856   2.107   4.969   3.472
 8653SOL     OW26857   6.182   0.506   6.301
 8653SOL    HW126858   6.206   0.603   6.303
 8653SOL    HW226859   6.135   0.485   6.216
 8654SOL     OW26860   1.364   4.724   2.106
 8654SOL    HW126861   1.323   4.808   2.143
 8654SOL    HW226862   1.394   4.739   2.012
 8655SOL     OW26863   6.737   1.025   4.283
 8655SOL    HW126864   6.835   1.004   4.289
 8655SOL    HW226865   6.691   0.999   4.368
 8656SOL     OW26866   6.992   0.132   1.101
 8656SOL    HW126867   6.986   0.060   1.032
 8656SOL    HW226868   6.978   0.092   1.192
 8657SOL     OW26869   4.984   4.834   6.944
 8657SOL    HW126870   5.064   4.808   6.997
 8657SOL    HW226871   4.902   4.793   6.984
 8658SOL     OW26872   6.136   6.103   0.562
 8658SOL    HW126873   6.182   6.130   0.647
 8658SOL    HW226874   6.203   6.074   0.495
 8659SOL     OW26875   4.674   2.247   2.384
 8659SOL    HW126876   4.730   2.265   2.464
 8659SOL    HW226877   4.724   2.275   2.302
 8660SOL     OW26878   6.648   4.014   1.913
 8660SOL    HW126879   6.598   4.100   1.925
 8660SOL    HW226880   6.585   3.943   1.883
 8661SOL     OW26881   6.142   4.073   1.363
 8661SOL    HW126882   6.098   4.092   1.451
 8661SOL    HW226883   6.122   4.148   1.299
 8662SOL     OW26884   4.442   5.796   1.343
 8662SOL    HW126885   4.474   5.823   1.434
 8662SOL    HW226886   4.343   5.782   1.345
 8663SOL     OW26887   2.681   5.960   1.989
 8663SOL    HW126888   2.641   5.972   1.898
 8663SOL    HW226889   2.639   5.881   2.034
 8664SOL     OW26890   1.850   6.537   1.265
 8664SOL    HW126891   1.905   6.520   1.183
 8664SOL    HW226892   1.834   6.635   1.275
 8665SOL     OW26893   5.648   5.719   5.151
 8665SOL    HW126894   5.669   5.629   5.112
 8665SOL    HW226895   5.575   5.762   5.097
 8666SOL     OW26896   5.837   1.403   3.859
 8666SOL    HW126897   5.757   1.407   3.918
 8666SOL    HW226898   5.812   1.364   3.771
 8667SOL     OW26899   3.997   2.193   3.292
 8667SOL    HW126900   3.903   2.186   3.258
 8667SOL    HW226901   3.997   2.182   3.391
 8668SOL     OW26902   4.931   3.344   3.583
 8668SOL    HW126903   4.919   3.402   3.664
 8668SOL    HW226904   4.885   3.257   3.597
 8669SOL     OW26905   1.578   6.622   6.059
 8669SOL    HW126906   1.586   6.526   6.088
 8669SOL    HW226907   1.623   6.634   5.970
 8670SOL     OW26908   3.854   5.042   5.434
 8670SOL    HW126909   3.852   5.130   5.387
 8670SOL    HW226910   3.770   4.992   5.413
 8671SOL     OW26911   5.569   1.661   2.828
 8671SOL    HW126912   5.551   1.570   2.792
 8671SOL    HW226913   5.643   1.704   2.776
 8672SOL     OW26914   0.980   5.511   4.092
 8672SOL    HW126915   0.938   5.491   4.004
 8672SOL    HW226916   0.944   5.598   4.126
 8673SOL     OW26917   5.304   2.818   0.195
 8673SOL    HW126918   5.276   2.893   0.254
 8673SOL    HW226919   5.342   2.854   0.110
 8674SOL     OW26920   4.865   6.108   2.903
 8674SOL    HW126921   4.854   6.135   2.999
 8674SOL    HW226922   4.840   6.012   2.892
 8675SOL     OW26923   3.769   2.109   4.539
 8675SOL    HW126924   3.850   2.167   4.533
 8675SOL    HW226925   3.704   2.147   4.605
 8676SOL     OW26926   5.332   0.296   2.837
 8676SOL    HW126927   5.329   0.372   2.772
 8676SOL    HW226928   5.247   0.295   2.891
 8677SOL     OW26929   2.228   5.264   5.916
 8677SOL    HW126930   2.316   5.309   5.929
 8677SOL    HW226931   2.190   5.240   6.006
 8678SOL     OW26932   0.234   0.140   2.352
 8678SOL    HW126933   0.304   0.196   2.307
 8678SOL    HW226934   0.258   0.127   2.448
 8679SOL     OW26935   0.392   2.132   3.323
 8679SOL    HW126936   0.416   2.182   3.406
 8679SOL    HW226937   0.341   2.192   3.261
 8680SOL     OW26938   0.522   3.417   6.954
 8680SOL    HW126939   0.501   3.354   6.880
 8680SOL    HW226940   0.557   3.503   6.916
 8681SOL     OW26941   4.679   5.113   1.236
 8681SOL    HW126942   4.640   5.197   1.274
 8681SOL    HW226943   4.640   5.095   1.146
 8682SOL     OW26944   5.528   6.264   2.314
 8682SOL    HW126945   5.518   6.224   2.404
 8682SOL    HW226946   5.625   6.282   2.295
 8683SOL     OW26947   2.016   1.633   4.262
 8683SOL    HW126948   2.035   1.619   4.360
 8683SOL    HW226949   2.019   1.545   4.215
 8684SOL     OW26950   6.191   2.789   5.180
 8684SOL    HW126951   6.191   2.691   5.164
 8684SOL    HW226952   6.253   2.811   5.256
 8685SOL     OW26953   0.197   2.091   6.728
 8685SOL    HW126954   0.263   2.025   6.692
 8685SOL    HW226955   0.193   2.085   6.827
 8686SOL     OW26956   0.311   1.473   3.472
 8686SOL    HW126957   0.217   1.473   3.504
 8686SOL    HW226958   0.313   1.445   3.376
 8687SOL     OW26959   4.993   4.906   1.807
 8687SOL    HW126960   5.037   4.889   1.719
 8687SOL    HW226961   5.041   4.855   1.878
 8688SOL     OW26962   1.289   5.278   6.336
 8688SOL    HW126963   1.285   5.210   6.410
 8688SOL    HW226964   1.368   5.260   6.278
 8689SOL     OW26965   3.826   3.770   0.810
 8689SOL    HW126966   3.778   3.706   0.870
 8689SOL    HW226967   3.803   3.751   0.715
 8690SOL     OW26968   1.496   3.915   3.874
 8690SOL    HW126969   1.526   3.884   3.784
 8690SOL    HW226970   1.566   3.894   3.942
 8691SOL     OW26971   4.102   1.960   5.924
 8691SOL    HW126972   4.079   2.048   5.965
 8691SOL    HW226973   4.020   1.903   5.918
 8692SOL     OW26974   3.058   1.377   4.683
 8692SOL    HW126975   3.120   1.448   4.715
 8692SOL    HW226976   3.047   1.307   4.753
 8693SOL     OW26977   5.333   0.492   0.208
 8693SOL    HW126978   5.265   0.540   0.152
 8693SOL    HW226979   5.374   0.419   0.154
 8694SOL     OW26980   4.732   0.748   5.039
 8694SOL    HW126981   4.804   0.695   5.084
 8694SOL    HW226982   4.666   0.779   5.108
 8695SOL     OW26983   4.076   2.909   5.850
 8695SOL    HW126984   4.158   2.933   5.902
 8695SOL    HW226985   4.101   2.881   5.758
 8696SOL     OW26986   2.007   4.889   5.366
 8696SOL    HW126987   2.050   4.970   5.328
 8696SOL    HW226988   2.076   4.835   5.416
 8697SOL     OW26989   6.882   3.129   6.465
 8697SOL    HW126990   6.948   3.085   6.404
 8697SOL    HW226991   6.792   3.087   6.455
 8698SOL     OW26992   4.754   5.679   4.946
 8698SOL    HW126993   4.697   5.711   4.870
 8698SOL    HW226994   4.697   5.634   5.014
 8699SOL     OW26995   1.265   2.591   5.115
 8699SOL    HW126996   1.245   2.535   5.035
 8699SOL    HW226997   1.364   2.604   5.122
 8700SOL     OW26998   1.184   1.144   4.332
 8700SOL    HW126999   1.098   1.182   4.297
 8700SOL    HW227000   1.234   1.100   4.258
 8701SOL     OW27001   1.666   0.883   6.775
 8701SOL    HW127002   1.585   0.825   6.773
 8701SOL    HW227003   1.715   0.876   6.689
 8702SOL     OW27004   5.249   5.204   1.758
 8702SOL    HW127005   5.292   5.128   1.806
 8702SOL    HW227006   5.319   5.259   1.714
 8703SOL     OW27007   2.502   5.098   0.097
 8703SOL    HW127008   2.477   5.194   0.085
 8703SOL    HW227009   2.436   5.040   0.048
 8704SOL     OW27010   0.266   3.978   3.195
 8704SOL    HW127011   0.308   4.064   3.167
 8704SOL    HW227012   0.184   3.962   3.139
 8705SOL     OW27013   5.479   1.083   6.685
 8705SOL    HW127014   5.437   1.023   6.616
 8705SOL    HW227015   5.409   1.118   6.747
 8706SOL     OW27016   5.407   1.957   6.942
 8706SOL    HW127017   5.351   1.986   7.019
 8706SOL    HW227018   5.353   1.960   6.858
 8707SOL     OW27019   6.924   1.435   6.331
 8707SOL    HW127020   6.945   1.462   6.237
 8707SOL    HW227021   6.964   1.501   6.394
 8708SOL     OW27022   4.432   1.515   2.447
 8708SOL    HW127023   4.339   1.500   2.414
 8708SOL    HW227024   4.480   1.575   2.382
 8709SOL     OW27025   0.052   6.609   0.361
 8709SOL    HW127026   0.113   6.620   0.282
 8709SOL    HW227027   0.030   6.513   0.372
 8710SOL     OW27028   2.187   3.009   3.687
 8710SOL    HW127029   2.196   3.034   3.590
 8710SOL    HW227030   2.096   2.968   3.702
 8711SOL     OW27031   1.894   6.790   3.009
 8711SOL    HW127032   1.927   6.792   3.104
 8711SOL    HW227033   1.834   6.711   2.997
 8712SOL     OW27034   3.989   2.210   4.691
 8712SOL    HW127035   4.039   2.282   4.642
 8712SOL    HW227036   3.995   2.227   4.790
 8713SOL     OW27037   6.255   3.184   3.822
 8713SOL    HW127038   6.254   3.139   3.911
 8713SOL    HW227039   6.214   3.124   3.753
 8714SOL     OW27040   0.948   0.206   5.356
 8714SOL    HW127041   1.009   0.283   5.337
 8714SOL    HW227042   0.959   0.177   5.451
 8715SOL     OW27043   4.201   0.203   1.177
 8715SOL    HW127044   4.218   0.110   1.207
 8715SOL    HW227045   4.285   0.257   1.186
 8716SOL     OW27046   0.049   0.285   0.892
 8716SOL    HW127047   0.052   0.214   0.962
 8716SOL    HW227048   0.009   0.247   0.808
 8717SOL     OW27049   2.914   3.419   4.675
 8717SOL    HW127050   2.955   3.328   4.675
 8717SOL    HW227051   2.834   3.420   4.735
 8718SOL     OW27052   1.660   3.210   5.612
 8718SOL    HW127053   1.722   3.131   5.610
 8718SOL    HW227054   1.684   3.273   5.538
 8719SOL     OW27055   4.358   0.053   6.742
 8719SOL    HW127056   4.262   0.052   6.716
 8719SOL    HW227057   4.414   0.077   6.663
 8720SOL     OW27058   0.158   5.206   6.040
 8720SOL    HW127059   0.141   5.171   5.948
 8720SOL    HW227060   0.222   5.283   6.035
 8721SOL     OW27061   6.774   2.809   1.541
 8721SOL    HW127062   6.851   2.790   1.601
 8721SOL    HW227063   6.704   2.739   1.553
 8722SOL     OW27064   3.463   0.988   0.333
 8722SOL    HW127065   3.560   0.979   0.312
 8722SOL    HW227066   3.438   0.924   0.405
 8723SOL     OW27067   4.691   6.548   1.985
 8723SOL    HW127068   4.649   6.520   2.071
 8723SOL    HW227069   4.790   6.544   1.992
 8724SOL     OW27070   5.180   6.682   4.833
 8724SOL    HW127071   5.192   6.613   4.905
 8724SOL    HW227072   5.118   6.646   4.763
 8725SOL     OW27073   1.320   6.332   5.482
 8725SOL    HW127074   1.260   6.350   5.560
 8725SOL    HW227075   1.364   6.243   5.493
 8726SOL     OW27076   6.964   1.725   3.762
 8726SOL    HW127077   0.011   1.661   3.781
 8726SOL    HW227078   6.993   1.818   3.785
 8727SOL     OW27079   5.177   0.206   2.294
 8727SOL    HW127080   5.150   0.134   2.358
 8727SOL    HW227081   5.252   0.258   2.333
 8728SOL     OW27082   6.297   0.964   2.127
 8728SOL    HW127083   6.366   0.966   2.054
 8728SOL    HW227084   6.342   0.957   2.215
 8729SOL     OW27085   3.807   5.262   5.306
 8729SOL    HW127086   3.715   5.294   5.328
 8729SOL    HW227087   3.818   5.255   5.207
 8730SOL     OW27088   5.693   4.539   2.706
 8730SOL    HW127089   5.647   4.458   2.741
 8730SOL    HW227090   5.786   4.514   2.676
 8731SOL     OW27091   1.572   2.725   3.075
 8731SOL    HW127092   1.497   2.715   3.140
 8731SOL    HW227093   1.659   2.714   3.123
 8732SOL     OW27094   5.733   4.755   1.189
 8732SOL    HW127095   5.682   4.824   1.240
 8732SOL    HW227096   5.778   4.693   1.253
 8733SOL     OW27097   2.219   5.481   1.320
 8733SOL    HW127098   2.242   5.577   1.310
 8733SOL    HW227099   2.303   5.427   1.329
 8734SOL     OW27100   1.106   3.885   2.118
 8734SOL    HW127101   1.076   3.926   2.032
 8734SOL    HW227102   1.189   3.932   2.150
 8735SOL     OW27103   0.778   2.591   0.390
 8735SOL    HW127104   0.821   2.653   0.324
 8735SOL    HW227105   0.841   2.577   0.467
 8736SOL     OW27106   0.299   5.433   0.524
 8736SOL    HW127107   0.375   5.498   0.529
 8736SOL    HW227108   0.292   5.382   0.610
 8737SOL     OW27109   1.641   6.496   0.079
 8737SOL    HW127110   1.609   6.461   0.166
 8737SOL    HW227111   1.739   6.516   0.085
 8738SOL     OW27112   2.969   5.371   4.215
 8738SOL    HW127113   2.870   5.354   4.213
 8738SOL    HW227114   3.015   5.306   4.155
 8739SOL     OW27115   6.288   5.695   6.881
 8739SOL    HW127116   6.204   5.674   6.830
 8739SOL    HW227117   6.319   5.787   6.856
 8740SOL     OW27118   4.298   1.296   4.437
 8740SOL    HW127119   4.305   1.316   4.339
 8740SOL    HW227120   4.254   1.207   4.450
 8741SOL     OW27121   2.366   1.192   2.334
 8741SOL    HW127122   2.291   1.127   2.319
 8741SOL    HW227123   2.359   1.229   2.427
 8742SOL     OW27124   5.071   6.440   1.940
 8742SOL    HW127125   5.040   6.369   1.876
 8742SOL    HW227126   5.058   6.407   2.034
 8743SOL     OW27127   1.784   0.405   2.072
 8743SOL    HW127128   1.717   0.390   2.145
 8743SOL    HW227129   1.736   0.413   1.984
 8744SOL     OW27130   3.995   2.645   6.807
 8744SOL    HW127131   3.968   2.707   6.734
 8744SOL    HW227132   3.938   2.563   6.804
 8745SOL     OW27133   6.402   2.101   6.718
 8745SOL    HW127134   6.418   2.027   6.653
 8745SOL    HW227135   6.418   2.068   6.811
 8746SOL     OW27136   4.806   5.528   4.550
 8746SOL    HW127137   4.859   5.570   4.476
 8746SOL    HW227138   4.712   5.515   4.521
 8747SOL     OW27139   0.435   2.305   3.512
 8747SOL    HW127140   0.478   2.361   3.441
 8747SOL    HW227141   0.394   2.364   3.581
 8748SOL     OW27142   0.148   1.263   4.445
 8748SOL    HW127143   0.246   1.273   4.425
 8748SOL    HW227144   0.120   1.169   4.428
 8749SOL     OW27145   2.324   0.552   4.951
 8749SOL    HW127146   2.410   0.501   4.960
 8749SOL    HW227147   2.293   0.549   4.856
 8750SOL     OW27148   3.082   3.711   4.867
 8750SOL    HW127149   3.154   3.762   4.821
 8750SOL    HW227150   3.113   3.617   4.884
 8751SOL     OW27151   6.293   1.814   2.080
 8751SOL    HW127152   6.276   1.907   2.049
 8751SOL    HW227153   6.304   1.814   2.180
 8752SOL     OW27154   3.337   3.046   6.482
 8752SOL    HW127155   3.285   2.971   6.440
 8752SOL    HW227156   3.427   3.012   6.510
 8753SOL     OW27157   3.209   1.387   6.663
 8753SOL    HW127158   3.265   1.451   6.716
 8753SOL    HW227159   3.253   1.297   6.663
 8754SOL     OW27160   2.015   3.765   5.823
 8754SOL    HW127161   2.097   3.784   5.769
 8754SOL    HW227162   1.980   3.675   5.800
 8755SOL     OW27163   2.387   1.251   1.097
 8755SOL    HW127164   2.368   1.162   1.055
 8755SOL    HW227165   2.436   1.309   1.032
 8756SOL     OW27166   1.135   3.484   4.347
 8756SOL    HW127167   1.224   3.520   4.376
 8756SOL    HW227168   1.091   3.549   4.285
 8757SOL     OW27169   3.821   5.802   6.594
 8757SOL    HW127170   3.747   5.861   6.564
 8757SOL    HW227171   3.909   5.841   6.566
 8758SOL     OW27172   4.814   5.823   2.864
 8758SOL    HW127173   4.844   5.733   2.833
 8758SOL    HW227174   4.717   5.836   2.841
 8759SOL     OW27175   4.473   2.726   6.454
 8759SOL    HW127176   4.396   2.777   6.417
 8759SOL    HW227177   4.489   2.644   6.399
 8760SOL     OW27178   2.446   0.727   5.134
 8760SOL    HW127179   2.500   0.666   5.077
 8760SOL    HW227180   2.494   0.814   5.145
 8761SOL     OW27181   6.100   2.429   1.653
 8761SOL    HW127182   6.072   2.334   1.643
 8761SOL    HW227183   6.021   2.489   1.636
 8762SOL     OW27184   1.276   4.214   3.332
 8762SOL    HW127185   1.214   4.291   3.320
 8762SOL    HW227186   1.235   4.131   3.294
 8763SOL     OW27187   6.692   6.525   6.247
 8763SOL    HW127188   6.783   6.568   6.250
 8763SOL    HW227189   6.657   6.516   6.340
 8764SOL     OW27190   5.322   6.947   4.878
 8764SOL    HW127191   5.359   6.952   4.971
 8764SOL    HW227192   5.247   6.882   4.876
 8765SOL     OW27193   5.398   6.953   3.532
 8765SOL    HW127194   5.344   0.001   3.494
 8765SOL    HW227195   5.379   6.869   3.482
 8766SOL     OW27196   4.470   4.788   4.588
 8766SOL    HW127197   4.436   4.779   4.682
 8766SOL    HW227198   4.416   4.858   4.540
 8767SOL     OW27199   5.081   5.522   3.050
 8767SOL    HW127200   5.102   5.446   3.112
 8767SOL    HW227201   5.167   5.561   3.015
 8768SOL     OW27202   1.109   2.597   0.136
 8768SOL    HW127203   1.206   2.586   0.111
 8768SOL    HW227204   1.073   2.509   0.168
 8769SOL     OW27205   0.157   1.002   3.580
 8769SOL    HW127206   0.223   1.076   3.588
 8769SOL    HW227207   0.105   0.995   3.665
 8770SOL     OW27208   4.465   4.473   2.138
 8770SOL    HW127209   4.540   4.437   2.083
 8770SOL    HW227210   4.403   4.399   2.163
 8771SOL     OW27211   0.990   1.600   6.325
 8771SOL    HW127212   0.997   1.501   6.312
 8771SOL    HW227213   0.895   1.628   6.310
 8772SOL     OW27214   4.868   0.570   6.402
 8772SOL    HW127215   4.953   0.518   6.416
 8772SOL    HW227216   4.794   0.507   6.382
 8773SOL     OW27217   5.105   2.564   3.652
 8773SOL    HW127218   5.111   2.567   3.751
 8773SOL    HW227219   5.145   2.647   3.613
 8774SOL     OW27220   1.526   1.030   6.983
 8774SOL    HW127221   1.447   1.044   6.923
 8774SOL    HW227222   1.603   0.996   6.928
 8775SOL     OW27223   5.554   6.770   5.583
 8775SOL    HW127224   5.612   6.796   5.661
 8775SOL    HW227225   5.602   6.791   5.498
 8776SOL     OW27226   4.538   3.022   0.446
 8776SOL    HW127227   4.527   2.932   0.405
 8776SOL    HW227228   4.624   3.063   0.415
 8777SOL     OW27229   6.573   4.371   3.110
 8777SOL    HW127230   6.531   4.292   3.155
 8777SOL    HW227231   6.614   4.341   3.024
 8778SOL     OW27232   5.702   3.394   5.938
 8778SOL    HW127233   5.603   3.398   5.951
 8778SOL    HW227234   5.723   3.384   5.841
 8779SOL     OW27235   2.770   5.221   2.212
 8779SOL    HW127236   2.759   5.124   2.234
 8779SOL    HW227237   2.723   5.277   2.281
 8780SOL     OW27238   0.268   6.629   2.841
 8780SOL    HW127239   0.282   6.595   2.748
 8780SOL    HW227240   0.176   6.606   2.872
 8781SOL     OW27241   4.975   0.869   3.725
 8781SOL    HW127242   4.980   0.886   3.824
 8781SOL    HW227243   5.055   0.818   3.695
 8782SOL     OW27244   6.618   6.683   1.520
 8782SOL    HW127245   6.650   6.610   1.580
 8782SOL    HW227246   6.613   6.649   1.426
 8783SOL     OW27247   6.455   4.698   4.016
 8783SOL    HW127248   6.462   4.723   4.112
 8783SOL    HW227249   6.523   4.751   3.963
 8784SOL     OW27250   6.443   4.747   5.864
 8784SOL    HW127251   6.377   4.781   5.797
 8784SOL    HW227252   6.481   4.661   5.832
 8785SOL     OW27253   5.339   4.240   0.137
 8785SOL    HW127254   5.340   4.152   0.186
 8785SOL    HW227255   5.420   4.293   0.162
 8786SOL     OW27256   2.713   1.065   0.228
 8786SOL    HW127257   2.684   1.049   0.134
 8786SOL    HW227258   2.636   1.051   0.290
 8787SOL     OW27259   3.307   1.400   1.648
 8787SOL    HW127260   3.284   1.471   1.581
 8787SOL    HW227261   3.393   1.422   1.693
 8788SOL     OW27262   6.170   0.340   5.158
 8788SOL    HW127263   6.126   0.339   5.069
 8788SOL    HW227264   6.132   0.267   5.215
 8789SOL     OW27265   6.196   6.249   4.066
 8789SOL    HW127266   6.285   6.249   4.022
 8789SOL    HW227267   6.131   6.199   4.009
 8790SOL     OW27268   7.013   0.387   6.413
 8790SOL    HW127269   0.026   0.377   6.322
 8790SOL    HW227270   7.014   0.483   6.440
 8791SOL     OW27271   5.200   6.122   5.280
 8791SOL    HW127272   5.252   6.113   5.195
 8791SOL    HW227273   5.131   6.050   5.285
 8792SOL     OW27274   2.668   5.970   3.003
 8792SOL    HW127275   2.635   5.880   2.976
 8792SOL    HW227276   2.591   6.028   3.029
 8793SOL     OW27277   1.349   4.600   2.811
 8793SOL    HW127278   1.273   4.564   2.866
 8793SOL    HW227279   1.341   4.567   2.717
 8794SOL     OW27280   4.710   6.983   2.578
 8794SOL    HW127281   4.696   6.937   2.490
 8794SOL    HW227282   4.807   7.007   2.587
 8795SOL     OW27283   1.482   4.437   5.425
 8795SOL    HW127284   1.404   4.496   5.445
 8795SOL    HW227285   1.560   4.494   5.397
 8796SOL     OW27286   4.259   2.320   4.543
 8796SOL    HW127287   4.213   2.300   4.456
 8796SOL    HW227288   4.336   2.382   4.526
 8797SOL     OW27289   0.311   0.385   6.813
 8797SOL    HW127290   0.283   0.430   6.898
 8797SOL    HW227291   0.273   0.434   6.735
 8798SOL     OW27292   5.334   5.673   6.639
 8798SOL    HW127293   5.238   5.699   6.626
 8798SOL    HW227294   5.355   5.594   6.581
 8799SOL     OW27295   2.724   4.664   3.548
 8799SOL    HW127296   2.703   4.734   3.616
 8799SOL    HW227297   2.658   4.589   3.555
 8800SOL     OW27298   6.344   4.235   6.172
 8800SOL    HW127299   6.409   4.160   6.182
 8800SOL    HW227300   6.390   4.315   6.135
 8801SOL     OW27301   6.882   1.311   4.937
 8801SOL    HW127302   6.976   1.306   4.902
 8801SOL    HW227303   6.840   1.396   4.905
 8802SOL     OW27304   2.324   6.965   6.926
 8802SOL    HW127305   2.361   0.031   6.935
 8802SOL    HW227306   2.245   6.966   6.865
 8803SOL     OW27307   0.226   6.276   6.767
 8803SOL    HW127308   0.306   6.260   6.710
 8803SOL    HW227309   0.159   6.330   6.715
 8804SOL     OW27310   2.638   6.898   2.050
 8804SOL    HW127311   2.621   6.839   2.129
 8804SOL    HW227312   2.578   6.871   1.974
 8805SOL     OW27313   3.183   6.281   3.894
 8805SOL    HW127314   3.124   6.341   3.948
 8805SOL    HW227315   3.202   6.325   3.806
 8806SOL     OW27316   3.282   4.782   1.818
 8806SOL    HW127317   3.300   4.800   1.721
 8806SOL    HW227318   3.367   4.754   1.863
 8807SOL     OW27319   5.081   0.344   6.947
 8807SOL    HW127320   5.052   0.326   6.853
 8807SOL    HW227321   5.060   0.264   7.004
 8808SOL     OW27322   6.037   2.697   6.868
 8808SOL    HW127323   6.043   2.709   6.967
 8808SOL    HW227324   5.960   2.639   6.845
 8809SOL     OW27325   4.137   5.098   3.398
 8809SOL    HW127326   4.049   5.140   3.379
 8809SOL    HW227327   4.159   5.108   3.495
 8810SOL     OW27328   5.973   0.543   4.826
 8810SOL    HW127329   5.985   0.600   4.908
 8810SOL    HW227330   6.001   0.449   4.847
 8811SOL     OW27331   3.680   1.178   2.393
 8811SOL    HW127332   3.628   1.258   2.363
 8811SOL    HW227333   3.616   1.106   2.422
 8812SOL     OW27334   1.832   0.838   0.426
 8812SOL    HW127335   1.891   0.798   0.496
 8812SOL    HW227336   1.889   0.880   0.355
 8813SOL     OW27337   1.900   5.094   2.279
 8813SOL    HW127338   1.978   5.155   2.292
 8813SOL    HW227339   1.922   5.027   2.208
 8814SOL     OW27340   6.237   0.079   0.502
 8814SOL    HW127341   6.267   0.098   0.408
 8814SOL    HW227342   6.181   7.023   0.503
 8815SOL     OW27343   5.722   6.713   0.872
 8815SOL    HW127344   5.676   6.801   0.885
 8815SOL    HW227345   5.654   6.640   0.865
 8816SOL     OW27346   1.441   6.577   0.652
 8816SOL    HW127347   1.373   6.591   0.580
 8816SOL    HW227348   1.424   6.640   0.727
 8817SOL     OW27349   0.095   4.657   3.902
 8817SOL    HW127350   0.136   4.724   3.839
 8817SOL    HW227351   0.105   4.565   3.863
 8818SOL     OW27352   0.751   4.475   4.620
 8818SOL    HW127353   0.697   4.391   4.623
 8818SOL    HW227354   0.730   4.531   4.700
 8819SOL     OW27355   5.565   4.953   5.054
 8819SOL    HW127356   5.647   4.904   5.083
 8819SOL    HW227357   5.492   4.940   5.122
 8820SOL     OW27358   2.894   0.841   5.310
 8820SOL    HW127359   2.884   0.930   5.355
 8820SOL    HW227360   2.838   0.840   5.227
 8821SOL     OW27361   1.888   6.355   0.947
 8821SOL    HW127362   1.791   6.333   0.941
 8821SOL    HW227363   1.904   6.446   0.909
 8822SOL     OW27364   0.608   0.542   3.962
 8822SOL    HW127365   0.529   0.504   4.010
 8822SOL    HW227366   0.692   0.517   4.011
 8823SOL     OW27367   2.223   1.160   2.788
 8823SOL    HW127368   2.322   1.173   2.789
 8823SOL    HW227369   2.197   1.100   2.863
 8824SOL     OW27370   1.508   1.779   0.274
 8824SOL    HW127371   1.480   1.687   0.247
 8824SOL    HW227372   1.606   1.779   0.293
 8825SOL     OW27373   1.766   0.938   2.297
 8825SOL    HW127374   1.764   0.967   2.202
 8825SOL    HW227375   1.782   1.017   2.356
 8826SOL     OW27376   0.561   3.941   0.807
 8826SOL    HW127377   0.566   4.033   0.766
 8826SOL    HW227378   0.579   3.873   0.737
 8827SOL     OW27379   4.469   1.674   1.956
 8827SOL    HW127380   4.411   1.642   2.032
 8827SOL    HW227381   4.472   1.774   1.956
 8828SOL     OW27382   4.167   5.455   6.364
 8828SOL    HW127383   4.077   5.415   6.384
 8828SOL    HW227384   4.162   5.554   6.378
 8829SOL     OW27385   5.366   3.034   0.969
 8829SOL    HW127386   5.327   3.012   1.059
 8829SOL    HW227387   5.463   3.054   0.979
 8830SOL     OW27388   1.281   1.865   2.620
 8830SOL    HW127389   1.274   1.775   2.663
 8830SOL    HW227390   1.202   1.921   2.646
 8831SOL     OW27391   4.613   2.597   4.107
 8831SOL    HW127392   4.526   2.559   4.138
 8831SOL    HW227393   4.612   2.609   4.008
 8832SOL     OW27394   7.021   6.700   2.861
 8832SOL    HW127395   6.949   6.632   2.870
 8832SOL    HW227396   7.007   6.772   2.929
 8833SOL     OW27397   2.506   4.719   5.867
 8833SOL    HW127398   2.606   4.712   5.866
 8833SOL    HW227399   2.469   4.674   5.786
 8834SOL     OW27400   5.807   4.355   5.075
 8834SOL    HW127401   5.778   4.270   5.118
 8834SOL    HW227402   5.827   4.338   4.978
 8835SOL     OW27403   4.900   0.987   5.755
 8835SOL    HW127404   4.882   1.039   5.671
 8835SOL    HW227405   4.941   0.898   5.731
 8836SOL     OW27406   5.132   1.702   0.161
 8836SOL    HW127407   5.039   1.727   0.189
 8836SOL    HW227408   5.148   1.734   0.067
 8837SOL     OW27409   0.048   6.395   2.245
 8837SOL    HW127410   7.024   6.309   2.244
 8837SOL    HW227411   0.061   6.425   2.340
 8838SOL     OW27412   1.975   5.178   3.220
 8838SOL    HW127413   1.962   5.100   3.281
 8838SOL    HW227414   1.916   5.168   3.140
 8839SOL     OW27415   5.257   5.746   2.023
 8839SOL    HW127416   5.317   5.807   2.075
 8839SOL    HW227417   5.175   5.796   1.995
 8840SOL     OW27418   0.249   1.725   3.210
 8840SOL    HW127419   0.290   1.743   3.300
 8840SOL    HW227420   0.166   1.671   3.222
 8841SOL     OW27421   0.837   0.882   4.628
 8841SOL    HW127422   0.847   0.839   4.717
 8841SOL    HW227423   0.849   0.813   4.556
 8842SOL     OW27424   3.615   2.919   2.324
 8842SOL    HW127425   3.573   2.928   2.415
 8842SOL    HW227426   3.552   2.954   2.255
 8843SOL     OW27427   2.092   3.481   5.816
 8843SOL    HW127428   2.145   3.407   5.774
 8843SOL    HW227429   2.154   3.554   5.844
 8844SOL     OW27430   0.433   1.362   5.922
 8844SOL    HW127431   0.470   1.271   5.938
 8844SOL    HW227432   0.444   1.387   5.826
 8845SOL     OW27433   3.426   3.737   0.759
 8845SOL    HW127434   3.388   3.722   0.850
 8845SOL    HW227435   3.454   3.833   0.750
 8846SOL     OW27436   3.334   5.360   4.099
 8846SOL    HW127437   3.310   5.306   4.180
 8846SOL    HW227438   3.332   5.301   4.018
 8847SOL     OW27439   2.475   1.603   3.065
 8847SOL    HW127440   2.376   1.611   3.059
 8847SOL    HW227441   2.505   1.523   3.013
 8848SOL     OW27442   2.647   2.050   2.415
 8848SOL    HW127443   2.557   2.083   2.387
 8848SOL    HW227444   2.651   2.045   2.515
 8849SOL     OW27445   2.958   6.318   3.156
 8849SOL    HW127446   2.959   6.261   3.074
 8849SOL    HW227447   2.878   6.377   3.154
 8850SOL     OW27448   1.486   2.057   6.423
 8850SOL    HW127449   1.421   1.981   6.432
 8850SOL    HW227450   1.493   2.105   6.510
 8851SOL     OW27451   1.224   5.884   2.233
 8851SOL    HW127452   1.308   5.915   2.190
 8851SOL    HW227453   1.193   5.800   2.187
 8852SOL     OW27454   4.800   3.535   5.682
 8852SOL    HW127455   4.725   3.577   5.632
 8852SOL    HW227456   4.884   3.586   5.664
 8853SOL     OW27457   2.818   1.476   0.309
 8853SOL    HW127458   2.859   1.561   0.277
 8853SOL    HW227459   2.883   1.401   0.296
 8854SOL     OW27460   3.414   1.393   5.817
 8854SOL    HW127461   3.380   1.406   5.910
 8854SOL    HW227462   3.500   1.342   5.820
 8855SOL     OW27463   0.420   5.929   1.223
 8855SOL    HW127464   0.452   5.852   1.279
 8855SOL    HW227465   0.413   6.011   1.280
 8856SOL     OW27466   0.429   6.507   6.635
 8856SOL    HW127467   0.509   6.487   6.691
 8856SOL    HW227468   0.426   6.445   6.556
 8857SOL     OW27469   6.733   1.772   4.054
 8857SOL    HW127470   6.697   1.788   3.962
 8857SOL    HW227471   6.763   1.859   4.094
 8858SOL     OW27472   0.740   2.322   5.159
 8858SOL    HW127473   0.695   2.336   5.071
 8858SOL    HW227474   0.708   2.236   5.200
 8859SOL     OW27475   0.114   0.633   3.709
 8859SOL    HW127476   0.027   0.679   3.692
 8859SOL    HW227477   0.127   0.559   3.643
 8860SOL     OW27478   0.329   2.944   2.882
 8860SOL    HW127479   0.349   3.042   2.876
 8860SOL    HW227480   0.301   2.910   2.793
 8861SOL     OW27481   4.333   1.428   6.014
 8861SOL    HW127482   4.371   1.420   6.106
 8861SOL    HW227483   4.376   1.505   5.967
 8862SOL     OW27484   5.341   1.167   4.038
 8862SOL    HW127485   5.413   1.136   4.101
 8862SOL    HW227486   5.267   1.100   4.037
 8863SOL     OW27487   1.515   5.024   4.114
 8863SOL    HW127488   1.531   5.035   4.212
 8863SOL    HW227489   1.568   4.946   4.080
 8864SOL     OW27490   3.521   4.909   6.429
 8864SOL    HW127491   3.608   4.873   6.394
 8864SOL    HW227492   3.495   4.990   6.377
 8865SOL     OW27493   3.208   1.031   6.083
 8865SOL    HW127494   3.273   1.041   6.007
 8865SOL    HW227495   3.122   0.995   6.048
 8866SOL     OW27496   5.489   6.814   2.983
 8866SOL    HW127497   5.420   6.766   2.929
 8866SOL    HW227498   5.491   6.911   2.955
 8867SOL     OW27499   5.954   3.473   2.683
 8867SOL    HW127500   5.909   3.512   2.603
 8867SOL    HW227501   6.041   3.519   2.698
 8868SOL     OW27502   6.514   2.625   0.993
 8868SOL    HW127503   6.543   2.719   0.976
 8868SOL    HW227504   6.492   2.613   1.090
 8869SOL     OW27505   3.930   6.228   4.591
 8869SOL    HW127506   3.915   6.164   4.666
 8869SOL    HW227507   3.886   6.194   4.508
 8870SOL     OW27508   3.438   0.123   0.400
 8870SOL    HW127509   3.515   0.177   0.435
 8870SOL    HW227510   3.403   0.165   0.316
 8871SOL     OW27511   2.206   1.013   3.942
 8871SOL    HW127512   2.295   0.999   3.899
 8871SOL    HW227513   2.143   0.941   3.913
 8872SOL     OW27514   1.527   3.916   5.293
 8872SOL    HW127515   1.498   3.980   5.364
 8872SOL    HW227516   1.523   3.962   5.204
 8873SOL     OW27517   0.835   6.658   1.488
 8873SOL    HW127518   0.889   6.734   1.525
 8873SOL    HW227519   0.832   6.665   1.389
 8874SOL     OW27520   1.885   6.128   2.600
 8874SOL    HW127521   1.827   6.158   2.675
 8874SOL    HW227522   1.834   6.064   2.541
 8875SOL     OW27523   0.057   3.623   5.516
 8875SOL    HW127524   0.035   3.713   5.552
 8875SOL    HW227525   0.005   3.607   5.433
 8876SOL     OW27526   2.218   6.878   4.434
 8876SOL    HW127527   2.143   6.941   4.454
 8876SOL    HW227528   2.187   6.808   4.369
 8877SOL     OW27529   3.177   1.267   3.915
 8877SOL    HW127530   3.113   1.222   3.977
 8877SOL    HW227531   3.194   1.360   3.947
 8878SOL     OW27532   6.902   4.764   0.077
 8878SOL    HW127533   6.998   4.748   0.054
 8878SOL    HW227534   6.895   4.848   0.131
 8879SOL     OW27535   4.725   4.647   2.573
 8879SOL    HW127536   4.798   4.583   2.598
 8879SOL    HW227537   4.656   4.599   2.519
 8880SOL     OW27538   5.428   6.106   5.070
 8880SOL    HW127539   5.415   6.061   4.981
 8880SOL    HW227540   5.511   6.071   5.113
 8881SOL     OW27541   5.904   6.767   3.523
 8881SOL    HW127542   6.003   6.760   3.536
 8881SOL    HW227543   5.873   6.859   3.547
 8882SOL     OW27544   5.588   0.993   1.367
 8882SOL    HW127545   5.567   0.899   1.392
 8882SOL    HW227546   5.631   0.995   1.277
 8883SOL     OW27547   1.135   6.100   6.329
 8883SOL    HW127548   1.159   6.181   6.381
 8883SOL    HW227549   1.204   6.083   6.259
 8884SOL     OW27550   6.472   4.186   6.424
 8884SOL    HW127551   6.376   4.213   6.429
 8884SOL    HW227552   6.479   4.086   6.431
 8885SOL     OW27553   6.762   3.477   1.149
 8885SOL    HW127554   6.796   3.441   1.236
 8885SOL    HW227555   6.744   3.575   1.158
 8886SOL     OW27556   3.294   0.104   4.686
 8886SOL    HW127557   3.370   0.094   4.622
 8886SOL    HW227558   3.219   0.044   4.658
 8887SOL     OW27559   3.223   1.288   0.674
 8887SOL    HW127560   3.193   1.219   0.740
 8887SOL    HW227561   3.288   1.350   0.717
 8888SOL     OW27562   1.856   1.813   6.033
 8888SOL    HW127563   1.932   1.773   6.084
 8888SOL    HW227564   1.878   1.813   5.936
 8889SOL     OW27565   6.575   0.432   6.080
 8889SOL    HW127566   6.653   0.419   6.019
 8889SOL    HW227567   6.557   0.530   6.090
 8890SOL     OW27568   6.374   5.628   3.556
 8890SOL    HW127569   6.383   5.646   3.654
 8890SOL    HW227570   6.409   5.537   3.535
 8891SOL     OW27571   4.682   3.270   6.801
 8891SOL    HW127572   4.721   3.301   6.714
 8891SOL    HW227573   4.585   3.293   6.804
 8892SOL     OW27574   3.142   5.769   3.137
 8892SOL    HW127575   3.230   5.723   3.146
 8892SOL    HW227576   3.069   5.701   3.130
 8893SOL     OW27577   0.768   6.250   3.330
 8893SOL    HW127578   0.863   6.230   3.306
 8893SOL    HW227579   0.714   6.260   3.246
 8894SOL     OW27580   3.930   2.589   6.409
 8894SOL    HW127581   3.895   2.620   6.321
 8894SOL    HW227582   4.022   2.551   6.397
 8895SOL     OW27583   6.496   2.484   2.318
 8895SOL    HW127584   6.491   2.506   2.220
 8895SOL    HW227585   6.419   2.528   2.366
 8896SOL     OW27586   2.696   3.081   5.345
 8896SOL    HW127587   2.617   3.067   5.286
 8896SOL    HW227588   2.673   3.056   5.439
 8897SOL     OW27589   1.903   2.495   3.467
 8897SOL    HW127590   1.927   2.423   3.532
 8897SOL    HW227591   1.811   2.479   3.432
 8898SOL     OW27592   5.298   2.697   2.510
 8898SOL    HW127593   5.216   2.729   2.559
 8898SOL    HW227594   5.379   2.717   2.565
 8899SOL     OW27595   1.521   5.656   1.252
 8899SOL    HW127596   1.599   5.672   1.193
 8899SOL    HW227597   1.546   5.677   1.347
 8900SOL     OW27598   5.994   3.013   2.880
 8900SOL    HW127599   5.985   3.112   2.869
 8900SOL    HW227600   6.081   2.983   2.841
 8901SOL     OW27601   2.133   0.889   5.034
 8901SOL    HW127602   2.206   0.924   4.976
 8901SOL    HW227603   2.076   0.825   4.982
 8902SOL     OW27604   2.172   0.167   0.657
 8902SOL    HW127605   2.247   0.131   0.713
 8902SOL    HW227606   2.195   0.259   0.625
 8903SOL     OW27607   0.827   1.516   5.067
 8903SOL    HW127608   0.895   1.590   5.065
 8903SOL    HW227609   0.839   1.462   5.150
 8904SOL     OW27610   5.747   6.977   3.767
 8904SOL    HW127611   5.685   6.908   3.804
 8904SOL    HW227612   5.730   6.987   3.669
 8905SOL     OW27613   1.000   4.458   4.030
 8905SOL    HW127614   1.000   4.515   4.113
 8905SOL    HW227615   0.971   4.513   3.952
 8906SOL     OW27616   0.730   6.061   6.723
 8906SOL    HW127617   0.660   6.003   6.764
 8906SOL    HW227618   0.759   6.130   6.790
 8907SOL     OW27619   2.605   2.115   4.924
 8907SOL    HW127620   2.508   2.137   4.909
 8907SOL    HW227621   2.634   2.044   4.861
 8908SOL     OW27622   1.427   4.874   6.676
 8908SOL    HW127623   1.360   4.938   6.637
 8908SOL    HW227624   1.463   4.816   6.603
 8909SOL     OW27625   2.635   0.880   6.167
 8909SOL    HW127626   2.609   0.917   6.078
 8909SOL    HW227627   2.569   0.909   6.236
 8910SOL     OW27628   6.950   2.809   6.112
 8910SOL    HW127629   7.025   2.748   6.137
 8910SOL    HW227630   6.954   2.829   6.014
 8911SOL     OW27631   4.303   2.269   4.833
 8911SOL    HW127632   4.296   2.292   4.736
 8911SOL    HW227633   4.212   2.274   4.875
 8912SOL     OW27634   3.325   3.416   6.619
 8912SOL    HW127635   3.320   3.488   6.688
 8912SOL    HW227636   3.317   3.327   6.663
 8913SOL     OW27637   4.891   4.997   5.758
 8913SOL    HW127638   4.880   4.900   5.778
 8913SOL    HW227639   4.802   5.043   5.767
 8914SOL     OW27640   4.600   0.090   4.746
 8914SOL    HW127641   4.608   0.190   4.741
 8914SOL    HW227642   4.686   0.051   4.780
 8915SOL     OW27643   0.587   3.248   3.899
 8915SOL    HW127644   0.536   3.241   3.984
 8915SOL    HW227645   0.527   3.225   3.822
 8916SOL     OW27646   6.701   3.555   0.656
 8916SOL    HW127647   6.771   3.484   0.668
 8916SOL    HW227648   6.630   3.544   0.725
 8917SOL     OW27649   6.810   3.377   0.306
 8917SOL    HW127650   6.712   3.390   0.316
 8917SOL    HW227651   6.858   3.461   0.329
 8918SOL     OW27652   6.373   4.142   1.056
 8918SOL    HW127653   6.319   4.226   1.055
 8918SOL    HW227654   6.322   4.069   1.012
 8919SOL     OW27655   3.711   4.054   0.860
 8919SOL    HW127656   3.774   3.983   0.829
 8919SOL    HW227657   3.634   4.059   0.798
 8920SOL     OW27658   0.577   0.546   7.001
 8920SOL    HW127659   0.614   0.633   0.006
 8920SOL    HW227660   0.560   0.552   6.902
 8921SOL     OW27661   2.194   2.371   2.448
 8921SOL    HW127662   2.122   2.441   2.449
 8921SOL    HW227663   2.279   2.411   2.480
 8922SOL     OW27664   3.985   4.758   1.351
 8922SOL    HW127665   3.962   4.661   1.348
 8922SOL    HW227666   4.016   4.782   1.443
 8923SOL     OW27667   1.723   2.748   6.344
 8923SOL    HW127668   1.642   2.734   6.287
 8923SOL    HW227669   1.797   2.786   6.288
 8924SOL     OW27670   3.534   5.348   5.289
 8924SOL    HW127671   3.524   5.354   5.190
 8924SOL    HW227672   3.468   5.281   5.325
 8925SOL     OW27673   0.784   1.734   2.729
 8925SOL    HW127674   0.867   1.685   2.702
 8925SOL    HW227675   0.714   1.669   2.757
 8926SOL     OW27676   6.694   2.916   5.864
 8926SOL    HW127677   6.672   2.978   5.789
 8926SOL    HW227678   6.694   2.967   5.950
 8927SOL     OW27679   7.001   0.988   4.651
 8927SOL    HW127680   0.019   0.901   4.670
 8927SOL    HW227681   6.917   0.994   4.706
 8928SOL     OW27682   0.270   0.086   6.463
 8928SOL    HW127683   0.276   0.001   6.514
 8928SOL    HW227684   0.208   0.149   6.510
 8929SOL     OW27685   5.838   2.464   4.360
 8929SOL    HW127686   5.933   2.440   4.382
 8929SOL    HW227687   5.803   2.401   4.291
 8930SOL     OW27688   1.591   3.680   4.155
 8930SOL    HW127689   1.648   3.737   4.214
 8930SOL    HW227690   1.643   3.600   4.126
 8931SOL     OW27691   2.343   3.041   0.523
 8931SOL    HW127692   2.431   3.052   0.570
 8931SOL    HW227693   2.270   3.083   0.577
 8932SOL     OW27694   6.329   1.278   1.237
 8932SOL    HW127695   6.419   1.263   1.277
 8932SOL    HW227696   6.286   1.189   1.216
 8933SOL     OW27697   2.039   3.146   5.943
 8933SOL    HW127698   2.138   3.146   5.958
 8933SOL    HW227699   2.001   3.235   5.969
 8934SOL     OW27700   3.574   4.910   4.699
 8934SOL    HW127701   3.514   4.900   4.779
 8934SOL    HW227702   3.669   4.903   4.728
 8935SOL     OW27703   6.733   4.152   0.907
 8935SOL    HW127704   6.824   4.188   0.888
 8935SOL    HW227705   6.738   4.087   0.983
 8936SOL     OW27706   1.315   3.024   2.738
 8936SOL    HW127707   1.286   3.083   2.813
 8936SOL    HW227708   1.373   2.950   2.773
 8937SOL     OW27709   6.857   6.957   4.163
 8937SOL    HW127710   6.774   6.903   4.176
 8937SOL    HW227711   6.930   6.899   4.127
 8938SOL     OW27712   0.354   0.599   0.661
 8938SOL    HW127713   0.271   0.582   0.713
 8938SOL    HW227714   0.352   0.691   0.622
 8939SOL     OW27715   6.149   4.757   4.265
 8939SOL    HW127716   6.159   4.733   4.361
 8939SOL    HW227717   6.144   4.857   4.255
 8940SOL     OW27718   6.033   1.401   1.990
 8940SOL    HW127719   5.950   1.442   2.027
 8940SOL    HW227720   6.105   1.404   2.059
 8941SOL     OW27721   5.858   2.705   4.691
 8941SOL    HW127722   5.862   2.616   4.737
 8941SOL    HW227723   5.776   2.708   4.633
 8942SOL     OW27724   6.439   5.309   5.723
 8942SOL    HW127725   6.509   5.367   5.763
 8942SOL    HW227726   6.351   5.356   5.725
 8943SOL     OW27727   4.171   5.307   0.737
 8943SOL    HW127728   4.142   5.373   0.668
 8943SOL    HW227729   4.253   5.341   0.783
 8944SOL     OW27730   5.648   5.392   4.801
 8944SOL    HW127731   5.667   5.294   4.789
 8944SOL    HW227732   5.550   5.409   4.789
 8945SOL     OW27733   1.057   1.187   3.870
 8945SOL    HW127734   1.135   1.133   3.839
 8945SOL    HW227735   1.077   1.227   3.960
 8946SOL     OW27736   2.597   1.594   3.754
 8946SOL    HW127737   2.679   1.550   3.717
 8946SOL    HW227738   2.577   1.556   3.844
 8947SOL     OW27739   2.304   3.646   5.907
 8947SOL    HW127740   2.393   3.602   5.903
 8947SOL    HW227741   2.304   3.715   5.979
 8948SOL     OW27742   6.423   6.170   3.905
 8948SOL    HW127743   6.416   6.095   3.839
 8948SOL    HW227744   6.462   6.135   3.991
 8949SOL     OW27745   3.963   5.905   0.718
 8949SOL    HW127746   4.006   5.886   0.630
 8949SOL    HW227747   4.015   5.976   0.766
 8950SOL     OW27748   4.363   4.767   6.806
 8950SOL    HW127749   4.293   4.837   6.793
 8950SOL    HW227750   4.443   4.808   6.850
 8951SOL     OW27751   2.408   0.873   4.402
 8951SOL    HW127752   2.384   0.883   4.306
 8951SOL    HW227753   2.403   0.962   4.447
 8952SOL     OW27754   0.459   5.639   2.878
 8952SOL    HW127755   0.438   5.608   2.785
 8952SOL    HW227756   0.502   5.730   2.874
 8953SOL     OW27757   1.027   4.053   0.758
 8953SOL    HW127758   1.024   4.144   0.716
 8953SOL    HW227759   1.113   4.008   0.733
 8954SOL     OW27760   6.688   6.674   4.319
 8954SOL    HW127761   6.635   6.675   4.234
 8954SOL    HW227762   6.640   6.619   4.387
 8955SOL     OW27763   6.836   5.611   2.825
 8955SOL    HW127764   6.909   5.670   2.791
 8955SOL    HW227765   6.810   5.545   2.754
 8956SOL     OW27766   1.768   1.617   6.536
 8956SOL    HW127767   1.738   1.661   6.452
 8956SOL    HW227768   1.689   1.592   6.591
 8957SOL     OW27769   1.904   4.952   1.698
 8957SOL    HW127770   1.823   4.990   1.652
 8957SOL    HW227771   1.985   4.968   1.642
 8958SOL     OW27772   0.246   1.992   4.782
 8958SOL    HW127773   0.260   2.062   4.712
 8958SOL    HW227774   0.331   1.941   4.794
 8959SOL     OW27775   1.594   4.465   2.083
 8959SOL    HW127776   1.628   4.466   1.988
 8959SOL    HW227777   1.612   4.375   2.124
 8960SOL     OW27778   3.971   5.753   3.334
 8960SOL    HW127779   4.028   5.767   3.415
 8960SOL    HW227780   3.875   5.765   3.359
 8961SOL     OW27781   3.000   1.159   3.576
 8961SOL    HW127782   3.033   1.249   3.550
 8961SOL    HW227783   3.015   1.145   3.674
 8962SOL     OW27784   6.106   5.665   2.528
 8962SOL    HW127785   6.146   5.685   2.438
 8962SOL    HW227786   6.164   5.599   2.576
 8963SOL     OW27787   3.848   0.269   5.078
 8963SOL    HW127788   3.784   0.234   5.147
 8963SOL    HW227789   3.939   0.233   5.096
 8964SOL     OW27790   5.204   3.203   2.814
 8964SOL    HW127791   5.301   3.193   2.791
 8964SOL    HW227792   5.196   3.259   2.896
 8965SOL     OW27793   2.346   5.463   0.552
 8965SOL    HW127794   2.367   5.542   0.609
 8965SOL    HW227795   2.256   5.475   0.510
 8966SOL     OW27796   6.584   4.445   0.303
 8966SOL    HW127797   6.549   4.535   0.275
 8966SOL    HW227798   6.605   4.447   0.401
 8967SOL     OW27799   4.183   0.522   1.619
 8967SOL    HW127800   4.194   0.433   1.575
 8967SOL    HW227801   4.191   0.594   1.551
 8968SOL     OW27802   4.400   5.580   3.307
 8968SOL    HW127803   4.431   5.628   3.225
 8968SOL    HW227804   4.313   5.535   3.289
 8969SOL     OW27805   6.485   0.311   3.963
 8969SOL    HW127806   6.465   0.301   4.061
 8969SOL    HW227807   6.454   0.228   3.915
 8970SOL     OW27808   2.456   3.294   6.754
 8970SOL    HW127809   2.406   3.318   6.837
 8970SOL    HW227810   2.418   3.343   6.676
 8971SOL     OW27811   5.938   5.031   1.485
 8971SOL    HW127812   5.960   5.066   1.576
 8971SOL    HW227813   5.891   4.943   1.494
 8972SOL     OW27814   4.774   3.074   6.964
 8972SOL    HW127815   4.752   3.140   6.892
 8972SOL    HW227816   4.794   2.985   6.922
 8973SOL     OW27817   0.385   3.571   3.448
 8973SOL    HW127818   0.392   3.606   3.354
 8973SOL    HW227819   0.336   3.484   3.447
 8974SOL     OW27820   1.163   3.923   4.415
 8974SOL    HW127821   1.126   3.864   4.487
 8974SOL    HW227822   1.219   3.868   4.353
 8975SOL     OW27823   1.616   6.127   6.850
 8975SOL    HW127824   1.590   6.103   6.944
 8975SOL    HW227825   1.585   6.221   6.830
 8976SOL     OW27826   0.934   5.482   0.168
 8976SOL    HW127827   0.882   5.476   0.083
 8976SOL    HW227828   0.890   5.549   0.229
 8977SOL     OW27829   6.884   3.121   7.004
 8977SOL    HW127830   6.972   3.156   6.973
 8977SOL    HW227831   6.898   3.037   0.028
 8978SOL     OW27832   5.534   6.332   4.377
 8978SOL    HW127833   5.583   6.246   4.394
 8978SOL    HW227834   5.592   6.393   4.323
 8979SOL     OW27835   1.256   3.998   5.152
 8979SOL    HW127836   1.293   3.915   5.192
 8979SOL    HW227837   1.158   3.987   5.135
 8980SOL     OW27838   4.402   2.984   5.363
 8980SOL    HW127839   4.354   2.908   5.319
 8980SOL    HW227840   4.347   3.067   5.354
 8981SOL     OW27841   4.441   1.341   5.423
 8981SOL    HW127842   4.433   1.347   5.522
 8981SOL    HW227843   4.497   1.417   5.389
 8982SOL     OW27844   1.760   1.708   1.989
 8982SOL    HW127845   1.741   1.801   1.958
 8982SOL    HW227846   1.826   1.710   2.064
 8983SOL     OW27847   1.189   5.886   0.145
 8983SOL    HW127848   1.171   5.790   0.122
 8983SOL    HW227849   1.254   5.924   0.078
 8984SOL     OW27850   6.205   0.234   3.338
 8984SOL    HW127851   6.182   0.145   3.300
 8984SOL    HW227852   6.176   0.238   3.434
 8985SOL     OW27853   2.401   1.559   0.709
 8985SOL    HW127854   2.360   1.637   0.755
 8985SOL    HW227855   2.455   1.591   0.631
 8986SOL     OW27856   3.946   5.153   1.911
 8986SOL    HW127857   4.043   5.153   1.887
 8986SOL    HW227858   3.891   5.170   1.829
 8987SOL     OW27859   4.915   6.432   0.557
 8987SOL    HW127860   4.840   6.376   0.593
 8987SOL    HW227861   4.879   6.492   0.485
 8988SOL     OW27862   1.484   3.864   0.480
 8988SOL    HW127863   1.444   3.777   0.453
 8988SOL    HW227864   1.459   3.935   0.414
 8989SOL     OW27865   4.971   4.332   2.107
 8989SOL    HW127866   4.901   4.278   2.060
 8989SOL    HW227867   5.001   4.283   2.189
 8990SOL     OW27868   2.089   5.846   2.072
 8990SOL    HW127869   2.185   5.852   2.047
 8990SOL    HW227870   2.032   5.859   1.991
 8991SOL     OW27871   1.528   2.236   6.636
 8991SOL    HW127872   1.535   2.172   6.713
 8991SOL    HW227873   1.523   2.330   6.671
 8992SOL     OW27874   6.362   2.382   6.936
 8992SOL    HW127875   6.448   2.331   6.942
 8992SOL    HW227876   6.319   2.366   6.847
 8993SOL     OW27877   4.993   2.611   2.708
 8993SOL    HW127878   5.004   2.704   2.673
 8993SOL    HW227879   4.902   2.601   2.749
 8994SOL     OW27880   0.436   4.721   4.830
 8994SOL    HW127881   0.386   4.663   4.766
 8994SOL    HW227882   0.483   4.793   4.779
 8995SOL     OW27883   1.125   2.634   6.794
 8995SOL    HW127884   1.084   2.627   6.703
 8995SOL    HW227885   1.127   2.544   6.836
 8996SOL     OW27886   6.579   5.026   1.503
 8996SOL    HW127887   6.630   4.940   1.495
 8996SOL    HW227888   6.516   5.034   1.425
 8997SOL     OW27889   4.334   1.473   6.288
 8997SOL    HW127890   4.385   1.424   6.360
 8997SOL    HW227891   4.236   1.455   6.299
 8998SOL     OW27892   6.876   3.535   5.178
 8998SOL    HW127893   6.918   3.444   5.183
 8998SOL    HW227894   6.837   3.558   5.267
 8999SOL     OW27895   5.314   6.903   0.003
 8999SOL    HW127896   5.320   6.960   0.085
 8999SOL    HW227897   5.219   6.901   6.998
 9000SOL     OW27898   2.633   4.622   0.153
 9000SOL    HW127899   2.642   4.666   0.242
 9000SOL    HW227900   2.567   4.672   0.097
 9001SOL     OW27901   1.013   6.042   2.658
 9001SOL    HW127902   1.027   6.093   2.743
 9001SOL    HW227903   0.945   6.089   2.602
 9002SOL     OW27904   6.502   5.073   4.881
 9002SOL    HW127905   6.506   4.989   4.934
 9002SOL    HW227906   6.449   5.058   4.797
 9003SOL     OW27907   5.811   2.493   1.275
 9003SOL    HW127908   5.726   2.512   1.324
 9003SOL    HW227909   5.841   2.399   1.294
 9004SOL     OW27910   4.953   6.601   1.653
 9004SOL    HW127911   5.010   6.670   1.698
 9004SOL    HW227912   4.962   6.514   1.702
 9005SOL     OW27913   4.995   2.423   4.930
 9005SOL    HW127914   5.040   2.431   4.841
 9005SOL    HW227915   5.062   2.401   5.000
 9006SOL     OW27916   2.690   6.272   1.026
 9006SOL    HW127917   2.757   6.231   1.089
 9006SOL    HW227918   2.607   6.294   1.076
 9007SOL     OW27919   4.189   0.055   4.230
 9007SOL    HW127920   4.119   0.087   4.295
 9007SOL    HW227921   4.245   7.012   4.274
 9008SOL     OW27922   0.056   5.701   3.384
 9008SOL    HW127923   0.050   5.798   3.360
 9008SOL    HW227924   0.100   5.651   3.309
 9009SOL     OW27925   2.540   1.078   0.455
 9009SOL    HW127926   2.581   1.156   0.502
 9009SOL    HW227927   2.494   1.020   0.522
 9010SOL     OW27928   0.940   0.282   4.270
 9010SOL    HW127929   1.020   0.341   4.283
 9010SOL    HW227930   0.962   0.189   4.298
 9011SOL     OW27931   4.654   2.702   1.362
 9011SOL    HW127932   4.699   2.619   1.395
 9011SOL    HW227933   4.645   2.698   1.262
 9012SOL     OW27934   3.281   4.628   1.067
 9012SOL    HW127935   3.202   4.569   1.084
 9012SOL    HW227936   3.346   4.580   1.008
 9013SOL     OW27937   0.512   6.116   4.417
 9013SOL    HW127938   0.436   6.051   4.414
 9013SOL    HW227939   0.598   6.066   4.429
 9014SOL     OW27940   0.863   0.974   0.228
 9014SOL    HW127941   0.881   1.070   0.208
 9014SOL    HW227942   0.939   0.918   0.194
 9015SOL     OW27943   6.090   1.944   1.282
 9015SOL    HW127944   6.181   1.979   1.304
 9015SOL    HW227945   6.098   1.873   1.213
 9016SOL     OW27946   0.696   6.128   6.321
 9016SOL    HW127947   0.696   6.204   6.386
 9016SOL    HW227948   0.627   6.144   6.250
 9017SOL     OW27949   4.106   2.400   1.701
 9017SOL    HW127950   4.116   2.318   1.756
 9017SOL    HW227951   4.189   2.413   1.645
 9018SOL     OW27952   4.533   1.244   5.797
 9018SOL    HW127953   4.538   1.282   5.889
 9018SOL    HW227954   4.449   1.190   5.787
 9019SOL     OW27955   0.469   1.026   1.609
 9019SOL    HW127956   0.430   1.118   1.614
 9019SOL    HW227957   0.542   1.017   1.677
 9020SOL     OW27958   1.468   3.173   1.363
 9020SOL    HW127959   1.386   3.196   1.415
 9020SOL    HW227960   1.473   3.232   1.282
 9021SOL     OW27961   6.939   0.309   4.064
 9021SOL    HW127962   6.856   0.350   4.103
 9021SOL    HW227963   6.991   0.380   4.016
 9022SOL     OW27964   2.742   1.763   0.456
 9022SOL    HW127965   2.802   1.805   0.524
 9022SOL    HW227966   2.792   1.750   0.371
 9023SOL     OW27967   3.181   3.530   2.392
 9023SOL    HW127968   3.123   3.460   2.351
 9023SOL    HW227969   3.269   3.533   2.344
 9024SOL     OW27970   0.401   5.007   4.479
 9024SOL    HW127971   0.470   5.030   4.548
 9024SOL    HW227972   0.446   4.979   4.394
 9025SOL     OW27973   0.687   5.499   0.355
 9025SOL    HW127974   0.622   5.474   0.283
 9025SOL    HW227975   0.651   5.578   0.405
 9026SOL     OW27976   4.086   3.399   1.845
 9026SOL    HW127977   4.076   3.449   1.931
 9026SOL    HW227978   4.182   3.382   1.827
 9027SOL     OW27979   1.047   1.746   4.368
 9027SOL    HW127980   1.089   1.728   4.279
 9027SOL    HW227981   1.063   1.841   4.394
 9028SOL     OW27982   2.653   3.902   5.850
 9028SOL    HW127983   2.564   3.936   5.819
 9028SOL    HW227984   2.725   3.937   5.790
 9029SOL     OW27985   3.102   5.406   4.485
 9029SOL    HW127986   3.082   5.351   4.565
 9029SOL    HW227987   3.043   5.377   4.409
 9030SOL     OW27988   2.113   2.115   3.695
 9030SOL    HW127989   2.085   2.025   3.729
 9030SOL    HW227990   2.198   2.105   3.643
 9031SOL     OW27991   4.294   5.967   4.613
 9031SOL    HW127992   4.357   6.038   4.645
 9031SOL    HW227993   4.275   5.982   4.516
 9032SOL     OW27994   3.408   3.559   1.011
 9032SOL    HW127995   3.442   3.468   1.035
 9032SOL    HW227996   3.408   3.617   1.093
 9033SOL     OW27997   1.547   5.572   3.940
 9033SOL    HW127998   1.475   5.571   3.871
 9033SOL    HW227999   1.526   5.641   4.009
 9034SOL     OW28000   2.805   0.259   5.174
 9034SOL    HW128001   2.718   0.283   5.131
 9034SOL    HW228002   2.792   0.249   5.272
 9035SOL     OW28003   1.570   4.602   5.722
 9035SOL    HW128004   1.511   4.674   5.686
 9035SOL    HW228005   1.515   4.519   5.737
 9036SOL     OW28006   2.092   0.674   5.656
 9036SOL    HW128007   2.066   0.770   5.662
 9036SOL    HW228008   2.011   0.617   5.660
 9037SOL     OW28009   1.424   3.554   5.661
 9037SOL    HW128010   1.366   3.635   5.651
 9037SOL    HW228011   1.378   3.486   5.718
 9038SOL     OW28012   4.963   6.161   5.979
 9038SOL    HW128013   5.007   6.251   5.984
 9038SOL    HW228014   4.912   6.144   6.063
 9039SOL     OW28015   2.574   4.927   4.799
 9039SOL    HW128016   2.568   4.930   4.699
 9039SOL    HW228017   2.566   4.832   4.829
 9040SOL     OW28018   2.893   2.266   2.747
 9040SOL    HW128019   2.810   2.320   2.733
 9040SOL    HW228020   2.934   2.244   2.659
 9041SOL     OW28021   1.693   1.990   1.928
 9041SOL    HW128022   1.651   2.017   1.841
 9041SOL    HW228023   1.626   1.999   2.002
 9042SOL     OW28024   2.877   6.925   3.737
 9042SOL    HW128025   2.930   6.986   3.679
 9042SOL    HW228026   2.811   6.874   3.682
 9043SOL     OW28027   2.695   1.815   6.674
 9043SOL    HW128028   2.755   1.887   6.640
 9043SOL    HW228029   2.732   1.726   6.649
 9044SOL     OW28030   5.766   1.535   2.281
 9044SOL    HW128031   5.767   1.435   2.277
 9044SOL    HW228032   5.795   1.573   2.193
 9045SOL     OW28033   2.774   1.269   2.445
 9045SOL    HW128034   2.818   1.202   2.505
 9045SOL    HW228035   2.729   1.221   2.370
 9046SOL     OW28036   3.386   4.195   4.391
 9046SOL    HW128037   3.361   4.166   4.298
 9046SOL    HW228038   3.306   4.192   4.449
 9047SOL     OW28039   1.137   3.016   5.868
 9047SOL    HW128040   1.090   3.098   5.901
 9047SOL    HW228041   1.158   3.027   5.771
 9048SOL     OW28042   6.497   1.779   5.752
 9048SOL    HW128043   6.447   1.762   5.667
 9048SOL    HW228044   6.494   1.698   5.810
 9049SOL     OW28045   3.737   6.964   6.550
 9049SOL    HW128046   3.758   6.885   6.608
 9049SOL    HW228047   3.796   6.963   6.470
 9050SOL     OW28048   6.908   3.576   6.624
 9050SOL    HW128049   6.864   3.657   6.663
 9050SOL    HW228050   6.847   3.497   6.634
 9051SOL     OW28051   4.828   6.622   0.849
 9051SOL    HW128052   4.791   6.652   0.761
 9051SOL    HW228053   4.919   6.583   0.835
 9052SOL     OW28054   1.617   2.404   3.764
 9052SOL    HW128055   1.591   2.481   3.820
 9052SOL    HW228056   1.693   2.354   3.807
 9053SOL     OW28057   1.564   1.811   2.778
 9053SOL    HW128058   1.654   1.774   2.799
 9053SOL    HW228059   1.510   1.817   2.862
 9054SOL     OW28060   1.835   0.101   2.067
 9054SOL    HW128061   1.844   0.064   1.975
 9054SOL    HW228062   1.832   0.201   2.062
 9055SOL     OW28063   5.974   3.189   3.770
 9055SOL    HW128064   6.063   3.200   3.815
 9055SOL    HW228065   5.905   3.241   3.819
 9056SOL     OW28066   0.029   1.134   1.682
 9056SOL    HW128067   0.010   1.104   1.775
 9056SOL    HW228068   7.013   1.223   1.665
 9057SOL     OW28069   5.786   4.796   5.940
 9057SOL    HW128070   5.874   4.780   5.985
 9057SOL    HW228071   5.798   4.864   5.867
 9058SOL     OW28072   2.067   1.892   3.347
 9058SOL    HW128073   2.165   1.879   3.360
 9058SOL    HW228074   2.051   1.968   3.284
 9059SOL     OW28075   1.270   1.413   5.351
 9059SOL    HW128076   1.361   1.430   5.312
 9059SOL    HW228077   1.244   1.490   5.409
 9060SOL     OW28078   6.347   2.963   2.395
 9060SOL    HW128079   6.359   3.062   2.383
 9060SOL    HW228080   6.267   2.947   2.453
 9061SOL     OW28081   2.515   5.618   2.062
 9061SOL    HW128082   2.610   5.614   2.093
 9061SOL    HW228083   2.469   5.697   2.104
 9062SOL     OW28084   1.854   6.065   1.832
 9062SOL    HW128085   1.944   6.099   1.858
 9062SOL    HW228086   1.847   6.063   1.732
 9063SOL     OW28087   2.356   7.018   2.673
 9063SOL    HW128088   2.297   7.025   2.753
 9063SOL    HW228089   2.307   0.022   2.591
 9064SOL     OW28090   6.234   2.524   5.827
 9064SOL    HW128091   6.287   2.523   5.912
 9064SOL    HW228092   6.267   2.598   5.768
 9065SOL     OW28093   3.285   6.233   6.248
 9065SOL    HW128094   3.262   6.245   6.345
 9065SOL    HW228095   3.365   6.288   6.226
 9066SOL     OW28096   5.856   6.436   0.210
 9066SOL    HW128097   5.920   6.381   0.263
 9066SOL    HW228098   5.855   6.405   0.116
 9067SOL     OW28099   6.182   0.505   4.618
 9067SOL    HW128100   6.092   0.543   4.640
 9067SOL    HW228101   6.221   0.461   4.699
 9068SOL     OW28102   2.869   6.724   5.459
 9068SOL    HW128103   2.892   6.821   5.461
 9068SOL    HW228104   2.802   6.703   5.530
 9069SOL     OW28105   2.410   2.479   2.160
 9069SOL    HW128106   2.376   2.568   2.190
 9069SOL    HW228107   2.499   2.461   2.201
 9070SOL     OW28108   1.350   3.732   5.950
 9070SOL    HW128109   1.282   3.719   5.878
 9070SOL    HW228110   1.440   3.703   5.916
 9071SOL     OW28111   5.615   0.647   0.758
 9071SOL    HW128112   5.633   0.556   0.720
 9071SOL    HW228113   5.701   0.694   0.775
 9072SOL     OW28114   6.542   1.198   1.738
 9072SOL    HW128115   6.578   1.126   1.678
 9072SOL    HW228116   6.596   1.282   1.726
 9073SOL     OW28117   3.083   6.726   0.592
 9073SOL    HW128118   3.172   6.733   0.639
 9073SOL    HW228119   3.035   6.645   0.625
 9074SOL     OW28120   1.990   1.626   1.845
 9074SOL    HW128121   2.041   1.636   1.930
 9074SOL    HW228122   1.966   1.717   1.810
 9075SOL     OW28123   0.881   1.367   2.907
 9075SOL    HW128124   0.931   1.294   2.954
 9075SOL    HW228125   0.817   1.327   2.841
 9076SOL     OW28126   5.928   1.915   4.849
 9076SOL    HW128127   5.936   1.865   4.762
 9076SOL    HW228128   5.839   1.958   4.854
 9077SOL     OW28129   5.725   6.826   6.703
 9077SOL    HW128130   5.714   6.863   6.611
 9077SOL    HW228131   5.684   6.888   6.770
 9078SOL     OW28132   4.388   3.591   6.396
 9078SOL    HW128133   4.312   3.625   6.452
 9078SOL    HW228134   4.374   3.494   6.377
 9079SOL     OW28135   2.912   6.713   4.047
 9079SOL    HW128136   2.932   6.811   4.046
 9079SOL    HW228137   2.814   6.698   4.033
 9080SOL     OW28138   5.110   2.360   6.901
 9080SOL    HW128139   5.024   2.357   6.850
 9080SOL    HW228140   5.121   2.450   6.943
 9081SOL     OW28141   3.693   5.790   3.051
 9081SOL    HW128142   3.779   5.839   3.048
 9081SOL    HW228143   3.703   5.707   3.106
 9082SOL     OW28144   2.474   6.657   5.222
 9082SOL    HW128145   2.554   6.597   5.223
 9082SOL    HW228146   2.492   6.735   5.162
 9083SOL     OW28147   3.053   5.177   5.803
 9083SOL    HW128148   2.982   5.109   5.819
 9083SOL    HW228149   3.014   5.257   5.757
 9084SOL     OW28150   3.099   3.268   5.259
 9084SOL    HW128151   3.188   3.298   5.226
 9084SOL    HW228152   3.027   3.323   5.215
 9085SOL     OW28153   2.058   4.632   1.519
 9085SOL    HW128154   2.081   4.614   1.615
 9085SOL    HW228155   2.138   4.671   1.472
 9086SOL     OW28156   1.023   4.565   0.554
 9086SOL    HW128157   1.077   4.621   0.491
 9086SOL    HW228158   0.935   4.543   0.512
 9087SOL     OW28159   4.809   2.791   1.923
 9087SOL    HW128160   4.738   2.793   1.852
 9087SOL    HW228161   4.821   2.882   1.961
 9088SOL     OW28162   5.588   6.076   0.499
 9088SOL    HW128163   5.609   6.170   0.527
 9088SOL    HW228164   5.495   6.071   0.463
 9089SOL     OW28165   5.159   5.991   5.852
 9089SOL    HW128166   5.111   6.051   5.917
 9089SOL    HW228167   5.096   5.921   5.819
 9090SOL     OW28168   0.176   0.488   3.202
 9090SOL    HW128169   0.160   0.586   3.194
 9090SOL    HW228170   0.242   0.470   3.276
 9091SOL     OW28171   3.452   4.581   0.639
 9091SOL    HW128172   3.369   4.549   0.593
 9091SOL    HW228173   3.455   4.543   0.732
 9092SOL     OW28174   0.655   1.073   0.776
 9092SOL    HW128175   0.577   1.023   0.738
 9092SOL    HW228176   0.622   1.139   0.843
 9093SOL     OW28177   1.291   6.618   6.093
 9093SOL    HW128178   1.263   6.704   6.137
 9093SOL    HW228179   1.390   6.618   6.079
 9094SOL     OW28180   6.312   5.215   2.851
 9094SOL    HW128181   6.294   5.119   2.871
 9094SOL    HW228182   6.230   5.269   2.869
 9095SOL     OW28183   4.949   4.290   5.746
 9095SOL    HW128184   4.891   4.333   5.815
 9095SOL    HW228185   4.893   4.258   5.670
 9096SOL     OW28186   5.718   3.939   1.949
 9096SOL    HW128187   5.805   3.891   1.954
 9096SOL    HW228188   5.726   4.017   1.887
 9097SOL     OW28189   1.232   2.039   0.632
 9097SOL    HW128190   1.305   2.091   0.588
 9097SOL    HW228191   1.241   1.942   0.608
 9098SOL     OW28192   3.777   1.538   5.450
 9098SOL    HW128193   3.872   1.510   5.437
 9098SOL    HW228194   3.741   1.575   5.365
 9099SOL     OW28195   3.165   2.355   5.631
 9099SOL    HW128196   3.097   2.428   5.641
 9099SOL    HW228197   3.234   2.363   5.703
 9100SOL     OW28198   0.074   3.989   3.991
 9100SOL    HW128199   0.075   4.024   4.084
 9100SOL    HW228200   0.001   4.033   3.939
 9101SOL     OW28201   2.023   2.626   2.957
 9101SOL    HW128202   2.095   2.643   2.889
 9101SOL    HW228203   1.977   2.540   2.936
 9102SOL     OW28204   2.580   0.404   1.967
 9102SOL    HW128205   2.505   0.396   1.901
 9102SOL    HW228206   2.575   0.493   2.013
 9103SOL     OW28207   6.261   3.052   6.691
 9103SOL    HW128208   6.257   3.070   6.592
 9103SOL    HW228209   6.175   3.078   6.734
 9104SOL     OW28210   0.340   6.717   2.382
 9104SOL    HW128211   0.333   6.798   2.325
 9104SOL    HW228212   0.396   6.648   2.336
 9105SOL     OW28213   0.981   1.615   6.605
 9105SOL    HW128214   1.005   1.520   6.586
 9105SOL    HW228215   0.993   1.670   6.523
 9106SOL     OW28216   0.081   2.734   1.002
 9106SOL    HW128217   0.126   2.695   1.082
 9106SOL    HW228218   0.032   2.663   0.953
 9107SOL     OW28219   3.781   0.589   6.187
 9107SOL    HW128220   3.765   0.656   6.259
 9107SOL    HW228221   3.695   0.566   6.142
 9108SOL     OW28222   5.151   4.357   5.919
 9108SOL    HW128223   5.216   4.284   5.901
 9108SOL    HW228224   5.076   4.352   5.854
 9109SOL     OW28225   6.391   2.852   3.791
 9109SOL    HW128226   6.320   2.880   3.727
 9109SOL    HW228227   6.379   2.899   3.878
 9110SOL     OW28228   1.621   5.038   4.372
 9110SOL    HW128229   1.549   5.026   4.440
 9110SOL    HW228230   1.693   4.969   4.387
 9111SOL     OW28231   5.232   1.861   0.598
 9111SOL    HW128232   5.219   1.930   0.527
 9111SOL    HW228233   5.316   1.811   0.581
 9112SOL     OW28234   0.870   5.777   2.695
 9112SOL    HW128235   0.881   5.871   2.663
 9112SOL    HW228236   0.958   5.742   2.727
 9113SOL     OW28237   4.671   2.251   3.322
 9113SOL    HW128238   4.715   2.282   3.406
 9113SOL    HW228239   4.740   2.229   3.254
 9114SOL     OW28240   0.944   4.812   2.623
 9114SOL    HW128241   0.928   4.909   2.606
 9114SOL    HW228242   0.917   4.790   2.717
 9115SOL     OW28243   0.013   5.741   4.423
 9115SOL    HW128244   6.968   5.673   4.436
 9115SOL    HW228245   0.021   5.765   4.326
 9116SOL     OW28246   6.832   0.890   2.168
 9116SOL    HW128247   6.758   0.953   2.146
 9116SOL    HW228248   6.805   0.796   2.147
 9117SOL     OW28249   4.882   2.565   0.271
 9117SOL    HW128250   4.919   2.636   0.210
 9117SOL    HW228251   4.923   2.575   0.362
 9118SOL     OW28252   6.947   3.218   0.707
 9118SOL    HW128253   0.012   3.178   0.705
 9118SOL    HW228254   6.949   3.303   0.759
 9119SOL     OW28255   3.914   0.805   2.477
 9119SOL    HW128256   3.861   0.753   2.544
 9119SOL    HW228257   3.968   0.742   2.421
 9120SOL     OW28258   6.478   1.563   5.935
 9120SOL    HW128259   6.484   1.603   6.026
 9120SOL    HW228260   6.540   1.486   5.927
 9121SOL     OW28261   4.096   0.216   5.753
 9121SOL    HW128262   4.085   0.312   5.730
 9121SOL    HW228263   4.171   0.177   5.700
 9122SOL     OW28264   2.632   4.598   2.234
 9122SOL    HW128265   2.689   4.602   2.152
 9122SOL    HW228266   2.656   4.673   2.296
 9123SOL     OW28267   2.374   0.825   4.125
 9123SOL    HW128268   2.393   0.738   4.081
 9123SOL    HW228269   2.435   0.895   4.088
 9124SOL     OW28270   4.846   5.565   0.826
 9124SOL    HW128271   4.829   5.627   0.902
 9124SOL    HW228272   4.943   5.544   0.821
 9125SOL     OW28273   4.422   4.189   0.555
 9125SOL    HW128274   4.432   4.279   0.598
 9125SOL    HW228275   4.457   4.192   0.461
 9126SOL     OW28276   6.041   3.141   1.231
 9126SOL    HW128277   6.048   3.241   1.222
 9126SOL    HW228278   5.983   3.119   1.309
 9127SOL     OW28279   6.258   1.371   6.571
 9127SOL    HW128280   6.346   1.324   6.566
 9127SOL    HW228281   6.193   1.329   6.509
 9128SOL     OW28282   5.735   2.274   5.296
 9128SOL    HW128283   5.679   2.288   5.379
 9128SOL    HW228284   5.813   2.337   5.298
 9129SOL     OW28285   0.458   3.033   6.937
 9129SOL    HW128286   0.500   2.968   7.000
 9129SOL    HW228287   0.402   3.098   6.989
 9130SOL     OW28288   1.016   3.266   5.929
 9130SOL    HW128289   0.945   3.305   5.870
 9130SOL    HW228290   1.050   3.336   5.991
 9131SOL     OW28291   5.358   2.442   5.890
 9131SOL    HW128292   5.353   2.492   5.976
 9131SOL    HW228293   5.329   2.347   5.904
 9132SOL     OW28294   0.258   5.540   4.412
 9132SOL    HW128295   0.190   5.611   4.433
 9132SOL    HW228296   0.225   5.452   4.444
 9133SOL     OW28297   4.078   6.543   1.500
 9133SOL    HW128298   4.082   6.494   1.587
 9133SOL    HW228299   4.032   6.631   1.513
 9134SOL     OW28300   3.622   5.682   2.037
 9134SOL    HW128301   3.686   5.744   1.990
 9134SOL    HW228302   3.568   5.633   1.969
 9135SOL     OW28303   0.017   0.769   1.692
 9135SOL    HW128304   0.005   0.705   1.616
 9135SOL    HW228305   6.966   0.831   1.697
 9136SOL     OW28306   5.117   5.941   0.088
 9136SOL    HW128307   5.171   5.959   0.006
 9136SOL    HW228308   5.178   5.932   0.167
 9137SOL     OW28309   4.917   1.073   0.171
 9137SOL    HW128310   4.887   1.168   0.182
 9137SOL    HW228311   5.016   1.071   0.158
 9138SOL     OW28312   0.346   5.322   6.704
 9138SOL    HW128313   0.253   5.331   6.738
 9138SOL    HW228314   0.369   5.401   6.647
 9139SOL     OW28315   1.985   2.173   2.749
 9139SOL    HW128316   1.995   2.168   2.649
 9139SOL    HW228317   2.036   2.098   2.791
 9140SOL     OW28318   6.861   3.650   2.448
 9140SOL    HW128319   6.947   3.628   2.402
 9140SOL    HW228320   6.806   3.710   2.389
 9141SOL     OW28321   5.871   6.818   1.637
 9141SOL    HW128322   5.801   6.836   1.568
 9141SOL    HW228323   5.848   6.866   1.722
 9142SOL     OW28324   0.822   3.370   1.710
 9142SOL    HW128325   0.900   3.426   1.739
 9142SOL    HW228326   0.810   3.378   1.612
 9143SOL     OW28327   6.096   2.677   0.127
 9143SOL    HW128328   6.090   2.709   0.222
 9143SOL    HW228329   6.170   2.611   0.118
 9144SOL     OW28330   2.378   5.231   4.716
 9144SOL    HW128331   2.345   5.305   4.775
 9144SOL    HW228332   2.404   5.269   4.627
 9145SOL     OW28333   0.172   5.683   6.906
 9145SOL    HW128334   0.235   5.733   6.966
 9145SOL    HW228335   0.195   5.701   6.811
 9146SOL     OW28336   5.332   3.173   3.491
 9146SOL    HW128337   5.412   3.126   3.453
 9146SOL    HW228338   5.284   3.112   3.554
 9147SOL     OW28339   5.881   6.790   4.943
 9147SOL    HW128340   5.826   6.731   4.885
 9147SOL    HW228341   5.931   6.855   4.886
 9148SOL     OW28342   5.179   5.916   2.560
 9148SOL    HW128343   5.172   5.903   2.658
 9148SOL    HW228344   5.100   5.874   2.515
 9149SOL     OW28345   5.169   3.649   2.117
 9149SOL    HW128346   5.144   3.743   2.140
 9149SOL    HW228347   5.095   3.587   2.146
 9150SOL     OW28348   3.019   5.166   1.156
 9150SOL    HW128349   3.027   5.132   1.062
 9150SOL    HW228350   2.969   5.253   1.156
 9151SOL     OW28351   1.903   4.402   3.762
 9151SOL    HW128352   1.904   4.416   3.861
 9151SOL    HW228353   1.861   4.314   3.741
 9152SOL     OW28354   2.100   4.055   4.339
 9152SOL    HW128355   2.012   4.044   4.293
 9152SOL    HW228356   2.166   4.096   4.276
 9153SOL     OW28357   0.555   2.736   0.363
 9153SOL    HW128358   0.486   2.689   0.418
 9153SOL    HW228359   0.639   2.681   0.360
 9154SOL     OW28360   6.112   4.415   5.098
 9154SOL    HW128361   6.021   4.379   5.118
 9154SOL    HW228362   6.136   4.484   5.166
 9155SOL     OW28363   1.888   4.200   2.933
 9155SOL    HW128364   1.854   4.131   2.997
 9155SOL    HW228365   1.828   4.205   2.854
 9156SOL     OW28366   0.042   1.917   0.531
 9156SOL    HW128367   0.012   1.960   0.617
 9156SOL    HW228368   0.127   1.960   0.500
 9157SOL     OW28369   2.687   4.357   0.073
 9157SOL    HW128370   2.737   4.352   7.014
 9157SOL    HW228371   2.662   4.452   0.091
 9158SOL     OW28372   6.705   4.231   4.866
 9158SOL    HW128373   6.724   4.140   4.831
 9158SOL    HW228374   6.627   4.270   4.817
 9159SOL     OW28375   1.493   0.496   3.089
 9159SOL    HW128376   1.514   0.504   3.187
 9159SOL    HW228377   1.410   0.441   3.078
 9160SOL     OW28378   0.392   6.247   5.816
 9160SOL    HW128379   0.365   6.200   5.900
 9160SOL    HW228380   0.335   6.328   5.804
 9161SOL     OW28381   5.676   5.471   3.455
 9161SOL    HW128382   5.716   5.519   3.377
 9161SOL    HW228383   5.685   5.372   3.442
 9162SOL     OW28384   3.918   0.558   3.076
 9162SOL    HW128385   3.839   0.515   3.031
 9162SOL    HW228386   3.897   0.653   3.097
 9163SOL     OW28387   0.139   3.140   4.034
 9163SOL    HW128388   0.196   3.119   4.114
 9163SOL    HW228389   0.149   3.237   4.011
 9164SOL     OW28390   2.058   0.788   6.681
 9164SOL    HW128391   1.974   0.759   6.726
 9164SOL    HW228392   2.094   0.870   6.726
 9165SOL     OW28393   5.466   1.559   5.816
 9165SOL    HW128394   5.527   1.548   5.894
 9165SOL    HW228395   5.454   1.472   5.769
 9166SOL     OW28396   4.554   5.198   0.661
 9166SOL    HW128397   4.574   5.295   0.671
 9166SOL    HW228398   4.640   5.147   0.657
 9167SOL     OW28399   2.081   2.002   5.758
 9167SOL    HW128400   2.134   2.076   5.717
 9167SOL    HW228401   2.013   2.040   5.821
 9168SOL     OW28402   6.935   6.160   6.738
 9168SOL    HW128403   6.847   6.129   6.775
 9168SOL    HW228404   7.000   6.084   6.739
 9169SOL     OW28405   6.972   6.620   6.564
 9169SOL    HW128406   6.954   6.607   6.466
 9169SOL    HW228407   6.886   6.629   6.613
 9170SOL     OW28408   1.890   0.175   6.422
 9170SOL    HW128409   1.832   0.125   6.485
 9170SOL    HW228410   1.851   0.172   6.330
 9171SOL     OW28411   3.733   5.867   0.867
 9171SOL    HW128412   3.696   5.927   0.939
 9171SOL    HW228413   3.810   5.913   0.823
 9172SOL     OW28414   4.606   1.062   4.041
 9172SOL    HW128415   4.692   1.108   4.018
 9172SOL    HW228416   4.536   1.087   3.975
 9173SOL     OW28417   6.459   3.902   5.392
 9173SOL    HW128418   6.489   3.967   5.321
 9173SOL    HW228419   6.360   3.912   5.407
 9174SOL     OW28420   0.659   5.547   0.703
 9174SOL    HW128421   0.756   5.569   0.700
 9174SOL    HW228422   0.612   5.592   0.626
 9175SOL     OW28423   1.205   6.763   6.536
 9175SOL    HW128424   1.139   6.794   6.467
 9175SOL    HW228425   1.190   6.812   6.621
 9176SOL     OW28426   3.071   0.373   2.047
 9176SOL    HW128427   3.070   0.313   2.126
 9176SOL    HW228428   2.992   0.353   1.989
 9177SOL     OW28429   1.085   3.203   4.252
 9177SOL    HW128430   0.993   3.226   4.221
 9177SOL    HW228431   1.143   3.284   4.245
 9178SOL     OW28432   2.115   4.951   6.584
 9178SOL    HW128433   2.105   4.857   6.553
 9178SOL    HW228434   2.025   4.994   6.593
 9179SOL     OW28435   1.444   5.417   4.702
 9179SOL    HW128436   1.510   5.424   4.777
 9179SOL    HW228437   1.491   5.431   4.615
 9180SOL     OW28438   5.745   2.461   3.254
 9180SOL    HW128439   5.714   2.404   3.178
 9180SOL    HW228440   5.762   2.403   3.334
 9181SOL     OW28441   5.427   2.158   3.991
 9181SOL    HW128442   5.478   2.102   4.057
 9181SOL    HW228443   5.482   2.169   3.908
 9182SOL     OW28444   2.994   7.026   3.238
 9182SOL    HW128445   3.085   7.016   3.281
 9182SOL    HW228446   2.983   0.092   3.204
 9183SOL     OW28447   4.565   4.896   6.937
 9183SOL    HW128448   4.649   4.909   6.883
 9183SOL    HW228449   4.514   4.982   6.942
 9184SOL     OW28450   4.370   2.203   1.193
 9184SOL    HW128451   4.290   2.257   1.170
 9184SOL    HW228452   4.446   2.229   1.134
 9185SOL     OW28453   0.007   6.799   4.781
 9185SOL    HW128454   6.937   6.822   4.786
 9185SOL    HW228455   0.030   6.771   4.688
 9186SOL     OW28456   5.116   0.495   4.915
 9186SOL    HW128457   5.111   0.578   4.860
 9186SOL    HW228458   5.109   0.415   4.856
 9187SOL     OW28459   3.886   1.934   6.965
 9187SOL    HW128460   3.971   1.931   6.912
 9187SOL    HW228461   3.808   1.930   6.903
 9188SOL     OW28462   1.932   0.888   1.521
 9188SOL    HW128463   1.840   0.849   1.516
 9188SOL    HW228464   1.925   0.985   1.546
 9189SOL     OW28465   3.705   6.155   2.448
 9189SOL    HW128466   3.609   6.152   2.420
 9189SOL    HW228467   3.751   6.228   2.398
 9190SOL     OW28468   0.618   3.639   5.350
 9190SOL    HW128469   0.567   3.726   5.347
 9190SOL    HW228470   0.651   3.625   5.443
 9191SOL     OW28471   5.829   1.031   6.509
 9191SOL    HW128472   5.762   0.961   6.486
 9191SOL    HW228473   5.820   1.107   6.444
 9192SOL     OW28474   6.518   2.422   6.629
 9192SOL    HW128475   6.517   2.521   6.640
 9192SOL    HW228476   6.533   2.379   6.718
 9193SOL     OW28477   4.179   3.573   4.484
 9193SOL    HW128478   4.109   3.503   4.499
 9193SOL    HW228479   4.136   3.663   4.487
 9194SOL     OW28480   2.921   6.839   2.205
 9194SOL    HW128481   3.014   6.862   2.177
 9194SOL    HW228482   2.871   6.923   2.227
 9195SOL     OW28483   1.845   3.407   2.936
 9195SOL    HW128484   1.806   3.447   2.854
 9195SOL    HW228485   1.775   3.405   3.008
 9196SOL     OW28486   5.233   6.489   3.510
 9196SOL    HW128487   5.155   6.443   3.553
 9196SOL    HW228488   5.258   6.440   3.426
 9197SOL     OW28489   2.887   5.376   0.998
 9197SOL    HW128490   2.811   5.312   0.988
 9197SOL    HW228491   2.895   5.432   0.915
 9198SOL     OW28492   6.494   4.312   6.842
 9198SOL    HW128493   6.406   4.280   6.808
 9198SOL    HW228494   6.499   4.412   6.834
 9199SOL     OW28495   0.831   2.834   6.023
 9199SOL    HW128496   0.780   2.796   6.101
 9199SOL    HW228497   0.883   2.914   6.054
 9200SOL     OW28498   2.444   5.939   5.569
 9200SOL    HW128499   2.463   6.021   5.623
 9200SOL    HW228500   2.528   5.906   5.527
 9201SOL     OW28501   0.513   2.756   0.760
 9201SOL    HW128502   0.426   2.786   0.800
 9201SOL    HW228503   0.525   2.658   0.776
 9202SOL     OW28504   0.521   6.084   3.445
 9202SOL    HW128505   0.468   6.042   3.519
 9202SOL    HW228506   0.594   6.140   3.483
 9203SOL     OW28507   5.740   3.146   6.094
 9203SOL    HW128508   5.749   3.225   6.033
 9203SOL    HW228509   5.717   3.065   6.040
 9204SOL     OW28510   4.960   3.648   4.153
 9204SOL    HW128511   5.054   3.672   4.174
 9204SOL    HW228512   4.957   3.558   4.109
 9205SOL     OW28513   4.889   5.892   3.123
 9205SOL    HW128514   4.891   5.804   3.170
 9205SOL    HW228515   4.851   5.881   3.031
 9206SOL     OW28516   3.435   6.583   3.651
 9206SOL    HW128517   3.462   6.573   3.747
 9206SOL    HW228518   3.468   6.504   3.599
 9207SOL     OW28519   3.732   5.007   0.352
 9207SOL    HW128520   3.768   4.922   0.391
 9207SOL    HW228521   3.765   5.017   0.258
 9208SOL     OW28522   5.517   4.095   2.149
 9208SOL    HW128523   5.599   4.075   2.096
 9208SOL    HW228524   5.529   4.062   2.243
 9209SOL     OW28525   4.389   0.427   1.197
 9209SOL    HW128526   4.416   0.448   1.291
 9209SOL    HW228527   4.471   0.419   1.141
 9210SOL     OW28528   0.683   0.672   1.511
 9210SOL    HW128529   0.754   0.721   1.461
 9210SOL    HW228530   0.718   0.583   1.541
 9211SOL     OW28531   5.824   3.275   6.717
 9211SOL    HW128532   5.835   3.363   6.669
 9211SOL    HW228533   5.821   3.292   6.816
 9212SOL     OW28534   4.937   4.307   4.722
 9212SOL    HW128535   4.897   4.261   4.643
 9212SOL    HW228536   4.914   4.404   4.720
 9213SOL     OW28537   4.700   5.980   4.635
 9213SOL    HW128538   4.725   5.895   4.588
 9213SOL    HW228539   4.783   6.022   4.673
 9214SOL     OW28540   0.013   2.640   5.369
 9214SOL    HW128541   0.086   2.708   5.378
 9214SOL    HW228542   0.026   2.588   5.284
 9215SOL     OW28543   1.399   4.977   2.532
 9215SOL    HW128544   1.440   4.886   2.535
 9215SOL    HW228545   1.470   5.046   2.525
 9216SOL     OW28546   2.699   6.591   3.714
 9216SOL    HW128547   2.747   6.509   3.682
 9216SOL    HW228548   2.601   6.575   3.712
 9217SOL     OW28549   5.892   2.420   0.460
 9217SOL    HW128550   5.886   2.342   0.399
 9217SOL    HW228551   5.814   2.420   0.522
 9218SOL     OW28552   4.293   0.322   6.833
 9218SOL    HW128553   4.263   0.412   6.867
 9218SOL    HW228554   4.226   0.253   6.861
 9219SOL     OW28555   4.202   3.624   5.854
 9219SOL    HW128556   4.252   3.640   5.939
 9219SOL    HW228557   4.207   3.706   5.797
 9220SOL     OW28558   1.478   6.523   2.082
 9220SOL    HW128559   1.402   6.587   2.091
 9220SOL    HW228560   1.563   6.573   2.067
 9221SOL     OW28561   2.950   0.179   4.261
 9221SOL    HW128562   3.041   0.219   4.269
 9221SOL    HW228563   2.918   0.186   4.167
 9222SOL     OW28564   2.480   5.679   4.734
 9222SOL    HW128565   2.401   5.619   4.744
 9222SOL    HW228566   2.449   5.773   4.716
 9223SOL     OW28567   1.117   2.959   4.145
 9223SOL    HW128568   1.046   2.957   4.074
 9223SOL    HW228569   1.141   3.054   4.166
 9224SOL     OW28570   1.233   4.688   3.381
 9224SOL    HW128571   1.318   4.660   3.337
 9224SOL    HW228572   1.162   4.700   3.311
 9225SOL     OW28573   3.552   5.752   5.846
 9225SOL    HW128574   3.614   5.752   5.924
 9225SOL    HW228575   3.460   5.728   5.876
 9226SOL     OW28576   0.482   6.587   1.322
 9226SOL    HW128577   0.470   6.605   1.420
 9226SOL    HW228578   0.505   6.672   1.275
 9227SOL     OW28579   1.724   6.264   1.324
 9227SOL    HW128580   1.717   6.189   1.258
 9227SOL    HW228581   1.749   6.348   1.275
 9228SOL     OW28582   2.170   2.519   0.353
 9228SOL    HW128583   2.216   2.597   0.395
 9228SOL    HW228584   2.129   2.462   0.424
 9229SOL     OW28585   1.108   4.693   5.769
 9229SOL    HW128586   1.104   4.778   5.716
 9229SOL    HW228587   1.179   4.700   5.839
 9230SOL     OW28588   4.868   3.375   3.113
 9230SOL    HW128589   4.841   3.419   3.027
 9230SOL    HW228590   4.834   3.281   3.114
 9231SOL     OW28591   1.362   2.947   5.190
 9231SOL    HW128592   1.266   2.973   5.179
 9231SOL    HW228593   1.409   3.014   5.247
 9232SOL     OW28594   2.761   5.304   0.305
 9232SOL    HW128595   2.675   5.351   0.284
 9232SOL    HW228596   2.789   5.325   0.399
 9233SOL     OW28597   0.199   6.593   0.629
 9233SOL    HW128598   0.208   6.494   0.642
 9233SOL    HW228599   0.220   6.615   0.534
 9234SOL     OW28600   2.706   5.695   0.825
 9234SOL    HW128601   2.749   5.704   0.914
 9234SOL    HW228602   2.772   5.658   0.759
 9235SOL     OW28603   1.845   3.143   3.232
 9235SOL    HW128604   1.783   3.094   3.293
 9235SOL    HW228605   1.802   3.153   3.142
 9236SOL     OW28606   1.845   3.939   0.055
 9236SOL    HW128607   1.817   4.000   7.008
 9236SOL    HW228608   1.835   3.844   0.025
 9237SOL     OW28609   0.242   5.662   3.578
 9237SOL    HW128610   0.214   5.586   3.519
 9237SOL    HW228611   0.177   5.737   3.570
 9238SOL     OW28612   2.983   2.641   5.933
 9238SOL    HW128613   3.070   2.603   5.901
 9238SOL    HW228614   2.908   2.594   5.887
 9239SOL     OW28615   0.013   4.240   6.661
 9239SOL    HW128616   6.996   4.188   6.734
 9239SOL    HW228617   0.106   4.207   6.648
 9240SOL     OW28618   5.038   3.058   1.913
 9240SOL    HW128619   4.942   3.057   1.940
 9240SOL    HW228620   5.050   3.119   1.835
 9241SOL     OW28621   0.235   5.343   0.757
 9241SOL    HW128622   0.234   5.443   0.760
 9241SOL    HW228623   0.151   5.307   0.795
 9242SOL     OW28624   1.392   3.836   1.545
 9242SOL    HW128625   1.369   3.752   1.495
 9242SOL    HW228626   1.489   3.835   1.569
 9243SOL     OW28627   6.592   0.554   1.502
 9243SOL    HW128628   6.653   0.630   1.525
 9243SOL    HW228629   6.611   0.476   1.562
 9244SOL     OW28630   2.615   5.550   6.184
 9244SOL    HW128631   2.700   5.497   6.178
 9244SOL    HW228632   2.539   5.494   6.150
 9245SOL     OW28633   0.841   4.868   3.319
 9245SOL    HW128634   0.890   4.901   3.400
 9245SOL    HW228635   0.889   4.897   3.237
 9246SOL     OW28636   5.834   0.290   2.823
 9246SOL    HW128637   5.901   0.287   2.749
 9246SOL    HW228638   5.746   0.256   2.789
 9247SOL     OW28639   2.548   6.333   2.833
 9247SOL    HW128640   2.573   6.246   2.789
 9247SOL    HW228641   2.581   6.333   2.927
 9248SOL     OW28642   2.971   1.995   4.391
 9248SOL    HW128643   2.966   2.047   4.306
 9248SOL    HW228644   3.013   2.052   4.462
 9249SOL     OW28645   4.244   4.933   1.164
 9249SOL    HW128646   4.277   4.934   1.259
 9249SOL    HW228647   4.239   5.027   1.131
 9250SOL     OW28648   6.232   3.064   4.586
 9250SOL    HW128649   6.330   3.049   4.580
 9250SOL    HW228650   6.197   3.027   4.672
 9251SOL     OW28651   4.133   1.687   2.403
 9251SOL    HW128652   4.067   1.698   2.328
 9251SOL    HW228653   4.100   1.738   2.483
 9252SOL     OW28654   4.871   0.564   4.745
 9252SOL    HW128655   4.800   0.541   4.811
 9252SOL    HW228656   4.832   0.564   4.653
 9253SOL     OW28657   5.390   4.802   5.861
 9253SOL    HW128658   5.430   4.773   5.948
 9253SOL    HW228659   5.408   4.900   5.847
 9254SOL     OW28660   4.377   4.548   3.379
 9254SOL    HW128661   4.301   4.613   3.380
 9254SOL    HW228662   4.368   4.486   3.302
 9255SOL     OW28663   5.010   3.825   0.174
 9255SOL    HW128664   5.055   3.861   0.256
 9255SOL    HW228665   4.982   3.902   0.116
 9256SOL     OW28666   2.816   0.707   2.454
 9256SOL    HW128667   2.808   0.743   2.547
 9256SOL    HW228668   2.795   0.609   2.454
 9257SOL     OW28669   6.271   5.188   3.366
 9257SOL    HW128670   6.347   5.157   3.308
 9257SOL    HW228671   6.250   5.118   3.433
 9258SOL     OW28672   4.071   3.193   1.659
 9258SOL    HW128673   4.018   3.115   1.691
 9258SOL    HW228674   4.063   3.268   1.725
 9259SOL     OW28675   1.183   1.733   0.870
 9259SOL    HW128676   1.113   1.772   0.931
 9259SOL    HW228677   1.193   1.636   0.890
 9260SOL     OW28678   6.260   1.777   5.549
 9260SOL    HW128679   6.277   1.801   5.453
 9260SOL    HW228680   6.253   1.678   5.558
 9261SOL     OW28681   3.754   1.632   0.380
 9261SOL    HW128682   3.724   1.727   0.372
 9261SOL    HW228683   3.733   1.584   0.295
 9262SOL     OW28684   0.317   5.735   5.240
 9262SOL    HW128685   0.317   5.834   5.223
 9262SOL    HW228686   0.333   5.718   5.338
 9263SOL     OW28687   3.211   6.402   2.748
 9263SOL    HW128688   3.125   6.403   2.697
 9263SOL    HW228689   3.235   6.308   2.771
 9264SOL     OW28690   4.796   4.602   0.474
 9264SOL    HW128691   4.777   4.515   0.519
 9264SOL    HW228692   4.747   4.605   0.387
 9265SOL     OW28693   3.168   2.570   6.973
 9265SOL    HW128694   3.241   2.561   0.014
 9265SOL    HW228695   3.126   2.660   6.981
 9266SOL     OW28696   1.472   5.996   0.865
 9266SOL    HW128697   1.558   5.962   0.826
 9266SOL    HW228698   1.402   5.999   0.793
 9267SOL     OW28699   6.906   1.990   4.737
 9267SOL    HW128700   6.839   1.948   4.676
 9267SOL    HW228701   6.975   2.038   4.683
 9268SOL     OW28702   1.796   0.020   2.338
 9268SOL    HW128703   1.702   0.045   2.360
 9268SOL    HW228704   1.816   0.046   2.243
 9269SOL     OW28705   4.245   0.941   6.285
 9269SOL    HW128706   4.172   1.006   6.265
 9269SOL    HW228707   4.319   0.953   6.219
 9270SOL     OW28708   4.359   6.686   5.772
 9270SOL    HW128709   4.269   6.678   5.815
 9270SOL    HW228710   4.387   6.782   5.770
 9271SOL     OW28711   6.080   6.822   0.305
 9271SOL    HW128712   6.051   6.766   0.228
 9271SOL    HW228713   6.044   6.782   0.390
 9272SOL     OW28714   1.381   5.211   5.878
 9272SOL    HW128715   1.284   5.214   5.855
 9272SOL    HW228716   1.433   5.265   5.812
 9273SOL     OW28717   5.868   6.298   3.100
 9273SOL    HW128718   5.772   6.303   3.126
 9273SOL    HW228719   5.899   6.203   3.107
 9274SOL     OW28720   6.990   1.669   0.477
 9274SOL    HW128721   0.007   1.756   0.498
 9274SOL    HW228722   6.916   1.653   0.541
 9275SOL     OW28723   6.636   0.779   6.780
 9275SOL    HW128724   6.661   0.872   6.807
 9275SOL    HW228725   6.636   0.720   6.861
 9276SOL     OW28726   1.637   4.420   1.122
 9276SOL    HW128727   1.581   4.500   1.101
 9276SOL    HW228728   1.623   4.393   1.217
 9277SOL     OW28729   4.633   4.503   1.848
 9277SOL    HW128730   4.586   4.581   1.890
 9277SOL    HW228731   4.586   4.418   1.873
 9278SOL     OW28732   1.709   0.079   5.506
 9278SOL    HW128733   1.719   0.087   5.605
 9278SOL    HW228734   1.612   0.084   5.482
 9279SOL     OW28735   2.622   0.387   1.610
 9279SOL    HW128736   2.617   0.486   1.624
 9279SOL    HW228737   2.534   0.352   1.580
 9280SOL     OW28738   2.438   1.643   2.397
 9280SOL    HW128739   2.357   1.614   2.447
 9280SOL    HW228740   2.516   1.587   2.423
 9281SOL     OW28741   3.315   4.107   6.817
 9281SOL    HW128742   3.367   4.108   6.732
 9281SOL    HW228743   3.355   4.040   6.880
 9282SOL     OW28744   5.254   1.372   3.885
 9282SOL    HW128745   5.326   1.436   3.859
 9282SOL    HW228746   5.289   1.310   3.956
 9283SOL     OW28747   4.509   0.569   4.257
 9283SOL    HW128748   4.588   0.546   4.200
 9283SOL    HW228749   4.429   0.585   4.200
 9284SOL     OW28750   3.073   2.733   5.335
 9284SOL    HW128751   3.062   2.829   5.309
 9284SOL    HW228752   2.983   2.690   5.343
 9285SOL     OW28753   5.202   3.488   1.627
 9285SOL    HW128754   5.289   3.538   1.617
 9285SOL    HW228755   5.129   3.554   1.643
 9286SOL     OW28756   5.645   5.726   0.971
 9286SOL    HW128757   5.590   5.798   0.928
 9286SOL    HW228758   5.664   5.751   1.066
 9287SOL     OW28759   3.744   4.831   6.727
 9287SOL    HW128760   3.718   4.913   6.676
 9287SOL    HW228761   3.695   4.829   6.814
 9288SOL     OW28762   4.694   1.474   2.606
 9288SOL    HW128763   4.608   1.463   2.655
 9288SOL    HW228764   4.755   1.535   2.658
 9289SOL     OW28765   4.625   0.151   1.529
 9289SOL    HW128766   4.525   0.146   1.539
 9289SOL    HW228767   4.660   0.061   1.502
 9290SOL     OW28768   5.245   0.787   3.649
 9290SOL    HW128769   5.290   0.702   3.621
 9290SOL    HW228770   5.313   0.850   3.687
 9291SOL     OW28771   1.113   4.936   5.673
 9291SOL    HW128772   1.073   4.972   5.589
 9291SOL    HW228773   1.107   5.006   5.745
 9292SOL     OW28774   2.357   2.855   6.284
 9292SOL    HW128775   2.345   2.926   6.214
 9292SOL    HW228776   2.453   2.830   6.290
 9293SOL     OW28777   6.175   3.769   6.759
 9293SOL    HW128778   6.197   3.855   6.714
 9293SOL    HW228779   6.199   3.775   6.856
 9294SOL     OW28780   5.382   0.718   5.976
 9294SOL    HW128781   5.288   0.683   5.975
 9294SOL    HW228782   5.383   0.814   5.948
 9295SOL     OW28783   5.166   0.508   5.549
 9295SOL    HW128784   5.088   0.495   5.489
 9295SOL    HW228785   5.243   0.546   5.497
 9296SOL     OW28786   2.232   5.446   0.163
 9296SOL    HW128787   2.276   5.510   0.101
 9296SOL    HW228788   2.237   5.482   0.256
 9297SOL     OW28789   0.839   6.895   2.690
 9297SOL    HW128790   0.757   6.841   2.708
 9297SOL    HW228791   0.829   6.986   2.732
 9298SOL     OW28792   0.730   6.502   6.455
 9298SOL    HW128793   0.650   6.534   6.403
 9298SOL    HW228794   0.794   6.456   6.394
 9299SOL     OW28795   0.831   2.041   4.290
 9299SOL    HW128796   0.767   1.997   4.227
 9299SOL    HW228797   0.852   1.979   4.365
 9300SOL     OW28798   0.609   4.613   5.930
 9300SOL    HW128799   0.625   4.530   5.984
 9300SOL    HW228800   0.535   4.596   5.865
 9301SOL     OW28801   5.432   5.489   4.595
 9301SOL    HW128802   5.453   5.396   4.563
 9301SOL    HW228803   5.482   5.555   4.541
 9302SOL     OW28804   2.136   3.421   4.081
 9302SOL    HW128805   2.040   3.393   4.084
 9302SOL    HW228806   2.159   3.471   4.164
 9303SOL     OW28807   3.063   3.668   0.544
 9303SOL    HW128808   3.156   3.649   0.514
 9303SOL    HW228809   3.014   3.582   0.556
 9304SOL     OW28810   4.508   4.447   0.616
 9304SOL    HW128811   4.491   4.522   0.680
 9304SOL    HW228812   4.441   4.451   0.542
 9305SOL     OW28813   3.722   1.050   0.746
 9305SOL    HW128814   3.816   1.027   0.772
 9305SOL    HW228815   3.697   0.998   0.664
 9306SOL     OW28816   1.213   3.414   5.525
 9306SOL    HW128817   1.240   3.360   5.445
 9306SOL    HW228818   1.264   3.384   5.605
 9307SOL     OW28819   1.201   3.623   1.081
 9307SOL    HW128820   1.203   3.686   1.003
 9307SOL    HW228821   1.158   3.667   1.159
 9308SOL     OW28822   1.542   3.344   1.829
 9308SOL    HW128823   1.508   3.265   1.780
 9308SOL    HW228824   1.465   3.398   1.864
 9309SOL     OW28825   2.672   5.628   5.686
 9309SOL    HW128826   2.650   5.712   5.735
 9309SOL    HW228827   2.745   5.580   5.735
 9310SOL     OW28828   5.548   5.646   5.694
 9310SOL    HW128829   5.531   5.716   5.763
 9310SOL    HW228830   5.644   5.648   5.667
 9311SOL     OW28831   4.933   4.716   1.211
 9311SOL    HW128832   5.019   4.745   1.253
 9311SOL    HW228833   4.925   4.617   1.215
 9312SOL     OW28834   1.934   2.688   1.061
 9312SOL    HW128835   1.856   2.750   1.072
 9312SOL    HW228836   1.910   2.615   0.997
 9313SOL     OW28837   0.063   0.638   1.449
 9313SOL    HW128838   0.159   0.619   1.427
 9313SOL    HW228839   0.007   0.630   1.367
 9314SOL     OW28840   6.731   3.382   6.703
 9314SOL    HW128841   6.739   3.287   6.734
 9314SOL    HW228842   6.636   3.412   6.711
 9315SOL     OW28843   6.934   6.892   5.467
 9315SOL    HW128844   6.972   6.915   5.556
 9315SOL    HW228845   6.993   6.927   5.395
 9316SOL     OW28846   6.198   6.381   5.343
 9316SOL    HW128847   6.247   6.446   5.401
 9316SOL    HW228848   6.246   6.294   5.342
 9317SOL     OW28849   4.633   5.595   4.219
 9317SOL    HW128850   4.551   5.617   4.271
 9317SOL    HW228851   4.624   5.503   4.180
 9318SOL     OW28852   6.299   0.253   6.750
 9318SOL    HW128853   6.284   0.335   6.805
 9318SOL    HW228854   6.329   0.279   6.658
 9319SOL     OW28855   2.780   2.983   1.280
 9319SOL    HW128856   2.711   3.011   1.348
 9319SOL    HW228857   2.771   2.885   1.263
 9320SOL     OW28858   3.938   0.503   5.403
 9320SOL    HW128859   3.937   0.518   5.305
 9320SOL    HW228860   3.981   0.414   5.423
 9321SOL     OW28861   1.151   0.723   4.739
 9321SOL    HW128862   1.109   0.694   4.825
 9321SOL    HW228863   1.167   0.822   4.741
 9322SOL     OW28864   0.332   4.331   6.894
 9322SOL    HW128865   0.329   4.291   6.802
 9322SOL    HW228866   0.312   4.428   6.889
 9323SOL     OW28867   0.975   1.113   4.740
 9323SOL    HW128868   0.934   1.049   4.675
 9323SOL    HW228869   1.070   1.087   4.756
 9324SOL     OW28870   2.000   4.116   2.324
 9324SOL    HW128871   1.934   4.068   2.266
 9324SOL    HW228872   2.091   4.078   2.310
 9325SOL     OW28873   6.801   0.141   6.995
 9325SOL    HW128874   6.791   0.187   0.056
 9325SOL    HW228875   6.892   0.160   6.958
 9326SOL     OW28876   2.543   4.978   0.352
 9326SOL    HW128877   2.595   4.898   0.384
 9326SOL    HW228878   2.540   4.977   0.252
 9327SOL     OW28879   4.222   0.077   2.627
 9327SOL    HW128880   4.307   0.118   2.592
 9327SOL    HW228881   4.223   0.078   2.727
 9328SOL     OW28882   2.343   0.905   4.849
 9328SOL    HW128883   2.334   0.832   4.782
 9328SOL    HW228884   2.436   0.907   4.885
 9329SOL     OW28885   5.988   4.141   0.887
 9329SOL    HW128886   6.051   4.084   0.834
 9329SOL    HW228887   6.020   4.235   0.886
 9330SOL     OW28888   6.738   0.379   5.843
 9330SOL    HW128889   6.692   0.368   5.755
 9330SOL    HW228890   6.832   0.409   5.828
 9331SOL     OW28891   2.334   0.969   6.245
 9331SOL    HW128892   2.364   1.048   6.298
 9331SOL    HW228893   2.338   0.887   6.302
 9332SOL     OW28894   3.326   5.108   0.568
 9332SOL    HW128895   3.300   5.204   0.572
 9332SOL    HW228896   3.387   5.086   0.645
 9333SOL     OW28897   3.620   5.615   6.664
 9333SOL    HW128898   3.686   5.681   6.627
 9333SOL    HW228899   3.618   5.622   6.763
 9334SOL     OW28900   4.288   6.298   4.983
 9334SOL    HW128901   4.259   6.380   4.935
 9334SOL    HW228902   4.307   6.320   5.079
 9335SOL     OW28903   1.738   1.398   6.920
 9335SOL    HW128904   1.822   1.451   6.915
 9335SOL    HW228905   1.669   1.449   6.972
 9336SOL     OW28906   4.566   6.769   4.304
 9336SOL    HW128907   4.658   6.743   4.275
 9336SOL    HW228908   4.572   6.851   4.361
 9337SOL     OW28909   5.259   1.063   5.671
 9337SOL    HW128910   5.253   0.965   5.652
 9337SOL    HW228911   5.338   1.082   5.729
 9338SOL     OW28912   6.012   0.042   1.109
 9338SOL    HW128913   6.061   0.026   1.195
 9338SOL    HW228914   6.019   0.139   1.084
 9339SOL     OW28915   6.255   6.111   0.190
 9339SOL    HW128916   6.350   6.104   0.162
 9339SOL    HW228917   6.234   6.205   0.217
 9340SOL     OW28918   3.624   4.973   3.190
 9340SOL    HW128919   3.700   5.036   3.174
 9340SOL    HW228920   3.597   4.931   3.103
 9341SOL     OW28921   5.516   4.441   0.819
 9341SOL    HW128922   5.563   4.493   0.891
 9341SOL    HW228923   5.584   4.391   0.765
 9342SOL     OW28924   2.245   0.174   4.673
 9342SOL    HW128925   2.285   0.167   4.764
 9342SOL    HW228926   2.161   0.118   4.669
 9343SOL     OW28927   4.732   4.201   2.093
 9343SOL    HW128928   4.710   4.219   2.189
 9343SOL    HW228929   4.653   4.223   2.036
 9344SOL     OW28930   5.172   6.093   1.422
 9344SOL    HW128931   5.252   6.095   1.482
 9344SOL    HW228932   5.185   6.158   1.347
 9345SOL     OW28933   6.468   5.011   1.276
 9345SOL    HW128934   6.374   4.979   1.292
 9345SOL    HW228935   6.470   5.071   1.196
 9346SOL     OW28936   4.428   0.727   1.583
 9346SOL    HW128937   4.389   0.681   1.503
 9346SOL    HW228938   4.487   0.664   1.633
 9347SOL     OW28939   3.167   5.926   0.355
 9347SOL    HW128940   3.214   5.841   0.331
 9347SOL    HW228941   3.228   6.003   0.335
 9348SOL     OW28942   2.818   5.506   2.528
 9348SOL    HW128943   2.795   5.592   2.482
 9348SOL    HW228944   2.897   5.464   2.484
 9349SOL     OW28945   6.772   5.350   2.094
 9349SOL    HW128946   6.754   5.265   2.144
 9349SOL    HW228947   6.810   5.328   2.004
 9350SOL     OW28948   6.362   1.582   4.515
 9350SOL    HW128949   6.329   1.593   4.421
 9350SOL    HW228950   6.285   1.586   4.578
 9351SOL     OW28951   3.475   7.010   6.470
 9351SOL    HW128952   3.567   6.995   6.508
 9351SOL    HW228953   3.479   0.056   6.402
 9352SOL     OW28954   3.623   1.935   6.294
 9352SOL    HW128955   3.596   1.965   6.202
 9352SOL    HW228956   3.556   1.869   6.328
 9353SOL     OW28957   1.013   4.770   1.346
 9353SOL    HW128958   1.075   4.845   1.328
 9353SOL    HW228959   0.987   4.771   1.443
 9354SOL     OW28960   0.043   1.988   6.123
 9354SOL    HW128961   0.110   1.979   6.049
 9354SOL    HW228962   0.082   1.952   6.208
 9355SOL     OW28963   0.014   1.486   4.555
 9355SOL    HW128964   0.051   1.401   4.518
 9355SOL    HW228965   0.087   1.554   4.560
 9356SOL     OW28966   4.829   5.931   2.293
 9356SOL    HW128967   4.914   5.895   2.331
 9356SOL    HW228968   4.823   5.906   2.196
 9357SOL     OW28969   2.919   3.254   6.325
 9357SOL    HW128970   2.819   3.259   6.335
 9357SOL    HW228971   2.952   3.167   6.363
 9358SOL     OW28972   6.058   2.989   2.464
 9358SOL    HW128973   5.961   2.996   2.441
 9358SOL    HW228974   6.092   3.079   2.491
 9359SOL     OW28975   0.964   3.491   5.656
 9359SOL    HW128976   0.927   3.567   5.603
 9359SOL    HW228977   1.062   3.480   5.636
 9360SOL     OW28978   1.760   5.841   6.325
 9360SOL    HW128979   1.679   5.900   6.319
 9360SOL    HW228980   1.840   5.892   6.296
 9361SOL     OW28981   1.369   6.499   3.124
 9361SOL    HW128982   1.383   6.547   3.038
 9361SOL    HW228983   1.317   6.557   3.187
 9362SOL     OW28984   2.221   3.030   2.799
 9362SOL    HW128985   2.143   3.084   2.831
 9362SOL    HW228986   2.279   3.087   2.741
 9363SOL     OW28987   3.842   6.730   1.915
 9363SOL    HW128988   3.923   6.783   1.938
 9363SOL    HW228989   3.845   6.642   1.962
 9364SOL     OW28990   3.859   2.700   6.180
 9364SOL    HW128991   3.761   2.706   6.159
 9364SOL    HW228992   3.907   2.775   6.135
 9365SOL     OW28993   2.335   1.944   4.976
 9365SOL    HW128994   2.307   2.035   4.947
 9365SOL    HW228995   2.374   1.894   4.898
 9366SOL     OW28996   3.202   6.509   6.913
 9366SOL    HW128997   3.173   6.482   7.005
 9366SOL    HW228998   3.268   6.583   6.920
 9367SOL     OW28999   6.664   6.229   2.630
 9367SOL    HW129000   6.743   6.194   2.678
 9367SOL    HW229001   6.582   6.219   2.687
 9368SOL     OW29002   2.775   1.371   3.657
 9368SOL    HW129003   2.782   1.363   3.558
 9368SOL    HW229004   2.818   1.292   3.701
 9369SOL     OW29005   6.674   6.686   4.744
 9369SOL    HW129006   6.666   6.599   4.793
 9369SOL    HW229007   6.740   6.745   4.791
 9370SOL     OW29008   4.689   0.847   2.225
 9370SOL    HW129009   4.639   0.818   2.144
 9370SOL    HW229010   4.773   0.793   2.234
 9371SOL     OW29011   1.830   4.917   0.693
 9371SOL    HW129012   1.881   4.970   0.761
 9371SOL    HW229013   1.892   4.857   0.643
 9372SOL     OW29014   5.507   5.939   2.615
 9372SOL    HW129015   5.505   6.037   2.633
 9372SOL    HW229016   5.417   5.910   2.582
 9373SOL     OW29017   4.775   1.912   2.459
 9373SOL    HW129018   4.739   1.950   2.374
 9373SOL    HW229019   4.707   1.850   2.498
 9374SOL     OW29020   0.669   3.507   0.652
 9374SOL    HW129021   0.620   3.521   0.738
 9374SOL    HW229022   0.710   3.416   0.652
 9375SOL     OW29023   6.903   1.461   2.889
 9375SOL    HW129024   6.991   1.419   2.870
 9375SOL    HW229025   6.918   1.551   2.931
 9376SOL     OW29026   2.822   4.706   1.139
 9376SOL    HW129027   2.840   4.697   1.041
 9376SOL    HW229028   2.753   4.639   1.166
 9377SOL     OW29029   2.012   5.277   4.271
 9377SOL    HW129030   1.914   5.274   4.293
 9377SOL    HW229031   2.052   5.187   4.283
 9378SOL     OW29032   1.736   0.984   5.164
 9378SOL    HW129033   1.693   1.043   5.233
 9378SOL    HW229034   1.694   1.001   5.075
 9379SOL     OW29035   4.188   5.696   5.624
 9379SOL    HW129036   4.160   5.791   5.618
 9379SOL    HW229037   4.119   5.643   5.673
 9380SOL     OW29038   5.377   5.068   4.696
 9380SOL    HW129039   5.382   5.141   4.628
 9380SOL    HW229040   5.470   5.036   4.717
 9381SOL     OW29041   3.884   2.429   6.071
 9381SOL    HW129042   3.802   2.412   6.125
 9381SOL    HW229043   3.915   2.523   6.086
 9382SOL     OW29044   3.333   0.854   3.393
 9382SOL    HW129045   3.401   0.825   3.460
 9382SOL    HW229046   3.377   0.864   3.303
 9383SOL     OW29047   1.341   5.850   4.680
 9383SOL    HW129048   1.302   5.910   4.749
 9383SOL    HW229049   1.357   5.901   4.595
 9384SOL     OW29050   3.917   0.121   2.181
 9384SOL    HW129051   3.879   0.179   2.110
 9384SOL    HW229052   3.907   0.165   2.270
 9385SOL     OW29053   4.418   0.837   3.489
 9385SOL    HW129054   4.497   0.889   3.520
 9385SOL    HW229055   4.446   0.743   3.469
 9386SOL     OW29056   1.943   5.967   4.948
 9386SOL    HW129057   1.922   6.012   4.861
 9386SOL    HW229058   1.873   5.991   5.015
 9387SOL     OW29059   2.805   1.584   6.742
 9387SOL    HW129060   2.883   1.564   6.682
 9387SOL    HW229061   2.838   1.632   6.824
 9388SOL     OW29062   2.467   5.823   2.480
 9388SOL    HW129063   2.436   5.812   2.575
 9388SOL    HW229064   2.388   5.833   2.421
 9389SOL     OW29065   2.190   0.004   3.943
 9389SOL    HW129066   2.227   0.006   3.850
 9389SOL    HW229067   2.119   0.074   3.951
 9390SOL     OW29068   4.715   4.532   5.282
 9390SOL    HW129069   4.705   4.626   5.313
 9390SOL    HW229070   4.811   4.504   5.291
 9391SOL     OW29071   2.760   1.516   4.872
 9391SOL    HW129072   2.827   1.525   4.946
 9391SOL    HW229073   2.805   1.529   4.784
 9392SOL     OW29074   6.580   6.803   5.092
 9392SOL    HW129075   6.545   6.893   5.066
 9392SOL    HW229076   6.517   6.732   5.059
 9393SOL     OW29077   3.488   6.451   6.432
 9393SOL    HW129078   3.584   6.440   6.456
 9393SOL    HW229079   3.474   6.424   6.337
 9394SOL     OW29080   0.051   1.493   2.120
 9394SOL    HW129081   0.106   1.488   2.037
 9394SOL    HW229082   0.106   1.530   2.195
 9395SOL     OW29083   2.859   1.685   1.214
 9395SOL    HW129084   2.931   1.619   1.235
 9395SOL    HW229085   2.899   1.776   1.204
 9396SOL     OW29086   1.887   5.108   3.657
 9396SOL    HW129087   1.967   5.120   3.715
 9396SOL    HW229088   1.913   5.060   3.573
 9397SOL     OW29089   4.806   0.070   6.317
 9397SOL    HW129090   4.898   0.098   6.345
 9397SOL    HW229091   4.811   7.010   6.269
 9398SOL     OW29092   6.677   0.537   4.958
 9398SOL    HW129093   6.671   0.459   4.895
 9398SOL    HW229094   6.585   0.563   4.988
 9399SOL     OW29095   0.390   1.876   5.712
 9399SOL    HW129096   0.389   1.865   5.612
 9399SOL    HW229097   0.353   1.793   5.755
 9400SOL     OW29098   4.175   0.838   1.661
 9400SOL    HW129099   4.250   0.774   1.645
 9400SOL    HW229100   4.175   0.909   1.591
 9401SOL     OW29101   6.007   0.578   3.453
 9401SOL    HW129102   5.998   0.480   3.467
 9401SOL    HW229103   5.961   0.604   3.368
 9402SOL     OW29104   1.260   5.537   3.207
 9402SOL    HW129105   1.340   5.495   3.250
 9402SOL    HW229106   1.273   5.540   3.108
 9403SOL     OW29107   6.211   1.437   3.064
 9403SOL    HW129108   6.240   1.512   3.124
 9403SOL    HW229109   6.149   1.376   3.115
 9404SOL     OW29110   1.558   3.624   0.102
 9404SOL    HW129111   1.643   3.634   0.051
 9404SOL    HW229112   1.510   3.542   0.072
 9405SOL     OW29113   1.702   4.917   3.096
 9405SOL    HW129114   1.662   4.981   3.031
 9405SOL    HW229115   1.658   4.828   3.087
 9406SOL     OW29116   6.933   3.118   5.967
 9406SOL    HW129117   6.943   3.137   5.870
 9406SOL    HW229118   6.841   3.142   5.997
 9407SOL     OW29119   2.936   5.102   2.994
 9407SOL    HW129120   2.857   5.042   2.979
 9407SOL    HW229121   2.944   5.123   3.091
 9408SOL     OW29122   5.994   2.407   5.945
 9408SOL    HW129123   6.063   2.462   5.899
 9408SOL    HW229124   5.960   2.455   6.025
 9409SOL     OW29125   5.806   6.073   0.225
 9409SOL    HW129126   5.840   6.130   0.299
 9409SOL    HW229127   5.877   6.062   0.156
 9410SOL     OW29128   2.930   0.310   1.391
 9410SOL    HW129129   3.016   0.358   1.370
 9410SOL    HW229130   2.859   0.341   1.328
 9411SOL     OW29131   3.177   2.979   2.069
 9411SOL    HW129132   3.153   3.076   2.071
 9411SOL    HW229133   3.133   2.934   1.991
 9412SOL     OW29134   0.039   2.250   2.725
 9412SOL    HW129135   0.089   2.328   2.762
 9412SOL    HW229136   0.078   2.165   2.761
 9413SOL     OW29137   3.517   5.666   3.347
 9413SOL    HW129138   3.527   5.602   3.271
 9413SOL    HW229139   3.524   5.760   3.313
 9414SOL     OW29140   2.856   0.676   3.074
 9414SOL    HW129141   2.906   0.753   3.035
 9414SOL    HW229142   2.794   0.709   3.144
 9415SOL     OW29143   2.729   6.790   1.640
 9415SOL    HW129144   2.698   6.884   1.626
 9415SOL    HW229145   2.794   6.787   1.715
 9416SOL     OW29146   0.379   2.553   0.507
 9416SOL    HW129147   0.444   2.497   0.559
 9416SOL    HW229148   0.325   2.608   0.570
 9417SOL     OW29149   4.801   0.690   0.217
 9417SOL    HW129150   4.737   0.674   0.141
 9417SOL    HW229151   4.781   0.778   0.259
 9418SOL     OW29152   4.392   6.685   1.119
 9418SOL    HW129153   4.429   6.766   1.164
 9418SOL    HW229154   4.459   6.649   1.054
 9419SOL     OW29155   3.390   5.157   6.074
 9419SOL    HW129156   3.328   5.120   6.005
 9419SOL    HW229157   3.403   5.255   6.058
 9420SOL     OW29158   0.048   3.912   6.009
 9420SOL    HW129159   6.982   3.889   6.037
 9420SOL    HW229160   0.080   3.991   6.061
 9421SOL     OW29161   2.246   6.280   4.028
 9421SOL    HW129162   2.209   6.223   4.102
 9421SOL    HW229163   2.224   6.238   3.940
 9422SOL     OW29164   3.234   5.428   3.329
 9422SOL    HW129165   3.217   5.364   3.254
 9422SOL    HW229166   3.321   5.405   3.373
 9423SOL     OW29167   2.966   0.069   3.543
 9423SOL    HW129168   3.055   0.049   3.502
 9423SOL    HW229169   2.894   0.039   3.482
 9424SOL     OW29170   4.944   1.221   4.405
 9424SOL    HW129171   4.939   1.204   4.504
 9424SOL    HW229172   4.965   1.135   4.358
 9425SOL     OW29173   6.324   3.049   0.485
 9425SOL    HW129174   6.371   2.996   0.415
 9425SOL    HW229175   6.237   3.006   0.507
 9426SOL     OW29176   3.648   1.527   6.206
 9426SOL    HW129177   3.721   1.577   6.254
 9426SOL    HW229178   3.667   1.528   6.107
 9427SOL     OW29179   2.607   4.590   3.257
 9427SOL    HW129180   2.525   4.627   3.301
 9427SOL    HW229181   2.600   4.491   3.251
 9428SOL     OW29182   6.460   0.776   1.127
 9428SOL    HW129183   6.446   0.834   1.207
 9428SOL    HW229184   6.470   0.681   1.156
 9429SOL     OW29185   2.127   3.685   2.678
 9429SOL    HW129186   2.113   3.637   2.765
 9429SOL    HW229187   2.112   3.622   2.602
 9430SOL     OW29188   0.560   3.920   3.267
 9430SOL    HW129189   0.566   3.953   3.173
 9430SOL    HW229190   0.509   3.834   3.269
 9431SOL     OW29191   6.318   3.658   0.972
 9431SOL    HW129192   6.413   3.630   0.962
 9431SOL    HW229193   6.293   3.718   0.897
 9432SOL     OW29194   5.244   0.419   3.323
 9432SOL    HW129195   5.237   0.326   3.360
 9432SOL    HW229196   5.171   0.475   3.361
 9433SOL     OW29197   2.659   6.086   2.699
 9433SOL    HW129198   2.749   6.044   2.706
 9433SOL    HW229199   2.590   6.023   2.735
 9434SOL     OW29200   4.909   5.268   2.809
 9434SOL    HW129201   5.005   5.292   2.820
 9434SOL    HW229202   4.899   5.203   2.734
 9435SOL     OW29203   0.065   2.446   5.182
 9435SOL    HW129204   0.013   2.366   5.151
 9435SOL    HW229205   0.146   2.415   5.233
 9436SOL     OW29206   1.643   2.766   1.046
 9436SOL    HW129207   1.590   2.688   1.014
 9436SOL    HW229208   1.623   2.846   0.990
 9437SOL     OW29209   0.731   5.993   2.909
 9437SOL    HW129210   0.771   5.912   2.867
 9437SOL    HW229211   0.802   6.064   2.918
 9438SOL     OW29212   0.098   0.226   1.700
 9438SOL    HW129213   0.174   0.212   1.764
 9438SOL    HW229214   0.134   0.231   1.606
 9439SOL     OW29215   0.837   3.593   1.418
 9439SOL    HW129216   0.755   3.607   1.472
 9439SOL    HW229217   0.860   3.496   1.416
 9440SOL     OW29218   4.183   4.727   3.409
 9440SOL    HW129219   4.172   4.739   3.310
 9440SOL    HW229220   4.106   4.769   3.457
 9441SOL     OW29221   0.032   3.525   5.781
 9441SOL    HW129222   0.111   3.545   5.839
 9441SOL    HW229223   0.041   3.573   5.694
 9442SOL     OW29224   4.871   3.195   1.065
 9442SOL    HW129225   4.912   3.262   1.128
 9442SOL    HW229226   4.915   3.203   0.976
 9443SOL     OW29227   2.123   5.113   0.651
 9443SOL    HW129228   2.197   5.093   0.587
 9443SOL    HW229229   2.151   5.085   0.743
 9444SOL     OW29230   1.367   3.153   0.438
 9444SOL    HW129231   1.323   3.225   0.492
 9444SOL    HW229232   1.311   3.133   0.358
 9445SOL     OW29233   6.067   3.308   3.348
 9445SOL    HW129234   6.006   3.346   3.278
 9445SOL    HW229235   6.132   3.379   3.376
 9446SOL     OW29236   6.124   5.775   3.617
 9446SOL    HW129237   6.208   5.730   3.586
 9446SOL    HW229238   6.045   5.720   3.590
 9447SOL     OW29239   5.836   4.078   3.442
 9447SOL    HW129240   5.814   4.048   3.350
 9447SOL    HW229241   5.935   4.089   3.451
 9448SOL     OW29242   0.639   0.212   6.834
 9448SOL    HW129243   0.542   0.200   6.855
 9448SOL    HW229244   0.653   0.207   6.735
 9449SOL     OW29245   6.359   6.449   0.672
 9449SOL    HW129246   6.392   6.539   0.644
 9449SOL    HW229247   6.261   6.443   0.653
 9450SOL     OW29248   1.828   5.686   4.893
 9450SOL    HW129249   1.741   5.701   4.940
 9450SOL    HW229250   1.888   5.765   4.908
 9451SOL     OW29251   4.116   6.979   5.869
 9451SOL    HW129252   4.043   6.933   5.919
 9451SOL    HW229253   4.090   0.046   5.850
 9452SOL     OW29254   1.668   4.106   0.544
 9452SOL    HW129255   1.627   4.029   0.494
 9452SOL    HW229256   1.597   4.173   0.566
 9453SOL     OW29257   2.382   4.893   3.032
 9453SOL    HW129258   2.349   4.952   3.106
 9453SOL    HW229259   2.478   4.914   3.012
 9454SOL     OW29260   3.510   3.226   6.446
 9454SOL    HW129261   3.505   3.247   6.544
 9454SOL    HW229262   3.432   3.168   6.421
 9455SOL     OW29263   3.000   1.962   3.597
 9455SOL    HW129264   3.011   2.052   3.557
 9455SOL    HW229265   3.086   1.912   3.591
 9456SOL     OW29266   0.275   3.285   1.008
 9456SOL    HW129267   0.245   3.212   0.946
 9456SOL    HW229268   0.246   3.264   1.101
 9457SOL     OW29269   1.908   3.369   5.238
 9457SOL    HW129270   1.971   3.442   5.265
 9457SOL    HW229271   1.878   3.385   5.144
 9458SOL     OW29272   1.134   2.970   0.295
 9458SOL    HW129273   1.075   2.910   0.350
 9458SOL    HW229274   1.229   2.951   0.317
 9459SOL     OW29275   5.204   4.335   3.663
 9459SOL    HW129276   5.125   4.319   3.603
 9459SOL    HW229277   5.286   4.347   3.608
 9460SOL     OW29278   1.337   3.570   3.953
 9460SOL    HW129279   1.421   3.563   4.006
 9460SOL    HW229280   1.280   3.643   3.992
 9461SOL     OW29281   0.263   1.819   1.435
 9461SOL    HW129282   0.333   1.852   1.371
 9461SOL    HW229283   0.179   1.871   1.422
 9462SOL     OW29284   2.092   3.961   3.087
 9462SOL    HW129285   1.996   3.985   3.094
 9462SOL    HW229286   2.101   3.862   3.072
 9463SOL     OW29287   5.904   0.670   1.934
 9463SOL    HW129288   5.857   0.739   1.879
 9463SOL    HW229289   5.948   0.603   1.874
 9464SOL     OW29290   5.939   0.379   0.388
 9464SOL    HW129291   6.034   0.370   0.358
 9464SOL    HW229292   5.881   0.321   0.332
 9465SOL     OW29293   1.616   4.504   2.579
 9465SOL    HW129294   1.525   4.478   2.611
 9465SOL    HW229295   1.663   4.423   2.543
 9466SOL     OW29296   3.855   4.370   5.669
 9466SOL    HW129297   3.864   4.279   5.711
 9466SOL    HW229298   3.929   4.384   5.604
 9467SOL     OW29299   1.498   2.321   2.195
 9467SOL    HW129300   1.485   2.382   2.273
 9467SOL    HW229301   1.595   2.297   2.187
 9468SOL     OW29302   5.341   3.433   6.373
 9468SOL    HW129303   5.308   3.520   6.337
 9468SOL    HW229304   5.387   3.382   6.300
 9469SOL     OW29305   6.393   5.626   1.661
 9469SOL    HW129306   6.333   5.549   1.637
 9469SOL    HW229307   6.408   5.627   1.760
 9470SOL     OW29308   4.995   3.082   5.894
 9470SOL    HW129309   4.939   3.069   5.976
 9470SOL    HW229310   4.965   3.165   5.846
 9471SOL     OW29311   6.724   1.897   4.317
 9471SOL    HW129312   6.706   1.809   4.273
 9471SOL    HW229313   6.736   1.967   4.247
 9472SOL     OW29314   6.931   3.291   5.448
 9472SOL    HW129315   6.842   3.336   5.452
 9472SOL    HW229316   6.919   3.192   5.444
 9473SOL     OW29317   2.250   5.129   6.733
 9473SOL    HW129318   2.180   5.074   6.687
 9473SOL    HW229319   2.337   5.079   6.731
 9474SOL     OW29320   0.358   2.765   6.864
 9474SOL    HW129321   0.451   2.729   6.862
 9474SOL    HW229322   0.361   2.863   6.886
 9475SOL     OW29323   3.469   3.175   6.730
 9475SOL    HW129324   3.554   3.148   6.774
 9475SOL    HW229325   3.399   3.106   6.746
 9476SOL     OW29326   3.608   4.173   4.611
 9476SOL    HW129327   3.547   4.169   4.691
 9476SOL    HW229328   3.572   4.238   4.545
 9477SOL     OW29329   0.401   3.393   1.686
 9477SOL    HW129330   0.447   3.308   1.661
 9477SOL    HW229331   0.321   3.407   1.627
 9478SOL     OW29332   4.773   3.117   0.360
 9478SOL    HW129333   4.821   3.170   0.430
 9478SOL    HW229334   4.819   3.029   0.347
 9479SOL     OW29335   4.109   6.237   6.607
 9479SOL    HW129336   4.183   6.170   6.595
 9479SOL    HW229337   4.022   6.195   6.581
 9480SOL     OW29338   5.407   3.872   0.543
 9480SOL    HW129339   5.500   3.872   0.578
 9480SOL    HW229340   5.350   3.933   0.598
 9481SOL     OW29341   4.808   2.936   2.271
 9481SOL    HW129342   4.789   2.839   2.287
 9481SOL    HW229343   4.784   2.959   2.176
 9482SOL     OW29344   0.544   1.650   3.478
 9482SOL    HW129345   0.459   1.597   3.477
 9482SOL    HW229346   0.618   1.595   3.438
 9483SOL     OW29347   1.953   1.806   1.423
 9483SOL    HW129348   1.893   1.866   1.476
 9483SOL    HW229349   2.048   1.834   1.435
 9484SOL     OW29350   4.307   0.540   3.758
 9484SOL    HW129351   4.393   0.529   3.807
 9484SOL    HW229352   4.231   0.525   3.821
 9485SOL     OW29353   0.218   0.814   0.516
 9485SOL    HW129354   0.232   0.909   0.490
 9485SOL    HW229355   0.148   0.809   0.588
 9486SOL     OW29356   3.942   6.591   1.038
 9486SOL    HW129357   3.875   6.587   1.112
 9486SOL    HW229358   3.909   6.650   0.965
 9487SOL     OW29359   3.659   3.684   3.717
 9487SOL    HW129360   3.695   3.756   3.776
 9487SOL    HW229361   3.671   3.595   3.762
 9488SOL     OW29362   2.307   6.675   1.070
 9488SOL    HW129363   2.302   6.738   1.148
 9488SOL    HW229364   2.222   6.623   1.064
 9489SOL     OW29365   4.696   4.675   1.598
 9489SOL    HW129366   4.667   4.629   1.682
 9489SOL    HW229367   4.737   4.609   1.536
 9490SOL     OW29368   6.590   4.904   1.925
 9490SOL    HW129369   6.671   4.919   1.983
 9490SOL    HW229370   6.614   4.921   1.830
 9491SOL     OW29371   5.855   5.018   4.013
 9491SOL    HW129372   5.841   4.945   4.081
 9491SOL    HW229373   5.896   5.098   4.058
 9492SOL     OW29374   3.615   2.901   3.600
 9492SOL    HW129375   3.528   2.901   3.549
 9492SOL    HW229376   3.600   2.862   3.690
 9493SOL     OW29377   3.459   5.741   4.007
 9493SOL    HW129378   3.472   5.659   4.063
 9493SOL    HW229379   3.523   5.739   3.930
 9494SOL     OW29380   4.940   3.523   2.149
 9494SOL    HW129381   4.915   3.429   2.126
 9494SOL    HW229382   4.897   3.586   2.084
 9495SOL     OW29383   6.535   2.201   3.700
 9495SOL    HW129384   6.488   2.140   3.764
 9495SOL    HW229385   6.631   2.210   3.727
 9496SOL     OW29386   6.431   4.098   1.401
 9496SOL    HW129387   6.483   4.079   1.318
 9496SOL    HW229388   6.340   4.057   1.393
 9497SOL     OW29389   5.831   6.247   6.334
 9497SOL    HW129390   5.845   6.248   6.433
 9497SOL    HW229391   5.872   6.329   6.294
 9498SOL     OW29392   4.119   6.886   4.439
 9498SOL    HW129393   4.077   6.801   4.407
 9498SOL    HW229394   4.159   6.872   4.529
 9499SOL     OW29395   2.343   5.316   6.533
 9499SOL    HW129396   2.314   5.296   6.439
 9499SOL    HW229397   2.281   5.271   6.597
 9500SOL     OW29398   5.166   0.141   0.856
 9500SOL    HW129399   5.119   0.094   0.780
 9500SOL    HW229400   5.174   0.078   0.933
 9501SOL     OW29401   3.363   1.219   4.399
 9501SOL    HW129402   3.336   1.315   4.397
 9501SOL    HW229403   3.407   1.199   4.486
 9502SOL     OW29404   5.410   2.774   5.089
 9502SOL    HW129405   5.454   2.690   5.056
 9502SOL    HW229406   5.377   2.827   5.011
 9503SOL     OW29407   0.477   1.565   1.445
 9503SOL    HW129408   0.529   1.641   1.483
 9503SOL    HW229409   0.500   1.481   1.494
 9504SOL     OW29410   0.196   2.639   0.682
 9504SOL    HW129411   0.217   2.722   0.734
 9504SOL    HW229412   0.097   2.629   0.675
 9505SOL     OW29413   4.793   4.565   3.523
 9505SOL    HW129414   4.827   4.591   3.613
 9505SOL    HW229415   4.697   4.537   3.530
 9506SOL     OW29416   1.129   2.153   6.529
 9506SOL    HW129417   1.220   2.195   6.525
 9506SOL    HW229418   1.107   2.113   6.440
 9507SOL     OW29419   1.204   2.127   3.288
 9507SOL    HW129420   1.114   2.138   3.245
 9507SOL    HW229421   1.273   2.111   3.218
 9508SOL     OW29422   6.327   2.359   0.904
 9508SOL    HW129423   6.342   2.299   0.825
 9508SOL    HW229424   6.317   2.453   0.872
 9509SOL     OW29425   0.597   1.198   3.937
 9509SOL    HW129426   0.545   1.157   3.862
 9509SOL    HW229427   0.683   1.148   3.950
 9510SOL     OW29428   1.467   3.552   3.229
 9510SOL    HW129429   1.378   3.507   3.221
 9510SOL    HW229430   1.457   3.649   3.207
 9511SOL     OW29431   1.059   0.411   0.561
 9511SOL    HW129432   1.058   0.509   0.576
 9511SOL    HW229433   0.987   0.368   0.615
 9512SOL     OW29434   5.969   1.775   1.722
 9512SOL    HW129435   5.949   1.681   1.750
 9512SOL    HW229436   5.991   1.829   1.803
 9513SOL     OW29437   2.283   4.122   6.500
 9513SOL    HW129438   2.307   4.122   6.597
 9513SOL    HW229439   2.366   4.134   6.446
 9514SOL     OW29440   2.578   5.083   6.060
 9514SOL    HW129441   2.673   5.066   6.034
 9514SOL    HW229442   2.517   5.046   5.991
 9515SOL     OW29443   2.216   5.603   0.997
 9515SOL    HW129444   2.203   5.660   0.915
 9515SOL    HW229445   2.219   5.662   1.078
 9516SOL     OW29446   5.398   4.233   5.428
 9516SOL    HW129447   5.304   4.248   5.459
 9516SOL    HW229448   5.440   4.162   5.484
 9517SOL     OW29449   1.613   5.075   1.125
 9517SOL    HW129450   1.633   5.115   1.215
 9517SOL    HW229451   1.692   5.022   1.094
 9518SOL     OW29452   2.475   2.435   6.842
 9518SOL    HW129453   2.492   2.532   6.859
 9518SOL    HW229454   2.381   2.413   6.869
 9519SOL     OW29455   3.987   3.667   4.766
 9519SOL    HW129456   4.034   3.579   4.775
 9519SOL    HW229457   3.986   3.714   4.854
 9520SOL     OW29458   1.639   1.580   3.312
 9520SOL    HW129459   1.626   1.502   3.250
 9520SOL    HW229460   1.637   1.549   3.406
 9521SOL     OW29461   4.997   5.354   1.509
 9521SOL    HW129462   5.035   5.420   1.574
 9521SOL    HW229463   4.988   5.264   1.554
 9522SOL     OW29464   3.366   5.420   1.326
 9522SOL    HW129465   3.285   5.455   1.374
 9522SOL    HW229466   3.396   5.335   1.369
 9523SOL     OW29467   2.718   4.759   5.280
 9523SOL    HW129468   2.781   4.723   5.211
 9523SOL    HW229469   2.628   4.718   5.267
 9524SOL     OW29470   3.682   3.090   0.712
 9524SOL    HW129471   3.673   3.190   0.717
 9524SOL    HW229472   3.724   3.056   0.796
 9525SOL     OW29473   2.413   2.460   5.502
 9525SOL    HW129474   2.339   2.424   5.446
 9525SOL    HW229475   2.494   2.402   5.493
 9526SOL     OW29476   6.390   5.123   1.932
 9526SOL    HW129477   6.426   5.164   1.847
 9526SOL    HW229478   6.447   5.044   1.957
 9527SOL     OW29479   0.345   0.570   4.276
 9527SOL    HW129480   0.289   0.536   4.351
 9527SOL    HW229481   0.375   0.493   4.219
 9528SOL     OW29482   6.661   1.403   0.376
 9528SOL    HW129483   6.711   1.321   0.350
 9528SOL    HW229484   6.693   1.481   0.323
 9529SOL     OW29485   6.220   3.502   6.748
 9529SOL    HW129486   6.222   3.602   6.745
 9529SOL    HW229487   6.134   3.469   6.709
 9530SOL     OW29488   1.605   4.240   2.477
 9530SOL    HW129489   1.616   4.244   2.378
 9530SOL    HW229490   1.510   4.219   2.499
 9531SOL     OW29491   4.301   5.019   2.869
 9531SOL    HW129492   4.351   5.025   2.955
 9531SOL    HW229493   4.361   5.045   2.793
 9532SOL     OW29494   6.382   0.049   1.423
 9532SOL    HW129495   6.289   0.083   1.420
 9532SOL    HW229496   6.386   6.997   1.484
 9533SOL     OW29497   6.981   6.053   5.615
 9533SOL    HW129498   6.886   6.020   5.623
 9533SOL    HW229499   0.008   6.013   5.689
 9534SOL     OW29500   0.410   4.152   5.081
 9534SOL    HW129501   0.446   4.165   4.989
 9534SOL    HW229502   0.452   4.218   5.143
 9535SOL     OW29503   2.086   1.217   6.411
 9535SOL    HW129504   2.184   1.207   6.423
 9535SOL    HW229505   2.060   1.312   6.431
 9536SOL     OW29506   2.638   4.092   5.608
 9536SOL    HW129507   2.561   4.156   5.617
 9536SOL    HW229508   2.627   4.039   5.524
 9537SOL     OW29509   2.950   6.747   3.312
 9537SOL    HW129510   2.937   6.843   3.336
 9537SOL    HW229511   2.956   6.739   3.212
 9538SOL     OW29512   5.770   2.296   3.467
 9538SOL    HW129513   5.829   2.216   3.478
 9538SOL    HW229514   5.770   2.349   3.552
 9539SOL     OW29515   2.772   3.772   5.293
 9539SOL    HW129516   2.824   3.692   5.264
 9539SOL    HW229517   2.821   3.819   5.367
 9540SOL     OW29518   5.688   4.172   4.047
 9540SOL    HW129519   5.666   4.082   4.010
 9540SOL    HW229520   5.758   4.215   3.991
 9541SOL     OW29521   4.062   0.499   5.695
 9541SOL    HW129522   4.053   0.584   5.746
 9541SOL    HW229523   4.132   0.509   5.624
 9542SOL     OW29524   5.319   4.605   4.495
 9542SOL    HW129525   5.351   4.664   4.420
 9542SOL    HW229526   5.369   4.518   4.492
 9543SOL     OW29527   3.828   0.720   4.997
 9543SOL    HW129528   3.862   0.656   5.067
 9543SOL    HW229529   3.828   0.813   5.033
 9544SOL     OW29530   6.693   1.849   3.779
 9544SOL    HW129531   6.615   1.853   3.716
 9544SOL    HW229532   6.765   1.793   3.740
 9545SOL     OW29533   5.892   5.587   4.071
 9545SOL    HW129534   5.855   5.662   4.125
 9545SOL    HW229535   5.974   5.551   4.116
 9546SOL     OW29536   3.811   2.335   5.382
 9546SOL    HW129537   3.736   2.394   5.411
 9546SOL    HW229538   3.848   2.286   5.462
 9547SOL     OW29539   1.919   6.342   4.421
 9547SOL    HW129540   1.999   6.284   4.435
 9547SOL    HW229541   1.837   6.286   4.410
 9548SOL     OW29542   6.329   5.457   6.246
 9548SOL    HW129543   6.311   5.394   6.170
 9548SOL    HW229544   6.418   5.500   6.233
 9549SOL     OW29545   2.770   2.730   1.208
 9549SOL    HW129546   2.719   2.644   1.214
 9549SOL    HW229547   2.852   2.715   1.153
 9550SOL     OW29548   0.585   1.653   0.244
 9550SOL    HW129549   0.625   1.601   0.169
 9550SOL    HW229550   0.492   1.621   0.261
 9551SOL     OW29551   5.736   1.210   4.835
 9551SOL    HW129552   5.664   1.212   4.905
 9551SOL    HW229553   5.733   1.123   4.787
 9552SOL     OW29554   1.483   6.913   3.227
 9552SOL    HW129555   1.487   6.846   3.300
 9552SOL    HW229556   1.576   6.945   3.206
 9553SOL     OW29557   6.244   3.998   6.629
 9553SOL    HW129558   6.244   4.078   6.688
 9553SOL    HW229559   6.166   4.003   6.566
 9554SOL     OW29560   1.907   0.173   1.319
 9554SOL    HW129561   1.952   0.232   1.252
 9554SOL    HW229562   1.809   0.193   1.320
 9555SOL     OW29563   0.964   1.159   3.068
 9555SOL    HW129564   0.955   1.072   3.019
 9555SOL    HW229565   1.044   1.156   3.129
 9556SOL     OW29566   1.782   2.908   1.861
 9556SOL    HW129567   1.859   2.851   1.831
 9556SOL    HW229568   1.813   2.969   1.934
 9557SOL     OW29569   0.274   0.323   2.893
 9557SOL    HW129570   0.254   0.344   2.798
 9557SOL    HW229571   0.188   0.305   2.942
 9558SOL     OW29572   6.182   6.733   4.387
 9558SOL    HW129573   6.193   6.638   4.419
 9558SOL    HW229574   6.219   6.741   4.294
 9559SOL     OW29575   0.419   4.166   1.020
 9559SOL    HW129576   0.494   4.120   0.971
 9559SOL    HW229577   0.375   4.231   0.959
 9560SOL     OW29578   1.768   1.911   3.528
 9560SOL    HW129579   1.749   2.004   3.498
 9560SOL    HW229580   1.861   1.886   3.501
 9561SOL     OW29581   1.553   6.409   0.330
 9561SOL    HW129582   1.515   6.321   0.303
 9561SOL    HW229583   1.606   6.398   0.414
 9562SOL     OW29584   3.462   0.308   5.927
 9562SOL    HW129585   3.414   0.383   5.881
 9562SOL    HW229586   3.408   0.275   6.004
 9563SOL     OW29587   6.343   0.214   0.799
 9563SOL    HW129588   6.326   0.152   0.722
 9563SOL    HW229589   6.433   0.194   0.839
 9564SOL     OW29590   2.685   0.064   0.028
 9564SOL    HW129591   2.652   0.041   0.120
 9564SOL    HW229592   2.750   7.021   7.025
 9565SOL     OW29593   4.079   6.506   4.709
 9565SOL    HW129594   4.034   6.523   4.622
 9565SOL    HW229595   4.039   6.425   4.752
 9566SOL     OW29596   1.931   5.048   0.293
 9566SOL    HW129597   1.887   5.008   0.213
 9566SOL    HW229598   2.013   5.098   0.264
 9567SOL     OW29599   5.543   4.469   6.715
 9567SOL    HW129600   5.599   4.536   6.765
 9567SOL    HW229601   5.491   4.516   6.644
 9568SOL     OW29602   4.740   2.212   6.422
 9568SOL    HW129603   4.674   2.286   6.415
 9568SOL    HW229604   4.706   2.143   6.487
 9569SOL     OW29605   0.156   1.294   2.927
 9569SOL    HW129606   0.097   1.266   3.002
 9569SOL    HW229607   0.211   1.373   2.954
 9570SOL     OW29608   1.145   3.207   2.259
 9570SOL    HW129609   1.223   3.228   2.200
 9570SOL    HW229610   1.061   3.241   2.217
 9571SOL     OW29611   2.813   3.614   6.783
 9571SOL    HW129612   2.731   3.565   6.754
 9571SOL    HW229613   2.789   3.685   6.849
 9572SOL     OW29614   1.773   5.635   1.935
 9572SOL    HW129615   1.772   5.537   1.954
 9572SOL    HW229616   1.705   5.681   1.991
 9573SOL     OW29617   1.414   0.749   6.640
 9573SOL    HW129618   1.459   0.695   6.569
 9573SOL    HW229619   1.343   0.806   6.599
 9574SOL     OW29620   4.133   3.269   4.199
 9574SOL    HW129621   4.091   3.234   4.115
 9574SOL    HW229622   4.139   3.369   4.194
 9575SOL     OW29623   6.343   1.419   1.509
 9575SOL    HW129624   6.292   1.333   1.512
 9575SOL    HW229625   6.326   1.464   1.421
 9576SOL     OW29626   2.142   0.282   2.216
 9576SOL    HW129627   2.060   0.303   2.268
 9576SOL    HW229628   2.216   0.343   2.243
 9577SOL     OW29629   1.392   0.606   4.662
 9577SOL    HW129630   1.297   0.634   4.670
 9577SOL    HW229631   1.450   0.688   4.661
 9578SOL     OW29632   0.802   3.840   3.242
 9578SOL    HW129633   0.710   3.875   3.257
 9578SOL    HW229634   0.843   3.817   3.330
 9579SOL     OW29635   1.894   5.211   2.822
 9579SOL    HW129636   1.928   5.303   2.840
 9579SOL    HW229637   1.958   5.144   2.859
 9580SOL     OW29638   4.188   2.995   0.809
 9580SOL    HW129639   4.251   3.021   0.737
 9580SOL    HW229640   4.112   2.943   0.770
 9581SOL     OW29641   0.956   5.414   6.712
 9581SOL    HW129642   0.882   5.377   6.658
 9581SOL    HW229643   0.929   5.417   6.809
 9582SOL     OW29644   4.855   4.958   5.083
 9582SOL    HW129645   4.918   4.899   5.132
 9582SOL    HW229646   4.772   4.907   5.059
 9583SOL     OW29647   3.611   4.862   1.232
 9583SOL    HW129648   3.553   4.920   1.174
 9583SOL    HW229649   3.705   4.899   1.231
 9584SOL     OW29650   6.752   6.573   6.730
 9584SOL    HW129651   6.735   6.633   6.809
 9584SOL    HW229652   6.798   6.490   6.762
 9585SOL     OW29653   6.117   0.454   4.054
 9585SOL    HW129654   6.208   0.496   4.050
 9585SOL    HW229655   6.079   0.464   4.146
 9586SOL     OW29656   5.744   3.943   2.710
 9586SOL    HW129657   5.692   3.882   2.769
 9586SOL    HW229658   5.686   4.020   2.683
 9587SOL     OW29659   6.576   1.207   2.267
 9587SOL    HW129660   6.477   1.202   2.256
 9587SOL    HW229661   6.608   1.299   2.247
 9588SOL     OW29662   0.445   1.888   2.463
 9588SOL    HW129663   0.407   1.798   2.484
 9588SOL    HW229664   0.539   1.893   2.497
 9589SOL     OW29665   2.372   5.362   5.451
 9589SOL    HW129666   2.391   5.458   5.471
 9589SOL    HW229667   2.276   5.342   5.470
 9590SOL     OW29668   0.431   3.964   2.242
 9590SOL    HW129669   0.381   3.928   2.320
 9590SOL    HW229670   0.528   3.969   2.264
 9591SOL     OW29671   3.164   6.091   6.874
 9591SOL    HW129672   3.077   6.139   6.884
 9591SOL    HW229673   3.165   6.010   6.932
 9592SOL     OW29674   3.606   4.243   1.250
 9592SOL    HW129675   3.590   4.184   1.329
 9592SOL    HW229676   3.567   4.200   1.168
 9593SOL     OW29677   6.650   6.905   4.512
 9593SOL    HW129678   6.669   6.888   4.608
 9593SOL    HW229679   6.657   6.819   4.461
 9594SOL     OW29680   1.515   6.305   3.256
 9594SOL    HW129681   1.579   6.361   3.310
 9594SOL    HW229682   1.450   6.365   3.209
 9595SOL     OW29683   2.090   4.356   5.183
 9595SOL    HW129684   2.031   4.417   5.131
 9595SOL    HW229685   2.150   4.409   5.243
 9596SOL     OW29686   7.025   6.362   0.283
 9596SOL    HW129687   0.090   6.322   0.290
 9596SOL    HW229688   6.968   6.327   0.356
 9597SOL     OW29689   0.276   4.785   0.834
 9597SOL    HW129690   0.246   4.847   0.761
 9597SOL    HW229691   0.372   4.801   0.854
 9598SOL     OW29692   1.080   3.602   5.091
 9598SOL    HW129693   0.990   3.584   5.050
 9598SOL    HW229694   1.143   3.635   5.021
 9599SOL     OW29695   3.512   0.649   5.458
 9599SOL    HW129696   3.522   0.598   5.372
 9599SOL    HW229697   3.600   0.651   5.506
 9600SOL     OW29698   2.575   6.719   0.428
 9600SOL    HW129699   2.615   6.646   0.482
 9600SOL    HW229700   2.604   6.808   0.465
 9601SOL     OW29701   6.628   3.812   0.279
 9601SOL    HW129702   6.589   3.725   0.312
 9601SOL    HW229703   6.706   3.837   0.336
 9602SOL     OW29704   6.724   4.796   6.529
 9602SOL    HW129705   6.724   4.714   6.472
 9602SOL    HW229706   6.815   4.838   6.526
 9603SOL     OW29707   3.238   1.192   4.853
 9603SOL    HW129708   3.166   1.151   4.797
 9603SOL    HW229709   3.302   1.242   4.795
 9604SOL     OW29710   4.951   0.644   0.604
 9604SOL    HW129711   4.940   0.595   0.691
 9604SOL    HW229712   4.896   0.599   0.534
 9605SOL     OW29713   1.123   4.880   4.614
 9605SOL    HW129714   1.220   4.889   4.638
 9605SOL    HW229715   1.096   4.784   4.622
 9606SOL     OW29716   1.427   6.084   5.467
 9606SOL    HW129717   1.453   5.997   5.424
 9606SOL    HW229718   1.494   6.108   5.537
 9607SOL     OW29719   1.380   2.172   1.910
 9607SOL    HW129720   1.402   2.226   1.992
 9607SOL    HW229721   1.281   2.175   1.894
 9608SOL     OW29722   6.744   6.434   1.939
 9608SOL    HW129723   6.720   6.380   2.020
 9608SOL    HW229724   6.696   6.522   1.942
 9609SOL     OW29725   2.147   4.085   6.081
 9609SOL    HW129726   2.073   4.040   6.131
 9609SOL    HW229727   2.134   4.071   5.983
 9610SOL     OW29728   1.854   4.771   3.727
 9610SOL    HW129729   1.774   4.807   3.775
 9610SOL    HW229730   1.826   4.704   3.660
 9611SOL     OW29731   0.290   0.110   0.222
 9611SOL    HW129732   0.301   0.011   0.232
 9611SOL    HW229733   0.325   0.139   0.133
 9612SOL     OW29734   6.626   3.157   1.557
 9612SOL    HW129735   6.678   3.126   1.637
 9612SOL    HW229736   6.541   3.201   1.587
 9613SOL     OW29737   3.938   6.671   3.337
 9613SOL    HW129738   3.951   6.665   3.436
 9613SOL    HW229739   3.846   6.703   3.317
 9614SOL     OW29740   4.061   2.660   0.924
 9614SOL    HW129741   4.089   2.720   0.849
 9614SOL    HW229742   4.063   2.565   0.893
 9615SOL     OW29743   0.933   0.040   1.991
 9615SOL    HW129744   0.953   6.986   2.046
 9615SOL    HW229745   0.843   0.075   2.014
 9616SOL     OW29746   4.381   3.369   0.607
 9616SOL    HW129747   4.296   3.358   0.555
 9616SOL    HW229748   4.389   3.464   0.637
 9617SOL     OW29749   0.712   3.984   4.472
 9617SOL    HW129750   0.797   3.974   4.523
 9617SOL    HW229751   0.731   3.981   4.374
 9618SOL     OW29752   4.587   0.210   6.183
 9618SOL    HW129753   4.671   0.177   6.226
 9618SOL    HW229754   4.513   0.208   6.250
 9619SOL     OW29755   1.070   0.500   0.292
 9619SOL    HW129756   0.975   0.520   0.269
 9619SOL    HW229757   1.074   0.451   0.380
 9620SOL     OW29758   5.728   1.741   6.809
 9620SOL    HW129759   5.813   1.688   6.814
 9620SOL    HW229760   5.676   1.729   6.893
 9621SOL     OW29761   1.507   1.422   3.060
 9621SOL    HW129762   1.453   1.505   3.045
 9621SOL    HW229763   1.486   1.384   3.150
 9622SOL     OW29764   6.027   1.105   6.703
 9622SOL    HW129765   5.985   1.027   6.749
 9622SOL    HW229766   5.979   1.122   6.617
 9623SOL     OW29767   3.693   5.370   5.618
 9623SOL    HW129768   3.739   5.414   5.541
 9623SOL    HW229769   3.673   5.437   5.689
 9624SOL     OW29770   5.691   4.239   3.682
 9624SOL    HW129771   5.622   4.231   3.753
 9624SOL    HW229772   5.780   4.261   3.723
 9625SOL     OW29773   5.282   5.313   0.008
 9625SOL    HW129774   5.193   5.312   0.054
 9625SOL    HW229775   5.324   5.222   0.017
 9626SOL     OW29776   2.733   6.091   5.787
 9626SOL    HW129777   2.775   6.011   5.830
 9626SOL    HW229778   2.730   6.166   5.853
 9627SOL     OW29779   6.824   4.203   4.403
 9627SOL    HW129780   6.788   4.275   4.343
 9627SOL    HW229781   6.817   4.231   4.498
 9628SOL     OW29782   6.085   4.365   0.440
 9628SOL    HW129783   6.159   4.427   0.466
 9628SOL    HW229784   6.041   4.398   0.357
 9629SOL     OW29785   6.368   6.051   2.757
 9629SOL    HW129786   6.433   5.978   2.777
 9629SOL    HW229787   6.301   6.020   2.690
 9630SOL     OW29788   6.686   5.953   5.277
 9630SOL    HW129789   6.713   5.868   5.323
 9630SOL    HW229790   6.735   6.030   5.319
 9631SOL     OW29791   5.482   1.705   0.560
 9631SOL    HW129792   5.533   1.788   0.538
 9631SOL    HW229793   5.399   1.701   0.505
 9632SOL     OW29794   2.310   5.838   1.469
 9632SOL    HW129795   2.242   5.867   1.537
 9632SOL    HW229796   2.397   5.821   1.513
 9633SOL     OW29797   3.909   4.229   0.502
 9633SOL    HW129798   3.913   4.137   0.541
 9633SOL    HW229799   3.839   4.231   0.431
 9634SOL     OW29800   6.813   6.281   3.832
 9634SOL    HW129801   6.763   6.300   3.917
 9634SOL    HW229802   6.906   6.250   3.854
 9635SOL     OW29803   2.300   4.441   5.351
 9635SOL    HW129804   2.298   4.445   5.451
 9635SOL    HW229805   2.386   4.401   5.321
 9636SOL     OW29806   4.387   1.725   6.179
 9636SOL    HW129807   4.346   1.653   6.235
 9636SOL    HW229808   4.456   1.774   6.233
 9637SOL     OW29809   3.741   2.433   0.352
 9637SOL    HW129810   3.722   2.440   0.254
 9637SOL    HW229811   3.760   2.337   0.374
 9638SOL     OW29812   0.162   3.099   5.766
 9638SOL    HW129813   0.094   3.170   5.747
 9638SOL    HW229814   0.252   3.140   5.776
 9639SOL     OW29815   4.276   2.231   2.324
 9639SOL    HW129816   4.319   2.141   2.335
 9639SOL    HW229817   4.345   2.297   2.294
 9640SOL     OW29818   3.094   0.777   2.871
 9640SOL    HW129819   3.099   0.679   2.854
 9640SOL    HW229820   3.174   0.822   2.831
 9641SOL     OW29821   5.677   5.416   1.512
 9641SOL    HW129822   5.594   5.440   1.563
 9641SOL    HW229823   5.655   5.406   1.415
 9642SOL     OW29824   1.247   5.701   4.200
 9642SOL    HW129825   1.268   5.608   4.229
 9642SOL    HW229826   1.326   5.741   4.155
 9643SOL     OW29827   5.003   4.347   3.485
 9643SOL    HW129828   4.960   4.308   3.404
 9643SOL    HW229829   4.935   4.399   3.537
 9644SOL     OW29830   1.001   5.285   5.604
 9644SOL    HW129831   0.905   5.307   5.587
 9644SOL    HW229832   1.058   5.363   5.577
 9645SOL     OW29833   3.110   4.885   4.294
 9645SOL    HW129834   3.082   4.862   4.201
 9645SOL    HW229835   3.047   4.843   4.359
 9646SOL     OW29836   2.504   4.957   1.825
 9646SOL    HW129837   2.412   4.937   1.791
 9646SOL    HW229838   2.551   5.017   1.761
 9647SOL     OW29839   0.008   6.172   2.548
 9647SOL    HW129840   0.004   6.148   2.451
 9647SOL    HW229841   0.009   6.272   2.558
 9648SOL     OW29842   3.849   2.336   6.865
 9648SOL    HW129843   3.798   2.408   6.817
 9648SOL    HW229844   3.885   2.271   6.798
 9649SOL     OW29845   1.796   4.383   6.877
 9649SOL    HW129846   1.707   4.427   6.888
 9649SOL    HW229847   1.830   4.398   6.784
 9650SOL     OW29848   4.518   4.815   3.321
 9650SOL    HW129849   4.470   4.746   3.375
 9650SOL    HW229850   4.452   4.863   3.263
 9651SOL     OW29851   5.189   1.409   1.170
 9651SOL    HW129852   5.186   1.317   1.209
 9651SOL    HW229853   5.251   1.409   1.091
 9652SOL     OW29854   1.381   4.665   1.624
 9652SOL    HW129855   1.401   4.736   1.556
 9652SOL    HW229856   1.373   4.576   1.579
 9653SOL     OW29857   5.269   5.529   4.777
 9653SOL    HW129858   5.333   5.514   4.702
 9653SOL    HW229859   5.232   5.442   4.808
 9654SOL     OW29860   3.485   3.223   2.850
 9654SOL    HW129861   3.398   3.198   2.807
 9654SOL    HW229862   3.524   3.302   2.803
 9655SOL     OW29863   0.338   1.741   0.405
 9655SOL    HW129864   0.340   1.642   0.393
 9655SOL    HW229865   0.272   1.781   0.341
 9656SOL     OW29866   4.405   2.349   0.690
 9656SOL    HW129867   4.493   2.358   0.738
 9656SOL    HW229868   4.375   2.254   0.693
 9657SOL     OW29869   5.459   3.129   2.746
 9657SOL    HW129870   5.467   3.171   2.656
 9657SOL    HW229871   5.530   3.060   2.757
 9658SOL     OW29872   5.465   1.895   2.272
 9658SOL    HW129873   5.499   1.846   2.353
 9658SOL    HW229874   5.415   1.831   2.213
 9659SOL     OW29875   0.396   3.534   0.166
 9659SOL    HW129876   0.446   3.514   0.250
 9659SOL    HW229877   0.416   3.464   0.098
 9660SOL     OW29878   0.547   6.966   2.837
 9660SOL    HW129879   0.496   6.940   2.755
 9660SOL    HW229880   0.589   6.886   2.877
 9661SOL     OW29881   3.692   6.003   1.336
 9661SOL    HW129882   3.701   6.093   1.377
 9661SOL    HW229883   3.713   5.933   1.404
 9662SOL     OW29884   3.816   3.019   5.740
 9662SOL    HW129885   3.853   3.086   5.804
 9662SOL    HW229886   3.884   2.947   5.724
 9663SOL     OW29887   6.234   6.353   2.697
 9663SOL    HW129888   6.285   6.332   2.614
 9663SOL    HW229889   6.224   6.270   2.752
 9664SOL     OW29890   5.907   5.465   4.653
 9664SOL    HW129891   5.823   5.502   4.695
 9664SOL    HW229892   5.986   5.514   4.690
 9665SOL     OW29893   6.105   5.800   6.544
 9665SOL    HW129894   6.203   5.782   6.551
 9665SOL    HW229895   6.083   5.827   6.450
 9666SOL     OW29896   6.423   4.035   2.336
 9666SOL    HW129897   6.383   4.045   2.245
 9666SOL    HW229898   6.495   4.103   2.349
 9667SOL     OW29899   4.309   2.918   6.622
 9667SOL    HW129900   4.343   2.848   6.685
 9667SOL    HW229901   4.283   2.874   6.535
 9668SOL     OW29902   0.016   0.775   6.325
 9668SOL    HW129903   0.017   0.872   6.300
 9668SOL    HW229904   0.097   0.730   6.286
 9669SOL     OW29905   1.952   6.761   2.021
 9669SOL    HW129906   2.007   6.844   2.033
 9669SOL    HW229907   1.993   6.686   2.071
 9670SOL     OW29908   6.798   4.799   5.851
 9670SOL    HW129909   6.883   4.841   5.885
 9670SOL    HW229910   6.733   4.871   5.827
 9671SOL     OW29911   7.027   4.202   0.111
 9671SOL    HW129912   6.964   4.271   0.147
 9671SOL    HW229913   0.094   4.229   0.131
 9672SOL     OW29914   1.890   5.554   3.170
 9672SOL    HW129915   1.796   5.589   3.174
 9672SOL    HW229916   1.894   5.466   3.217
 9673SOL     OW29917   4.525   3.679   1.389
 9673SOL    HW129918   4.526   3.733   1.473
 9673SOL    HW229919   4.444   3.703   1.335
 9674SOL     OW29920   3.309   6.785   3.209
 9674SOL    HW129921   3.247   6.712   3.178
 9674SOL    HW229922   3.391   6.785   3.152
 9675SOL     OW29923   5.500   2.522   6.651
 9675SOL    HW129924   5.508   2.557   6.744
 9675SOL    HW229925   5.589   2.487   6.621
 9676SOL     OW29926   1.926   3.418   6.003
 9676SOL    HW129927   1.859   3.489   6.025
 9676SOL    HW229928   1.974   3.442   5.918
 9677SOL     OW29929   6.820   5.601   4.826
 9677SOL    HW129930   6.783   5.548   4.749
 9677SOL    HW229931   6.785   5.694   4.822
 9678SOL     OW29932   2.947   3.832   3.764
 9678SOL    HW129933   2.879   3.803   3.830
 9678SOL    HW229934   2.940   3.777   3.681
 9679SOL     OW29935   3.406   1.064   3.108
 9679SOL    HW129936   3.435   1.076   3.013
 9679SOL    HW229937   3.306   1.055   3.112
 9680SOL     OW29938   4.580   0.970   3.122
 9680SOL    HW129939   4.618   1.007   3.037
 9680SOL    HW229940   4.489   0.933   3.105
 9681SOL     OW29941   2.829   2.044   0.951
 9681SOL    HW129942   2.835   1.972   1.020
 9681SOL    HW229943   2.920   2.062   0.913
 9682SOL     OW29944   4.876   4.124   3.965
 9682SOL    HW129945   4.810   4.198   3.952
 9682SOL    HW229946   4.886   4.105   4.062
 9683SOL     OW29947   3.156   5.909   1.898
 9683SOL    HW129948   3.231   5.867   1.847
 9683SOL    HW229949   3.194   5.965   1.972
 9684SOL     OW29950   0.683   3.304   6.532
 9684SOL    HW129951   0.660   3.401   6.532
 9684SOL    HW229952   0.616   3.254   6.588
 9685SOL     OW29953   3.756   4.427   1.115
 9685SOL    HW129954   3.714   4.344   1.153
 9685SOL    HW229955   3.688   4.475   1.059
 9686SOL     OW29956   0.674   2.713   6.883
 9686SOL    HW129957   0.770   2.737   6.872
 9686SOL    HW229958   0.631   2.704   6.793
 9687SOL     OW29959   1.441   0.614   4.193
 9687SOL    HW129960   1.468   0.566   4.277
 9687SOL    HW229961   1.354   0.578   4.161
 9688SOL     OW29962   1.073   2.994   1.550
 9688SOL    HW129963   1.113   3.081   1.520
 9688SOL    HW229964   1.128   2.919   1.516
 9689SOL     OW29965   0.892   4.547   5.861
 9689SOL    HW129966   0.958   4.607   5.818
 9689SOL    HW229967   0.806   4.597   5.876
 9690SOL     OW29968   5.851   5.106   6.792
 9690SOL    HW129969   5.844   5.155   6.879
 9690SOL    HW229970   5.776   5.040   6.785
 9691SOL     OW29971   3.484   5.178   1.417
 9691SOL    HW129972   3.429   5.119   1.357
 9691SOL    HW229973   3.455   5.165   1.512
 9692SOL     OW29974   3.888   6.008   2.235
 9692SOL    HW129975   3.813   6.057   2.191
 9692SOL    HW229976   3.852   5.953   2.310
 9693SOL     OW29977   5.604   4.099   2.529
 9693SOL    HW129978   5.557   4.010   2.526
 9693SOL    HW229979   5.665   4.107   2.450
 9694SOL     OW29980   2.830   0.973   0.770
 9694SOL    HW129981   2.770   1.043   0.808
 9694SOL    HW229982   2.796   0.883   0.797
 9695SOL     OW29983   6.639   3.027   3.179
 9695SOL    HW129984   6.635   2.938   3.223
 9695SOL    HW229985   6.728   3.070   3.198
 9696SOL     OW29986   5.518   3.125   1.323
 9696SOL    HW129987   5.428   3.081   1.316
 9696SOL    HW229988   5.561   3.130   1.233
 9697SOL     OW29989   0.524   4.919   6.898
 9697SOL    HW129990   0.459   4.932   6.824
 9697SOL    HW229991   0.475   4.899   6.983
 9698SOL     OW29992   5.096   1.892   6.139
 9698SOL    HW129993   5.149   1.939   6.210
 9698SOL    HW229994   5.010   1.859   6.178
 9699SOL     OW29995   6.446   5.536   6.732
 9699SOL    HW129996   6.402   5.589   6.805
 9699SOL    HW229997   6.390   5.457   6.709
 9700SOL     OW29998   5.008   5.583   4.987
 9700SOL    HW129999   5.067   5.646   5.037
 9700SOL    HW230000   4.914   5.618   4.986
 9701SOL     OW30001   4.375   4.600   5.977
 9701SOL    HW130002   4.443   4.661   5.938
 9701SOL    HW230003   4.415   4.509   5.991
 9702SOL     OW30004   4.546   0.753   6.674
 9702SOL    HW130005   4.577   0.676   6.729
 9702SOL    HW230006   4.548   0.837   6.729
 9703SOL     OW30007   4.867   3.840   3.939
 9703SOL    HW130008   4.821   3.793   4.015
 9703SOL    HW230009   4.930   3.909   3.975
 9704SOL     OW30010   3.710   6.931   1.723
 9704SOL    HW130011   3.709   6.928   1.823
 9704SOL    HW230012   3.678   6.844   1.687
 9705SOL     OW30013   5.410   4.392   5.703
 9705SOL    HW130014   5.416   4.306   5.652
 9705SOL    HW230015   5.495   4.407   5.754
 9706SOL     OW30016   2.169   3.196   0.933
 9706SOL    HW130017   2.204   3.113   0.890
 9706SOL    HW230018   2.243   3.263   0.939
 9707SOL     OW30019   6.148   4.798   2.292
 9707SOL    HW130020   6.106   4.796   2.382
 9707SOL    HW230021   6.226   4.736   2.290
 9708SOL     OW30022   1.550   1.915   4.313
 9708SOL    HW130023   1.536   1.957   4.403
 9708SOL    HW230024   1.542   1.816   4.322
 9709SOL     OW30025   5.139   6.100   2.889
 9709SOL    HW130026   5.043   6.125   2.880
 9709SOL    HW230027   5.174   6.131   2.977
 9710SOL     OW30028   0.194   1.663   1.232
 9710SOL    HW130029   0.228   1.709   1.314
 9710SOL    HW230030   0.132   1.589   1.258
 9711SOL     OW30031   3.368   5.377   6.441
 9711SOL    HW130032   3.366   5.468   6.400
 9711SOL    HW230033   3.387   5.385   6.539
 9712SOL     OW30034   5.438   3.847   6.329
 9712SOL    HW130035   5.413   3.899   6.411
 9712SOL    HW230036   5.529   3.875   6.299
 9713SOL     OW30037   1.506   4.718   3.001
 9713SOL    HW130038   1.464   4.667   2.925
 9713SOL    HW230039   1.454   4.802   3.016
 9714SOL     OW30040   4.540   6.502   6.547
 9714SOL    HW130041   4.608   6.433   6.570
 9714SOL    HW230042   4.473   6.464   6.484
 9715SOL     OW30043   5.833   4.230   6.966
 9715SOL    HW130044   5.848   4.170   0.017
 9715SOL    HW230045   5.735   4.235   6.946
 9716SOL     OW30046   3.792   4.596   6.600
 9716SOL    HW130047   3.709   4.541   6.600
 9716SOL    HW230048   3.782   4.672   6.663
 9717SOL     OW30049   5.913   6.102   5.986
 9717SOL    HW130050   5.930   6.012   5.948
 9717SOL    HW230051   5.903   6.095   6.086
 9718SOL     OW30052   4.592   3.376   0.408
 9718SOL    HW130053   4.649   3.306   0.365
 9718SOL    HW230054   4.535   3.333   0.479
 9719SOL     OW30055   6.757   1.132   5.501
 9719SOL    HW130056   6.770   1.231   5.506
 9719SOL    HW230057   6.715   1.100   5.586
 9720SOL     OW30058   0.126   5.460   1.932
 9720SOL    HW130059   0.172   5.417   1.854
 9720SOL    HW230060   0.180   5.445   2.014
 9721SOL     OW30061   0.159   1.816   0.206
 9721SOL    HW130062   0.069   1.790   0.240
 9721SOL    HW230063   0.179   1.910   0.234
 9722SOL     OW30064   4.427   0.660   4.529
 9722SOL    HW130065   4.434   0.595   4.454
 9722SOL    HW230066   4.505   0.723   4.527
 9723SOL     OW30067   2.795   6.899   3.099
 9723SOL    HW130068   2.812   6.825   3.033
 9723SOL    HW230069   2.880   6.923   3.146
 9724SOL     OW30070   1.225   4.219   0.433
 9724SOL    HW130071   1.213   4.274   0.351
 9724SOL    HW230072   1.162   4.141   0.430
 9725SOL     OW30073   4.931   5.112   6.205
 9725SOL    HW130074   4.882   5.171   6.141
 9725SOL    HW230075   5.015   5.079   6.163
 9726SOL     OW30076   5.164   1.521   4.103
 9726SOL    HW130077   5.212   1.443   4.143
 9726SOL    HW230078   5.161   1.511   4.004
 9727SOL     OW30079   1.077   2.901   7.016
 9727SOL    HW130080   1.016   2.878   6.941
 9727SOL    HW230081   1.171   2.908   6.983
 9728SOL     OW30082   1.094   0.338   5.646
 9728SOL    HW130083   1.045   0.254   5.626
 9728SOL    HW230084   1.184   0.335   5.603
 9729SOL     OW30085   0.852   4.259   3.096
 9729SOL    HW130086   0.808   4.201   3.165
 9729SOL    HW230087   0.931   4.212   3.058
 9730SOL     OW30088   1.221   3.971   3.724
 9730SOL    HW130089   1.198   3.944   3.817
 9730SOL    HW230090   1.294   3.912   3.689
 9731SOL     OW30091   4.896   4.335   1.173
 9731SOL    HW130092   4.859   4.243   1.169
 9731SOL    HW230093   4.993   4.334   1.149
 9732SOL     OW30094   6.945   5.259   2.428
 9732SOL    HW130095   6.959   5.327   2.355
 9732SOL    HW230096   6.886   5.298   2.499
 9733SOL     OW30097   5.788   5.528   0.085
 9733SOL    HW130098   5.714   5.463   0.071
 9733SOL    HW230099   5.876   5.485   0.064
 9734SOL     OW30100   6.730   1.742   1.370
 9734SOL    HW130101   6.739   1.647   1.341
 9734SOL    HW230102   6.648   1.752   1.427
 9735SOL     OW30103   2.123   3.684   3.993
 9735SOL    HW130104   2.149   3.589   3.976
 9735SOL    HW230105   2.046   3.708   3.935
 9736SOL     OW30106   6.043   1.994   6.678
 9736SOL    HW130107   6.051   1.993   6.578
 9736SOL    HW230108   6.032   1.900   6.711
 9737SOL     OW30109   5.622   3.059   3.434
 9737SOL    HW130110   5.712   3.053   3.476
 9737SOL    HW230111   5.631   3.084   3.338
 9738SOL     OW30112   1.993   0.768   0.631
 9738SOL    HW130113   2.018   0.674   0.606
 9738SOL    HW230114   2.052   0.800   0.705
 9739SOL     OW30115   5.947   5.551   1.478
 9739SOL    HW130116   5.974   5.559   1.382
 9739SOL    HW230117   5.867   5.491   1.486
 9740SOL     OW30118   6.888   1.578   3.481
 9740SOL    HW130119   6.815   1.612   3.422
 9740SOL    HW230120   6.853   1.567   3.574
 9741SOL     OW30121   3.991   1.464   2.634
 9741SOL    HW130122   4.018   1.418   2.550
 9741SOL    HW230123   3.908   1.422   2.670
 9742SOL     OW30124   4.332   1.172   0.729
 9742SOL    HW130125   4.365   1.088   0.772
 9742SOL    HW230126   4.331   1.160   0.629
 9743SOL     OW30127   0.060   2.874   4.717
 9743SOL    HW130128   7.026   2.844   4.791
 9743SOL    HW230129   0.069   2.973   4.720
 9744SOL     OW30130   1.681   6.712   2.104
 9744SOL    HW130131   1.754   6.743   2.042
 9744SOL    HW230132   1.713   6.717   2.198
 9745SOL     OW30133   5.465   2.730   6.503
 9745SOL    HW130134   5.539   2.732   6.436
 9745SOL    HW230135   5.473   2.648   6.559
 9746SOL     OW30136   6.691   0.372   5.328
 9746SOL    HW130137   6.609   0.361   5.271
 9746SOL    HW230138   6.767   0.321   5.288
 9747SOL     OW30139   2.789   1.139   1.534
 9747SOL    HW130140   2.713   1.196   1.567
 9747SOL    HW230141   2.830   1.182   1.453
 9748SOL     OW30142   7.017   1.029   3.346
 9748SOL    HW130143   0.054   0.986   3.409
 9748SOL    HW230144   0.034   1.045   3.258
 9749SOL     OW30145   2.667   0.226   4.465
 9749SOL    HW130146   2.731   0.235   4.542
 9749SOL    HW230147   2.616   0.141   4.474
 9750SOL     OW30148   5.923   4.141   2.700
 9750SOL    HW130149   5.844   4.081   2.687
 9750SOL    HW230150   5.901   4.213   2.766
 9751SOL     OW30151   2.069   1.246   0.249
 9751SOL    HW130152   2.160   1.287   0.248
 9751SOL    HW230153   2.029   1.256   0.341
 9752SOL     OW30154   4.631   2.225   4.927
 9752SOL    HW130155   4.651   2.134   4.963
 9752SOL    HW230156   4.545   2.223   4.875
 9753SOL     OW30157   6.586   5.589   6.239
 9753SOL    HW130158   6.657   5.541   6.187
 9753SOL    HW230159   6.597   5.688   6.227
 9754SOL     OW30160   1.925   0.644   0.039
 9754SOL    HW130161   1.997   0.593   7.019
 9754SOL    HW230162   1.920   0.737   0.003
 9755SOL     OW30163   3.330   3.762   4.374
 9755SOL    HW130164   3.317   3.664   4.364
 9755SOL    HW230165   3.253   3.811   4.333
 9756SOL     OW30166   6.046   3.249   0.185
 9756SOL    HW130167   6.078   3.289   0.271
 9756SOL    HW230168   6.082   3.302   0.108
 9757SOL     OW30169   5.671   3.904   3.951
 9757SOL    HW130170   5.756   3.855   3.934
 9757SOL    HW230171   5.597   3.866   3.895
 9758SOL     OW30172   2.548   6.839   6.770
 9758SOL    HW130173   2.531   6.749   6.809
 9758SOL    HW230174   2.496   6.908   6.821
 9759SOL     OW30175   1.322   0.372   0.324
 9759SOL    HW130176   1.241   0.429   0.307
 9759SOL    HW230177   1.329   0.302   0.253
 9760SOL     OW30178   4.880   3.071   5.425
 9760SOL    HW130179   4.888   3.027   5.336
 9760SOL    HW230180   4.934   3.019   5.492
 9761SOL     OW30181   6.638   1.488   2.260
 9761SOL    HW130182   6.588   1.538   2.332
 9761SOL    HW230183   6.607   1.520   2.170
 9762SOL     OW30184   3.588   1.296   4.184
 9762SOL    HW130185   3.631   1.368   4.238
 9762SOL    HW230186   3.568   1.217   4.242
 9763SOL     OW30187   4.854   1.707   2.155
 9763SOL    HW130188   4.838   1.754   2.068
 9763SOL    HW230189   4.797   1.625   2.159
 9764SOL     OW30190   0.265   2.723   3.105
 9764SOL    HW130191   0.293   2.786   3.032
 9764SOL    HW230192   0.298   2.757   3.193
 9765SOL     OW30193   6.833   0.111   3.300
 9765SOL    HW130194   6.767   0.173   3.343
 9765SOL    HW230195   6.921   0.157   3.292
 9766SOL     OW30196   3.227   0.085   2.148
 9766SOL    HW130197   3.177   0.163   2.187
 9766SOL    HW230198   3.273   0.114   2.065
 9767SOL     OW30199   4.226   0.528   5.052
 9767SOL    HW130200   4.278   0.609   5.025
 9767SOL    HW230201   4.249   0.452   4.991
 9768SOL     OW30202   6.237   1.460   2.184
 9768SOL    HW130203   6.322   1.494   2.145
 9768SOL    HW230204   6.252   1.370   2.227
 9769SOL     OW30205   4.279   1.295   3.339
 9769SOL    HW130206   4.278   1.197   3.362
 9769SOL    HW230207   4.372   1.321   3.314
 9770SOL     OW30208   4.792   0.805   6.587
 9770SOL    HW130209   4.818   0.716   6.548
 9770SOL    HW230210   4.704   0.797   6.633
 9771SOL     OW30211   2.441   5.981   0.194
 9771SOL    HW130212   2.408   6.017   0.107
 9771SOL    HW230213   2.508   6.044   0.234
 9772SOL     OW30214   1.808   6.154   1.565
 9772SOL    HW130215   1.796   6.203   1.479
 9772SOL    HW230216   1.906   6.147   1.586
 9773SOL     OW30217   5.101   5.522   3.852
 9773SOL    HW130218   5.062   5.451   3.793
 9773SOL    HW230219   5.027   5.580   3.886
 9774SOL     OW30220   0.329   4.931   2.021
 9774SOL    HW130221   0.421   4.897   2.002
 9774SOL    HW230222   0.306   4.914   2.116
 9775SOL     OW30223   2.644   0.671   3.374
 9775SOL    HW130224   2.587   0.606   3.324
 9775SOL    HW230225   2.648   0.645   3.471
 9776SOL     OW30226   1.441   3.999   4.760
 9776SOL    HW130227   1.479   3.958   4.676
 9776SOL    HW230228   1.419   4.095   4.743
 9777SOL     OW30229   6.773   6.281   0.442
 9777SOL    HW130230   6.718   6.200   0.423
 9777SOL    HW230231   6.714   6.358   0.468
 9778SOL     OW30232   0.443   1.023   4.273
 9778SOL    HW130233   0.451   1.023   4.372
 9778SOL    HW230234   0.375   0.956   4.244
 9779SOL     OW30235   1.244   1.481   4.195
 9779SOL    HW130236   1.156   1.502   4.238
 9779SOL    HW230237   1.245   1.385   4.167
 9780SOL     OW30238   2.508   2.143   1.323
 9780SOL    HW130239   2.597   2.182   1.301
 9780SOL    HW230240   2.493   2.060   1.269
 9781SOL     OW30241   2.023   3.764   4.238
 9781SOL    HW130242   1.998   3.672   4.267
 9781SOL    HW230243   2.060   3.761   4.145
 9782SOL     OW30244   0.149   1.420   0.960
 9782SOL    HW130245   0.107   1.344   0.910
 9782SOL    HW230246   0.081   1.460   1.022
 9783SOL     OW30247   4.203   2.179   2.890
 9783SOL    HW130248   4.128   2.114   2.906
 9783SOL    HW230249   4.193   2.221   2.800
 9784SOL     OW30250   3.693   1.514   4.322
 9784SOL    HW130251   3.746   1.574   4.262
 9784SOL    HW230252   3.712   1.538   4.417
 9785SOL     OW30253   0.695   2.733   6.225
 9785SOL    HW130254   0.730   2.811   6.276
 9785SOL    HW230255   0.603   2.753   6.191
 9786SOL     OW30256   2.225   4.383   0.373
 9786SOL    HW130257   2.240   4.284   0.382
 9786SOL    HW230258   2.165   4.413   0.447
 9787SOL     OW30259   4.164   3.984   1.772
 9787SOL    HW130260   4.161   3.926   1.853
 9787SOL    HW230261   4.231   4.057   1.786
 9788SOL     OW30262   0.721   0.804   3.879
 9788SOL    HW130263   0.655   0.730   3.866
 9788SOL    HW230264   0.698   0.881   3.820
 9789SOL     OW30265   1.315   5.475   0.646
 9789SOL    HW130266   1.215   5.481   0.652
 9789SOL    HW230267   1.357   5.536   0.713
 9790SOL     OW30268   6.529   4.608   6.886
 9790SOL    HW130269   6.554   4.701   6.910
 9790SOL    HW230270   6.470   4.609   6.805
 9791SOL     OW30271   0.741   1.453   2.335
 9791SOL    HW130272   0.791   1.415   2.413
 9791SOL    HW230273   0.779   1.415   2.251
 9792SOL     OW30274   4.453   4.682   0.752
 9792SOL    HW130275   4.483   4.725   0.667
 9792SOL    HW230276   4.436   4.752   0.821
 9793SOL     OW30277   4.262   6.416   2.732
 9793SOL    HW130278   4.280   6.321   2.758
 9793SOL    HW230279   4.204   6.459   2.801
 9794SOL     OW30280   0.143   4.480   0.180
 9794SOL    HW130281   0.088   4.479   0.264
 9794SOL    HW230282   0.191   4.393   0.171
 9795SOL     OW30283   2.108   1.568   4.500
 9795SOL    HW130284   2.170   1.637   4.463
 9795SOL    HW230285   2.158   1.484   4.519
 9796SOL     OW30286   3.756   2.474   1.368
 9796SOL    HW130287   3.796   2.457   1.459
 9796SOL    HW230288   3.827   2.466   1.299
 9797SOL     OW30289   2.247   5.413   6.833
 9797SOL    HW130290   2.311   5.431   6.908
 9797SOL    HW230291   2.244   5.315   6.813
 9798SOL     OW30292   2.888   0.880   2.024
 9798SOL    HW130293   2.866   0.955   1.961
 9798SOL    HW230294   2.987   0.868   2.028
 9799SOL     OW30295   3.532   2.939   4.542
 9799SOL    HW130296   3.533   2.900   4.634
 9799SOL    HW230297   3.624   2.968   4.517
 9800SOL     OW30298   3.718   6.021   4.953
 9800SOL    HW130299   3.620   6.029   4.971
 9800SOL    HW230300   3.765   5.989   5.034
 9801SOL     OW30301   4.630   3.907   6.589
 9801SOL    HW130302   4.552   3.949   6.636
 9801SOL    HW230303   4.707   3.900   6.652
 9802SOL     OW30304   0.226   3.593   1.241
 9802SOL    HW130305   0.172   3.514   1.270
 9802SOL    HW230306   0.225   3.599   1.141
 9803SOL     OW30307   1.017   2.116   6.780
 9803SOL    HW130308   0.922   2.141   6.801
 9803SOL    HW230309   1.031   2.122   6.682
 9804SOL     OW30310   1.524   0.063   2.438
 9804SOL    HW130311   1.540   0.024   2.529
 9804SOL    HW230312   1.429   0.047   2.411
 9805SOL     OW30313   1.655   0.039   4.405
 9805SOL    HW130314   1.675   0.123   4.355
 9805SOL    HW230315   1.556   0.029   4.415
 9806SOL     OW30316   1.245   1.200   0.124
 9806SOL    HW130317   1.258   1.101   0.135
 9806SOL    HW230318   1.166   1.229   0.177
 9807SOL     OW30319   2.559   4.412   0.480
 9807SOL    HW130320   2.584   4.325   0.522
 9807SOL    HW230321   2.531   4.397   0.385
 9808SOL     OW30322   4.102   0.261   5.401
 9808SOL    HW130323   4.120   0.229   5.308
 9808SOL    HW230324   4.177   0.236   5.461
 9809SOL     OW30325   0.989   2.496   6.552
 9809SOL    HW130326   0.915   2.488   6.619
 9809SOL    HW230327   0.952   2.532   6.466
 9810SOL     OW30328   1.958   2.924   3.772
 9810SOL    HW130329   1.939   2.996   3.838
 9810SOL    HW230330   1.873   2.875   3.751
 9811SOL     OW30331   5.334   4.859   3.476
 9811SOL    HW130332   5.326   4.769   3.431
 9811SOL    HW230333   5.426   4.871   3.511
 9812SOL     OW30334   3.622   2.171   5.752
 9812SOL    HW130335   3.535   2.195   5.709
 9812SOL    HW230336   3.660   2.090   5.706
 9813SOL     OW30337   5.701   1.430   0.749
 9813SOL    HW130338   5.622   1.487   0.772
 9813SOL    HW230339   5.780   1.488   0.732
 9814SOL     OW30340   6.907   0.481   6.846
 9814SOL    HW130341   6.991   0.506   6.894
 9814SOL    HW230342   6.929   0.449   6.754
 9815SOL     OW30343   5.434   4.409   3.548
 9815SOL    HW130344   5.468   4.478   3.613
 9815SOL    HW230345   5.512   4.363   3.506
 9816SOL     OW30346   7.014   1.114   6.048
 9816SOL    HW130347   0.064   1.165   6.010
 9816SOL    HW230348   0.010   1.081   6.140
 9817SOL     OW30349   3.196   6.851   2.648
 9817SOL    HW130350   3.238   6.844   2.558
 9817SOL    HW230351   3.226   6.774   2.705
 9818SOL     OW30352   1.678   1.009   4.888
 9818SOL    HW130353   1.750   1.008   4.819
 9818SOL    HW230354   1.644   1.102   4.900
 9819SOL     OW30355   4.830   3.044   3.655
 9819SOL    HW130356   4.755   2.986   3.624
 9819SOL    HW230357   4.843   3.032   3.753
 9820SOL     OW30358   4.304   3.295   6.413
 9820SOL    HW130359   4.358   3.278   6.332
 9820SOL    HW230360   4.223   3.235   6.413
 9821SOL     OW30361   5.392   0.556   6.849
 9821SOL    HW130362   5.329   0.572   6.925
 9821SOL    HW230363   5.356   0.601   6.767
 9822SOL     OW30364   2.718   6.175   3.595
 9822SOL    HW130365   2.661   6.196   3.675
 9822SOL    HW230366   2.754   6.082   3.602
 9823SOL     OW30367   2.368   0.898   6.868
 9823SOL    HW130368   2.351   0.895   6.967
 9823SOL    HW230369   2.290   0.942   6.823
 9824SOL     OW30370   2.015   4.871   4.141
 9824SOL    HW130371   2.110   4.842   4.157
 9824SOL    HW230372   2.013   4.938   4.067
 9825SOL     OW30373   5.520   5.891   4.382
 9825SOL    HW130374   5.475   5.853   4.463
 9825SOL    HW230375   5.456   5.894   4.306
 9826SOL     OW30376   4.184   5.405   5.834
 9826SOL    HW130377   4.226   5.375   5.920
 9826SOL    HW230378   4.118   5.477   5.853
 9827SOL     OW30379   1.613   4.243   3.719
 9827SOL    HW130380   1.546   4.248   3.645
 9827SOL    HW230381   1.566   4.246   3.807
 9828SOL     OW30382   2.816   2.140   5.452
 9828SOL    HW130383   2.899   2.195   5.455
 9828SOL    HW230384   2.838   2.045   5.470
 9829SOL     OW30385   4.262   5.087   6.461
 9829SOL    HW130386   4.194   5.038   6.407
 9829SOL    HW230387   4.348   5.093   6.410
 9830SOL     OW30388   5.093   1.518   1.903
 9830SOL    HW130389   5.135   1.429   1.890
 9830SOL    HW230390   5.028   1.513   1.980
 9831SOL     OW30391   1.270   4.912   2.296
 9831SOL    HW130392   1.324   4.934   2.378
 9831SOL    HW230393   1.218   4.829   2.313
 9832SOL     OW30394   4.730   5.332   2.533
 9832SOL    HW130395   4.771   5.245   2.558
 9832SOL    HW230396   4.644   5.316   2.484
 9833SOL     OW30397   3.387   3.265   4.444
 9833SOL    HW130398   3.486   3.273   4.432
 9833SOL    HW230399   3.351   3.198   4.378
 9834SOL     OW30400   2.515   4.310   5.269
 9834SOL    HW130401   2.612   4.332   5.273
 9834SOL    HW230402   2.503   4.215   5.241
 9835SOL     OW30403   3.879   3.773   5.012
 9835SOL    HW130404   3.803   3.725   4.970
 9835SOL    HW230405   3.918   3.838   4.946
 9836SOL     OW30406   6.881   4.182   3.528
 9836SOL    HW130407   6.830   4.206   3.610
 9836SOL    HW230408   6.932   4.262   3.495
 9837SOL     OW30409   3.628   0.628   1.916
 9837SOL    HW130410   3.653   0.541   1.875
 9837SOL    HW230411   3.552   0.669   1.864
 9838SOL     OW30412   1.858   6.607   0.816
 9838SOL    HW130413   1.855   6.667   0.736
 9838SOL    HW230414   1.798   6.643   0.887
 9839SOL     OW30415   5.561   6.539   3.748
 9839SOL    HW130416   5.657   6.532   3.722
 9839SOL    HW230417   5.507   6.473   3.695
 9840SOL     OW30418   5.551   1.684   1.309
 9840SOL    HW130419   5.590   1.702   1.219
 9840SOL    HW230420   5.615   1.713   1.380
 9841SOL     OW30421   1.771   4.057   5.634
 9841SOL    HW130422   1.806   3.985   5.575
 9841SOL    HW230423   1.788   4.033   5.729
 9842SOL     OW30424   3.761   2.750   1.503
 9842SOL    HW130425   3.724   2.834   1.464
 9842SOL    HW230426   3.741   2.673   1.442
 9843SOL     OW30427   0.115   0.443   2.258
 9843SOL    HW130428   0.037   0.387   2.285
 9843SOL    HW230429   0.094   0.540   2.272
 9844SOL     OW30430   6.581   1.322   2.956
 9844SOL    HW130431   6.560   1.410   2.998
 9844SOL    HW230432   6.568   1.248   3.023
 9845SOL     OW30433   1.795   2.699   3.687
 9845SOL    HW130434   1.840   2.668   3.770
 9845SOL    HW230435   1.780   2.621   3.626
 9846SOL     OW30436   3.612   2.171   1.411
 9846SOL    HW130437   3.707   2.169   1.443
 9846SOL    HW230438   3.594   2.258   1.365
 9847SOL     OW30439   3.841   2.979   3.113
 9847SOL    HW130440   3.752   2.942   3.083
 9847SOL    HW230441   3.842   2.988   3.212
 9848SOL     OW30442   3.705   3.569   4.904
 9848SOL    HW130443   3.716   3.494   4.840
 9848SOL    HW230444   3.633   3.547   4.970
 9849SOL     OW30445   0.512   6.943   6.142
 9849SOL    HW130446   0.610   6.958   6.155
 9849SOL    HW230447   0.497   6.861   6.087
 9850SOL     OW30448   6.039   0.257   3.872
 9850SOL    HW130449   6.104   0.244   3.797
 9850SOL    HW230450   6.085   0.305   3.947
 9851SOL     OW30451   0.348   6.851   4.252
 9851SOL    HW130452   0.445   6.839   4.271
 9851SOL    HW230453   0.301   6.763   4.258
 9852SOL     OW30454   3.212   1.631   4.265
 9852SOL    HW130455   3.275   1.691   4.217
 9852SOL    HW230456   3.263   1.552   4.301
 9853SOL     OW30457   5.175   3.817   5.044
 9853SOL    HW130458   5.137   3.908   5.030
 9853SOL    HW230459   5.108   3.759   5.089
 9854SOL     OW30460   6.767   6.075   4.385
 9854SOL    HW130461   6.679   6.068   4.431
 9854SOL    HW230462   6.811   6.162   4.411
 9855SOL     OW30463   1.772   3.487   1.426
 9855SOL    HW130464   1.739   3.534   1.508
 9855SOL    HW230465   1.825   3.407   1.452
 9856SOL     OW30466   4.753   4.165   4.921
 9856SOL    HW130467   4.816   4.126   4.854
 9856SOL    HW230468   4.709   4.246   4.882
 9857SOL     OW30469   4.854   3.198   2.685
 9857SOL    HW130470   4.918   3.197   2.762
 9857SOL    HW230471   4.861   3.286   2.637
 9858SOL     OW30472   6.297   6.781   1.270
 9858SOL    HW130473   6.208   6.825   1.278
 9858SOL    HW230474   6.369   6.847   1.290
 9859SOL     OW30475   5.959   6.099   2.809
 9859SOL    HW130476   5.871   6.141   2.789
 9859SOL    HW230477   6.016   6.163   2.860
 9860SOL     OW30478   1.792   2.247   3.893
 9860SOL    HW130479   1.818   2.154   3.921
 9860SOL    HW230480   1.821   2.262   3.799
 9861SOL     OW30481   2.760   0.490   2.662
 9861SOL    HW130482   2.694   0.414   2.665
 9861SOL    HW230483   2.720   0.570   2.707
 9862SOL     OW30484   2.831   3.116   0.108
 9862SOL    HW130485   2.840   3.021   0.075
 9862SOL    HW230486   2.833   3.178   0.030
 9863SOL     OW30487   3.322   6.681   1.921
 9863SOL    HW130488   3.308   6.758   1.859
 9863SOL    HW230489   3.411   6.688   1.965
 9864SOL     OW30490   3.156   0.164   3.771
 9864SOL    HW130491   3.089   0.147   3.699
 9864SOL    HW230492   3.165   0.262   3.786
 9865SOL     OW30493   1.256   6.892   4.774
 9865SOL    HW130494   1.234   6.901   4.871
 9865SOL    HW230495   1.196   6.822   4.733
 9866SOL     OW30496   5.395   4.499   6.290
 9866SOL    HW130497   5.487   4.482   6.253
 9866SOL    HW230498   5.332   4.520   6.215
 9867SOL     OW30499   0.119   1.878   1.096
 9867SOL    HW130500   0.196   1.930   1.060
 9867SOL    HW230501   0.152   1.790   1.130
 9868SOL     OW30502   0.381   3.404   4.284
 9868SOL    HW130503   0.453   3.400   4.352
 9868SOL    HW230504   0.399   3.480   4.221
 9869SOL     OW30505   0.552   2.428   1.486
 9869SOL    HW130506   0.606   2.355   1.528
 9869SOL    HW230507   0.518   2.490   1.557
 9870SOL     OW30508   4.534   5.364   2.928
 9870SOL    HW130509   4.615   5.311   2.954
 9870SOL    HW230510   4.526   5.444   2.988
 9871SOL     OW30511   6.362   4.327   5.870
 9871SOL    HW130512   6.287   4.340   5.935
 9871SOL    HW230513   6.363   4.403   5.804
 9872SOL     OW30514   3.214   5.687   5.075
 9872SOL    HW130515   3.134   5.707   5.131
 9872SOL    HW230516   3.292   5.665   5.134
 9873SOL     OW30517   2.376   2.223   0.684
 9873SOL    HW130518   2.471   2.192   0.695
 9873SOL    HW230519   2.368   2.275   0.599
 9874SOL     OW30520   6.204   3.346   5.546
 9874SOL    HW130521   6.148   3.416   5.590
 9874SOL    HW230522   6.192   3.259   5.594
 9875SOL     OW30523   6.119   5.871   2.071
 9875SOL    HW130524   6.098   5.775   2.049
 9875SOL    HW230525   6.035   5.926   2.064
 9876SOL     OW30526   5.223   0.291   4.132
 9876SOL    HW130527   5.312   0.324   4.161
 9876SOL    HW230528   5.234   0.234   4.050
 9877SOL     OW30529   6.449   4.782   4.268
 9877SOL    HW130530   6.476   4.829   4.352
 9877SOL    HW230531   6.358   4.742   4.280
 9878SOL     OW30532   2.909   3.245   5.909
 9878SOL    HW130533   2.905   3.335   5.952
 9878SOL    HW230534   3.005   3.219   5.896
 9879SOL     OW30535   5.135   5.534   5.662
 9879SOL    HW130536   5.228   5.499   5.653
 9879SOL    HW230537   5.135   5.616   5.719
 9880SOL     OW30538   2.993   1.200   0.233
 9880SOL    HW130539   3.007   1.245   0.321
 9880SOL    HW230540   3.003   1.101   0.244
 9881SOL     OW30541   0.316   1.574   4.952
 9881SOL    HW130542   0.404   1.620   4.965
 9881SOL    HW230543   0.255   1.598   5.029
 9882SOL     OW30544   2.126   3.517   5.376
 9882SOL    HW130545   2.193   3.484   5.443
 9882SOL    HW230546   2.174   3.557   5.298
 9883SOL     OW30547   0.940   6.441   1.047
 9883SOL    HW130548   1.019   6.502   1.053
 9883SOL    HW230549   0.969   6.346   1.059
 9884SOL     OW30550   4.796   1.378   0.728
 9884SOL    HW130551   4.880   1.389   0.780
 9884SOL    HW230552   4.727   1.331   0.784
 9885SOL     OW30553   0.118   3.131   4.815
 9885SOL    HW130554   0.167   3.157   4.732
 9885SOL    HW230555   0.183   3.120   4.891
 9886SOL     OW30556   1.272   5.468   0.963
 9886SOL    HW130557   1.319   5.550   0.930
 9886SOL    HW230558   1.327   5.388   0.942
 9887SOL     OW30559   4.234   6.685   0.228
 9887SOL    HW130560   4.202   6.593   0.249
 9887SOL    HW230561   4.250   6.735   0.314
 9888SOL     OW30562   5.161   5.363   2.795
 9888SOL    HW130563   5.180   5.452   2.753
 9888SOL    HW230564   5.243   5.328   2.840
 9889SOL     OW30565   6.449   4.439   1.253
 9889SOL    HW130566   6.441   4.342   1.273
 9889SOL    HW230567   6.538   4.458   1.211
 9890SOL     OW30568   0.677   2.194   1.511
 9890SOL    HW130569   0.764   2.147   1.491
 9890SOL    HW230570   0.610   2.171   1.441
 9891SOL     OW30571   6.037   3.635   1.276
 9891SOL    HW130572   6.119   3.687   1.251
 9891SOL    HW230573   5.981   3.691   1.337
 9892SOL     OW30574   1.116   5.701   2.971
 9892SOL    HW130575   1.037   5.679   3.028
 9892SOL    HW230576   1.170   5.618   2.955
 9893SOL     OW30577   5.974   0.406   1.892
 9893SOL    HW130578   5.993   0.380   1.986
 9893SOL    HW230579   5.878   0.388   1.870
 9894SOL     OW30580   2.775   2.410   6.348
 9894SOL    HW130581   2.779   2.499   6.303
 9894SOL    HW230582   2.685   2.396   6.388
 9895SOL     OW30583   5.388   3.195   5.942
 9895SOL    HW130584   5.324   3.123   5.968
 9895SOL    HW230585   5.348   3.284   5.962
 9896SOL     OW30586   4.863   1.322   0.234
 9896SOL    HW130587   4.948   1.371   0.214
 9896SOL    HW230588   4.848   1.320   0.333
 9897SOL     OW30589   5.247   6.901   2.634
 9897SOL    HW130590   5.278   6.982   2.586
 9897SOL    HW230591   5.308   6.824   2.614
 9898SOL     OW30592   0.825   4.655   5.597
 9898SOL    HW130593   0.870   4.570   5.625
 9898SOL    HW230594   0.726   4.640   5.591
 9899SOL     OW30595   0.129   5.492   2.658
 9899SOL    HW130596   0.073   5.536   2.588
 9899SOL    HW230597   0.218   5.538   2.663
 9900SOL     OW30598   2.097   3.469   2.528
 9900SOL    HW130599   2.141   3.439   2.443
 9900SOL    HW230600   1.999   3.454   2.522
 9901SOL     OW30601   2.658   0.732   0.183
 9901SOL    HW130602   2.604   0.809   0.148
 9901SOL    HW230603   2.642   0.723   0.282
 9902SOL     OW30604   4.005   3.880   1.350
 9902SOL    HW130605   3.957   3.963   1.323
 9902SOL    HW230606   4.015   3.820   1.271
 9903SOL     OW30607   5.411   1.102   1.615
 9903SOL    HW130608   5.487   1.093   1.550
 9903SOL    HW230609   5.326   1.121   1.565
 9904SOL     OW30610   0.348   3.476   6.678
 9904SOL    HW130611   0.444   3.501   6.675
 9904SOL    HW230612   0.328   3.414   6.603
 9905SOL     OW30613   1.485   0.571   6.442
 9905SOL    HW130614   1.546   0.496   6.468
 9905SOL    HW230615   1.513   0.608   6.353
 9906SOL     OW30616   2.018   4.071   0.201
 9906SOL    HW130617   1.963   3.995   0.168
 9906SOL    HW230618   1.994   4.154   0.150
 9907SOL     OW30619   1.332   0.952   2.540
 9907SOL    HW130620   1.418   1.000   2.555
 9907SOL    HW230621   1.329   0.919   2.445
 9908SOL     OW30622   1.015   2.614   5.959
 9908SOL    HW130623   0.946   2.686   5.956
 9908SOL    HW230624   1.096   2.643   5.908
 9909SOL     OW30625   3.828   0.638   2.664
 9909SOL    HW130626   3.903   0.622   2.728
 9909SOL    HW230627   3.765   0.560   2.667
 9910SOL     OW30628   1.375   5.168   1.358
 9910SOL    HW130629   1.409   5.132   1.445
 9910SOL    HW230630   1.442   5.153   1.286
 9911SOL     OW30631   3.766   5.469   2.550
 9911SOL    HW130632   3.773   5.424   2.461
 9911SOL    HW230633   3.670   5.490   2.569
 9912SOL     OW30634   4.896   1.292   1.992
 9912SOL    HW130635   4.843   1.296   1.907
 9912SOL    HW230636   4.993   1.282   1.971
 9913SOL     OW30637   6.123   2.821   1.474
 9913SOL    HW130638   6.105   2.773   1.388
 9913SOL    HW230639   6.211   2.868   1.468
 9914SOL     OW30640   0.247   6.932   5.039
 9914SOL    HW130641   0.212   7.021   5.009
 9914SOL    HW230642   0.240   6.866   4.965
 9915SOL     OW30643   5.394   2.690   3.960
 9915SOL    HW130644   5.468   2.749   3.928
 9915SOL    HW230645   5.421   2.646   4.046
 9916SOL     OW30646   1.721   2.162   3.424
 9916SOL    HW130647   1.724   2.135   3.327
 9916SOL    HW230648   1.673   2.249   3.432
 9917SOL     OW30649   3.140   3.539   4.588
 9917SOL    HW130650   3.047   3.509   4.609
 9917SOL    HW230651   3.188   3.469   4.535
 9918SOL     OW30652   0.974   2.700   1.873
 9918SOL    HW130653   0.962   2.795   1.846
 9918SOL    HW230654   0.920   2.641   1.813
 9919SOL     OW30655   2.243   5.887   2.334
 9919SOL    HW130656   2.242   5.979   2.374
 9919SOL    HW230657   2.166   5.835   2.369
 9920SOL     OW30658   4.095   0.582   2.741
 9920SOL    HW130659   4.120   0.603   2.835
 9920SOL    HW230660   4.150   0.637   2.678
 9921SOL     OW30661   4.339   7.013   4.759
 9921SOL    HW130662   4.273   0.061   4.755
 9921SOL    HW230663   4.420   0.010   4.705
 9922SOL     OW30664   4.804   4.465   1.400
 9922SOL    HW130665   4.819   4.442   1.304
 9922SOL    HW230666   4.855   4.402   1.458
 9923SOL     OW30667   6.382   3.288   0.382
 9923SOL    HW130668   6.389   3.287   0.282
 9923SOL    HW230669   6.357   3.197   0.415
 9924SOL     OW30670   4.757   1.535   3.033
 9924SOL    HW130671   4.689   1.491   2.975
 9924SOL    HW230672   4.711   1.589   3.104
 9925SOL     OW30673   1.272   4.991   3.416
 9925SOL    HW130674   1.363   5.020   3.385
 9925SOL    HW230675   1.270   4.892   3.425
 9926SOL     OW30676   3.768   2.753   0.831
 9926SOL    HW130677   3.766   2.683   0.903
 9926SOL    HW230678   3.784   2.843   0.873
 9927SOL     OW30679   1.223   1.448   1.014
 9927SOL    HW130680   1.201   1.372   1.075
 9927SOL    HW230681   1.264   1.412   0.930
 9928SOL     OW30682   5.358   3.860   3.260
 9928SOL    HW130683   5.304   3.935   3.298
 9928SOL    HW230684   5.297   3.796   3.214
 9929SOL     OW30685   2.900   3.807   4.429
 9929SOL    HW130686   2.823   3.865   4.405
 9929SOL    HW230687   2.879   3.712   4.406
 9930SOL     OW30688   0.564   0.213   6.268
 9930SOL    HW130689   0.643   0.158   6.296
 9930SOL    HW230690   0.486   0.153   6.254
 9931SOL     OW30691   7.015   5.799   4.159
 9931SOL    HW130692   6.964   5.879   4.126
 9931SOL    HW230693   0.056   5.774   4.090
 9932SOL     OW30694   2.690   1.741   6.122
 9932SOL    HW130695   2.739   1.666   6.166
 9932SOL    HW230696   2.755   1.798   6.072
 9933SOL     OW30697   1.576   0.448   3.882
 9933SOL    HW130698   1.596   0.541   3.912
 9933SOL    HW230699   1.484   0.445   3.843
 9934SOL     OW30700   6.164   1.854   7.004
 9934SOL    HW130701   6.112   1.824   6.924
 9934SOL    HW230702   6.180   1.952   6.999
 9935SOL     OW30703   3.419   0.700   0.767
 9935SOL    HW130704   3.325   0.683   0.798
 9935SOL    HW230705   3.418   0.733   0.673
 9936SOL     OW30706   6.396   5.068   0.583
 9936SOL    HW130707   6.307   5.109   0.560
 9936SOL    HW230708   6.431   5.110   0.667
 9937SOL     OW30709   1.079   1.201   2.168
 9937SOL    HW130710   1.042   1.222   2.077
 9937SOL    HW230711   1.079   1.101   2.181
 9938SOL     OW30712   5.871   6.640   4.345
 9938SOL    HW130713   5.914   6.696   4.274
 9938SOL    HW230714   5.904   6.546   4.336
 9939SOL     OW30715   3.156   2.815   0.458
 9939SOL    HW130716   3.124   2.804   0.364
 9939SOL    HW230717   3.244   2.769   0.468
 9940SOL     OW30718   1.268   0.335   2.695
 9940SOL    HW130719   1.185   0.306   2.648
 9940SOL    HW230720   1.322   0.255   2.722
 9941SOL     OW30721   2.818   5.546   5.468
 9941SOL    HW130722   2.776   5.479   5.405
 9941SOL    HW230723   2.746   5.594   5.518
 9942SOL     OW30724   4.220   5.879   2.631
 9942SOL    HW130725   4.167   5.807   2.586
 9942SOL    HW230726   4.167   5.964   2.632
 9943SOL     OW30727   1.118   4.468   6.546
 9943SOL    HW130728   1.081   4.384   6.586
 9943SOL    HW230729   1.047   4.538   6.542
 9944SOL     OW30730   0.860   4.671   6.193
 9944SOL    HW130731   0.793   4.741   6.169
 9944SOL    HW230732   0.950   4.713   6.205
 9945SOL     OW30733   5.253   4.634   6.731
 9945SOL    HW130734   5.204   4.719   6.718
 9945SOL    HW230735   5.323   4.624   6.660
 9946SOL     OW30736   6.602   0.282   3.209
 9946SOL    HW130737   6.609   0.272   3.109
 9946SOL    HW230738   6.582   0.377   3.232
 9947SOL     OW30739   3.211   1.887   4.582
 9947SOL    HW130740   3.228   1.798   4.539
 9947SOL    HW230741   3.125   1.883   4.634
 9948SOL     OW30742   6.926   5.219   5.170
 9948SOL    HW130743   6.854   5.174   5.117
 9948SOL    HW230744   6.962   5.155   5.238
 9949SOL     OW30745   0.157   4.912   3.777
 9949SOL    HW130746   0.236   4.942   3.831
 9949SOL    HW230747   0.162   4.953   3.686
 9950SOL     OW30748   6.577   5.668   0.003
 9950SOL    HW130749   6.477   5.660   7.026
 9950SOL    HW230750   6.618   5.577   0.006
 9951SOL     OW30751   1.430   2.402   3.295
 9951SOL    HW130752   1.412   2.305   3.286
 9951SOL    HW230753   1.345   2.450   3.318
 9952SOL     OW30754   1.841   3.530   0.686
 9952SOL    HW130755   1.846   3.618   0.640
 9952SOL    HW230756   1.798   3.542   0.776
 9953SOL     OW30757   5.819   2.599   3.914
 9953SOL    HW130758   5.746   2.639   3.970
 9953SOL    HW230759   5.903   2.651   3.928
 9954SOL     OW30760   1.127   0.068   4.572
 9954SOL    HW130761   1.160   0.033   4.659
 9954SOL    HW230762   1.171   0.156   4.552
 9955SOL     OW30763   3.655   3.398   6.652
 9955SOL    HW130764   3.576   3.409   6.712
 9955SOL    HW230765   3.649   3.462   6.576
 9956SOL     OW30766   0.647   4.094   3.009
 9956SOL    HW130767   0.740   4.130   3.003
 9956SOL    HW230768   0.648   3.995   2.995
 9957SOL     OW30769   6.378   0.581   2.634
 9957SOL    HW130770   6.314   0.601   2.708
 9957SOL    HW230771   6.335   0.519   2.569
 9958SOL     OW30772   2.524   6.082   6.610
 9958SOL    HW130773   2.557   6.011   6.549
 9958SOL    HW230774   2.503   6.165   6.558
 9959SOL     OW30775   4.124   3.579   3.186
 9959SOL    HW130776   4.119   3.584   3.086
 9959SOL    HW230777   4.183   3.503   3.212
 9960SOL     OW30778   0.966   6.779   2.053
 9960SOL    HW130779   1.051   6.794   2.002
 9960SOL    HW230780   0.894   6.749   1.991
 9961SOL     OW30781   1.429   5.300   3.729
 9961SOL    HW130782   1.366   5.276   3.655
 9961SOL    HW230783   1.495   5.225   3.741
 9962SOL     OW30784   3.904   0.291   2.445
 9962SOL    HW130785   3.805   0.305   2.438
 9962SOL    HW230786   3.932   0.303   2.540
 9963SOL     OW30787   2.686   2.607   5.754
 9963SOL    HW130788   2.652   2.608   5.848
 9963SOL    HW230789   2.695   2.512   5.723
 9964SOL     OW30790   4.336   5.070   6.016
 9964SOL    HW130791   4.278   5.004   5.968
 9964SOL    HW230792   4.300   5.163   6.002
 9965SOL     OW30793   3.455   4.873   5.239
 9965SOL    HW130794   3.406   4.957   5.258
 9965SOL    HW230795   3.419   4.799   5.296
 9966SOL     OW30796   1.945   5.391   2.169
 9966SOL    HW130797   1.986   5.418   2.257
 9966SOL    HW230798   2.005   5.325   2.124
 9967SOL     OW30799   4.877   5.827   2.033
 9967SOL    HW130800   4.811   5.785   1.972
 9967SOL    HW230801   4.965   5.836   1.986
 9968SOL     OW30802   3.222   5.665   6.774
 9968SOL    HW130803   3.179   5.630   6.690
 9968SOL    HW230804   3.245   5.761   6.762
 9969SOL     OW30805   0.981   2.943   3.867
 9969SOL    HW130806   0.886   2.910   3.867
 9969SOL    HW230807   0.985   3.033   3.826
 9970SOL     OW30808   6.861   4.221   2.233
 9970SOL    HW130809   6.921   4.280   2.288
 9970SOL    HW230810   6.790   4.276   2.190
 9971SOL     OW30811   2.823   4.151   0.506
 9971SOL    HW130812   2.828   4.199   0.419
 9971SOL    HW230813   2.880   4.069   0.502
 9972SOL     OW30814   3.718   4.463   0.663
 9972SOL    HW130815   3.670   4.430   0.582
 9972SOL    HW230816   3.816   4.467   0.644
 9973SOL     OW30817   3.967   1.739   4.844
 9973SOL    HW130818   3.982   1.825   4.795
 9973SOL    HW230819   4.021   1.667   4.801
 9974SOL     OW30820   6.540   3.922   3.446
 9974SOL    HW130821   6.466   3.918   3.512
 9974SOL    HW230822   6.611   3.856   3.471
 9975SOL     OW30823   0.201   4.611   6.943
 9975SOL    HW130824   0.197   4.570   0.008
 9975SOL    HW230825   0.110   4.646   6.919
 9976SOL     OW30826   6.258   4.871   5.677
 9976SOL    HW130827   6.201   4.790   5.667
 9976SOL    HW230828   6.265   4.919   5.589
 9977SOL     OW30829   6.625   4.814   5.346
 9977SOL    HW130830   6.580   4.901   5.327
 9977SOL    HW230831   6.713   4.831   5.391
 9978SOL     OW30832   6.350   1.272   4.306
 9978SOL    HW130833   6.327   1.310   4.217
 9978SOL    HW230834   6.266   1.258   4.359
 9979SOL     OW30835   6.702   4.884   6.242
 9979SOL    HW130836   6.791   4.906   6.202
 9979SOL    HW230837   6.703   4.789   6.274
 9980SOL     OW30838   1.781   0.506   6.731
 9980SOL    HW130839   1.871   0.467   6.748
 9980SOL    HW230840   1.750   0.480   6.639
 9981SOL     OW30841   2.260   2.019   1.129
 9981SOL    HW130842   2.201   2.056   1.200
 9981SOL    HW230843   2.256   2.078   1.048
 9982SOL     OW30844   1.115   1.768   3.080
 9982SOL    HW130845   1.091   1.853   3.033
 9982SOL    HW230846   1.038   1.704   3.076
 9983SOL     OW30847   1.080   1.421   1.706
 9983SOL    HW130848   1.013   1.468   1.649
 9983SOL    HW230849   1.172   1.453   1.682
 9984SOL     OW30850   0.511   0.356   0.992
 9984SOL    HW130851   0.427   0.369   1.044
 9984SOL    HW230852   0.536   0.442   0.947
 9985SOL     OW30853   3.301   0.428   1.093
 9985SOL    HW130854   3.371   0.357   1.081
 9985SOL    HW230855   3.277   0.466   1.004
 9986SOL     OW30856   4.558   4.109   6.299
 9986SOL    HW130857   4.587   4.198   6.334
 9986SOL    HW230858   4.597   4.036   6.355
 9987SOL     OW30859   5.576   2.107   2.151
 9987SOL    HW130860   5.523   2.026   2.175
 9987SOL    HW230861   5.533   2.188   2.193
 9988SOL     OW30862   0.208   5.374   4.762
 9988SOL    HW130863   0.274   5.444   4.789
 9988SOL    HW230864   0.164   5.336   4.844
 9989SOL     OW30865   5.216   3.540   3.056
 9989SOL    HW130866   5.125   3.577   3.040
 9989SOL    HW230867   5.267   3.537   2.970
 9990SOL     OW30868   2.360   6.860   3.194
 9990SOL    HW130869   2.423   6.937   3.181
 9990SOL    HW230870   2.385   6.786   3.132
 9991SOL     OW30871   1.236   3.155   4.750
 9991SOL    HW130872   1.332   3.138   4.728
 9991SOL    HW230873   1.178   3.107   4.684
 9992SOL     OW30874   4.492   3.604   0.302
 9992SOL    HW130875   4.441   3.589   0.218
 9992SOL    HW230876   4.513   3.516   0.345
 9993SOL     OW30877   4.041   6.354   2.480
 9993SOL    HW130878   4.058   6.308   2.393
 9993SOL    HW230879   4.089   6.441   2.481
 9994SOL     OW30880   6.457   4.211   3.755
 9994SOL    HW130881   6.489   4.136   3.812
 9994SOL    HW230882   6.455   4.296   3.808
 9995SOL     OW30883   3.416   0.075   2.959
 9995SOL    HW130884   3.318   0.055   2.947
 9995SOL    HW230885   3.429   0.174   2.964
 9996SOL     OW30886   3.177   2.671   1.106
 9996SOL    HW130887   3.128   2.626   1.181
 9996SOL    HW230888   3.138   2.642   1.019
 9997SOL     OW30889   4.705   1.623   0.851
 9997SOL    HW130890   4.725   1.536   0.806
 9997SOL    HW230891   4.768   1.636   0.927
 9998SOL     OW30892   5.829   3.604   2.461
 9998SOL    HW130893   5.812   3.524   2.404
 9998SOL    HW230894   5.796   3.686   2.413
 9999SOL     OW30895   6.363   5.036   4.643
 9999SOL    HW130896   6.328   5.107   4.583
 9999SOL    HW230897   6.293   4.964   4.654
10000SOL     OW30898   6.261   1.652   6.495
10000SOL    HW130899   6.188   1.685   6.436
10000SOL    HW230900   6.249   1.554   6.513
10001SOL     OW30901   5.193   0.767   1.702
10001SOL    HW130902   5.122   0.700   1.725
10001SOL    HW230903   5.220   0.817   1.785
10002SOL     OW30904   1.250   0.850   1.439
10002SOL    HW130905   1.348   0.863   1.456
10002SOL    HW230906   1.208   0.805   1.518
10003SOL     OW30907   3.745   2.105   3.242
10003SOL    HW130908   3.716   2.083   3.335
10003SOL    HW230909   3.664   2.121   3.185
10004SOL     OW30910   5.678   3.362   4.969
10004SOL    HW130911   5.650   3.366   4.873
10004SOL    HW230912   5.704   3.269   4.993
10005SOL     OW30913   4.839   5.594   3.158
10005SOL    HW130914   4.925   5.555   3.127
10005SOL    HW230915   4.838   5.600   3.258
10006SOL     OW30916   4.984   0.908   4.367
10006SOL    HW130917   4.915   0.863   4.311
10006SOL    HW230918   4.966   0.888   4.464
10007SOL     OW30919   1.086   4.300   4.784
10007SOL    HW130920   0.987   4.314   4.785
10007SOL    HW230921   1.115   4.256   4.869
10008SOL     OW30922   4.365   1.441   3.561
10008SOL    HW130923   4.423   1.369   3.601
10008SOL    HW230924   4.304   1.401   3.493
10009SOL     OW30925   1.633   3.223   2.256
10009SOL    HW130926   1.605   3.285   2.329
10009SOL    HW230927   1.689   3.272   2.190
10010SOL     OW30928   2.047   6.664   0.384
10010SOL    HW130929   2.146   6.655   0.379
10010SOL    HW230930   2.011   6.600   0.452
10011SOL     OW30931   0.873   2.571   5.665
10011SOL    HW130932   0.971   2.574   5.685
10011SOL    HW230933   0.859   2.575   5.566
10012SOL     OW30934   4.964   0.004   2.641
10012SOL    HW130935   4.945   0.080   2.704
10012SOL    HW230936   5.010   6.958   2.690
10013SOL     OW30937   2.163   1.503   5.199
10013SOL    HW130938   2.171   1.494   5.298
10013SOL    HW230939   2.186   1.597   5.172
10014SOL     OW30940   0.050   2.045   0.759
10014SOL    HW130941   0.004   2.133   0.750
10014SOL    HW230942   0.120   2.051   0.830
10015SOL     OW30943   3.193   4.551   0.541
10015SOL    HW130944   3.166   4.642   0.573
10015SOL    HW230945   3.112   4.493   0.536
10016SOL     OW30946   2.029   0.008   4.613
10016SOL    HW130947   2.015   6.954   4.669
10016SOL    HW230948   1.942   0.035   4.570
10017SOL     OW30949   1.937   1.871   2.488
10017SOL    HW130950   1.994   1.828   2.418
10017SOL    HW230951   1.962   1.967   2.498
10018SOL     OW30952   5.860   5.502   6.125
10018SOL    HW130953   5.943   5.531   6.173
10018SOL    HW230954   5.807   5.582   6.097
10019SOL     OW30955   0.945   2.381   3.391
10019SOL    HW130956   0.904   2.290   3.396
10019SOL    HW230957   1.037   2.377   3.429
10020SOL     OW30958   0.385   1.487   0.862
10020SOL    HW130959   0.359   1.571   0.815
10020SOL    HW230960   0.304   1.443   0.900
10021SOL     OW30961   0.966   2.985   1.804
10021SOL    HW130962   0.987   2.990   1.706
10021SOL    HW230963   0.890   3.046   1.825
10022SOL     OW30964   3.340   6.947   0.981
10022SOL    HW130965   3.310   0.014   0.961
10022SOL    HW230966   3.371   6.941   1.076
10023SOL     OW30967   2.154   5.462   5.702
10023SOL    HW130968   2.151   5.550   5.749
10023SOL    HW230969   2.181   5.390   5.766
10024SOL     OW30970   2.019   6.891   1.715
10024SOL    HW130971   1.945   6.921   1.654
10024SOL    HW230972   2.064   6.971   1.754
10025SOL     OW30973   1.603   1.608   1.105
10025SOL    HW130974   1.692   1.574   1.134
10025SOL    HW230975   1.613   1.664   1.023
10026SOL     OW30976   4.572   6.183   3.429
10026SOL    HW130977   4.587   6.249   3.504
10026SOL    HW230978   4.538   6.231   3.349
10027SOL     OW30979   0.929   4.644   4.910
10027SOL    HW130980   0.844   4.628   4.860
10027SOL    HW230981   0.908   4.661   5.006
10028SOL     OW30982   1.449   1.743   1.808
10028SOL    HW130983   1.460   1.838   1.779
10028SOL    HW230984   1.538   1.697   1.805
10029SOL     OW30985   3.197   1.792   3.921
10029SOL    HW130986   3.246   1.779   3.835
10029SOL    HW230987   3.263   1.810   3.994
10030SOL     OW30988   2.659   6.812   4.407
10030SOL    HW130989   2.692   6.786   4.498
10030SOL    HW230990   2.733   6.854   4.355
10031SOL     OW30991   5.698   4.655   3.556
10031SOL    HW130992   5.786   4.669   3.600
10031SOL    HW230993   5.662   4.743   3.525
10032SOL     OW30994   3.423   0.854   5.045
10032SOL    HW130995   3.451   0.950   5.043
10032SOL    HW230996   3.346   0.844   5.108
10033SOL     OW30997   5.163   2.179   4.237
10033SOL    HW130998   5.181   2.130   4.152
10033SOL    HW230999   5.119   2.118   4.303
10034SOL     OW31000   3.408   6.959   3.882
10034SOL    HW131001   3.475   7.023   3.920
10034SOL    HW231002   3.330   6.951   3.944
10035SOL     OW31003   0.287   4.477   1.897
10035SOL    HW131004   0.355   4.548   1.917
10035SOL    HW231005   0.333   4.388   1.889
10036SOL     OW31006   5.720   1.098   1.140
10036SOL    HW131007   5.735   1.155   1.221
10036SOL    HW231008   5.681   1.154   1.067
10037SOL     OW31009   6.190   1.447   1.063
10037SOL    HW131010   6.247   1.390   1.123
10037SOL    HW231011   6.095   1.418   1.070
10038SOL     OW31012   4.073   1.436   6.687
10038SOL    HW131013   3.988   1.435   6.740
10038SOL    HW231014   4.082   1.349   6.639
10039SOL     OW31015   3.188   0.290   4.345
10039SOL    HW131016   3.170   0.306   4.442
10039SOL    HW231017   3.237   0.204   4.334
10040SOL     OW31018   4.198   5.738   6.479
10040SOL    HW131019   4.283   5.791   6.477
10040SOL    HW231020   4.126   5.788   6.431
10041SOL     OW31021   4.473   5.774   6.315
10041SOL    HW131022   4.559   5.728   6.292
10041SOL    HW231023   4.473   5.799   6.412
10042SOL     OW31024   1.129   1.564   4.563
10042SOL    HW131025   1.068   1.485   4.570
10042SOL    HW231026   1.087   1.633   4.504
10043SOL     OW31027   6.142   1.801   4.668
10043SOL    HW131028   6.194   1.853   4.600
10043SOL    HW231029   6.155   1.842   4.759
10044SOL     OW31030   3.063   1.357   5.178
10044SOL    HW131031   2.967   1.329   5.171
10044SOL    HW231032   3.101   1.328   5.266
10045SOL     OW31033   4.270   7.009   3.590
10045SOL    HW131034   4.310   6.968   3.672
10045SOL    HW231035   4.323   0.062   3.563
10046SOL     OW31036   2.436   3.967   1.010
10046SOL    HW131037   2.359   3.904   1.019
10046SOL    HW231038   2.406   4.049   0.961
10047SOL     OW31039   0.026   3.826   5.712
10047SOL    HW131040   0.045   3.849   5.807
10047SOL    HW231041   6.972   3.875   5.681
10048SOL     OW31042   6.332   0.874   2.601
10048SOL    HW131043   6.324   0.916   2.692
10048SOL    HW231044   6.242   0.844   2.570
10049SOL     OW31045   0.187   1.190   6.738
10049SOL    HW131046   0.141   1.262   6.687
10049SOL    HW231047   0.269   1.227   6.783
10050SOL     OW31048   5.485   3.692   5.372
10050SOL    HW131049   5.561   3.738   5.326
10050SOL    HW231050   5.518   3.607   5.412
10051SOL     OW31051   5.699   3.673   5.991
10051SOL    HW131052   5.646   3.758   5.985
10051SOL    HW231053   5.637   3.596   6.004
10052SOL     OW31054   1.637   2.242   2.913
10052SOL    HW131055   1.707   2.204   2.973
10052SOL    HW231056   1.625   2.181   2.834
10053SOL     OW31057   3.824   5.572   3.171
10053SOL    HW131058   3.902   5.628   3.200
10053SOL    HW231059   3.858   5.493   3.119
10054SOL     OW31060   5.808   5.977   6.874
10054SOL    HW131061   5.814   5.879   6.856
10054SOL    HW231062   5.740   5.994   6.946
10055SOL     OW31063   5.716   1.646   4.842
10055SOL    HW131064   5.626   1.606   4.858
10055SOL    HW231065   5.738   1.710   4.915
10056SOL     OW31066   5.350   4.377   2.974
10056SOL    HW131067   5.315   4.364   3.067
10056SOL    HW231068   5.388   4.469   2.965
10057SOL     OW31069   4.498   2.524   5.418
10057SOL    HW131070   4.589   2.484   5.405
10057SOL    HW231071   4.507   2.619   5.446
10058SOL     OW31072   0.151   3.458   5.004
10058SOL    HW131073   0.235   3.441   5.055
10058SOL    HW231074   0.075   3.473   5.068
10059SOL     OW31075   6.442   0.680   0.869
10059SOL    HW131076   6.439   0.724   0.958
10059SOL    HW231077   6.490   0.592   0.877
10060SOL     OW31078   2.004   2.702   1.824
10060SOL    HW131079   2.030   2.718   1.729
10060SOL    HW231080   2.009   2.604   1.844
10061SOL     OW31081   4.455   1.085   3.812
10061SOL    HW131082   4.453   1.160   3.746
10061SOL    HW231083   4.495   1.004   3.769
10062SOL     OW31084   6.184   0.775   3.968
10062SOL    HW131085   6.140   0.775   4.057
10062SOL    HW231086   6.117   0.756   3.897
10063SOL     OW31087   2.708   0.998   4.175
10063SOL    HW131088   2.786   0.937   4.167
10063SOL    HW231089   2.681   1.005   4.271
10064SOL     OW31090   5.037   6.918   0.099
10064SOL    HW131091   4.959   6.901   0.158
10064SOL    HW231092   5.042   7.016   0.076
10065SOL     OW31093   3.409   0.376   2.855
10065SOL    HW131094   3.428   0.401   2.950
10065SOL    HW231095   3.326   0.423   2.824
10066SOL     OW31096   0.189   2.698   4.552
10066SOL    HW131097   0.200   2.773   4.617
10066SOL    HW231098   0.101   2.706   4.505
10067SOL     OW31099   0.580   4.117   5.385
10067SOL    HW131100   0.675   4.130   5.415
10067SOL    HW231101   0.533   4.205   5.387
10068SOL     OW31102   0.317   3.316   3.411
10068SOL    HW131103   0.407   3.272   3.405
10068SOL    HW231104   0.246   3.253   3.379
10069SOL     OW31105   3.422   5.295   2.344
10069SOL    HW131106   3.410   5.246   2.430
10069SOL    HW231107   3.438   5.230   2.270
10070SOL     OW31108   0.377   6.004   5.179
10070SOL    HW131109   0.474   5.982   5.192
10070SOL    HW231110   0.362   6.033   5.085
10071SOL     OW31111   6.314   6.027   4.942
10071SOL    HW131112   6.399   6.066   4.907
10071SOL    HW231113   6.265   5.980   4.868
10072SOL     OW31114   6.459   6.532   4.112
10072SOL    HW131115   6.476   6.440   4.146
10072SOL    HW231116   6.472   6.534   4.012
10073SOL     OW31117   6.404   5.281   4.079
10073SOL    HW131118   6.358   5.202   4.121
10073SOL    HW231119   6.377   5.287   3.983
10074SOL     OW31120   1.984   0.315   5.222
10074SOL    HW131121   1.925   0.336   5.300
10074SOL    HW231122   1.954   0.230   5.180
10075SOL     OW31123   1.645   2.705   2.630
10075SOL    HW131124   1.587   2.724   2.551
10075SOL    HW231125   1.664   2.607   2.635
10076SOL     OW31126   6.120   6.496   3.520
10076SOL    HW131127   6.139   6.536   3.610
10076SOL    HW231128   6.031   6.449   3.523
10077SOL     OW31129   4.335   3.119   6.811
10077SOL    HW131130   4.362   3.055   6.739
10077SOL    HW231131   4.260   3.080   6.864
10078SOL     OW31132   7.002   5.742   3.674
10078SOL    HW131133   7.011   5.713   3.579
10078SOL    HW231134   6.988   5.662   3.732
10079SOL     OW31135   5.961   2.874   3.374
10079SOL    HW131136   5.954   2.894   3.276
10079SOL    HW231137   5.966   2.959   3.425
10080SOL     OW31138   4.710   0.396   5.308
10080SOL    HW131139   4.645   0.385   5.233
10080SOL    HW231140   4.675   0.463   5.373
10081SOL     OW31141   6.938   0.983   0.100
10081SOL    HW131142   7.003   1.059   0.092
10081SOL    HW231143   6.987   0.896   0.102
10082SOL     OW31144   0.322   5.353   1.722
10082SOL    HW131145   0.393   5.364   1.791
10082SOL    HW231146   0.337   5.419   1.648
10083SOL     OW31147   4.176   0.479   3.465
10083SOL    HW131148   4.259   0.512   3.511
10083SOL    HW231149   4.096   0.518   3.509
10084SOL     OW31150   2.020   0.353   6.042
10084SOL    HW131151   2.051   0.294   5.968
10084SOL    HW231152   2.078   0.339   6.122
10085SOL     OW31153   3.058   5.915   0.949
10085SOL    HW131154   3.157   5.910   0.941
10085SOL    HW231155   3.017   5.909   0.858
10086SOL     OW31156   5.316   6.340   2.112
10086SOL    HW131157   5.258   6.420   2.130
10086SOL    HW231158   5.388   6.336   2.181
10087SOL     OW31159   6.544   6.040   4.126
10087SOL    HW131160   6.470   5.973   4.137
10087SOL    HW231161   6.612   6.005   4.062
10088SOL     OW31162   6.867   6.867   2.075
10088SOL    HW131163   6.929   6.793   2.099
10088SOL    HW231164   6.786   6.862   2.134
10089SOL     OW31165   2.393   2.103   3.310
10089SOL    HW131166   2.387   2.003   3.303
10089SOL    HW231167   2.471   2.128   3.367
10090SOL     OW31168   0.606   4.940   1.982
10090SOL    HW131169   0.556   5.019   1.949
10090SOL    HW231170   0.702   4.964   1.996
10091SOL     OW31171   6.749   5.210   6.159
10091SOL    HW131172   6.819   5.150   6.197
10091SOL    HW231173   6.696   5.160   6.091
10092SOL     OW31174   2.536   2.798   5.590
10092SOL    HW131175   2.596   2.738   5.643
10092SOL    HW231176   2.541   2.773   5.493
10093SOL     OW31177   4.537   3.063   5.650
10093SOL    HW131178   4.595   3.019   5.718
10093SOL    HW231179   4.589   3.135   5.603
10094SOL     OW31180   3.653   5.560   1.488
10094SOL    HW131181   3.572   5.617   1.476
10094SOL    HW231182   3.652   5.519   1.579
10095SOL     OW31183   5.830   1.768   4.290
10095SOL    HW131184   5.850   1.754   4.388
10095SOL    HW231185   5.782   1.688   4.255
10096SOL     OW31186   3.566   5.432   3.192
10096SOL    HW131187   3.657   5.474   3.190
10096SOL    HW231188   3.562   5.360   3.123
10097SOL     OW31189   1.473   2.028   6.826
10097SOL    HW131190   1.497   1.933   6.806
10097SOL    HW231191   1.448   2.036   6.922
10098SOL     OW31192   3.165   0.129   5.550
10098SOL    HW131193   3.224   0.048   5.544
10098SOL    HW231194   3.116   0.142   5.464
10099SOL     OW31195   1.017   5.085   1.468
10099SOL    HW131196   1.087   5.037   1.415
10099SOL    HW231197   0.966   5.018   1.523
10100SOL     OW31198   5.290   5.841   6.035
10100SOL    HW131199   5.299   5.742   6.024
10100SOL    HW231200   5.235   5.878   5.961
10101SOL     OW31201   6.245   2.977   2.071
10101SOL    HW131202   6.299   3.061   2.066
10101SOL    HW231203   6.265   2.920   1.991
10102SOL     OW31204   0.023   1.213   2.204
10102SOL    HW131205   6.979   1.222   2.273
10102SOL    HW231206   0.025   1.295   2.147
10103SOL     OW31207   2.796   0.239   5.484
10103SOL    HW131208   2.719   0.176   5.480
10103SOL    HW231209   2.768   0.323   5.532
10104SOL     OW31210   1.341   2.065   5.178
10104SOL    HW131211   1.283   2.132   5.223
10104SOL    HW231212   1.284   2.000   5.127
10105SOL     OW31213   1.928   0.681   6.456
10105SOL    HW131214   1.977   0.705   6.540
10105SOL    HW231215   1.934   0.582   6.441
10106SOL     OW31216   4.171   6.647   0.714
10106SOL    HW131217   4.124   6.559   0.710
10106SOL    HW231218   4.256   6.641   0.661
10107SOL     OW31219   5.416   1.681   5.456
10107SOL    HW131220   5.319   1.654   5.453
10107SOL    HW231221   5.443   1.717   5.367
10108SOL     OW31222   6.791   0.916   0.537
10108SOL    HW131223   6.745   0.845   0.483
10108SOL    HW231224   6.741   1.002   0.527
10109SOL     OW31225   6.886   1.197   0.329
10109SOL    HW131226   6.812   1.136   0.303
10109SOL    HW231227   6.968   1.174   0.277
10110SOL     OW31228   5.271   4.995   4.108
10110SOL    HW131229   5.198   5.041   4.159
10110SOL    HW231230   5.233   4.950   4.027
10111SOL     OW31231   6.096   3.608   4.030
10111SOL    HW131232   6.123   3.661   4.110
10111SOL    HW231233   6.173   3.551   4.000
10112SOL     OW31234   5.812   3.681   3.649
10112SOL    HW131235   5.790   3.585   3.633
10112SOL    HW231236   5.730   3.736   3.637
10113SOL     OW31237   4.115   0.129   6.950
10113SOL    HW131238   4.038   0.112   7.011
10113SOL    HW231239   4.091   0.100   6.857
10114SOL     OW31240   4.017   2.196   2.273
10114SOL    HW131241   3.988   2.156   2.186
10114SOL    HW231242   4.111   2.229   2.265
10115SOL     OW31243   4.399   1.779   5.190
10115SOL    HW131244   4.442   1.868   5.203
10115SOL    HW231245   4.302   1.791   5.169
10116SOL     OW31246   1.226   0.655   0.110
10116SOL    HW131247   1.323   0.656   0.134
10116SOL    HW231248   1.178   0.589   0.168
10117SOL     OW31249   6.598   6.292   6.106
10117SOL    HW131250   6.616   6.379   6.154
10117SOL    HW231251   6.583   6.220   6.174
10118SOL     OW31252   2.516   4.485   3.564
10118SOL    HW131253   2.497   4.388   3.576
10118SOL    HW231254   2.448   4.526   3.503
10119SOL     OW31255   6.470   5.187   4.401
10119SOL    HW131256   6.557   5.172   4.448
10119SOL    HW231257   6.412   5.246   4.456
10120SOL     OW31258   1.791   3.341   4.329
10120SOL    HW131259   1.821   3.334   4.234
10120SOL    HW231260   1.691   3.331   4.333
10121SOL     OW31261   5.562   4.062   6.733
10121SOL    HW131262   5.614   4.064   6.818
10121SOL    HW231263   5.595   4.133   6.672
10122SOL     OW31264   5.651   2.834   3.072
10122SOL    HW131265   5.738   2.786   3.075
10122SOL    HW231266   5.586   2.789   3.133
10123SOL     OW31267   5.567   5.904   0.711
10123SOL    HW131268   5.468   5.898   0.727
10123SOL    HW231269   5.585   5.969   0.638
10124SOL     OW31270   1.549   4.709   0.356
10124SOL    HW131271   1.531   4.769   0.434
10124SOL    HW231272   1.538   4.759   0.271
10125SOL     OW31273   2.032   1.782   0.972
10125SOL    HW131274   2.000   1.694   1.006
10125SOL    HW231275   2.131   1.789   0.987
10126SOL     OW31276   0.205   0.266   0.468
10126SOL    HW131277   0.134   0.318   0.514
10126SOL    HW231278   0.175   0.244   0.375
10127SOL     OW31279   2.214   3.889   0.279
10127SOL    HW131280   2.200   3.801   0.234
10127SOL    HW231281   2.152   3.957   0.239
10128SOL     OW31282   3.440   0.868   6.360
10128SOL    HW131283   3.479   0.846   6.449
10128SOL    HW231284   3.412   0.964   6.359
10129SOL     OW31285   6.489   1.551   3.040
10129SOL    HW131286   6.417   1.509   3.095
10129SOL    HW231287   6.463   1.645   3.018
10130SOL     OW31288   1.103   3.166   1.274
10130SOL    HW131289   1.071   3.072   1.259
10130SOL    HW231290   1.135   3.205   1.188
10131SOL     OW31291   2.318   0.196   4.383
10131SOL    HW131292   2.327   0.159   4.476
10131SOL    HW231293   2.369   0.138   4.319
10132SOL     OW31294   2.467   0.507   3.258
10132SOL    HW131295   2.377   0.548   3.273
10132SOL    HW231296   2.478   0.428   3.318
10133SOL     OW31297   4.865   6.279   1.098
10133SOL    HW131298   4.939   6.333   1.139
10133SOL    HW231299   4.791   6.340   1.069
10134SOL     OW31300   6.244   1.267   2.578
10134SOL    HW131301   6.298   1.205   2.636
10134SOL    HW231302   6.271   1.361   2.596
10135SOL     OW31303   5.119   3.030   3.657
10135SOL    HW131304   5.160   3.001   3.744
10135SOL    HW231305   5.019   3.019   3.662
10136SOL     OW31306   5.137   1.812   2.142
10136SOL    HW131307   5.063   1.769   2.091
10136SOL    HW231308   5.108   1.828   2.237
10137SOL     OW31309   0.528   4.261   4.826
10137SOL    HW131310   0.507   4.317   4.746
10137SOL    HW231311   0.534   4.165   4.798
10138SOL     OW31312   5.036   3.692   0.723
10138SOL    HW131313   4.981   3.643   0.791
10138SOL    HW231314   5.087   3.626   0.668
10139SOL     OW31315   3.035   3.133   4.046
10139SOL    HW131316   3.089   3.079   3.981
10139SOL    HW231317   2.946   3.153   4.007
10140SOL     OW31318   0.325   6.397   6.981
10140SOL    HW131319   0.288   6.357   6.897
10140SOL    HW231320   0.421   6.371   6.990
10141SOL     OW31321   4.583   1.087   5.400
10141SOL    HW131322   4.520   1.165   5.397
10141SOL    HW231323   4.631   1.086   5.487
10142SOL     OW31324   6.138   6.645   5.767
10142SOL    HW131325   6.073   6.577   5.799
10142SOL    HW231326   6.093   6.734   5.761
10143SOL     OW31327   5.622   2.300   1.107
10143SOL    HW131328   5.672   2.214   1.096
10143SOL    HW231329   5.533   2.281   1.150
10144SOL     OW31330   4.139   7.017   6.257
10144SOL    HW131331   4.149   0.055   6.182
10144SOL    HW231332   4.139   0.039   6.344
10145SOL     OW31333   3.100   5.918   2.839
10145SOL    HW131334   3.097   5.869   2.926
10145SOL    HW231335   3.071   6.012   2.853
10146SOL     OW31336   5.451   4.353   4.519
10146SOL    HW131337   5.356   4.323   4.504
10146SOL    HW231338   5.505   4.334   4.437
10147SOL     OW31339   4.829   3.976   6.289
10147SOL    HW131340   4.763   3.904   6.310
10147SOL    HW231341   4.839   3.984   6.189
10148SOL     OW31342   5.647   4.894   6.777
10148SOL    HW131343   5.573   4.926   6.836
10148SOL    HW231344   5.670   4.800   6.801
10149SOL     OW31345   5.546   3.505   1.480
10149SOL    HW131346   5.635   3.478   1.518
10149SOL    HW231347   5.491   3.545   1.553
10150SOL     OW31348   4.246   2.940   1.588
10150SOL    HW131349   4.174   2.924   1.655
10150SOL    HW231350   4.313   3.004   1.625
10151SOL     OW31351   0.873   6.723   0.114
10151SOL    HW131352   0.855   6.821   0.105
10151SOL    HW231353   0.860   6.679   0.025
10152SOL     OW31354   0.141   6.274   3.374
10152SOL    HW131355   0.152   6.326   3.459
10152SOL    HW231356   0.230   6.268   3.328
10153SOL     OW31357   5.030   6.268   3.676
10153SOL    HW131358   5.049   6.196   3.743
10153SOL    HW231359   4.963   6.332   3.715
10154SOL     OW31360   3.743   6.402   5.102
10154SOL    HW131361   3.661   6.375   5.052
10154SOL    HW231362   3.754   6.342   5.182
10155SOL     OW31363   5.089   2.154   6.358
10155SOL    HW131364   5.039   2.186   6.278
10155SOL    HW231365   5.138   2.231   6.400
10156SOL     OW31366   5.737   0.277   1.977
10156SOL    HW131367   5.670   0.207   1.952
10156SOL    HW231368   5.708   0.321   2.062
10157SOL     OW31369   0.041   2.330   0.353
10157SOL    HW131370   0.085   2.248   0.318
10157SOL    HW231371   0.058   2.337   0.452
10158SOL     OW31372   6.106   6.440   1.177
10158SOL    HW131373   6.062   6.353   1.199
10158SOL    HW231374   6.062   6.480   1.096
10159SOL     OW31375   3.655   2.607   1.756
10159SOL    HW131376   3.666   2.518   1.801
10159SOL    HW231377   3.740   2.631   1.708
10160SOL     OW31378   1.333   3.292   3.202
10160SOL    HW131379   1.283   3.306   3.288
10160SOL    HW231380   1.394   3.213   3.210
10161SOL     OW31381   3.579   4.280   0.012
10161SOL    HW131382   3.632   4.358   7.006
10161SOL    HW231383   3.489   4.311   0.043
10162SOL     OW31384   2.785   5.337   0.590
10162SOL    HW131385   2.853   5.277   0.631
10162SOL    HW231386   2.694   5.300   0.605
10163SOL     OW31387   0.571   4.029   6.901
10163SOL    HW131388   0.483   4.001   6.938
10163SOL    HW231389   0.619   4.086   6.967
10164SOL     OW31390   6.018   3.632   5.096
10164SOL    HW131391   6.009   3.534   5.113
10164SOL    HW231392   5.967   3.657   5.013
10165SOL     OW31393   6.770   1.894   3.434
10165SOL    HW131394   6.743   1.803   3.401
10165SOL    HW231395   6.688   1.948   3.454
10166SOL     OW31396   2.473   1.813   1.606
10166SOL    HW131397   2.499   1.716   1.609
10166SOL    HW231398   2.555   1.869   1.598
10167SOL     OW31399   0.631   5.279   0.518
10167SOL    HW131400   0.657   5.347   0.449
10167SOL    HW231401   0.633   5.320   0.609
10168SOL     OW31402   6.947   2.425   5.981
10168SOL    HW131403   6.862   2.418   6.033
10168SOL    HW231404   6.926   2.456   5.888
10169SOL     OW31405   0.375   4.019   3.709
10169SOL    HW131406   0.329   3.930   3.704
10169SOL    HW231407   0.456   4.018   3.650
10170SOL     OW31408   6.516   5.026   6.371
10170SOL    HW131409   6.591   4.979   6.324
10170SOL    HW231410   6.512   4.994   6.466
10171SOL     OW31411   0.844   2.914   4.908
10171SOL    HW131412   0.783   2.835   4.897
10171SOL    HW231413   0.790   2.995   4.931
10172SOL     OW31414   0.925   6.157   4.321
10172SOL    HW131415   0.864   6.090   4.362
10172SOL    HW231416   0.991   6.188   4.389
10173SOL     OW31417   1.887   3.138   0.700
10173SOL    HW131418   1.892   3.210   0.769
10173SOL    HW231419   1.792   3.123   0.675
10174SOL     OW31420   5.081   4.743   3.596
10174SOL    HW131421   5.179   4.750   3.574
10174SOL    HW231422   5.034   4.824   3.562
10175SOL     OW31423   4.842   2.547   3.603
10175SOL    HW131424   4.942   2.539   3.599
10175SOL    HW231425   4.807   2.490   3.677
10176SOL     OW31426   6.884   3.019   5.448
10176SOL    HW131427   6.840   2.933   5.425
10176SOL    HW231428   6.978   3.002   5.479
10177SOL     OW31429   1.931   1.001   0.248
10177SOL    HW131430   1.967   1.091   0.272
10177SOL    HW231431   1.856   1.011   0.183
10178SOL     OW31432   0.684   0.799   0.430
10178SOL    HW131433   0.728   0.817   0.342
10178SOL    HW231434   0.632   0.714   0.425
10179SOL     OW31435   0.592   3.122   6.706
10179SOL    HW131436   0.587   3.045   6.642
10179SOL    HW231437   0.540   3.101   6.788
10180SOL     OW31438   4.751   0.512   0.439
10180SOL    HW131439   4.777   0.570   0.362
10180SOL    HW231440   4.744   0.417   0.409
10181SOL     OW31441   0.295   2.366   1.293
10181SOL    HW131442   0.252   2.452   1.264
10181SOL    HW231443   0.365   2.386   1.361
10182SOL     OW31444   5.323   0.799   0.141
10182SOL    HW131445   5.295   0.732   0.072
10182SOL    HW231446   5.343   0.752   0.226
10183SOL     OW31447   5.983   2.662   5.563
10183SOL    HW131448   5.922   2.714   5.503
10183SOL    HW231449   5.928   2.614   5.632
10184SOL     OW31450   4.364   2.390   6.527
10184SOL    HW131451   4.338   2.406   6.622
10184SOL    HW231452   4.383   2.293   6.513
10185SOL     OW31453   6.243   6.106   2.154
10185SOL    HW131454   6.219   6.065   2.067
10185SOL    HW231455   6.182   6.072   2.225
10186SOL     OW31456   5.216   3.996   4.581
10186SOL    HW131457   5.170   4.054   4.648
10186SOL    HW231458   5.284   3.939   4.627
10187SOL     OW31459   1.167   3.865   6.740
10187SOL    HW131460   1.101   3.928   6.699
10187SOL    HW231461   1.248   3.859   6.681
10188SOL     OW31462   3.263   5.215   6.893
10188SOL    HW131463   3.319   5.175   6.820
10188SOL    HW231464   3.264   5.314   6.885
10189SOL     OW31465   0.731   0.950   6.084
10189SOL    HW131466   0.680   0.894   6.149
10189SOL    HW231467   0.829   0.942   6.102
10190SOL     OW31468   4.104   2.733   1.421
10190SOL    HW131469   4.036   2.662   1.444
10190SOL    HW231470   4.121   2.790   1.501
10191SOL     OW31471   4.910   5.320   6.742
10191SOL    HW131472   4.898   5.295   6.838
10191SOL    HW231473   5.008   5.335   6.724
10192SOL     OW31474   3.688   1.138   4.954
10192SOL    HW131475   3.634   1.079   4.893
10192SOL    HW231476   3.685   1.232   4.920
10193SOL     OW31477   3.148   3.479   2.651
10193SOL    HW131478   3.050   3.473   2.669
10193SOL    HW231479   3.163   3.503   2.555
10194SOL     OW31480   4.643   0.383   4.677
10194SOL    HW131481   4.561   0.439   4.679
10194SOL    HW231482   4.669   0.366   4.582
10195SOL     OW31483   6.425   6.815   0.969
10195SOL    HW131484   6.330   6.794   0.994
10195SOL    HW231485   6.458   6.891   1.025
10196SOL     OW31486   4.529   2.195   3.919
10196SOL    HW131487   4.467   2.274   3.921
10196SOL    HW231488   4.593   2.204   3.843
10197SOL     OW31489   5.366   2.219   4.474
10197SOL    HW131490   5.386   2.225   4.376
10197SOL    HW231491   5.297   2.149   4.490
10198SOL     OW31492   3.962   0.109   1.465
10198SOL    HW131493   3.880   0.055   1.452
10198SOL    HW231494   3.943   0.185   1.528
10199SOL     OW31495   1.127   2.011   0.131
10199SOL    HW131496   1.051   1.980   0.189
10199SOL    HW231497   1.106   2.101   0.094
10200SOL     OW31498   4.939   3.312   5.765
10200SOL    HW131499   4.989   3.307   5.678
10200SOL    HW231500   4.890   3.399   5.770
10201SOL     OW31501   0.736   6.294   0.659
10201SOL    HW131502   0.717   6.367   0.725
10201SOL    HW231503   0.654   6.275   0.606
10202SOL     OW31504   2.171   4.476   0.117
10202SOL    HW131505   2.223   4.557   0.091
10202SOL    HW231506   2.187   4.455   0.213
10203SOL     OW31507   7.025   2.807   1.656
10203SOL    HW131508   7.021   2.906   1.658
10203SOL    HW231509   0.044   2.774   1.739
10204SOL     OW31510   3.843   5.874   7.016
10204SOL    HW131511   3.772   5.941   6.996
10204SOL    HW231512   3.859   5.817   6.936
10205SOL     OW31513   3.161   1.148   2.109
10205SOL    HW131514   3.179   1.202   2.191
10205SOL    HW231515   3.119   1.206   2.039
10206SOL     OW31516   6.227   6.788   6.751
10206SOL    HW131517   6.238   6.855   6.677
10206SOL    HW231518   6.132   6.758   6.754
10207SOL     OW31519   2.052   1.937   6.814
10207SOL    HW131520   2.132   1.940   6.755
10207SOL    HW231521   2.063   1.863   6.880
10208SOL     OW31522   6.607   4.729   3.432
10208SOL    HW131523   6.603   4.673   3.515
10208SOL    HW231524   6.664   4.683   3.364
10209SOL     OW31525   0.030   6.987   6.167
10209SOL    HW131526   6.999   6.993   6.249
10209SOL    HW231527   0.122   7.020   6.189
10210SOL     OW31528   5.297   6.583   1.047
10210SOL    HW131529   5.385   6.571   1.094
10210SOL    HW231530   5.311   6.628   0.960
10211SOL     OW31531   4.040   6.078   4.976
10211SOL    HW131532   4.005   6.171   4.972
10211SOL    HW231533   4.113   6.067   4.909
10212SOL     OW31534   6.958   6.793   5.057
10212SOL    HW131535   6.996   6.787   4.965
10212SOL    HW231536   6.858   6.794   5.051
10213SOL     OW31537   5.172   3.106   2.514
10213SOL    HW131538   5.241   3.034   2.511
10213SOL    HW231539   5.179   3.155   2.601
10214SOL     OW31540   1.158   1.887   2.275
10214SOL    HW131541   1.100   1.838   2.340
10214SOL    HW231542   1.250   1.896   2.313
10215SOL     OW31543   3.220   2.958   3.624
10215SOL    HW131544   3.145   3.018   3.598
10215SOL    HW231545   3.221   2.946   3.723
10216SOL     OW31546   0.616   0.082   1.014
10216SOL    HW131547   0.627   0.089   1.114
10216SOL    HW231548   0.592   0.171   0.977
10217SOL     OW31549   1.891   2.264   3.659
10217SOL    HW131550   1.979   2.226   3.687
10217SOL    HW231551   1.841   2.196   3.604
10218SOL     OW31552   1.562   0.726   1.953
10218SOL    HW131553   1.582   0.717   2.050
10218SOL    HW231554   1.643   0.701   1.899
10219SOL     OW31555   6.967   3.261   2.399
10219SOL    HW131556   6.986   3.314   2.481
10219SOL    HW231557   0.011   3.277   2.331
10220SOL     OW31558   4.176   1.695   0.972
10220SOL    HW131559   4.138   1.604   0.960
10220SOL    HW231560   4.237   1.717   0.896
10221SOL     OW31561   1.888   3.512   4.640
10221SOL    HW131562   1.862   3.417   4.623
10221SOL    HW231563   1.821   3.555   4.701
10222SOL     OW31564   2.726   3.550   5.610
10222SOL    HW131565   2.655   3.534   5.679
10222SOL    HW231566   2.812   3.575   5.655
10223SOL     OW31567   2.151   5.871   6.476
10223SOL    HW131568   2.102   5.871   6.563
10223SOL    HW231569   2.209   5.790   6.471
10224SOL     OW31570   6.997   1.890   5.193
10224SOL    HW131571   7.012   1.865   5.098
10224SOL    HW231572   6.906   1.930   5.203
10225SOL     OW31573   2.121   6.432   5.879
10225SOL    HW131574   2.141   6.520   5.923
10225SOL    HW231575   2.125   6.444   5.780
10226SOL     OW31576   2.264   0.776   6.494
10226SOL    HW131577   2.181   0.796   6.545
10226SOL    HW231578   2.294   0.683   6.514
10227SOL     OW31579   5.242   4.503   0.589
10227SOL    HW131580   5.186   4.527   0.669
10227SOL    HW231581   5.207   4.419   0.548
10228SOL     OW31582   0.763   6.411   1.778
10228SOL    HW131583   0.715   6.409   1.691
10228SOL    HW231584   0.804   6.321   1.796
10229SOL     OW31585   1.497   1.648   4.291
10229SOL    HW131586   1.421   1.601   4.246
10229SOL    HW231587   1.581   1.630   4.241
10230SOL     OW31588   6.209   6.946   2.807
10230SOL    HW131589   6.148   6.948   2.886
10230SOL    HW231590   6.172   6.885   2.737
10231SOL     OW31591   6.379   5.337   4.962
10231SOL    HW131592   6.417   5.340   5.055
10231SOL    HW231593   6.399   5.247   4.921
10232SOL     OW31594   2.879   1.064   4.499
10232SOL    HW131595   2.804   1.000   4.483
10232SOL    HW231596   2.844   1.147   4.542
10233SOL     OW31597   4.836   3.444   5.312
10233SOL    HW131598   4.931   3.475   5.313
10233SOL    HW231599   4.786   3.492   5.240
10234SOL     OW31600   5.654   7.018   6.877
10234SOL    HW131601   5.612   0.081   6.881
10234SOL    HW231602   5.710   7.003   6.958
10235SOL     OW31603   3.775   2.898   0.518
10235SOL    HW131604   3.732   2.903   0.608
10235SOL    HW231605   3.707   2.916   0.447
10236SOL     OW31606   2.172   0.865   1.605
10236SOL    HW131607   2.241   0.881   1.534
10236SOL    HW231608   2.081   0.879   1.567
10237SOL     OW31609   7.000   4.523   0.384
10237SOL    HW131610   6.938   4.507   0.308
10237SOL    HW231611   0.006   4.435   0.419
10238SOL     OW31612   3.183   4.068   2.887
10238SOL    HW131613   3.238   3.985   2.875
10238SOL    HW231614   3.216   4.118   2.968
10239SOL     OW31615   2.306   4.446   5.625
10239SOL    HW131616   2.258   4.532   5.638
10239SOL    HW231617   2.350   4.418   5.710
10240SOL     OW31618   1.691   4.736   2.706
10240SOL    HW131619   1.679   4.800   2.630
10240SOL    HW231620   1.637   4.654   2.688
10241SOL     OW31621   6.738   0.594   2.331
10241SOL    HW131622   6.831   0.559   2.319
10241SOL    HW231623   6.700   0.560   2.417
10242SOL     OW31624   6.753   1.523   0.606
10242SOL    HW131625   6.687   1.463   0.561
10242SOL    HW231626   6.710   1.611   0.628
10243SOL     OW31627   1.621   5.074   1.894
10243SOL    HW131628   1.602   5.138   1.967
10243SOL    HW231629   1.622   4.981   1.930
10244SOL     OW31630   1.348   4.080   0.891
10244SOL    HW131631   1.371   4.003   0.833
10244SOL    HW231632   1.415   4.087   0.966
10245SOL     OW31633   2.741   4.767   0.417
10245SOL    HW131634   2.811   4.827   0.379
10245SOL    HW231635   2.783   4.682   0.449
10246SOL     OW31636   3.283   4.160   3.164
10246SOL    HW131637   3.230   4.159   3.249
10246SOL    HW231638   3.380   4.167   3.185
10247SOL     OW31639   6.616   4.316   5.991
10247SOL    HW131640   6.544   4.279   5.932
10247SOL    HW231641   6.619   4.415   5.982
10248SOL     OW31642   2.204   0.098   2.458
10248SOL    HW131643   2.134   0.165   2.486
10248SOL    HW231644   2.159   0.015   2.425
10249SOL     OW31645   3.057   0.236   6.642
10249SOL    HW131646   3.070   0.292   6.560
10249SOL    HW231647   3.136   0.176   6.653
10250SOL     OW31648   6.434   2.956   1.644
10250SOL    HW131649   6.386   3.021   1.585
10250SOL    HW231650   6.519   2.999   1.678
10251SOL     OW31651   3.044   1.593   5.016
10251SOL    HW131652   3.099   1.602   4.932
10251SOL    HW231653   3.080   1.519   5.072
10252SOL     OW31654   4.278   4.585   0.093
10252SOL    HW131655   4.296   4.513   0.159
10252SOL    HW231656   4.293   4.550   0.000
10253SOL     OW31657   2.872   5.812   0.483
10253SOL    HW131658   2.946   5.821   0.417
10253SOL    HW231659   2.876   5.720   0.525
10254SOL     OW31660   4.409   0.559   4.762
10254SOL    HW131661   4.408   0.600   4.671
10254SOL    HW231662   4.411   0.632   4.831
10255SOL     OW31663   2.330   6.848   1.274
10255SOL    HW131664   2.301   6.942   1.293
10255SOL    HW231665   2.374   6.809   1.355
10256SOL     OW31666   6.240   0.944   1.647
10256SOL    HW131667   6.186   0.892   1.581
10256SOL    HW231668   6.309   0.885   1.688
10257SOL     OW31669   1.984   5.055   4.474
10257SOL    HW131670   1.936   4.972   4.443
10257SOL    HW231671   2.081   5.034   4.486
10258SOL     OW31672   3.133   0.936   3.964
10258SOL    HW131673   3.184   0.890   3.891
10258SOL    HW231674   3.195   0.992   4.018
10259SOL     OW31675   0.646   4.336   2.801
10259SOL    HW131676   0.715   4.269   2.827
10259SOL    HW231677   0.555   4.296   2.810
10260SOL     OW31678   0.444   1.220   4.480
10260SOL    HW131679   0.528   1.200   4.532
10260SOL    HW231680   0.369   1.165   4.516
10261SOL     OW31681   6.883   5.949   3.051
10261SOL    HW131682   6.784   5.949   3.040
10261SOL    HW231683   6.927   5.938   2.962
10262SOL     OW31684   1.742   6.832   4.591
10262SOL    HW131685   1.647   6.817   4.621
10262SOL    HW231686   1.747   6.919   4.542
10263SOL     OW31687   5.362   0.869   6.521
10263SOL    HW131688   5.351   0.830   6.430
10263SOL    HW231689   5.325   0.807   6.590
10264SOL     OW31690   5.860   1.725   5.613
10264SOL    HW131691   5.785   1.764   5.667
10264SOL    HW231692   5.933   1.696   5.675
10265SOL     OW31693   2.193   2.299   3.200
10265SOL    HW131694   2.203   2.397   3.213
10265SOL    HW231695   2.264   2.251   3.250
10266SOL     OW31696   3.551   2.876   4.172
10266SOL    HW131697   3.512   2.806   4.233
10266SOL    HW231698   3.648   2.886   4.190
10267SOL     OW31699   0.056   1.648   6.985
10267SOL    HW131700   0.104   1.676   0.041
10267SOL    HW231701   6.990   1.621   7.008
10268SOL     OW31702   5.705   5.180   2.273
10268SOL    HW131703   5.612   5.154   2.300
10268SOL    HW231704   5.700   5.255   2.207
10269SOL     OW31705   0.313   3.232   0.079
10269SOL    HW131706   0.370   3.263   0.154
10269SOL    HW231707   0.224   3.201   0.114
10270SOL     OW31708   2.884   4.868   3.456
10270SOL    HW131709   2.847   4.941   3.514
10270SOL    HW231710   2.826   4.787   3.463
10271SOL     OW31711   3.782   2.252   0.082
10271SOL    HW131712   3.805   2.274   7.014
10271SOL    HW231713   3.866   2.244   0.135
10272SOL     OW31714   0.811   0.752   4.883
10272SOL    HW131715   0.721   0.708   4.884
10272SOL    HW231716   0.830   0.789   4.974
10273SOL     OW31717   3.501   5.839   2.289
10273SOL    HW131718   3.560   5.854   2.369
10273SOL    HW231719   3.501   5.742   2.265
10274SOL     OW31720   6.803   5.391   4.012
10274SOL    HW131721   6.791   5.428   4.104
10274SOL    HW231722   6.790   5.292   4.014
10275SOL     OW31723   0.973   0.144   1.732
10275SOL    HW131724   0.920   0.223   1.760
10275SOL    HW231725   0.971   0.075   1.804
10276SOL     OW31726   5.852   5.072   5.319
10276SOL    HW131727   5.822   5.008   5.249
10276SOL    HW231728   5.894   5.152   5.277
10277SOL     OW31729   2.124   5.520   4.047
10277SOL    HW131730   2.166   5.472   4.124
10277SOL    HW231731   2.028   5.541   4.069
10278SOL     OW31732   0.114   0.740   4.607
10278SOL    HW131733   0.033   0.684   4.590
10278SOL    HW231734   0.186   0.685   4.647
10279SOL     OW31735   2.778   5.073   4.125
10279SOL    HW131736   2.751   5.082   4.220
10279SOL    HW231737   2.763   5.160   4.077
10280SOL     OW31738   0.768   4.122   1.148
10280SOL    HW131739   0.842   4.056   1.132
10280SOL    HW231740   0.807   4.210   1.173
10281SOL     OW31741   5.982   1.269   2.553
10281SOL    HW131742   6.081   1.283   2.541
10281SOL    HW231743   5.949   1.330   2.626
10282SOL     OW31744   5.726   4.630   4.146
10282SOL    HW131745   5.653   4.634   4.078
10282SOL    HW231746   5.733   4.718   4.193
10283SOL     OW31747   1.052   3.706   1.298
10283SOL    HW131748   1.060   3.802   1.326
10283SOL    HW231749   0.977   3.663   1.348
10284SOL     OW31750   5.431   3.210   5.653
10284SOL    HW131751   5.405   3.214   5.750
10284SOL    HW231752   5.377   3.139   5.608
10285SOL     OW31753   5.396   1.076   1.893
10285SOL    HW131754   5.398   1.093   1.795
10285SOL    HW231755   5.337   0.998   1.913
10286SOL     OW31756   2.802   1.974   3.786
10286SOL    HW131757   2.875   1.953   3.721
10286SOL    HW231758   2.838   1.968   3.879
10287SOL     OW31759   2.438   6.295   1.172
10287SOL    HW131760   2.472   6.372   1.226
10287SOL    HW231761   2.407   6.223   1.234
10288SOL     OW31762   4.563   5.631   3.055
10288SOL    HW131763   4.638   5.565   3.045
10288SOL    HW231764   4.591   5.703   3.118
10289SOL     OW31765   2.413   6.935   1.882
10289SOL    HW131766   2.468   6.957   1.801
10289SOL    HW231767   2.365   7.017   1.913
10290SOL     OW31768   2.875   3.313   2.058
10290SOL    HW131769   2.782   3.343   2.079
10290SOL    HW231770   2.933   3.324   2.138
10291SOL     OW31771   3.396   2.002   3.663
10291SOL    HW131772   3.333   2.066   3.707
10291SOL    HW231773   3.373   1.909   3.690
10292SOL     OW31774   1.486   0.064   4.885
10292SOL    HW131775   1.442   7.026   4.948
10292SOL    HW231776   1.416   0.125   4.848
10293SOL     OW31777   1.932   4.747   3.227
10293SOL    HW131778   2.016   4.731   3.176
10293SOL    HW231779   1.887   4.829   3.192
10294SOL     OW31780   5.380   3.452   2.183
10294SOL    HW131781   5.450   3.431   2.115
10294SOL    HW231782   5.322   3.526   2.148
10295SOL     OW31783   5.501   4.105   6.146
10295SOL    HW131784   5.451   4.154   6.218
10295SOL    HW231785   5.577   4.160   6.114
10296SOL     OW31786   4.713   2.744   0.001
10296SOL    HW131787   4.731   2.743   6.929
10296SOL    HW231788   4.696   2.651   0.033
10297SOL     OW31789   2.103   6.797   0.005
10297SOL    HW131790   2.062   6.742   6.960
10297SOL    HW231791   2.182   6.847   6.996
10298SOL     OW31792   3.581   5.008   1.868
10298SOL    HW131793   3.592   4.927   1.926
10298SOL    HW231794   3.652   5.007   1.797
10299SOL     OW31795   4.743   5.237   3.021
10299SOL    HW131796   4.793   5.269   3.101
10299SOL    HW231797   4.800   5.251   2.939
10300SOL     OW31798   1.050   3.992   3.511
10300SOL    HW131799   1.105   3.996   3.594
10300SOL    HW231800   1.107   3.964   3.434
10301SOL     OW31801   5.588   2.347   4.638
10301SOL    HW131802   5.568   2.319   4.732
10301SOL    HW231803   5.509   2.325   4.580
10302SOL     OW31804   1.109   6.132   3.576
10302SOL    HW131805   1.185   6.144   3.641
10302SOL    HW231806   1.145   6.095   3.490
10303SOL     OW31807   1.671   5.964   2.701
10303SOL    HW131808   1.651   6.052   2.744
10303SOL    HW231809   1.586   5.927   2.662
10304SOL     OW31810   4.883   0.337   1.999
10304SOL    HW131811   4.884   0.240   2.023
10304SOL    HW231812   4.955   0.356   1.933
10305SOL     OW31813   0.854   4.357   6.907
10305SOL    HW131814   0.936   4.404   6.876
10305SOL    HW231815   0.780   4.370   6.840
10306SOL     OW31816   4.713   6.138   6.922
10306SOL    HW131817   4.646   6.132   6.996
10306SOL    HW231818   4.805   6.144   6.962
10307SOL     OW31819   2.286   1.745   5.152
10307SOL    HW131820   2.285   1.817   5.082
10307SOL    HW231821   2.277   1.787   5.242
10308SOL     OW31822   2.447   4.465   4.355
10308SOL    HW131823   2.350   4.468   4.333
10308SOL    HW231824   2.459   4.432   4.449
10309SOL     OW31825   5.878   1.430   4.752
10309SOL    HW131826   5.815   1.500   4.784
10309SOL    HW231827   5.849   1.340   4.786
10310SOL     OW31828   3.745   3.115   1.609
10310SOL    HW131829   3.752   3.064   1.695
10310SOL    HW231830   3.656   3.097   1.567
10311SOL     OW31831   0.946   6.669   0.517
10311SOL    HW131832   0.984   6.743   0.574
10311SOL    HW231833   1.005   6.655   0.437
10312SOL     OW31834   2.680   6.326   1.528
10312SOL    HW131835   2.769   6.336   1.484
10312SOL    HW231836   2.684   6.365   1.620
10313SOL     OW31837   4.715   0.243   1.274
10313SOL    HW131838   4.701   0.264   1.371
10313SOL    HW231839   4.743   0.147   1.265
10314SOL     OW31840   6.723   0.152   2.269
10314SOL    HW131841   6.681   0.065   2.242
10314SOL    HW231842   6.818   0.137   2.294
10315SOL     OW31843   6.468   6.112   4.459
10315SOL    HW131844   6.483   6.016   4.483
10315SOL    HW231845   6.376   6.123   4.423
10316SOL     OW31846   6.650   2.899   4.926
10316SOL    HW131847   6.595   2.939   4.998
10316SOL    HW231848   6.688   2.971   4.868
10317SOL     OW31849   3.279   5.538   6.106
10317SOL    HW131850   3.188   5.527   6.064
10317SOL    HW231851   3.280   5.619   6.164
10318SOL     OW31852   5.553   5.413   6.795
10318SOL    HW131853   5.634   5.413   6.737
10318SOL    HW231854   5.522   5.507   6.811
10319SOL     OW31855   1.378   2.395   5.723
10319SOL    HW131856   1.355   2.300   5.744
10319SOL    HW231857   1.406   2.401   5.628
10320SOL     OW31858   0.967   0.543   2.946
10320SOL    HW131859   0.904   0.619   2.963
10320SOL    HW231860   1.020   0.525   3.029
10321SOL     OW31861   4.407   0.944   2.606
10321SOL    HW131862   4.485   0.971   2.550
10321SOL    HW231863   4.427   0.962   2.702
10322SOL     OW31864   6.983   5.657   6.617
10322SOL    HW131865   7.025   5.578   6.663
10322SOL    HW231866   6.892   5.674   6.655
10323SOL     OW31867   6.489   3.705   6.266
10323SOL    HW131868   6.560   3.642   6.299
10323SOL    HW231869   6.404   3.655   6.252
10324SOL     OW31870   3.282   2.916   3.138
10324SOL    HW131871   3.245   2.926   3.046
10324SOL    HW231872   3.213   2.943   3.205
10325SOL     OW31873   0.225   3.524   3.084
10325SOL    HW131874   0.142   3.472   3.103
10325SOL    HW231875   0.235   3.537   2.985
10326SOL     OW31876   3.838   4.013   0.072
10326SOL    HW131877   3.791   4.018   7.011
10326SOL    HW231878   3.924   3.963   0.060
10327SOL     OW31879   2.694   2.162   2.010
10327SOL    HW131880   2.753   2.242   2.020
10327SOL    HW231881   2.602   2.192   1.986
10328SOL     OW31882   6.274   2.479   1.458
10328SOL    HW131883   6.221   2.462   1.375
10328SOL    HW231884   6.212   2.486   1.536
10329SOL     OW31885   3.834   0.325   3.528
10329SOL    HW131886   3.850   0.259   3.601
10329SOL    HW231887   3.846   0.280   3.439
10330SOL     OW31888   3.712   5.906   1.902
10330SOL    HW131889   3.695   5.980   1.966
10330SOL    HW231890   3.805   5.913   1.866
10331SOL     OW31891   6.850   0.525   4.360
10331SOL    HW131892   6.820   0.592   4.428
10331SOL    HW231893   6.859   0.570   4.271
10332SOL     OW31894   5.932   1.812   0.935
10332SOL    HW131895   5.854   1.792   0.994
10332SOL    HW231896   6.016   1.807   0.988
10333SOL     OW31897   6.641   4.633   4.492
10333SOL    HW131898   6.609   4.727   4.481
10333SOL    HW231899   6.722   4.619   4.435
10334SOL     OW31900   2.507   6.288   4.378
10334SOL    HW131901   2.545   6.380   4.372
10334SOL    HW231902   2.575   6.227   4.418
10335SOL     OW31903   2.521   5.058   6.710
10335SOL    HW131904   2.577   4.977   6.696
10335SOL    HW231905   2.564   5.117   6.778
10336SOL     OW31906   5.951   0.386   3.132
10336SOL    HW131907   6.048   0.405   3.114
10336SOL    HW231908   5.919   0.315   3.069
10337SOL     OW31909   6.760   6.450   5.596
10337SOL    HW131910   6.664   6.422   5.604
10337SOL    HW231911   6.764   6.548   5.581
10338SOL     OW31912   2.233   6.343   1.724
10338SOL    HW131913   2.318   6.332   1.673
10338SOL    HW231914   2.238   6.427   1.779
10339SOL     OW31915   2.602   5.748   0.408
10339SOL    HW131916   2.619   5.758   0.310
10339SOL    HW231917   2.688   5.755   0.458
10340SOL     OW31918   0.907   5.645   0.615
10340SOL    HW131919   0.918   5.731   0.566
10340SOL    HW231920   0.938   5.569   0.556
10341SOL     OW31921   1.969   3.478   1.863
10341SOL    HW131922   2.032   3.515   1.931
10341SOL    HW231923   2.015   3.407   1.809
10342SOL     OW31924   0.947   5.987   5.178
10342SOL    HW131925   1.036   6.028   5.198
10342SOL    HW231926   0.918   6.013   5.086
10343SOL     OW31927   1.737   4.151   0.843
10343SOL    HW131928   1.769   4.168   0.749
10343SOL    HW231929   1.812   4.113   0.897
10344SOL     OW31930   4.358   3.382   1.759
10344SOL    HW131931   4.458   3.389   1.767
10344SOL    HW231932   4.327   3.438   1.683
10345SOL     OW31933   1.321   0.981   6.281
10345SOL    HW131934   1.420   0.986   6.294
10345SOL    HW231935   1.298   1.005   6.187
10346SOL     OW31936   5.806   0.923   0.794
10346SOL    HW131937   5.806   1.023   0.799
10346SOL    HW231938   5.795   0.885   0.885
10347SOL     OW31939   5.576   2.573   2.398
10347SOL    HW131940   5.479   2.568   2.374
10347SOL    HW231941   5.630   2.527   2.328
10348SOL     OW31942   6.390   1.440   0.503
10348SOL    HW131943   6.431   1.525   0.536
10348SOL    HW231944   6.457   1.390   0.448
10349SOL     OW31945   6.296   1.322   0.797
10349SOL    HW131946   6.274   1.309   0.894
10349SOL    HW231947   6.394   1.313   0.783
10350SOL     OW31948   2.219   5.923   5.405
10350SOL    HW131949   2.297   5.937   5.466
10350SOL    HW231950   2.138   5.964   5.446
10351SOL     OW31951   5.281   4.805   6.236
10351SOL    HW131952   5.372   4.765   6.224
10351SOL    HW231953   5.212   4.739   6.207
10352SOL     OW31954   5.393   2.170   0.261
10352SOL    HW131955   5.416   2.266   0.242
10352SOL    HW231956   5.376   2.123   0.174
10353SOL     OW31957   5.853   2.464   4.839
10353SOL    HW131958   5.943   2.450   4.882
10353SOL    HW231959   5.811   2.375   4.820
10354SOL     OW31960   6.967   2.197   1.777
10354SOL    HW131961   6.896   2.236   1.835
10354SOL    HW231962   6.929   2.123   1.722
10355SOL     OW31963   1.576   0.641   1.190
10355SOL    HW131964   1.481   0.664   1.215
10355SOL    HW231965   1.577   0.553   1.142
10356SOL     OW31966   0.202   3.965   5.377
10356SOL    HW131967   0.118   3.917   5.403
10356SOL    HW231968   0.187   4.063   5.384
10357SOL     OW31969   3.571   2.601   6.033
10357SOL    HW131970   3.483   2.613   6.080
10357SOL    HW231971   3.617   2.689   6.024
10358SOL     OW31972   7.014   3.277   3.543
10358SOL    HW131973   0.045   3.229   3.476
10358SOL    HW231974   0.013   3.373   3.546
10359SOL     OW31975   5.226   1.329   2.286
10359SOL    HW131976   5.139   1.345   2.240
10359SOL    HW231977   5.298   1.312   2.219
10360SOL     OW31978   4.622   5.739   1.916
10360SOL    HW131979   4.612   5.673   1.842
10360SOL    HW231980   4.607   5.694   2.004
10361SOL     OW31981   2.799   0.965   3.111
10361SOL    HW131982   2.721   0.953   3.173
10361SOL    HW231983   2.874   1.009   3.160
10362SOL     OW31984   0.232   5.384   2.912
10362SOL    HW131985   0.202   5.420   2.824
10362SOL    HW231986   0.325   5.346   2.903
10363SOL     OW31987   4.995   2.563   1.104
10363SOL    HW131988   4.983   2.636   1.172
10363SOL    HW231989   5.042   2.600   1.024
10364SOL     OW31990   3.787   3.946   1.550
10364SOL    HW131991   3.702   3.997   1.540
10364SOL    HW231992   3.776   3.855   1.511
10365SOL     OW31993   4.789   4.002   6.014
10365SOL    HW131994   4.734   4.084   6.029
10365SOL    HW231995   4.821   3.999   5.920
10366SOL     OW31996   3.558   6.724   4.124
10366SOL    HW131997   3.644   6.673   4.124
10366SOL    HW231998   3.575   6.817   4.155
10367SOL     OW31999   0.233   1.863   2.014
10367SOL    HW132000   0.303   1.884   2.083
10367SOL    HW232001   0.222   1.942   1.953
10368SOL     OW32002   2.331   1.326   2.570
10368SOL    HW132003   2.287   1.416   2.564
10368SOL    HW232004   2.303   1.280   2.654
10369SOL     OW32005   2.901   6.983   5.521
10369SOL    HW132006   2.911   0.053   5.543
10369SOL    HW232007   2.958   6.929   5.582
10370SOL     OW32008   6.445   0.878   5.430
10370SOL    HW132009   6.492   0.924   5.355
10370SOL    HW232010   6.418   0.945   5.499
10371SOL     OW32011   1.727   6.147   4.327
10371SOL    HW132012   1.778   6.077   4.376
10371SOL    HW232013   1.630   6.142   4.351
10372SOL     OW32014   2.270   1.456   6.586
10372SOL    HW132015   2.172   1.470   6.579
10372SOL    HW232016   2.289   1.378   6.646
10373SOL     OW32017   1.485   6.242   5.089
10373SOL    HW132018   1.522   6.316   5.145
10373SOL    HW232019   1.559   6.181   5.061
10374SOL     OW32020   2.945   0.587   3.843
10374SOL    HW132021   3.004   0.653   3.798
10374SOL    HW232022   2.975   0.574   3.937
10375SOL     OW32023   2.131   2.239   6.056
10375SOL    HW132024   2.048   2.253   6.111
10375SOL    HW232025   2.155   2.142   6.058
10376SOL     OW32026   1.270   5.660   3.585
10376SOL    HW132027   1.355   5.698   3.621
10376SOL    HW232028   1.196   5.676   3.650
10377SOL     OW32029   0.139   0.868   2.814
10377SOL    HW132030   0.162   0.961   2.787
10377SOL    HW232031   0.044   0.865   2.845
10378SOL     OW32032   5.831   5.860   5.836
10378SOL    HW132033   5.733   5.875   5.842
10378SOL    HW232034   5.851   5.799   5.759
10379SOL     OW32035   2.723   6.079   3.931
10379SOL    HW132036   2.808   6.042   3.893
10379SOL    HW232037   2.698   6.029   4.013
10380SOL     OW32038   0.430   2.546   4.908
10380SOL    HW132039   0.410   2.460   4.955
10380SOL    HW232040   0.485   2.527   4.826
10381SOL     OW32041   4.378   4.187   1.033
10381SOL    HW132042   4.460   4.130   1.026
10381SOL    HW232043   4.387   4.267   0.974
10382SOL     OW32044   1.897   5.507   1.575
10382SOL    HW132045   1.971   5.479   1.636
10382SOL    HW232046   1.815   5.453   1.595
10383SOL     OW32047   0.950   3.964   1.452
10383SOL    HW132048   0.851   3.967   1.438
10383SOL    HW232049   0.987   4.057   1.453
10384SOL     OW32050   6.756   0.306   1.018
10384SOL    HW132051   6.759   0.371   1.094
10384SOL    HW232052   6.838   0.249   1.019
10385SOL     OW32053   4.398   6.026   6.205
10385SOL    HW132054   4.455   6.036   6.124
10385SOL    HW232055   4.411   5.935   6.243
10386SOL     OW32056   6.837   1.614   5.490
10386SOL    HW132057   6.792   1.536   5.534
10386SOL    HW232058   6.785   1.697   5.509
10387SOL     OW32059   4.550   1.858   2.648
10387SOL    HW132060   4.611   1.782   2.672
10387SOL    HW232061   4.460   1.842   2.688
10388SOL     OW32062   1.580   5.759   2.109
10388SOL    HW132063   1.597   5.856   2.090
10388SOL    HW232064   1.495   5.731   2.063
10389SOL     OW32065   6.239   5.651   0.948
10389SOL    HW132066   6.329   5.609   0.964
10389SOL    HW232067   6.236   5.740   0.992
10390SOL     OW32068   1.843   2.987   1.297
10390SOL    HW132069   1.792   3.034   1.370
10390SOL    HW232070   1.815   3.023   1.208
10391SOL     OW32071   0.205   6.600   3.333
10391SOL    HW132072   0.108   6.608   3.310
10391SOL    HW232073   0.259   6.595   3.249
10392SOL     OW32074   6.478   4.527   5.679
10392SOL    HW132075   6.421   4.562   5.606
10392SOL    HW232076   6.573   4.558   5.666
10393SOL     OW32077   2.314   2.476   3.779
10393SOL    HW132078   2.363   2.520   3.855
10393SOL    HW232079   2.292   2.545   3.709
10394SOL     OW32080   2.078   5.671   5.416
10394SOL    HW132081   2.068   5.650   5.513
10394SOL    HW232082   2.124   5.760   5.406
10395SOL     OW32083   0.326   0.703   2.136
10395SOL    HW132084   0.236   0.745   2.141
10395SOL    HW232085   0.316   0.605   2.120
10396SOL     OW32086   3.890   1.251   3.195
10396SOL    HW132087   3.882   1.181   3.267
10396SOL    HW232088   3.974   1.303   3.208
10397SOL     OW32089   2.847   1.550   4.616
10397SOL    HW132090   2.910   1.473   4.618
10397SOL    HW232091   2.879   1.618   4.550
10398SOL     OW32092   4.975   2.674   0.517
10398SOL    HW132093   5.044   2.717   0.574
10398SOL    HW232094   4.930   2.600   0.569
10399SOL     OW32095   4.975   2.488   4.502
10399SOL    HW132096   4.921   2.492   4.418
10399SOL    HW232097   5.058   2.542   4.491
10400SOL     OW32098   4.346   5.792   0.288
10400SOL    HW132099   4.290   5.750   0.217
10400SOL    HW232100   4.412   5.725   0.323
10401SOL     OW32101   0.256   6.906   2.183
10401SOL    HW132102   0.229   6.984   2.240
10401SOL    HW232103   0.183   6.838   2.182
10402SOL     OW32104   0.157   1.607   5.158
10402SOL    HW132105   0.066   1.634   5.128
10402SOL    HW232106   0.149   1.544   5.235
10403SOL     OW32107   4.295   1.764   2.778
10403SOL    HW132108   4.273   1.684   2.834
10403SOL    HW232109   4.214   1.792   2.727
10404SOL     OW32110   6.720   6.723   4.015
10404SOL    HW132111   6.801   6.730   3.956
10404SOL    HW232112   6.643   6.689   3.962
10405SOL     OW32113   1.087   5.622   4.954
10405SOL    HW132114   1.078   5.525   4.932
10405SOL    HW232115   1.078   5.676   4.870
10406SOL     OW32116   2.276   2.992   5.351
10406SOL    HW132117   2.352   3.022   5.293
10406SOL    HW232118   2.204   2.953   5.293
10407SOL     OW32119   2.425   6.857   0.184
10407SOL    HW132120   2.347   6.816   0.232
10407SOL    HW232121   2.415   6.844   0.085
10408SOL     OW32122   4.300   6.769   2.056
10408SOL    HW132123   4.276   6.863   2.080
10408SOL    HW232124   4.267   6.707   2.128
10409SOL     OW32125   6.944   4.338   0.917
10409SOL    HW132126   6.945   4.434   0.888
10409SOL    HW232127   7.013   4.324   0.989
10410SOL     OW32128   5.515   2.876   2.027
10410SOL    HW132129   5.435   2.932   2.006
10410SOL    HW232130   5.486   2.785   2.057
10411SOL     OW32131   3.014   6.026   4.159
10411SOL    HW132132   3.065   6.099   4.113
10411SOL    HW232133   2.992   5.954   4.094
10412SOL     OW32134   0.113   1.217   0.162
10412SOL    HW132135   0.205   1.190   0.135
10412SOL    HW232136   0.062   1.246   0.081
10413SOL     OW32137   6.363   2.542   1.762
10413SOL    HW132138   6.271   2.508   1.742
10413SOL    HW232139   6.426   2.465   1.773
10414SOL     OW32140   3.721   5.091   6.246
10414SOL    HW132141   3.724   5.066   6.149
10414SOL    HW232142   3.628   5.119   6.270
10415SOL     OW32143   1.651   4.655   4.047
10415SOL    HW132144   1.578   4.595   4.014
10415SOL    HW232145   1.653   4.654   4.147
10416SOL     OW32146   5.717   6.722   5.347
10416SOL    HW132147   5.723   6.635   5.298
10416SOL    HW232148   5.725   6.798   5.281
10417SOL     OW32149   4.293   4.938   4.444
10417SOL    HW132150   4.225   4.989   4.497
10417SOL    HW232151   4.247   4.885   4.373
10418SOL     OW32152   6.915   4.263   6.139
10418SOL    HW132153   6.919   4.189   6.072
10418SOL    HW232154   6.828   4.259   6.188
10419SOL     OW32155   3.554   6.827   6.269
10419SOL    HW132156   3.483   6.764   6.235
10419SOL    HW232157   3.510   6.903   6.317
10420SOL     OW32158   0.228   4.165   4.283
10420SOL    HW132159   0.238   4.263   4.265
10420SOL    HW232160   0.266   4.143   4.373
10421SOL     OW32161   1.329   3.817   4.156
10421SOL    HW132162   1.418   3.798   4.114
10421SOL    HW232163   1.286   3.893   4.108
10422SOL     OW32164   6.628   3.107   6.062
10422SOL    HW132165   6.616   3.079   6.157
10422SOL    HW232166   6.626   3.206   6.056
10423SOL     OW32167   5.348   5.111   5.779
10423SOL    HW132168   5.416   5.184   5.769
10423SOL    HW232169   5.275   5.142   5.839
10424SOL     OW32170   3.935   3.313   0.694
10424SOL    HW132171   3.950   3.221   0.655
10424SOL    HW232172   3.839   3.322   0.721
10425SOL     OW32173   0.861   6.568   2.359
10425SOL    HW132174   0.807   6.555   2.276
10425SOL    HW232175   0.900   6.481   2.388
10426SOL     OW32176   5.416   4.971   6.889
10426SOL    HW132177   5.369   4.980   6.977
10426SOL    HW232178   5.353   4.932   6.822
10427SOL     OW32179   4.576   0.974   6.822
10427SOL    HW132180   4.611   0.935   6.907
10427SOL    HW232181   4.630   1.055   6.798
10428SOL     OW32182   3.281   1.043   4.166
10428SOL    HW132183   3.185   1.028   4.186
10428SOL    HW232184   3.316   1.119   4.222
10429SOL     OW32185   0.051   4.307   2.581
10429SOL    HW132186   0.070   4.336   2.675
10429SOL    HW232187   6.983   4.276   2.575
10430SOL     OW32188   3.940   6.600   5.291
10430SOL    HW132189   4.012   6.618   5.358
10430SOL    HW232190   3.981   6.568   5.206
10431SOL     OW32191   2.485   6.405   4.058
10431SOL    HW132192   2.385   6.406   4.070
10431SOL    HW232193   2.521   6.497   4.066
10432SOL     OW32194   6.435   0.680   4.901
10432SOL    HW132195   6.371   0.751   4.871
10432SOL    HW232196   6.408   0.592   4.862
10433SOL     OW32197   0.662   6.718   2.859
10433SOL    HW132198   0.675   6.654   2.934
10433SOL    HW232199   0.642   6.668   2.775
10434SOL     OW32200   3.270   6.147   2.811
10434SOL    HW132201   3.279   6.118   2.906
10434SOL    HW232202   3.342   6.107   2.756
10435SOL     OW32203   1.418   2.439   5.435
10435SOL    HW132204   1.420   2.538   5.418
10435SOL    HW232205   1.493   2.395   5.385
10436SOL     OW32206   6.156   4.613   5.278
10436SOL    HW132207   6.216   4.681   5.236
10436SOL    HW232208   6.061   4.632   5.251
10437SOL     OW32209   5.599   4.462   5.870
10437SOL    HW132210   5.568   4.555   5.887
10437SOL    HW232211   5.693   4.464   5.834
10438SOL     OW32212   0.715   5.616   6.430
10438SOL    HW132213   0.785   5.640   6.497
10438SOL    HW232214   0.742   5.649   6.340
10439SOL     OW32215   4.486   1.436   4.579
10439SOL    HW132216   4.430   1.365   4.536
10439SOL    HW232217   4.474   1.522   4.530
10440SOL     OW32218   0.534   6.903   0.502
10440SOL    HW132219   0.603   6.936   0.439
10440SOL    HW232220   0.471   6.977   0.525
10441SOL     OW32221   3.828   1.825   1.358
10441SOL    HW132222   3.756   1.757   1.342
10441SOL    HW232223   3.839   1.839   1.456
10442SOL     OW32224   4.194   6.348   5.741
10442SOL    HW132225   4.251   6.268   5.759
10442SOL    HW232226   4.248   6.419   5.697
10443SOL     OW32227   4.894   2.595   3.319
10443SOL    HW132228   4.900   2.555   3.410
10443SOL    HW232229   4.943   2.537   3.254
10444SOL     OW32230   3.453   5.312   3.421
10444SOL    HW132231   3.489   5.371   3.349
10444SOL    HW232232   3.422   5.226   3.382
10445SOL     OW32233   0.636   5.158   3.766
10445SOL    HW132234   0.593   5.216   3.696
10445SOL    HW232235   0.594   5.067   3.763
10446SOL     OW32236   2.453   3.233   6.345
10446SOL    HW132237   2.536   3.268   6.300
10446SOL    HW232238   2.478   3.169   6.417
10447SOL     OW32239   0.315   1.366   3.233
10447SOL    HW132240   0.317   1.287   3.171
10447SOL    HW232241   0.258   1.437   3.193
10448SOL     OW32242   4.587   0.640   2.508
10448SOL    HW132243   4.618   0.622   2.414
10448SOL    HW232244   4.493   0.675   2.506
10449SOL     OW32245   1.505   5.622   5.863
10449SOL    HW132246   1.527   5.589   5.955
10449SOL    HW232247   1.565   5.699   5.841
10450SOL     OW32248   0.410   1.345   0.062
10450SOL    HW132249   0.399   1.256   0.106
10450SOL    HW232250   0.424   1.415   0.132
10451SOL     OW32251   1.917   6.049   3.227
10451SOL    HW132252   2.012   6.071   3.204
10451SOL    HW232253   1.868   6.022   3.144
10452SOL     OW32254   6.077   3.221   2.618
10452SOL    HW132255   6.001   3.284   2.608
10452SOL    HW232256   6.162   3.272   2.631
10453SOL     OW32257   5.602   0.062   1.646
10453SOL    HW132258   5.606   7.003   1.595
10453SOL    HW232259   5.613   0.139   1.582
10454SOL     OW32260   5.027   2.993   7.011
10454SOL    HW132261   4.928   3.006   7.007
10454SOL    HW232262   5.063   2.985   6.918
10455SOL     OW32263   6.982   6.333   3.182
10455SOL    HW132264   7.009   6.429   3.171
10455SOL    HW232265   0.015   6.289   3.248
10456SOL     OW32266   1.677   5.375   0.305
10456SOL    HW132267   1.603   5.404   0.244
10456SOL    HW232268   1.674   5.276   0.316
10457SOL     OW32269   3.652   3.381   0.762
10457SOL    HW132270   3.688   3.456   0.818
10457SOL    HW232271   3.553   3.388   0.757
10458SOL     OW32272   6.441   0.178   6.038
10458SOL    HW132273   6.486   0.266   6.056
10458SOL    HW232274   6.359   0.170   6.095
10459SOL     OW32275   4.434   6.120   1.139
10459SOL    HW132276   4.473   6.030   1.159
10459SOL    HW232277   4.464   6.185   1.209
10460SOL     OW32278   1.010   4.245   1.798
10460SOL    HW132279   0.950   4.317   1.833
10460SOL    HW232280   0.992   4.232   1.701
10461SOL     OW32281   5.560   4.815   4.777
10461SOL    HW132282   5.618   4.875   4.832
10461SOL    HW232283   5.500   4.762   4.837
10462SOL     OW32284   5.092   2.073   3.367
10462SOL    HW132285   5.043   2.045   3.285
10462SOL    HW232286   5.124   2.167   3.357
10463SOL     OW32287   4.410   2.556   5.984
10463SOL    HW132288   4.342   2.607   5.931
10463SOL    HW232289   4.483   2.525   5.923
10464SOL     OW32290   6.896   6.748   1.753
10464SOL    HW132291   6.936   6.839   1.763
10464SOL    HW232292   6.821   6.752   1.688
10465SOL     OW32293   6.349   5.767   0.689
10465SOL    HW132294   6.410   5.791   0.612
10465SOL    HW232295   6.376   5.818   0.770
10466SOL     OW32296   4.453   5.089   5.599
10466SOL    HW132297   4.522   5.035   5.551
10466SOL    HW232298   4.366   5.085   5.549
10467SOL     OW32299   2.620   1.994   0.207
10467SOL    HW132300   2.650   1.950   0.122
10467SOL    HW232301   2.561   2.072   0.185
10468SOL     OW32302   3.392   5.052   3.293
10468SOL    HW132303   3.482   5.015   3.270
10468SOL    HW232304   3.341   4.985   3.346
10469SOL     OW32305   4.067   4.445   5.486
10469SOL    HW132306   4.051   4.374   5.418
10469SOL    HW232307   4.030   4.532   5.453
10470SOL     OW32308   1.879   2.628   3.937
10470SOL    HW132309   1.842   2.552   3.991
10470SOL    HW232310   1.956   2.669   3.985
10471SOL     OW32311   3.125   0.881   0.730
10471SOL    HW132312   3.093   0.967   0.769
10471SOL    HW232313   3.132   0.889   0.631
10472SOL     OW32314   3.461   5.940   0.476
10472SOL    HW132315   3.533   6.006   0.495
10472SOL    HW232316   3.464   5.866   0.543
10473SOL     OW32317   6.643   0.241   6.781
10473SOL    HW132318   6.675   0.211   6.871
10473SOL    HW232319   6.557   0.195   6.759
10474SOL     OW32320   4.001   1.364   4.175
10474SOL    HW132321   3.933   1.434   4.151
10474SOL    HW232322   4.083   1.377   4.119
10475SOL     OW32323   4.711   6.696   1.246
10475SOL    HW132324   4.742   6.789   1.226
10475SOL    HW232325   4.622   6.700   1.292
10476SOL     OW32326   6.912   6.826   0.105
10476SOL    HW132327   6.875   6.866   0.021
10476SOL    HW232328   7.001   6.786   0.087
10477SOL     OW32329   6.421   0.650   4.576
10477SOL    HW132330   6.489   0.583   4.604
10477SOL    HW232331   6.330   0.615   4.596
10478SOL     OW32332   6.059   0.814   0.722
10478SOL    HW132333   6.090   0.741   0.783
10478SOL    HW232334   5.960   0.826   0.734
10479SOL     OW32335   0.028   1.736   2.984
10479SOL    HW132336   0.021   1.717   3.082
10479SOL    HW232337   6.977   1.790   2.954
10480SOL     OW32338   0.269   0.716   1.802
10480SOL    HW132339   0.170   0.725   1.794
10480SOL    HW232340   0.291   0.643   1.867
10481SOL     OW32341   2.577   0.085   4.240
10481SOL    HW132342   2.649   0.145   4.275
10481SOL    HW232343   2.556   0.015   4.309
10482SOL     OW32344   6.362   5.044   4.219
10482SOL    HW132345   6.409   5.096   4.290
10482SOL    HW232346   6.397   4.951   4.217
10483SOL     OW32347   6.269   4.975   0.265
10483SOL    HW132348   6.303   4.882   0.279
10483SOL    HW232349   6.254   5.019   0.354
10484SOL     OW32350   6.348   2.060   2.001
10484SOL    HW132351   6.422   2.111   2.044
10484SOL    HW232352   6.366   2.051   1.903
10485SOL     OW32353   3.073   3.957   0.556
10485SOL    HW132354   3.099   3.983   0.649
10485SOL    HW232355   3.057   3.858   0.553
10486SOL     OW32356   0.576   0.516   0.469
10486SOL    HW132357   0.560   0.526   0.567
10486SOL    HW232358   0.488   0.501   0.422
10487SOL     OW32359   4.921   1.138   0.933
10487SOL    HW132360   4.846   1.101   0.878
10487SOL    HW232361   4.888   1.162   1.024
10488SOL     OW32362   3.207   1.340   6.008
10488SOL    HW132363   3.175   1.292   5.926
10488SOL    HW232364   3.194   1.281   6.088
10489SOL     OW32365   0.702   6.654   5.218
10489SOL    HW132366   0.683   6.729   5.282
10489SOL    HW232367   0.674   6.567   5.259
10490SOL     OW32368   5.646   1.732   1.049
10490SOL    HW132369   5.615   1.650   1.002
10490SOL    HW232370   5.652   1.808   0.983
10491SOL     OW32371   1.968   2.552   6.239
10491SOL    HW132372   1.997   2.588   6.328
10491SOL    HW232373   2.029   2.587   6.168
10492SOL     OW32374   5.728   4.955   0.041
10492SOL    HW132375   5.826   4.949   0.021
10492SOL    HW232376   5.713   5.012   0.121
10493SOL     OW32377   3.177   0.393   1.756
10493SOL    HW132378   3.145   0.406   1.850
10493SOL    HW232379   3.271   0.426   1.748
10494SOL     OW32380   5.486   4.079   5.675
10494SOL    HW132381   5.445   4.083   5.766
10494SOL    HW232382   5.578   4.118   5.678
10495SOL     OW32383   1.801   7.002   1.513
10495SOL    HW132384   1.719   6.964   1.469
10495SOL    HW232385   1.870   7.021   1.443
10496SOL     OW32386   6.490   3.992   6.171
10496SOL    HW132387   6.561   4.008   6.103
10496SOL    HW232388   6.508   3.907   6.220
10497SOL     OW32389   2.060   6.980   2.125
10497SOL    HW132390   1.982   0.010   2.149
10497SOL    HW232391   2.125   0.006   2.071
10498SOL     OW32392   4.588   5.062   0.964
10498SOL    HW132393   4.653   5.086   0.892
10498SOL    HW232394   4.520   4.999   0.927
10499SOL     OW32395   4.246   0.014   2.231
10499SOL    HW132396   4.162   0.060   2.260
10499SOL    HW232397   4.259   0.028   2.133
10500SOL     OW32398   6.176   1.101   5.832
10500SOL    HW132399   6.214   1.184   5.872
10500SOL    HW232400   6.084   1.119   5.798
10501SOL     OW32401   2.171   5.598   2.135
10501SOL    HW132402   2.189   5.580   2.038
10501SOL    HW232403   2.132   5.690   2.145
10502SOL     OW32404   2.657   1.452   2.055
10502SOL    HW132405   2.701   1.455   1.966
10502SOL    HW232406   2.726   1.445   2.127
10503SOL     OW32407   4.515   2.821   0.911
10503SOL    HW132408   4.432   2.773   0.939
10503SOL    HW232409   4.546   2.879   0.987
10504SOL     OW32410   0.992   1.685   5.974
10504SOL    HW132411   1.079   1.697   6.020
10504SOL    HW232412   0.917   1.705   6.038
10505SOL     OW32413   5.137   4.929   1.073
10505SOL    HW132414   5.209   4.996   1.088
10505SOL    HW232415   5.048   4.974   1.074
10506SOL     OW32416   7.001   4.758   0.521
10506SOL    HW132417   6.933   4.783   0.589
10506SOL    HW232418   6.983   4.665   0.488
10507SOL     OW32419   1.891   6.874   0.329
10507SOL    HW132420   1.950   6.798   0.355
10507SOL    HW232421   1.932   6.924   0.253
10508SOL     OW32422   6.227   5.904   4.724
10508SOL    HW132423   6.286   5.840   4.675
10508SOL    HW232424   6.136   5.903   4.683
10509SOL     OW32425   0.284   5.253   4.512
10509SOL    HW132426   0.326   5.163   4.502
10509SOL    HW232427   0.270   5.272   4.609
10510SOL     OW32428   4.581   5.627   6.705
10510SOL    HW132429   4.651   5.599   6.639
10510SOL    HW232430   4.624   5.681   6.777
10511SOL     OW32431   3.458   1.137   2.057
10511SOL    HW132432   3.494   1.045   2.041
10511SOL    HW232433   3.361   1.131   2.080
10512SOL     OW32434   4.418   0.184   6.402
10512SOL    HW132435   4.416   0.263   6.464
10512SOL    HW232436   4.468   0.109   6.446
10513SOL     OW32437   5.832   2.219   4.597
10513SOL    HW132438   5.914   2.267   4.562
10513SOL    HW232439   5.756   2.283   4.602
10514SOL     OW32440   0.275   3.216   1.286
10514SOL    HW132441   0.301   3.128   1.326
10514SOL    HW232442   0.336   3.288   1.321
10515SOL     OW32443   0.685   3.535   3.514
10515SOL    HW132444   0.754   3.607   3.524
10515SOL    HW232445   0.596   3.571   3.541
10516SOL     OW32446   4.362   1.449   0.647
10516SOL    HW132447   4.420   1.419   0.572
10516SOL    HW232448   4.343   1.373   0.709
10517SOL     OW32449   0.490   3.127   1.624
10517SOL    HW132450   0.563   3.103   1.688
10517SOL    HW232451   0.411   3.067   1.639
10518SOL     OW32452   0.536   5.992   0.252
10518SOL    HW132453   0.468   5.980   0.325
10518SOL    HW232454   0.612   6.047   0.287
10519SOL     OW32455   3.326   3.577   0.553
10519SOL    HW132456   3.354   3.624   0.636
10519SOL    HW232457   3.379   3.612   0.475
10520SOL     OW32458   0.361   2.439   6.055
10520SOL    HW132459   0.333   2.463   5.962
10520SOL    HW232460   0.461   2.442   6.061
10521SOL     OW32461   6.135   6.211   1.690
10521SOL    HW132462   6.061   6.160   1.733
10521SOL    HW232463   6.177   6.155   1.618
10522SOL     OW32464   1.026   0.706   5.525
10522SOL    HW132465   1.083   0.685   5.604
10522SOL    HW232466   0.936   0.736   5.556
10523SOL     OW32467   1.119   4.765   3.130
10523SOL    HW132468   1.205   4.815   3.139
10523SOL    HW232469   1.047   4.828   3.100
10524SOL     OW32470   1.806   7.004   4.056
10524SOL    HW132471   1.730   7.027   3.995
10524SOL    HW232472   1.779   7.019   4.151
10525SOL     OW32473   4.250   6.587   6.197
10525SOL    HW132474   4.219   6.639   6.118
10525SOL    HW232475   4.220   6.492   6.189
10526SOL     OW32476   1.978   6.742   3.663
10526SOL    HW132477   1.951   6.814   3.600
10526SOL    HW232478   1.962   6.772   3.757
10527SOL     OW32479   0.924   1.022   5.635
10527SOL    HW132480   0.905   0.926   5.614
10527SOL    HW232481   0.996   1.028   5.704
10528SOL     OW32482   1.584   3.085   6.084
10528SOL    HW132483   1.635   3.156   6.133
10528SOL    HW232484   1.594   3.098   5.986
10529SOL     OW32485   2.991   5.908   4.395
10529SOL    HW132486   3.014   5.941   4.304
10529SOL    HW232487   3.032   5.818   4.409
10530SOL     OW32488   1.652   0.369   6.497
10530SOL    HW132489   1.668   0.327   6.408
10530SOL    HW232490   1.646   0.298   6.567
10531SOL     OW32491   0.794   2.729   4.603
10531SOL    HW132492   0.843   2.699   4.522
10531SOL    HW232493   0.758   2.822   4.588
10532SOL     OW32494   1.186   6.376   6.205
10532SOL    HW132495   1.150   6.324   6.128
10532SOL    HW232496   1.214   6.467   6.173
10533SOL     OW32497   3.112   6.421   3.635
10533SOL    HW132498   3.114   6.451   3.540
10533SOL    HW232499   3.075   6.494   3.692
10534SOL     OW32500   6.433   6.225   1.434
10534SOL    HW132501   6.384   6.312   1.436
10534SOL    HW232502   6.453   6.200   1.339
10535SOL     OW32503   1.459   1.996   1.708
10535SOL    HW132504   1.430   2.069   1.770
10535SOL    HW232505   1.504   2.036   1.628
10536SOL     OW32506   4.599   0.524   3.871
10536SOL    HW132507   4.662   0.598   3.845
10536SOL    HW232508   4.622   0.491   3.962
10537SOL     OW32509   3.872   6.032   3.571
10537SOL    HW132510   3.814   5.972   3.626
10537SOL    HW232511   3.880   6.121   3.617
10538SOL     OW32512   6.003   2.705   0.934
10538SOL    HW132513   6.087   2.656   0.911
10538SOL    HW232514   6.025   2.800   0.957
10539SOL     OW32515   0.740   4.734   6.936
10539SOL    HW132516   0.663   4.797   6.926
10539SOL    HW232517   0.813   4.761   6.872
10540SOL     OW32518   1.545   1.842   5.116
10540SOL    HW132519   1.545   1.935   5.078
10540SOL    HW232520   1.451   1.811   5.127
10541SOL     OW32521   3.041   4.018   2.015
10541SOL    HW132522   3.023   3.949   2.085
10541SOL    HW232523   3.122   4.070   2.040
10542SOL     OW32524   0.314   0.389   5.234
10542SOL    HW132525   0.267   0.379   5.147
10542SOL    HW232526   0.412   0.371   5.222
10543SOL     OW32527   6.994   2.053   4.368
10543SOL    HW132528   0.043   2.000   4.406
10543SOL    HW232529   6.917   1.992   4.348
10544SOL     OW32530   2.491   7.026   1.631
10544SOL    HW132531   2.573   0.034   1.677
10544SOL    HW232532   2.472   0.055   1.550
10545SOL     OW32533   0.836   2.016   1.840
10545SOL    HW132534   0.876   2.099   1.801
10545SOL    HW232535   0.861   2.009   1.936
10546SOL     OW32536   1.823   1.180   0.965
10546SOL    HW132537   1.818   1.270   0.922
10546SOL    HW232538   1.845   1.111   0.896
10547SOL     OW32539   5.369   3.508   2.824
10547SOL    HW132540   5.453   3.504   2.877
10547SOL    HW232541   5.374   3.584   2.759
10548SOL     OW32542   5.881   4.544   3.930
10548SOL    HW132543   5.826   4.572   4.009
10548SOL    HW232544   5.927   4.458   3.952
10549SOL     OW32545   0.652   0.121   1.791
10549SOL    HW132546   0.713   0.080   1.723
10549SOL    HW232547   0.638   0.058   1.867
10550SOL     OW32548   4.636   6.381   3.609
10550SOL    HW132549   4.556   6.438   3.625
10550SOL    HW232550   4.694   6.424   3.540
10551SOL     OW32551   1.676   2.589   6.556
10551SOL    HW132552   1.736   2.511   6.576
10551SOL    HW232553   1.708   2.635   6.474
10552SOL     OW32554   3.236   0.460   6.126
10552SOL    HW132555   3.141   0.474   6.153
10552SOL    HW232556   3.249   0.492   6.032
10553SOL     OW32557   0.642   4.320   2.052
10553SOL    HW132558   0.645   4.391   2.122
10553SOL    HW232559   0.548   4.312   2.017
10554SOL     OW32560   5.943   4.627   0.564
10554SOL    HW132561   5.914   4.532   0.568
10554SOL    HW232562   5.944   4.657   0.468
10555SOL     OW32563   1.656   2.837   0.089
10555SOL    HW132564   1.754   2.838   0.105
10555SOL    HW232565   1.627   2.745   0.062
10556SOL     OW32566   1.926   1.548   5.024
10556SOL    HW132567   1.979   1.600   4.957
10556SOL    HW232568   1.977   1.543   5.110
10557SOL     OW32569   2.132   2.800   3.362
10557SOL    HW132570   2.160   2.895   3.368
10557SOL    HW232571   2.036   2.792   3.389
10558SOL     OW32572   4.234   0.237   4.028
10558SOL    HW132573   4.195   0.172   4.094
10558SOL    HW232574   4.199   0.215   3.937
10559SOL     OW32575   4.618   0.549   1.686
10559SOL    HW132576   4.698   0.609   1.694
10559SOL    HW232577   4.606   0.498   1.771
10560SOL     OW32578   3.897   5.949   2.772
10560SOL    HW132579   3.965   6.002   2.722
10560SOL    HW232580   3.895   5.855   2.738
10561SOL     OW32581   3.436   3.680   1.462
10561SOL    HW132582   3.402   3.694   1.555
10561SOL    HW232583   3.453   3.583   1.447
10562SOL     OW32584   4.551   4.946   0.251
10562SOL    HW132585   4.512   4.888   0.180
10562SOL    HW232586   4.502   5.033   0.254
10563SOL     OW32587   0.655   1.812   3.728
10563SOL    HW132588   0.588   1.886   3.725
10563SOL    HW232589   0.616   1.729   3.689
10564SOL     OW32590   5.798   6.046   2.283
10564SOL    HW132591   5.740   6.127   2.272
10564SOL    HW232592   5.785   6.008   2.374
10565SOL     OW32593   0.532   6.939   5.618
10565SOL    HW132594   0.539   6.865   5.685
10565SOL    HW232595   0.568   6.909   5.530
10566SOL     OW32596   3.438   1.659   6.334
10566SOL    HW132597   3.500   1.590   6.297
10566SOL    HW232598   3.345   1.623   6.336
10567SOL     OW32599   3.000   2.135   4.829
10567SOL    HW132600   2.903   2.156   4.836
10567SOL    HW232601   3.051   2.193   4.893
10568SOL     OW32602   5.789   3.247   1.710
10568SOL    HW132603   5.749   3.194   1.785
10568SOL    HW232604   5.825   3.334   1.746
10569SOL     OW32605   6.050   2.064   2.199
10569SOL    HW132606   6.092   2.152   2.218
10569SOL    HW232607   5.988   2.040   2.274
10570SOL     OW32608   0.837   5.530   3.414
10570SOL    HW132609   0.863   5.627   3.418
10570SOL    HW232610   0.740   5.520   3.433
10571SOL     OW32611   0.198   4.453   5.816
10571SOL    HW132612   0.263   4.526   5.840
10571SOL    HW232613   0.118   4.459   5.875
10572SOL     OW32614   6.394   4.350   3.529
10572SOL    HW132615   6.398   4.300   3.615
10572SOL    HW232616   6.474   4.410   3.521
10573SOL     OW32617   4.893   0.596   5.170
10573SOL    HW132618   4.906   0.525   5.102
10573SOL    HW232619   4.925   0.564   5.259
10574SOL     OW32620   1.749   1.529   4.141
10574SOL    HW132621   1.817   1.458   4.124
10574SOL    HW232622   1.795   1.616   4.161
10575SOL     OW32623   6.657   1.572   4.197
10575SOL    HW132624   6.683   1.650   4.139
10575SOL    HW232625   6.739   1.537   4.243
10576SOL     OW32626   0.200   5.536   5.103
10576SOL    HW132627   0.126   5.591   5.063
10576SOL    HW232628   0.261   5.595   5.155
10577SOL     OW32629   1.763   4.470   0.229
10577SOL    HW132630   1.711   4.450   0.312
10577SOL    HW232631   1.816   4.390   0.203
10578SOL     OW32632   4.719   1.166   2.809
10578SOL    HW132633   4.783   1.106   2.857
10578SOL    HW232634   4.750   1.177   2.714
10579SOL     OW32635   4.383   2.772   1.356
10579SOL    HW132636   4.296   2.794   1.399
10579SOL    HW232637   4.445   2.733   1.423
10580SOL     OW32638   6.763   0.187   6.413
10580SOL    HW132639   6.824   0.263   6.391
10580SOL    HW232640   6.681   0.222   6.458
10581SOL     OW32641   6.488   0.102   3.405
10581SOL    HW132642   6.513   0.173   3.339
10581SOL    HW232643   6.522   0.013   3.374
10582SOL     OW32644   4.853   4.680   5.976
10582SOL    HW132645   4.917   4.681   6.053
10582SOL    HW232646   4.904   4.684   5.890
10583SOL     OW32647   4.212   0.799   3.669
10583SOL    HW132648   4.297   0.809   3.617
10583SOL    HW232649   4.206   0.705   3.704
10584SOL     OW32650   6.569   0.118   0.928
10584SOL    HW132651   6.609   0.085   0.842
10584SOL    HW232652   6.630   0.186   0.969
10585SOL     OW32653   2.138   1.787   5.455
10585SOL    HW132654   2.189   1.871   5.436
10585SOL    HW232655   2.184   1.736   5.527
10586SOL     OW32656   6.754   5.528   4.244
10586SOL    HW132657   6.759   5.621   4.206
10586SOL    HW232658   6.789   5.529   4.338
10587SOL     OW32659   6.292   4.424   0.162
10587SOL    HW132660   6.352   4.347   0.139
10587SOL    HW232661   6.202   4.408   0.122
10588SOL     OW32662   1.372   3.592   4.399
10588SOL    HW132663   1.386   3.617   4.495
10588SOL    HW232664   1.357   3.675   4.345
10589SOL     OW32665   6.093   0.886   4.517
10589SOL    HW132666   6.105   0.947   4.595
10589SOL    HW232667   6.179   0.880   4.467
10590SOL     OW32668   0.696   0.316   1.533
10590SOL    HW132669   0.631   0.251   1.572
10590SOL    HW232670   0.679   0.324   1.435
10591SOL     OW32671   2.038   2.269   6.581
10591SOL    HW132672   1.980   2.332   6.530
10591SOL    HW232673   1.988   2.184   6.598
10592SOL     OW32674   5.376   3.492   2.453
10592SOL    HW132675   5.391   3.489   2.355
10592SOL    HW232676   5.287   3.452   2.475
10593SOL     OW32677   2.074   6.295   0.495
10593SOL    HW132678   2.145   6.229   0.472
10593SOL    HW232679   2.084   6.322   0.591
10594SOL     OW32680   4.924   0.846   2.674
10594SOL    HW132681   5.023   0.838   2.670
10594SOL    HW232682   4.896   0.932   2.632
10595SOL     OW32683   4.929   6.177   0.075
10595SOL    HW132684   4.997   6.250   0.079
10595SOL    HW232685   4.974   6.089   0.086
10596SOL     OW32686   4.292   7.019   0.100
10596SOL    HW132687   4.243   0.053   0.037
10596SOL    HW232688   4.226   6.969   0.156
10597SOL     OW32689   3.614   1.304   5.477
10597SOL    HW132690   3.667   1.376   5.523
10597SOL    HW232691   3.554   1.346   5.409
10598SOL     OW32692   3.598   2.674   6.752
10598SOL    HW132693   3.508   2.632   6.745
10598SOL    HW232694   3.667   2.614   6.711
10599SOL     OW32695   5.221   3.369   6.049
10599SOL    HW132696   5.168   3.433   5.994
10599SOL    HW232697   5.169   3.343   6.130
10600SOL     OW32698   2.723   2.624   0.654
10600SOL    HW132699   2.636   2.606   0.606
10600SOL    HW232700   2.775   2.692   0.603
10601SOL     OW32701   2.208   4.548   4.927
10601SOL    HW132702   2.118   4.577   4.961
10601SOL    HW232703   2.210   4.448   4.920
10602SOL     OW32704   3.171   0.879   1.976
10602SOL    HW132705   3.236   0.878   1.900
10602SOL    HW232706   3.196   0.950   2.041
10603SOL     OW32707   3.749   6.887   3.388
10603SOL    HW132708   3.830   6.930   3.429
10603SOL    HW232709   3.694   6.956   3.341
10604SOL     OW32710   6.077   5.388   4.983
10604SOL    HW132711   6.177   5.384   4.984
10604SOL    HW232712   6.047   5.470   5.032
10605SOL     OW32713   1.618   6.432   6.855
10605SOL    HW132714   1.552   6.495   6.815
10605SOL    HW232715   1.623   6.448   6.954
10606SOL     OW32716   6.690   1.025   2.440
10606SOL    HW132717   6.787   1.009   2.422
10606SOL    HW232718   6.652   1.086   2.370
10607SOL     OW32719   4.132   5.248   5.520
10607SOL    HW132720   4.122   5.283   5.427
10607SOL    HW232721   4.154   5.323   5.583
10608SOL     OW32722   5.892   2.821   5.863
10608SOL    HW132723   5.988   2.812   5.888
10608SOL    HW232724   5.885   2.856   5.769
10609SOL     OW32725   2.432   6.370   6.994
10609SOL    HW132726   2.421   6.375   0.066
10609SOL    HW232727   2.344   6.392   6.950
10610SOL     OW32728   0.840   2.013   4.982
10610SOL    HW132729   0.765   2.068   4.943
10610SOL    HW232730   0.927   2.055   4.959
10611SOL     OW32731   2.805   3.926   6.363
10611SOL    HW132732   2.880   3.967   6.312
10611SOL    HW232733   2.724   3.985   6.357
10612SOL     OW32734   3.762   1.609   4.616
10612SOL    HW132735   3.828   1.647   4.682
10612SOL    HW232736   3.695   1.679   4.591
10613SOL     OW32737   5.700   6.227   5.457
10613SOL    HW132738   5.659   6.237   5.547
10613SOL    HW232739   5.760   6.306   5.440
10614SOL     OW32740   5.773   1.750   4.575
10614SOL    HW132741   5.746   1.723   4.667
10614SOL    HW232742   5.831   1.831   4.579
10615SOL     OW32743   4.296   0.084   5.555
10615SOL    HW132744   4.249   0.008   5.512
10615SOL    HW232745   4.370   0.050   5.613
10616SOL     OW32746   3.017   6.675   0.940
10616SOL    HW132747   3.100   6.623   0.920
10616SOL    HW232748   2.937   6.618   0.922
10617SOL     OW32749   3.119   3.264   1.480
10617SOL    HW132750   3.104   3.171   1.448
10617SOL    HW232751   3.164   3.261   1.570
10618SOL     OW32752   0.740   3.774   6.057
10618SOL    HW132753   0.658   3.806   6.104
10618SOL    HW232754   0.805   3.849   6.046
10619SOL     OW32755   6.930   4.008   2.065
10619SOL    HW132756   6.846   4.016   2.011
10619SOL    HW232757   6.919   4.060   2.150
10620SOL     OW32758   0.916   5.595   5.189
10620SOL    HW132759   0.816   5.599   5.181
10620SOL    HW232760   0.957   5.625   5.103
10621SOL     OW32761   0.897   5.593   1.744
10621SOL    HW132762   0.798   5.592   1.730
10621SOL    HW232763   0.917   5.628   1.836
10622SOL     OW32764   5.245   2.076   1.419
10622SOL    HW132765   5.232   1.983   1.451
10622SOL    HW232766   5.272   2.134   1.496
10623SOL     OW32767   6.700   4.633   5.092
10623SOL    HW132768   6.711   4.626   5.191
10623SOL    HW232769   6.763   4.570   5.047
10624SOL     OW32770   0.691   3.221   4.678
10624SOL    HW132771   0.783   3.254   4.656
10624SOL    HW232772   0.676   3.228   4.776
10625SOL     OW32773   0.280   4.346   0.867
10625SOL    HW132774   0.240   4.393   0.788
10625SOL    HW232775   0.213   4.343   0.941
10626SOL     OW32776   2.591   3.060   0.648
10626SOL    HW132777   2.586   3.064   0.748
10626SOL    HW232778   2.677   3.100   0.617
10627SOL     OW32779   5.586   6.995   0.756
10627SOL    HW132780   5.532   0.030   0.699
10627SOL    HW232781   5.528   6.956   0.827
10628SOL     OW32782   5.087   6.262   0.414
10628SOL    HW132783   5.027   6.313   0.475
10628SOL    HW232784   5.046   6.258   0.323
10629SOL     OW32785   2.446   4.674   5.229
10629SOL    HW132786   2.375   4.639   5.291
10629SOL    HW232787   2.444   4.622   5.143
10630SOL     OW32788   6.250   1.595   3.541
10630SOL    HW132789   6.153   1.586   3.520
10630SOL    HW232790   6.274   1.536   3.618
10631SOL     OW32791   2.640   5.249   5.083
10631SOL    HW132792   2.564   5.187   5.064
10631SOL    HW232793   2.653   5.311   5.006
10632SOL     OW32794   5.862   1.670   3.814
10632SOL    HW132795   5.859   1.572   3.833
10632SOL    HW232796   5.939   1.710   3.864
10633SOL     OW32797   2.863   2.990   0.961
10633SOL    HW132798   2.922   2.941   0.897
10633SOL    HW232799   2.920   3.037   1.029
10634SOL     OW32800   3.133   5.073   0.900
10634SOL    HW132801   3.180   5.014   0.965
10634SOL    HW232802   3.196   5.145   0.870
10635SOL     OW32803   2.532   2.727   1.035
10635SOL    HW132804   2.614   2.671   1.026
10635SOL    HW232805   2.479   2.697   1.115
10636SOL     OW32806   1.230   1.898   1.564
10636SOL    HW132807   1.316   1.925   1.610
10636SOL    HW232808   1.166   1.864   1.633
10637SOL     OW32809   2.583   4.569   6.502
10637SOL    HW132810   2.642   4.494   6.472
10637SOL    HW232811   2.487   4.539   6.501
10638SOL     OW32812   6.410   5.616   2.826
10638SOL    HW132813   6.450   5.608   2.917
10638SOL    HW232814   6.429   5.707   2.789
10639SOL     OW32815   0.978   3.127   3.665
10639SOL    HW132816   0.885   3.160   3.649
10639SOL    HW232817   1.012   3.080   3.583
10640SOL     OW32818   3.662   0.188   5.261
10640SOL    HW132819   3.618   0.164   5.347
10640SOL    HW232820   3.645   0.284   5.240
10641SOL     OW32821   2.322   1.866   1.860
10641SOL    HW132822   2.361   1.958   1.867
10641SOL    HW232823   2.338   1.830   1.768
10642SOL     OW32824   6.307   2.814   1.833
10642SOL    HW132825   6.345   2.860   1.753
10642SOL    HW232826   6.323   2.716   1.826
10643SOL     OW32827   1.856   5.141   5.069
10643SOL    HW132828   1.892   5.098   5.152
10643SOL    HW232829   1.826   5.234   5.090
10644SOL     OW32830   5.681   2.968   2.837
10644SOL    HW132831   5.644   2.924   2.919
10644SOL    HW232832   5.781   2.972   2.844
10645SOL     OW32833   1.960   2.214   4.835
10645SOL    HW132834   1.958   2.296   4.893
10645SOL    HW232835   1.867   2.186   4.814
10646SOL     OW32836   0.207   0.562   6.609
10646SOL    HW132837   0.264   0.644   6.611
10646SOL    HW232838   0.117   0.586   6.573
10647SOL     OW32839   2.939   5.399   4.925
10647SOL    HW132840   2.943   5.412   5.024
10647SOL    HW232841   3.029   5.421   4.886
10648SOL     OW32842   5.666   4.505   6.222
10648SOL    HW132843   5.741   4.457   6.267
10648SOL    HW232844   5.664   4.600   6.253
10649SOL     OW32845   0.062   4.679   2.390
10649SOL    HW132846   0.004   4.690   2.310
10649SOL    HW232847   0.154   4.654   2.361
10650SOL     OW32848   1.318   0.177   3.718
10650SOL    HW132849   1.380   0.196   3.642
10650SOL    HW232850   1.232   0.141   3.682
10651SOL     OW32851   5.513   5.827   6.356
10651SOL    HW132852   5.581   5.754   6.347
10651SOL    HW232853   5.517   5.865   6.449
10652SOL     OW32854   3.519   7.021   5.777
10652SOL    HW132855   3.590   7.001   5.845
10652SOL    HW232856   3.467   6.938   5.758
10653SOL     OW32857   4.504   4.561   3.989
10653SOL    HW132858   4.430   4.586   4.052
10653SOL    HW232859   4.591   4.594   4.025
10654SOL     OW32860   5.306   1.088   0.468
10654SOL    HW132861   5.220   1.044   0.442
10654SOL    HW232862   5.353   1.031   0.536
10655SOL     OW32863   2.104   5.450   0.747
10655SOL    HW132864   2.172   5.377   0.751
10655SOL    HW232865   2.111   5.507   0.829
10656SOL     OW32866   6.703   2.355   2.642
10656SOL    HW132867   6.737   2.261   2.638
10656SOL    HW232868   6.606   2.356   2.621
10657SOL     OW32869   6.591   6.968   5.976
10657SOL    HW132870   6.534   0.009   6.022
10657SOL    HW232871   6.574   6.878   6.016
10658SOL     OW32872   6.289   4.194   5.071
10658SOL    HW132873   6.206   4.242   5.099
10658SOL    HW232874   6.272   4.144   4.986
10659SOL     OW32875   6.728   5.840   1.076
10659SOL    HW132876   6.652   5.797   1.125
10659SOL    HW232877   6.766   5.913   1.133
10660SOL     OW32878   5.059   4.457   6.841
10660SOL    HW132879   5.023   4.401   6.766
10660SOL    HW232880   5.113   4.533   6.803
10661SOL     OW32881   1.361   0.375   2.008
10661SOL    HW132882   1.419   0.323   1.945
10661SOL    HW232883   1.280   0.321   2.030
10662SOL     OW32884   5.606   0.029   2.844
10662SOL    HW132885   5.621   0.106   2.782
10662SOL    HW232886   5.508   0.008   2.848
10663SOL     OW32887   0.683   1.278   1.664
10663SOL    HW132888   0.685   1.378   1.668
10663SOL    HW232889   0.598   1.245   1.704
10664SOL     OW32890   0.290   4.593   5.479
10664SOL    HW132891   0.267   4.597   5.382
10664SOL    HW232892   0.212   4.555   5.530
10665SOL     OW32893   1.161   1.066   0.434
10665SOL    HW132894   1.260   1.059   0.430
10665SOL    HW232895   1.134   1.119   0.515
10666SOL     OW32896   3.236   4.143   1.318
10666SOL    HW132897   3.295   4.118   1.243
10666SOL    HW232898   3.241   4.073   1.390
10667SOL     OW32899   3.771   3.442   5.439
10667SOL    HW132900   3.845   3.392   5.395
10667SOL    HW232901   3.755   3.406   5.530
10668SOL     OW32902   1.964   0.773   4.860
10668SOL    HW132903   1.972   0.678   4.830
10668SOL    HW232904   1.879   0.785   4.910
10669SOL     OW32905   5.590   6.832   1.234
10669SOL    HW132906   5.550   6.745   1.206
10669SOL    HW232907   5.680   6.842   1.192
10670SOL     OW32908   5.225   3.436   5.227
10670SOL    HW132909   5.236   3.476   5.318
10670SOL    HW232910   5.315   3.415   5.189
10671SOL     OW32911   2.431   2.555   3.348
10671SOL    HW132912   2.347   2.548   3.293
10671SOL    HW232913   2.506   2.507   3.301
10672SOL     OW32914   6.076   2.807   0.360
10672SOL    HW132915   6.083   2.866   0.440
10672SOL    HW232916   6.048   2.862   0.281
10673SOL     OW32917   1.338   1.129   6.821
10673SOL    HW132918   1.412   1.160   6.761
10673SOL    HW232919   1.279   1.207   6.843
10674SOL     OW32920   3.399   3.912   1.696
10674SOL    HW132921   3.377   3.997   1.743
10674SOL    HW232922   3.471   3.929   1.629
10675SOL     OW32923   1.847   6.685   6.880
10675SOL    HW132924   1.817   6.762   6.936
10675SOL    HW232925   1.811   6.694   6.787
10676SOL     OW32926   6.842   6.202   6.315
10676SOL    HW132927   6.876   6.112   6.342
10676SOL    HW232928   6.743   6.196   6.298
10677SOL     OW32929   0.859   0.815   2.748
10677SOL    HW132930   0.834   0.857   2.836
10677SOL    HW232931   0.958   0.815   2.738
10678SOL     OW32932   3.258   5.798   3.827
10678SOL    HW132933   3.331   5.810   3.894
10678SOL    HW232934   3.195   5.727   3.859
10679SOL     OW32935   4.451   5.873   6.566
10679SOL    HW132936   4.425   5.956   6.615
10679SOL    HW232937   4.506   5.815   6.627
10680SOL     OW32938   2.779   1.795   3.222
10680SOL    HW132939   2.758   1.857   3.297
10680SOL    HW232940   2.782   1.846   3.136
10681SOL     OW32941   1.228   3.568   0.246
10681SOL    HW132942   1.147   3.509   0.246
10681SOL    HW232943   1.301   3.523   0.193
10682SOL     OW32944   1.920   1.085   4.264
10682SOL    HW132945   2.017   1.062   4.260
10682SOL    HW232946   1.890   1.080   4.359
10683SOL     OW32947   3.336   2.097   4.104
10683SOL    HW132948   3.430   2.063   4.098
10683SOL    HW232949   3.296   2.103   4.013
10684SOL     OW32950   5.056   4.053   1.047
10684SOL    HW132951   5.103   4.140   1.057
10684SOL    HW232952   5.022   4.023   1.137
10685SOL     OW32953   0.486   6.004   2.557
10685SOL    HW132954   0.420   6.070   2.594
10685SOL    HW232955   0.505   6.027   2.462
10686SOL     OW32956   1.747   4.835   6.230
10686SOL    HW132957   1.740   4.927   6.268
10686SOL    HW232958   1.749   4.840   6.130
10687SOL     OW32959   6.921   5.393   1.818
10687SOL    HW132960   7.008   5.423   1.856
10687SOL    HW232961   6.854   5.467   1.824
10688SOL     OW32962   5.930   4.407   2.795
10688SOL    HW132963   5.934   4.462   2.879
10688SOL    HW232964   5.993   4.446   2.728
10689SOL     OW32965   0.669   6.736   3.777
10689SOL    HW132966   0.704   6.786   3.698
10689SOL    HW232967   0.573   6.715   3.764
10690SOL     OW32968   6.775   6.582   2.868
10690SOL    HW132969   6.763   6.489   2.834
10690SOL    HW232970   6.749   6.586   2.964
10691SOL     OW32971   0.411   1.964   2.196
10691SOL    HW132972   0.423   1.949   2.294
10691SOL    HW232973   0.500   1.976   2.153
10692SOL     OW32974   2.915   5.312   2.770
10692SOL    HW132975   2.936   5.260   2.853
10692SOL    HW232976   2.878   5.251   2.700
10693SOL     OW32977   2.826   0.114   0.367
10693SOL    HW132978   2.782   0.029   0.339
10693SOL    HW232979   2.897   0.094   0.435
10694SOL     OW32980   5.333   6.646   1.650
10694SOL    HW132981   5.292   6.705   1.719
10694SOL    HW232982   5.418   6.607   1.685
10695SOL     OW32983   5.609   2.120   2.847
10695SOL    HW132984   5.610   2.105   2.748
10695SOL    HW232985   5.525   2.167   2.873
10696SOL     OW32986   6.762   3.801   3.583
10696SOL    HW132987   6.845   3.853   3.565
10696SOL    HW232988   6.731   3.820   3.676
10697SOL     OW32989   0.549   5.481   4.801
10697SOL    HW132990   0.527   5.552   4.868
10697SOL    HW232991   0.558   5.523   4.710
10698SOL     OW32992   3.859   5.601   4.703
10698SOL    HW132993   3.830   5.505   4.697
10698SOL    HW232994   3.957   5.608   4.687
10699SOL     OW32995   3.981   2.859   1.648
10699SOL    HW132996   3.948   2.908   1.729
10699SOL    HW232997   3.902   2.825   1.596
10700SOL     OW32998   0.851   7.008   0.875
10700SOL    HW132999   0.799   6.977   0.796
10700SOL    HW233000   0.789   0.018   0.944
10701SOL     OW33001   3.149   5.891   0.020
10701SOL    HW133002   3.215   5.837   0.072
10701SOL    HW233003   3.056   5.869   0.052
10702SOL     OW33004   6.161   2.502   2.203
10702SOL    HW133005   6.141   2.435   2.132
10702SOL    HW233006   6.116   2.589   2.181
10703SOL     OW33007   3.057   3.140   4.402
10703SOL    HW133008   3.025   3.131   4.308
10703SOL    HW233009   3.111   3.060   4.427
10704SOL     OW33010   5.921   5.540   1.096
10704SOL    HW133011   5.836   5.565   1.142
10704SOL    HW233012   5.994   5.602   1.125
10705SOL     OW33013   6.535   4.291   2.423
10705SOL    HW133014   6.596   4.325   2.352
10705SOL    HW233015   6.492   4.368   2.470
10706SOL     OW33016   4.480   6.681   2.405
10706SOL    HW133017   4.463   6.774   2.438
10706SOL    HW233018   4.443   6.615   2.470
10707SOL     OW33019   0.447   7.014   3.830
10707SOL    HW133020   0.412   6.922   3.810
10707SOL    HW233021   0.530   7.006   3.885
10708SOL     OW33022   4.287   0.701   2.536
10708SOL    HW133023   4.262   0.707   2.440
10708SOL    HW233024   4.330   0.786   2.566
10709SOL     OW33025   6.140   7.024   5.039
10709SOL    HW133026   6.154   0.004   5.137
10709SOL    HW233027   6.180   6.938   5.006
10710SOL     OW33028   0.283   6.439   4.581
10710SOL    HW133029   0.363   6.419   4.525
10710SOL    HW233030   0.254   6.533   4.566
10711SOL     OW33031   1.729   6.466   3.322
10711SOL    HW133032   1.801   6.522   3.363
10711SOL    HW233033   1.750   6.448   3.226
10712SOL     OW33034   2.834   1.249   1.266
10712SOL    HW133035   2.870   1.167   1.222
10712SOL    HW233036   2.813   1.318   1.197
10713SOL     OW33037   0.559   3.659   1.933
10713SOL    HW133038   0.641   3.697   1.976
10713SOL    HW233039   0.567   3.559   1.930
10714SOL     OW33040   6.653   3.910   5.791
10714SOL    HW133041   6.557   3.914   5.819
10714SOL    HW233042   6.711   3.947   5.864
10715SOL     OW33043   4.593   0.195   2.991
10715SOL    HW133044   4.658   0.204   3.067
10715SOL    HW233045   4.618   0.116   2.935
10716SOL     OW33046   6.184   2.728   4.543
10716SOL    HW133047   6.191   2.662   4.617
10716SOL    HW233048   6.160   2.818   4.581
10717SOL     OW33049   1.256   2.701   0.802
10717SOL    HW133050   1.218   2.758   0.728
10717SOL    HW233051   1.241   2.605   0.780
10718SOL     OW33052   0.275   3.283   6.456
10718SOL    HW133053   0.176   3.286   6.447
10718SOL    HW233054   0.309   3.193   6.427
10719SOL     OW33055   4.853   5.855   0.132
10719SOL    HW133056   4.808   5.792   0.069
10719SOL    HW233057   4.949   5.867   0.106
10720SOL     OW33058   6.617   3.103   5.673
10720SOL    HW133059   6.641   3.174   5.740
10720SOL    HW233060   6.624   3.142   5.581
10721SOL     OW33061   6.416   3.699   5.215
10721SOL    HW133062   6.500   3.702   5.161
10721SOL    HW233063   6.428   3.750   5.300
10722SOL     OW33064   6.798   3.809   0.550
10722SOL    HW133065   6.764   3.729   0.598
10722SOL    HW233066   6.893   3.826   0.574
10723SOL     OW33067   6.963   3.655   6.959
10723SOL    HW133068   6.912   3.588   7.013
10723SOL    HW233069   6.902   3.730   6.932
10724SOL     OW33070   4.375   0.589   7.017
10724SOL    HW133071   4.310   0.638   6.959
10724SOL    HW233072   4.325   0.538   0.060
10725SOL     OW33073   6.883   5.103   3.715
10725SOL    HW133074   6.952   5.167   3.746
10725SOL    HW233075   6.851   5.129   3.624
10726SOL     OW33076   6.109   6.261   5.797
10726SOL    HW133077   6.086   6.293   5.705
10726SOL    HW233078   6.035   6.203   5.831
10727SOL     OW33079   0.966   4.976   3.536
10727SOL    HW133080   1.058   4.986   3.497
10727SOL    HW233081   0.961   5.025   3.623
10728SOL     OW33082   6.522   6.056   1.638
10728SOL    HW133083   6.545   6.089   1.729
10728SOL    HW233084   6.500   6.133   1.578
10729SOL     OW33085   6.030   0.972   2.964
10729SOL    HW133086   6.061   0.907   3.034
10729SOL    HW233087   6.033   1.065   3.002
10730SOL     OW33088   2.757   0.369   1.115
10730SOL    HW133089   2.720   0.456   1.081
10730SOL    HW233090   2.855   0.365   1.097
10731SOL     OW33091   2.326   5.722   6.338
10731SOL    HW133092   2.412   5.679   6.363
10731SOL    HW233093   2.254   5.652   6.331
10732SOL     OW33094   5.494   6.206   2.617
10732SOL    HW133095   5.466   6.302   2.611
10732SOL    HW233096   5.569   6.197   2.681
10733SOL     OW33097   5.707   2.067   6.874
10733SOL    HW133098   5.732   2.019   6.790
10733SOL    HW233099   5.633   2.019   6.920
10734SOL     OW33100   1.323   0.043   6.736
10734SOL    HW133101   1.266   6.988   6.745
10734SOL    HW233102   1.283   0.117   6.790
10735SOL     OW33103   1.825   5.052   2.585
10735SOL    HW133104   1.851   5.103   2.667
10735SOL    HW233105   1.893   4.981   2.567
10736SOL     OW33106   0.682   1.012   3.685
10736SOL    HW133107   0.727   1.101   3.687
10736SOL    HW233108   0.620   1.007   3.607
10737SOL     OW33109   1.735   2.038   0.424
10737SOL    HW133110   1.811   2.025   0.487
10737SOL    HW233111   1.727   1.959   0.364
10738SOL     OW33112   2.399   0.436   2.273
10738SOL    HW133113   2.394   0.469   2.368
10738SOL    HW233114   2.448   0.503   2.217
10739SOL     OW33115   0.725   1.094   2.190
10739SOL    HW133116   0.819   1.064   2.203
10739SOL    HW233117   0.663   1.032   2.238
10740SOL     OW33118   1.481   4.232   6.222
10740SOL    HW133119   1.537   4.220   6.304
10740SOL    HW233120   1.395   4.181   6.233
10741SOL     OW33121   0.348   1.211   3.568
10741SOL    HW133122   0.325   1.307   3.550
10741SOL    HW233123   0.444   1.195   3.544
10742SOL     OW33124   6.202   0.441   1.735
10742SOL    HW133125   6.120   0.460   1.790
10742SOL    HW233126   6.223   0.344   1.739
10743SOL     OW33127   2.499   2.418   3.572
10743SOL    HW133128   2.483   2.458   3.662
10743SOL    HW233129   2.468   2.482   3.502
10744SOL     OW33130   3.332   1.761   2.806
10744SOL    HW133131   3.401   1.724   2.869
10744SOL    HW233132   3.277   1.829   2.853
10745SOL     OW33133   0.667   4.831   0.445
10745SOL    HW133134   0.725   4.789   0.516
10745SOL    HW233135   0.632   4.918   0.479
10746SOL     OW33136   1.937   4.165   1.585
10746SOL    HW133137   1.958   4.234   1.516
10746SOL    HW233138   1.985   4.081   1.563
10747SOL     OW33139   4.532   1.706   3.238
10747SOL    HW133140   4.547   1.805   3.248
10747SOL    HW233141   4.521   1.665   3.329
10748SOL     OW33142   4.865   6.942   1.240
10748SOL    HW133143   4.958   6.911   1.220
10748SOL    HW233144   4.840   7.015   1.176
10749SOL     OW33145   0.345   4.652   2.764
10749SOL    HW133146   0.427   4.605   2.731
10749SOL    HW233147   0.356   4.676   2.860
10750SOL     OW33148   3.828   6.060   4.391
10750SOL    HW133149   3.846   5.962   4.395
10750SOL    HW233150   3.730   6.075   4.377
10751SOL     OW33151   0.860   3.702   5.270
10751SOL    HW133152   0.773   3.673   5.309
10751SOL    HW233153   0.864   3.675   5.174
10752SOL     OW33154   6.197   4.015   6.068
10752SOL    HW133155   6.268   4.053   6.128
10752SOL    HW233156   6.125   3.974   6.124
10753SOL     OW33157   5.391   0.561   3.540
10753SOL    HW133158   5.339   0.514   3.469
10753SOL    HW233159   5.488   0.563   3.516
10754SOL     OW33160   1.919   1.683   3.444
10754SOL    HW133161   1.978   1.755   3.406
10754SOL    HW233162   1.849   1.659   3.377
10755SOL     OW33163   0.489   2.079   0.747
10755SOL    HW133164   0.584   2.103   0.768
10755SOL    HW233165   0.486   1.987   0.708
10756SOL     OW33166   6.229   4.096   0.039
10756SOL    HW133167   6.234   3.997   0.042
10756SOL    HW233168   6.225   4.132   0.132
10757SOL     OW33169   0.303   3.525   0.549
10757SOL    HW133170   0.334   3.603   0.603
10757SOL    HW233171   0.382   3.481   0.507
10758SOL     OW33172   1.605   6.028   4.925
10758SOL    HW133173   1.609   5.946   4.868
10758SOL    HW233174   1.627   6.108   4.870
10759SOL     OW33175   1.762   2.977   6.855
10759SOL    HW133176   1.721   2.993   6.944
10759SOL    HW233177   1.755   2.880   6.832
10760SOL     OW33178   6.953   0.603   0.616
10760SOL    HW133179   7.012   0.551   0.679
10760SOL    HW233180   6.963   0.701   0.636
10761SOL     OW33181   0.748   2.061   5.949
10761SOL    HW133182   0.768   2.116   6.030
10761SOL    HW233183   0.772   2.113   5.867
10762SOL     OW33184   4.119   1.532   4.729
10762SOL    HW133185   4.147   1.608   4.670
10762SOL    HW233186   4.198   1.498   4.780
10763SOL     OW33187   4.626   6.069   0.591
10763SOL    HW133188   4.642   6.019   0.506
10763SOL    HW233189   4.594   6.005   0.661
10764SOL     OW33190   5.750   1.361   5.573
10764SOL    HW133191   5.694   1.279   5.559
10764SOL    HW233192   5.725   1.430   5.505
10765SOL     OW33193   5.756   2.863   1.438
10765SOL    HW133194   5.807   2.947   1.459
10765SOL    HW233195   5.759   2.846   1.339
10766SOL     OW33196   3.322   3.167   0.177
10766SOL    HW133197   3.299   3.255   0.135
10766SOL    HW233198   3.305   3.172   0.276
10767SOL     OW33199   1.484   0.564   0.196
10767SOL    HW133200   1.579   0.571   0.224
10767SOL    HW233201   1.437   0.497   0.254
10768SOL     OW33202   5.350   5.320   1.334
10768SOL    HW133203   5.294   5.403   1.344
10768SOL    HW233204   5.446   5.346   1.329
10769SOL     OW33205   1.909   4.809   4.385
10769SOL    HW133206   1.934   4.798   4.289
10769SOL    HW233207   1.978   4.766   4.443
10770SOL     OW33208   5.278   0.046   4.635
10770SOL    HW133209   5.232   7.008   4.575
10770SOL    HW233210   5.297   0.004   4.723
10771SOL     OW33211   4.415   6.918   4.996
10771SOL    HW133212   4.499   6.960   5.029
10771SOL    HW233213   4.386   6.965   4.912
10772SOL     OW33214   6.392   6.898   3.713
10772SOL    HW133215   6.416   6.839   3.791
10772SOL    HW233216   6.381   6.843   3.631
10773SOL     OW33217   6.327   5.219   6.381
10773SOL    HW133218   6.420   5.187   6.360
10773SOL    HW233219   6.302   5.291   6.317
10774SOL     OW33220   1.566   1.766   6.811
10774SOL    HW133221   1.536   1.723   6.896
10774SOL    HW233222   1.660   1.737   6.790
10775SOL     OW33223   0.717   3.781   1.232
10775SOL    HW133224   0.776   3.720   1.285
10775SOL    HW233225   0.750   3.786   1.138
10776SOL     OW33226   1.099   6.244   0.850
10776SOL    HW133227   1.000   6.251   0.840
10776SOL    HW233228   1.126   6.148   0.846
10777SOL     OW33229   4.183   6.559   4.002
10777SOL    HW133230   4.116   6.506   4.055
10777SOL    HW233231   4.160   6.553   3.905
10778SOL     OW33232   5.653   6.033   5.211
10778SOL    HW133233   5.640   6.047   5.309
10778SOL    HW233234   5.679   5.938   5.194
10779SOL     OW33235   6.032   4.863   3.322
10779SOL    HW133236   6.007   4.938   3.383
10779SOL    HW233237   5.991   4.778   3.355
10780SOL     OW33238   1.417   6.952   2.911
10780SOL    HW133239   1.333   6.931   2.860
10780SOL    HW233240   1.410   6.914   3.003
10781SOL     OW33241   4.016   1.393   3.454
10781SOL    HW133242   3.930   1.372   3.407
10781SOL    HW233243   4.092   1.361   3.398
10782SOL     OW33244   6.786   2.144   3.799
10782SOL    HW133245   6.763   2.057   3.842
10782SOL    HW233246   6.849   2.127   3.723
10783SOL     OW33247   1.321   3.141   3.672
10783SOL    HW133248   1.273   3.203   3.734
10783SOL    HW233249   1.329   3.051   3.714
10784SOL     OW33250   2.847   0.438   2.378
10784SOL    HW133251   2.774   0.375   2.349
10784SOL    HW233252   2.862   0.429   2.476
10785SOL     OW33253   0.834   4.905   0.911
10785SOL    HW133254   0.887   4.971   0.858
10785SOL    HW233255   0.811   4.943   1.000
10786SOL     OW33256   4.873   3.400   1.845
10786SOL    HW133257   4.894   3.360   1.934
10786SOL    HW233258   4.924   3.351   1.774
10787SOL     OW33259   3.100   2.170   4.575
10787SOL    HW133260   3.196   2.197   4.573
10787SOL    HW233261   3.069   2.164   4.670
10788SOL     OW33262   1.837   4.401   0.621
10788SOL    HW133263   1.757   4.452   0.592
10788SOL    HW233264   1.842   4.316   0.569
10789SOL     OW33265   5.864   2.221   0.277
10789SOL    HW133266   5.953   2.177   0.265
10789SOL    HW233267   5.829   2.251   0.188
10790SOL     OW33268   1.281   1.032   3.817
10790SOL    HW133269   1.246   0.944   3.850
10790SOL    HW233270   1.337   1.016   3.736
10791SOL     OW33271   0.470   1.473   1.169
10791SOL    HW133272   0.387   1.432   1.130
10791SOL    HW233273   0.449   1.509   1.260
10792SOL     OW33274   3.729   3.375   1.690
10792SOL    HW133275   3.792   3.436   1.643
10792SOL    HW233276   3.753   3.280   1.670
10793SOL     OW33277   5.389   2.835   4.343
10793SOL    HW133278   5.311   2.896   4.329
10793SOL    HW233279   5.363   2.741   4.321
10794SOL     OW33280   2.981   3.857   3.011
10794SOL    HW133281   3.003   3.760   3.002
10794SOL    HW233282   3.023   3.908   2.936
10795SOL     OW33283   6.649   3.806   3.833
10795SOL    HW133284   6.580   3.823   3.903
10795SOL    HW233285   6.661   3.707   3.822
10796SOL     OW33286   5.106   6.360   0.085
10796SOL    HW133287   5.069   6.453   0.085
10796SOL    HW233288   5.204   6.364   0.069
10797SOL     OW33289   4.502   2.423   1.034
10797SOL    HW133290   4.565   2.447   1.108
10797SOL    HW233291   4.555   2.387   0.957
10798SOL     OW33292   2.109   6.858   0.732
10798SOL    HW133293   2.119   6.942   0.784
10798SOL    HW233294   2.194   6.806   0.733
10799SOL     OW33295   3.666   1.308   1.981
10799SOL    HW133296   3.727   1.321   2.059
10799SOL    HW233297   3.577   1.275   2.014
10800SOL     OW33298   1.195   0.053   0.033
10800SOL    HW133299   1.200   0.140   7.011
10800SOL    HW233300   1.274   0.044   0.092
10801SOL     OW33301   1.035   0.084   4.877
10801SOL    HW133302   1.114   0.126   4.833
10801SOL    HW233303   0.979   0.154   4.920
10802SOL     OW33304   1.988   2.971   4.551
10802SOL    HW133305   2.039   2.891   4.519
10802SOL    HW233306   1.961   2.957   4.646
10803SOL     OW33307   4.100   4.075   5.467
10803SOL    HW133308   4.033   4.060   5.539
10803SOL    HW233309   4.056   4.120   5.389
10804SOL     OW33310   6.655   4.145   1.564
10804SOL    HW133311   6.718   4.188   1.499
10804SOL    HW233312   6.566   4.131   1.520
10805SOL     OW33313   3.107   6.614   6.499
10805SOL    HW133314   3.176   6.685   6.485
10805SOL    HW233315   3.151   6.527   6.521
10806SOL     OW33316   5.048   4.547   6.528
10806SOL    HW133317   5.070   4.460   6.484
10806SOL    HW233318   5.113   4.565   6.602
10807SOL     OW33319   2.720   0.043   3.402
10807SOL    HW133320   2.761   0.023   3.313
10807SOL    HW233321   2.660   6.995   3.428
10808SOL     OW33322   6.623   4.118   6.687
10808SOL    HW133323   6.604   4.159   6.598
10808SOL    HW233324   6.588   4.178   6.759
10809SOL     OW33325   2.373   6.181   3.680
10809SOL    HW133326   2.367   6.240   3.599
10809SOL    HW233327   2.439   6.219   3.744
10810SOL     OW33328   1.724   0.056   4.751
10810SOL    HW133329   1.788   7.019   4.795
10810SOL    HW233330   1.634   0.048   4.794
10811SOL     OW33331   4.711   4.702   5.601
10811SOL    HW133332   4.629   4.679   5.547
10811SOL    HW233333   4.787   4.645   5.571
10812SOL     OW33334   0.661   3.699   2.290
10812SOL    HW133335   0.697   3.705   2.197
10812SOL    HW233336   0.667   3.789   2.333
10813SOL     OW33337   1.562   6.096   0.085
10813SOL    HW133338   1.660   6.117   0.090
10813SOL    HW233339   1.513   6.146   0.156
10814SOL     OW33340   1.469   6.789   0.006
10814SOL    HW133341   1.562   6.823   0.022
10814SOL    HW233342   1.450   6.714   0.069
10815SOL     OW33343   5.052   5.049   3.118
10815SOL    HW133344   5.079   4.989   3.194
10815SOL    HW233345   5.050   5.144   3.149
10816SOL     OW33346   1.171   1.798   1.922
10816SOL    HW133347   1.157   1.708   1.962
10816SOL    HW233348   1.269   1.819   1.918
10817SOL     OW33349   5.362   0.359   2.517
10817SOL    HW133350   5.291   0.428   2.500
10817SOL    HW233351   5.452   0.398   2.496
10818SOL     OW33352   4.347   4.336   5.385
10818SOL    HW133353   4.284   4.370   5.315
10818SOL    HW233354   4.350   4.236   5.381
10819SOL     OW33355   6.842   4.412   0.192
10819SOL    HW133356   6.752   4.395   0.232
10819SOL    HW233357   6.834   4.416   0.093
10820SOL     OW33358   5.872   5.838   4.190
10820SOL    HW133359   5.810   5.888   4.130
10820SOL    HW233360   5.838   5.842   4.284
10821SOL     OW33361   5.714   6.406   1.943
10821SOL    HW133362   5.680   6.387   2.036
10821SOL    HW233363   5.794   6.349   1.925
10822SOL     OW33364   0.978   2.774   2.837
10822SOL    HW133365   0.880   2.787   2.820
10822SOL    HW233366   1.008   2.840   2.906
10823SOL     OW33367   1.519   5.201   2.129
10823SOL    HW133368   1.568   5.137   2.188
10823SOL    HW233369   1.565   5.290   2.129
10824SOL     OW33370   4.953   0.143   3.939
10824SOL    HW133371   4.933   0.045   3.948
10824SOL    HW233372   5.048   0.155   3.909
10825SOL     OW33373   2.809   0.429   6.475
10825SOL    HW133374   2.747   0.360   6.514
10825SOL    HW233375   2.903   0.395   6.478
10826SOL     OW33376   0.639   3.633   3.913
10826SOL    HW133377   0.630   3.704   3.843
10826SOL    HW233378   0.734   3.602   3.917
10827SOL     OW33379   5.841   3.754   4.470
10827SOL    HW133380   5.867   3.748   4.373
10827SOL    HW233381   5.887   3.833   4.511
10828SOL     OW33382   1.169   5.606   2.134
10828SOL    HW133383   1.075   5.599   2.102
10828SOL    HW233384   1.176   5.571   2.227
10829SOL     OW33385   3.799   2.167   0.429
10829SOL    HW133386   3.843   2.183   0.517
10829SOL    HW233387   3.722   2.103   0.442
10830SOL     OW33388   5.635   2.155   3.820
10830SOL    HW133389   5.669   2.238   3.777
10830SOL    HW233390   5.710   2.107   3.865
10831SOL     OW33391   3.972   6.044   1.930
10831SOL    HW133392   4.011   6.130   1.962
10831SOL    HW233393   3.956   5.983   2.007
10832SOL     OW33394   0.281   2.073   0.541
10832SOL    HW133395   0.222   2.146   0.576
10832SOL    HW233396   0.368   2.074   0.590
10833SOL     OW33397   1.384   1.217   3.527
10833SOL    HW133398   1.305   1.211   3.466
10833SOL    HW233399   1.357   1.263   3.612
10834SOL     OW33400   1.388   2.193   6.161
10834SOL    HW133401   1.467   2.133   6.165
10834SOL    HW233402   1.388   2.254   6.241
10835SOL     OW33403   6.185   1.776   1.074
10835SOL    HW133404   6.218   1.694   1.028
10835SOL    HW233405   6.255   1.848   1.070
10836SOL     OW33406   6.509   1.213   4.649
10836SOL    HW133407   6.558   1.297   4.624
10836SOL    HW233408   6.430   1.236   4.705
10837SOL     OW33409   0.485   5.107   0.255
10837SOL    HW133410   0.393   5.072   0.238
10837SOL    HW233411   0.481   5.205   0.273
10838SOL     OW33412   5.919   6.439   4.991
10838SOL    HW133413   5.897   6.344   5.014
10838SOL    HW233414   5.881   6.461   4.901
10839SOL     OW33415   3.308   3.198   0.425
10839SOL    HW133416   3.306   3.156   0.515
10839SOL    HW233417   3.394   3.247   0.412
10840SOL     OW33418   4.001   5.352   1.404
10840SOL    HW133419   4.023   5.264   1.362
10840SOL    HW233420   3.902   5.362   1.410
10841SOL     OW33421   3.865   6.613   0.427
10841SOL    HW133422   3.775   6.610   0.470
10841SOL    HW233423   3.901   6.520   0.418
10842SOL     OW33424   5.286   3.294   1.204
10842SOL    HW133425   5.286   3.197   1.226
10842SOL    HW233426   5.377   3.332   1.220
10843SOL     OW33427   1.116   2.186   1.869
10843SOL    HW133428   1.081   2.118   1.933
10843SOL    HW233429   1.042   2.216   1.808
10844SOL     OW33430   0.285   7.020   4.075
10844SOL    HW133431   0.296   6.957   4.152
10844SOL    HW233432   0.375   0.010   4.034
10845SOL     OW33433   3.213   0.470   0.088
10845SOL    HW133434   3.219   0.515   7.027
10845SOL    HW233435   3.118   0.442   0.104
10846SOL     OW33436   4.977   3.169   0.814
10846SOL    HW133437   4.952   3.073   0.801
10846SOL    HW233438   4.930   3.226   0.746
10847SOL     OW33439   3.581   2.915   6.530
10847SOL    HW133440   3.663   2.968   6.507
10847SOL    HW233441   3.595   2.867   6.616
10848SOL     OW33442   3.195   2.197   6.620
10848SOL    HW133443   3.156   2.265   6.557
10848SOL    HW233444   3.268   2.147   6.574
10849SOL     OW33445   2.454   4.568   2.906
10849SOL    HW133446   2.500   4.597   2.990
10849SOL    HW233447   2.383   4.501   2.929
10850SOL     OW33448   4.269   6.178   7.003
10850SOL    HW133449   4.358   6.224   6.995
10850SOL    HW233450   4.280   6.080   6.988
10851SOL     OW33451   3.233   2.792   6.356
10851SOL    HW133452   3.149   2.784   6.302
10851SOL    HW233453   3.210   2.797   6.453
10852SOL     OW33454   0.272   6.481   6.361
10852SOL    HW133455   0.291   6.428   6.279
10852SOL    HW233456   0.209   6.430   6.420
10853SOL     OW33457   3.706   1.577   5.935
10853SOL    HW133458   3.736   1.527   5.854
10853SOL    HW233459   3.626   1.633   5.911
10854SOL     OW33460   6.008   6.320   5.542
10854SOL    HW133461   5.914   6.352   5.537
10854SOL    HW233462   6.058   6.347   5.460
10855SOL     OW33463   2.830   6.172   2.052
10855SOL    HW133464   2.762   6.099   2.053
10855SOL    HW233465   2.784   6.260   2.037
10856SOL     OW33466   6.113   1.633   2.356
10856SOL    HW133467   6.160   1.586   2.281
10856SOL    HW233468   6.148   1.726   2.364
10857SOL     OW33469   5.724   3.503   3.451
10857SOL    HW133470   5.689   3.444   3.524
10857SOL    HW233471   5.666   3.583   3.442
10858SOL     OW33472   0.764   2.212   6.588
10858SOL    HW133473   0.683   2.191   6.643
10858SOL    HW233474   0.768   2.311   6.572
10859SOL     OW33475   2.173   3.964   3.914
10859SOL    HW133476   2.184   3.957   3.814
10859SOL    HW233477   2.179   3.874   3.955
10860SOL     OW33478   6.489   1.316   6.112
10860SOL    HW133479   6.577   1.267   6.116
10860SOL    HW233480   6.504   1.413   6.131
10861SOL     OW33481   3.862   2.974   2.715
10861SOL    HW133482   3.783   2.944   2.769
10861SOL    HW233483   3.925   3.025   2.772
10862SOL     OW33484   3.028   1.553   6.556
10862SOL    HW133485   3.088   1.478   6.584
10862SOL    HW233486   3.076   1.610   6.489
10863SOL     OW33487   4.132   0.355   2.278
10863SOL    HW133488   4.049   0.316   2.319
10863SOL    HW233489   4.211   0.329   2.333
10864SOL     OW33490   2.438   5.195   0.829
10864SOL    HW133491   2.480   5.245   0.754
10864SOL    HW233492   2.420   5.100   0.800
10865SOL     OW33493   5.482   1.584   3.850
10865SOL    HW133494   5.416   1.653   3.880
10865SOL    HW233495   5.505   1.600   3.754
10866SOL     OW33496   5.051   5.211   0.929
10866SOL    HW133497   5.106   5.276   0.982
10866SOL    HW233498   5.112   5.158   0.869
10867SOL     OW33499   3.372   4.381   0.143
10867SOL    HW133500   3.396   4.308   0.207
10867SOL    HW233501   3.378   4.470   0.189
10868SOL     OW33502   1.889   2.002   3.986
10868SOL    HW133503   1.812   1.944   4.013
10868SOL    HW233504   1.954   1.948   3.932
10869NA      NA33505   0.267   2.291   6.234
10870NA      NA33506   4.464   4.503   5.247
10871NA      NA33507   2.424   4.491   2.201
10872NA      NA33508   4.847   4.007   3.766
10873NA      NA33509   4.377   2.426   5.211
10874NA      NA33510   3.206   4.521   1.512
10875NA      NA33511   0.866   4.541   0.054
10876NA      NA33512   3.584   3.904   2.355
10877NA      NA33513   4.768   4.902   1.287
10878NA      NA33514   3.539   0.207   5.675
10879NA      NA33515   6.169   5.621   0.717
10880NA      NA33516   2.232   0.649   5.163
10881NA      NA33517   4.121   4.764   1.768
10882NA      NA33518   4.103   2.709   1.173
   7.02715   7.02715   7.02715
