Generated by trjconv : CNT in water t= 311.00000
33518
    1C        C    1   2.845   2.771   4.747
    1C        C    2   2.899   2.723   4.868
    1C        C    3   2.845   2.776   4.986
    1C        C    4   2.850   2.774   4.259
    1C        C    5   2.902   2.726   4.381
    1C        C    6   2.846   2.768   4.504
    1C        C    7   3.013   2.640   4.626
    1C        C    8   2.895   2.718   4.626
    1C        C    9   3.074   2.597   4.747
    1C        C   10   3.006   2.631   4.866
    1C        C   11   3.180   2.493   4.976
    1C        C   12   3.065   2.572   4.978
    1C        C   13   2.848   2.770   3.769
    1C        C   14   2.900   2.719   3.890
    1C        C   15   2.847   2.769   4.011
    1C        C   16   3.013   2.642   4.137
    1C        C   17   2.900   2.727   4.135
    1C        C   18   3.076   2.608   4.259
    1C        C   19   3.017   2.644   4.383
    1C        C   20   3.208   2.555   4.501
    1C        C   21   3.077   2.606   4.505
    1C        C   22   3.276   2.533   4.623
    1C        C   23   3.203   2.538   4.744
    1C        C   24   3.411   2.477   4.861
    1C        C   25   3.269   2.495   4.863
    1C        C   26   3.490   2.469   4.976
    1C        C   27   2.844   2.764   3.282
    1C        C   28   2.901   2.722   3.405
    1C        C   29   2.848   2.770   3.526
    1C        C   30   3.017   2.639   3.650
    1C        C   31   2.903   2.724   3.648
    1C        C   32   3.077   2.600   3.771
    1C        C   33   3.015   2.636   3.893
    1C        C   34   3.206   2.553   4.018
    1C        C   35   3.073   2.600   4.017
    1C        C   36   3.277   2.534   4.139
    1C        C   37   3.206   2.554   4.260
    1C        C   38   3.416   2.507   4.380
    1C        C   39   3.278   2.537   4.380
    1C        C   40   3.487   2.502   4.502
    1C        C   41   3.416   2.509   4.623
    1C        C   42   3.630   2.489   4.743
    1C        C   43   3.488   2.487   4.742
    1C        C   44   3.707   2.481   4.862
    1C        C   45   3.629   2.468   4.978
    1C        C   46   2.834   2.749   2.794
    1C        C   47   2.891   2.705   2.916
    1C        C   48   2.842   2.757   3.037
    1C        C   49   3.013   2.636   3.160
    1C        C   50   2.894   2.712   3.161
    1C        C   51   3.080   2.609   3.282
    1C        C   52   3.019   2.644   3.405
    1C        C   53   3.206   2.545   3.527
    1C        C   54   3.080   2.608   3.527
    1C        C   55   3.274   2.527   3.650
    1C        C   56   3.207   2.544   3.773
    1C        C   57   3.414   2.507   3.893
    1C        C   58   3.274   2.530   3.896
    1C        C   59   3.485   2.499   4.014
    1C        C   60   3.415   2.506   4.137
    1C        C   61   3.629   2.501   4.257
    1C        C   62   3.488   2.504   4.258
    1C        C   63   3.700   2.506   4.380
    1C        C   64   3.628   2.503   4.501
    1C        C   65   3.836   2.543   4.622
    1C        C   66   3.702   2.499   4.622
    1C        C   67   3.905   2.565   4.743
    1C        C   68   3.843   2.519   4.862
    1C        C   69   4.058   2.579   4.976
    1C        C   70   3.926   2.534   4.974
    1C        C   71   2.824   2.736   2.308
    1C        C   72   2.886   2.696   2.429
    1C        C   73   2.829   2.741   2.550
    1C        C   74   3.004   2.622   2.672
    1C        C   75   2.885   2.699   2.672
    1C        C   76   3.067   2.586   2.793
    1C        C   77   3.008   2.625   2.915
    1C        C   78   3.205   2.548   3.037
    1C        C   79   3.073   2.599   3.038
    1C        C   80   3.273   2.526   3.159
    1C        C   81   3.208   2.549   3.282
    1C        C   82   3.410   2.491   3.403
    1C        C   83   3.271   2.519   3.404
    1C        C   84   3.482   2.495   3.524
    1C        C   85   3.413   2.503   3.647
    1C        C   86   3.624   2.502   3.768
    1C        C   87   3.483   2.497   3.770
    1C        C   88   3.697   2.507   3.889
    1C        C   89   3.626   2.506   4.011
    1C        C   90   3.832   2.554   4.135
    1C        C   91   3.696   2.515   4.134
    1C        C   92   3.900   2.573   4.257
    1C        C   93   3.838   2.538   4.379
    1C        C   94   4.029   2.633   4.499
    1C        C   95   3.904   2.567   4.501
    1C        C   96   4.095   2.665   4.620
    1C        C   97   4.033   2.627   4.740
    1C        C   98   4.192   2.766   4.862
    1C        C   99   4.099   2.657   4.863
    1C        C  100   4.211   2.844   4.976
    1C        C  101   2.818   2.724   2.069
    1C        C  102   2.988   2.590   2.193
    1C        C  103   2.876   2.680   2.189
    1C        C  104   3.065   2.572   2.311
    1C        C  105   3.003   2.617   2.430
    1C        C  106   3.199   2.530   2.550
    1C        C  107   3.069   2.586   2.551
    1C        C  108   3.268   2.511   2.671
    1C        C  109   3.199   2.536   2.792
    1C        C  110   3.408   2.496   2.915
    1C        C  111   3.269   2.523   2.914
    1C        C  112   3.481   2.491   3.036
    1C        C  113   3.413   2.502   3.159
    1C        C  114   3.623   2.502   3.280
    1C        C  115   3.483   2.490   3.282
    1C        C  116   3.695   2.514   3.401
    1C        C  117   3.624   2.499   3.522
    1C        C  118   3.830   2.543   3.644
    1C        C  119   3.693   2.509   3.645
    1C        C  120   3.898   2.567   3.765
    1C        C  121   3.834   2.545   3.889
    1C        C  122   4.022   2.641   4.012
    1C        C  123   3.897   2.577   4.011
    1C        C  124   4.085   2.676   4.134
    1C        C  125   4.026   2.637   4.256
    1C        C  126   4.198   2.763   4.377
    1C        C  127   4.086   2.677   4.378
    1C        C  128   4.247   2.815   4.499
    1C        C  129   4.196   2.763   4.620
    1C        C  130   4.321   2.940   4.741
    1C        C  131   4.239   2.823   4.740
    1C        C  132   4.354   3.007   4.860
    1C        C  133   4.284   2.962   4.973
    1C        C  134   3.171   2.470   2.082
    1C        C  135   3.040   2.520   2.080
    1C        C  136   3.261   2.477   2.189
    1C        C  137   3.197   2.520   2.307
    1C        C  138   3.405   2.482   2.427
    1C        C  139   3.266   2.503   2.429
    1C        C  140   3.479   2.483   2.548
    1C        C  141   3.408   2.490   2.670
    1C        C  142   3.619   2.504   2.793
    1C        C  143   3.478   2.492   2.792
    1C        C  144   3.692   2.511   2.914
    1C        C  145   3.622   2.502   3.036
    1C        C  146   3.830   2.547   3.157
    1C        C  147   3.692   2.514   3.158
    1C        C  148   3.902   2.569   3.277
    1C        C  149   3.831   2.552   3.398
    1C        C  150   4.023   2.632   3.522
    1C        C  151   3.896   2.572   3.522
    1C        C  152   4.082   2.671   3.644
    1C        C  153   4.021   2.636   3.767
    1C        C  154   4.191   2.766   3.889
    1C        C  155   4.080   2.679   3.888
    1C        C  156   4.247   2.813   4.010
    1C        C  157   4.193   2.767   4.132
    1C        C  158   4.339   2.920   4.252
    1C        C  159   4.249   2.811   4.254
    1C        C  160   4.374   2.984   4.373
    1C        C  161   4.336   2.925   4.495
    1C        C  162   4.433   3.114   4.617
    1C        C  163   4.369   2.989   4.617
    1C        C  164   4.457   3.189   4.734
    1C        C  165   4.428   3.127   4.858
    1C        C  166   4.515   3.322   4.975
    1C        C  167   4.471   3.190   4.975
    1C        C  168   3.478   2.439   2.070
    1C        C  169   3.401   2.457   2.186
    1C        C  170   3.618   2.468   2.306
    1C        C  171   3.475   2.465   2.306
    1C        C  172   3.692   2.483   2.425
    1C        C  173   3.620   2.481   2.547
    1C        C  174   3.824   2.539   2.668
    1C        C  175   3.687   2.506   2.669
    1C        C  176   3.891   2.565   2.789
    1C        C  177   3.829   2.545   2.914
    1C        C  178   4.026   2.629   3.029
    1C        C  179   3.896   2.574   3.035
    1C        C  180   4.090   2.661   3.151
    1C        C  181   4.031   2.626   3.274
    1C        C  182   4.198   2.750   3.399
    1C        C  183   4.086   2.664   3.399
    1C        C  184   4.248   2.802   3.521
    1C        C  185   4.193   2.758   3.643
    1C        C  186   4.338   2.914   3.764
    1C        C  187   4.243   2.810   3.765
    1C        C  188   4.381   2.975   3.885
    1C        C  189   4.343   2.917   4.008
    1C        C  190   4.447   3.102   4.128
    1C        C  191   4.383   2.977   4.130
    1C        C  192   4.473   3.171   4.249
    1C        C  193   4.439   3.109   4.372
    1C        C  194   4.503   3.312   4.490
    1C        C  195   4.463   3.176   4.494
    1C        C  196   4.518   3.386   4.609
    1C        C  197   4.506   3.323   4.734
    1C        C  198   4.549   3.536   4.852
    1C        C  199   4.531   3.394   4.855
    1C        C  200   4.578   3.623   4.962
    1C        C  201   3.617   2.421   2.070
    1C        C  202   3.826   2.513   2.183
    1C        C  203   3.692   2.464   2.185
    1C        C  204   3.897   2.542   2.303
    1C        C  205   3.828   2.523   2.425
    1C        C  206   4.019   2.621   2.543
    1C        C  207   3.894   2.555   2.546
    1C        C  208   4.079   2.661   2.665
    1C        C  209   4.018   2.628   2.788
    1C        C  210   4.199   2.749   2.906
    1C        C  211   4.084   2.667   2.906
    1C        C  212   4.252   2.797   3.028
    1C        C  213   4.200   2.750   3.150
    1C        C  214   4.332   2.910   3.275
    1C        C  215   4.246   2.798   3.275
    1C        C  216   4.373   2.972   3.396
    1C        C  217   4.332   2.915   3.519
    1C        C  218   4.440   3.097   3.637
    1C        C  219   4.376   2.971   3.641
    1C        C  220   4.468   3.166   3.758
    1C        C  221   4.443   3.102   3.881
    1C        C  222   4.507   3.302   4.004
    1C        C  223   4.470   3.166   4.004
    1C        C  224   4.520   3.377   4.123
    1C        C  225   4.508   3.308   4.246
    1C        C  226   4.512   3.521   4.366
    1C        C  227   4.514   3.380   4.367
    1C        C  228   4.515   3.595   4.487
    1C        C  229   4.530   3.527   4.610
    1C        C  230   4.509   3.743   4.726
    1C        C  231   4.539   3.604   4.727
    1C        C  232   4.492   3.817   4.845
    1C        C  233   4.541   3.758   4.962
    1C        C  234   4.017   2.604   2.065
    1C        C  235   3.890   2.548   2.064
    1C        C  236   4.085   2.648   2.179
    1C        C  237   4.021   2.611   2.300
    1C        C  238   4.200   2.731   2.421
    1C        C  239   4.082   2.651   2.421
    1C        C  240   4.256   2.782   2.540
    1C        C  241   4.193   2.745   2.661
    1C        C  242   4.337   2.904   2.782
    1C        C  243   4.247   2.795   2.781
    1C        C  244   4.374   2.964   2.904
    1C        C  245   4.340   2.908   3.030
    1C        C  246   4.444   3.090   3.148
    1C        C  247   4.377   2.966   3.153
    1C        C  248   4.467   3.160   3.269
    1C        C  249   4.440   3.096   3.392
    1C        C  250   4.491   3.301   3.514
    1C        C  251   4.464   3.162   3.514
    1C        C  252   4.509   3.372   3.635
    1C        C  253   4.502   3.303   3.758
    1C        C  254   4.523   3.512   3.875
    1C        C  255   4.517   3.371   3.881
    1C        C  256   4.516   3.587   3.995
    1C        C  257   4.522   3.518   4.119
    1C        C  258   4.492   3.728   4.238
    1C        C  259   4.513   3.588   4.241
    1C        C  260   4.473   3.799   4.359
    1C        C  261   4.488   3.733   4.482
    1C        C  262   4.431   3.939   4.599
    1C        C  263   4.476   3.805   4.603
    1C        C  264   4.404   4.009   4.718
    1C        C  265   4.436   3.946   4.841
    1C        C  266   4.322   4.132   4.956
    1C        C  267   4.404   4.020   4.955
    1C        C  268   4.259   2.774   2.057
    1C        C  269   4.197   2.733   2.177
    1C        C  270   4.345   2.885   2.297
    1C        C  271   4.255   2.775   2.299
    1C        C  272   4.382   2.950   2.417
    1C        C  273   4.345   2.891   2.540
    1C        C  274   4.447   3.084   2.660
    1C        C  275   4.381   2.959   2.659
    1C        C  276   4.475   3.153   2.780
    1C        C  277   4.442   3.088   2.901
    1C        C  278   4.503   3.290   3.025
    1C        C  279   4.470   3.153   3.024
    1C        C  280   4.509   3.365   3.145
    1C        C  281   4.498   3.297   3.269
    1C        C  282   4.517   3.509   3.386
    1C        C  283   4.500   3.369   3.390
    1C        C  284   4.517   3.580   3.508
    1C        C  285   4.516   3.513   3.633
    1C        C  286   4.490   3.724   3.751
    1C        C  287   4.515   3.585   3.754
    1C        C  288   4.470   3.792   3.874
    1C        C  289   4.493   3.726   3.997
    1C        C  290   4.423   3.930   4.116
    1C        C  291   4.471   3.797   4.117
    1C        C  292   4.399   3.997   4.238
    1C        C  293   4.427   3.933   4.361
    1C        C  294   4.327   4.127   4.477
    1C        C  295   4.401   4.007   4.479
    1C        C  296   4.290   4.193   4.596
    1C        C  297   4.330   4.131   4.716
    1C        C  298   4.201   4.309   4.840
    1C        C  299   4.286   4.195   4.836
    1C        C  300   4.170   4.399   4.947
    1C        C  301   4.341   2.886   2.058
    1C        C  302   4.468   3.062   2.177
    1C        C  303   4.395   2.939   2.176
    1C        C  304   4.482   3.139   2.295
    1C        C  305   4.448   3.075   2.416
    1C        C  306   4.507   3.283   2.536
    1C        C  307   4.473   3.146   2.536
    1C        C  308   4.517   3.357   2.655
    1C        C  309   4.506   3.291   2.779
    1C        C  310   4.523   3.500   2.899
    1C        C  311   4.514   3.359   2.903
    1C        C  312   4.521   3.574   3.019
    1C        C  313   4.515   3.506   3.143
    1C        C  314   4.486   3.719   3.263
    1C        C  315   4.514   3.580   3.264
    1C        C  316   4.468   3.787   3.385
    1C        C  317   4.491   3.719   3.507
    1C        C  318   4.421   3.921   3.625
    1C        C  319   4.472   3.790   3.627
    1C        C  320   4.392   3.984   3.748
    1C        C  321   4.415   3.922   3.872
    1C        C  322   4.312   4.109   3.991
    1C        C  323   4.389   3.990   3.993
    1C        C  324   4.267   4.163   4.113
    1C        C  325   4.319   4.114   4.235
    1C        C  326   4.184   4.282   4.353
    1C        C  327   4.284   4.182   4.353
    1C        C  328   4.140   4.339   4.475
    1C        C  329   4.197   4.299   4.597
    1C        C  330   4.024   4.430   4.714
    1C        C  331   4.140   4.348   4.717
    1C        C  332   3.970   4.487   4.832
    1C        C  333   4.052   4.474   4.945
    1C        C  334   4.548   3.267   2.060
    1C        C  335   4.537   3.127   2.070
    1C        C  336   4.535   3.349   2.173
    1C        C  337   4.518   3.277   2.293
    1C        C  338   4.520   3.493   2.412
    1C        C  339   4.517   3.352   2.413
    1C        C  340   4.524   3.568   2.532
    1C        C  341   4.520   3.499   2.655
    1C        C  342   4.492   3.709   2.771
    1C        C  343   4.513   3.570   2.777
    1C        C  344   4.479   3.780   2.893
    1C        C  345   4.491   3.712   3.016
    1C        C  346   4.415   3.913   3.138
    1C        C  347   4.467   3.781   3.138
    1C        C  348   4.386   3.982   3.258
    1C        C  349   4.419   3.919   3.380
    1C        C  350   4.319   4.106   3.503
    1C        C  351   4.393   3.985   3.502
    1C        C  352   4.277   4.163   3.625
    1C        C  353   4.321   4.107   3.746
    1C        C  354   4.174   4.264   3.867
    1C        C  355   4.274   4.163   3.867
    1C        C  356   4.120   4.314   3.988
    1C        C  357   4.172   4.268   4.110
    1C        C  358   4.013   4.409   4.233
    1C        C  359   4.126   4.324   4.232
    1C        C  360   3.956   4.453   4.354
    1C        C  361   4.021   4.416   4.474
    1C        C  362   3.827   4.512   4.592
    1C        C  363   3.956   4.454   4.593
    1C        C  364   3.764   4.545   4.714
    1C        C  365   3.840   4.541   4.832
    1C        C  366   3.630   4.589   4.950
    1C        C  367   3.766   4.561   4.950
    1C        C  368   4.520   3.562   2.052
    1C        C  369   4.532   3.490   2.171
    1C        C  370   4.498   3.704   2.288
    1C        C  371   4.526   3.565   2.290
    1C        C  372   4.480   3.776   2.409
    1C        C  373   4.502   3.707   2.530
    1C        C  374   4.424   3.910   2.649
    1C        C  375   4.472   3.777   2.649
    1C        C  376   4.395   3.975   2.771
    1C        C  377   4.426   3.911   2.894
    1C        C  378   4.320   4.098   3.011
    1C        C  379   4.390   3.976   3.014
    1C        C  380   4.276   4.158   3.131
    1C        C  381   4.315   4.104   3.256
    1C        C  382   4.176   4.260   3.379
    1C        C  383   4.275   4.159   3.380
    1C        C  384   4.124   4.310   3.501
    1C        C  385   4.177   4.263   3.623
    1C        C  386   4.007   4.391   3.740
    1C        C  387   4.124   4.312   3.744
    1C        C  388   3.946   4.429   3.862
    1C        C  389   4.003   4.394   3.986
    1C        C  390   3.822   4.496   4.107
    1C        C  391   3.950   4.437   4.110
    1C        C  392   3.755   4.521   4.229
    1C        C  393   3.826   4.509   4.350
    1C        C  394   3.617   4.555   4.472
    1C        C  395   3.756   4.531   4.471
    1C        C  396   3.549   4.568   4.595
    1C        C  397   3.623   4.562   4.715
    1C        C  398   3.412   4.547   4.841
    1C        C  399   3.551   4.574   4.836
    1C        C  400   3.343   4.512   4.958
    1C        C  401   4.511   3.701   2.055
    1C        C  402   4.452   3.914   2.169
    1C        C  403   4.497   3.781   2.170
    1C        C  404   4.415   3.980   2.288
    1C        C  405   4.443   3.912   2.408
    1C        C  406   4.330   4.099   2.523
    1C        C  407   4.404   3.978   2.527
    1C        C  408   4.281   4.151   2.644
    1C        C  409   4.321   4.095   2.767
    1C        C  410   4.179   4.255   2.888
    1C        C  411   4.278   4.154   2.888
    1C        C  412   4.126   4.304   3.009
    1C        C  413   4.179   4.261   3.133
    1C        C  414   4.009   4.385   3.252
    1C        C  415   4.126   4.307   3.255
    1C        C  416   3.948   4.423   3.374
    1C        C  417   4.009   4.391   3.497
    1C        C  418   3.813   4.478   3.618
    1C        C  419   3.944   4.426   3.618
    1C        C  420   3.750   4.503   3.742
    1C        C  421   3.817   4.487   3.865
    1C        C  422   3.611   4.541   3.985
    1C        C  423   3.750   4.512   3.987
    1C        C  424   3.543   4.537   4.109
    1C        C  425   3.614   4.536   4.230
    1C        C  426   3.403   4.541   4.356
    1C        C  427   3.544   4.552   4.352
    1C        C  428   3.337   4.539   4.480
    1C        C  429   3.409   4.554   4.601
    1C        C  430   3.198   4.512   4.721
    1C        C  431   3.336   4.544   4.722
    1C        C  432   3.127   4.486   4.841
    1C        C  433   3.206   4.491   4.957
    1C        C  434   4.383   4.119   2.049
    1C        C  435   4.444   3.993   2.053
    1C        C  436   4.305   4.165   2.160
    1C        C  437   4.340   4.101   2.282
    1C        C  438   4.181   4.250   2.402
    1C        C  439   4.287   4.156   2.401
    1C        C  440   4.124   4.293   2.524
    1C        C  441   4.180   4.250   2.646
    1C        C  442   4.006   4.379   2.766
    1C        C  443   4.122   4.297   2.766
    1C        C  444   3.943   4.414   2.887
    1C        C  445   4.005   4.378   3.008
    1C        C  446   3.812   4.467   3.129
    1C        C  447   3.944   4.415   3.130
    1C        C  448   3.748   4.495   3.252
    1C        C  449   3.818   4.479   3.374
    1C        C  450   3.609   4.526   3.496
    1C        C  451   3.748   4.499   3.495
    1C        C  452   3.542   4.540   3.619
    1C        C  453   3.612   4.534   3.742
    1C        C  454   3.400   4.545   3.863
    1C        C  455   3.541   4.548   3.863
    1C        C  456   3.332   4.534   3.987
    1C        C  457   3.401   4.539   4.110
    1C        C  458   3.194   4.505   4.237
    1C        C  459   3.333   4.533   4.233
    1C        C  460   3.129   4.479   4.360
    1C        C  461   3.199   4.509   4.479
    1C        C  462   3.000   4.432   4.602
    1C        C  463   3.128   4.492   4.600
    1C        C  464   2.933   4.400   4.723
    1C        C  465   2.990   4.444   4.845
    1C        C  466   2.801   4.338   4.956
    1C        C  467   2.909   4.428   4.962
    1C        C  468   4.121   4.283   2.043
    1C        C  469   4.192   4.252   2.160
    1C        C  470   4.009   4.375   2.279
    1C        C  471   4.128   4.296   2.280
    1C        C  472   3.944   4.406   2.400
    1C        C  473   4.006   4.370   2.522
    1C        C  474   3.816   4.469   2.639
    1C        C  475   3.945   4.411   2.643
    1C        C  476   3.750   4.498   2.761
    1C        C  477   3.817   4.479   2.884
    1C        C  478   3.610   4.520   3.006
    1C        C  479   3.749   4.497   3.006
    1C        C  480   3.540   4.529   3.128
    1C        C  481   3.609   4.520   3.251
    1C        C  482   3.397   4.527   3.376
    1C        C  483   3.538   4.528   3.373
    1C        C  484   3.329   4.526   3.500
    1C        C  485   3.401   4.540   3.621
    1C        C  486   3.190   4.501   3.745
    1C        C  487   3.328   4.534   3.742
    1C        C  488   3.126   4.476   3.868
    1C        C  489   3.195   4.498   3.989
    1C        C  490   3.006   4.414   4.113
    1C        C  491   3.131   4.480   4.114
    1C        C  492   2.946   4.381   4.237
    1C        C  493   2.999   4.423   4.360
    1C        C  494   2.831   4.297   4.480
    1C        C  495   2.936   4.391   4.483
    1C        C  496   2.776   4.255   4.603
    1C        C  497   2.818   4.317   4.723
    1C        C  498   2.664   4.165   4.844
    1C        C  499   2.753   4.275   4.841
    1C        C  500   2.596   4.116   4.956
    1C        C  501   4.007   4.362   2.036
    1C        C  502   3.821   4.468   2.157
    1C        C  503   3.947   4.405   2.156
    1C        C  504   3.745   4.483   2.275
    1C        C  505   3.813   4.457   2.396
    1C        C  506   3.606   4.505   2.520
    1C        C  507   3.746   4.482   2.518
    1C        C  508   3.535   4.509   2.642
    1C        C  509   3.610   4.515   2.761
    1C        C  510   3.399   4.521   2.885
    1C        C  511   3.540   4.525   2.883
    1C        C  512   3.328   4.514   3.008
    1C        C  513   3.399   4.525   3.129
    1C        C  514   3.193   4.483   3.254
    1C        C  515   3.330   4.515   3.252
    1C        C  516   3.126   4.463   3.377
    1C        C  517   3.192   4.492   3.499
    1C        C  518   3.000   4.408   3.623
    1C        C  519   3.125   4.474   3.622
    1C        C  520   2.940   4.372   3.746
    1C        C  521   3.002   4.408   3.868
    1C        C  522   2.838   4.281   3.994
    1C        C  523   2.950   4.368   3.992
    1C        C  524   2.786   4.237   4.118
    1C        C  525   2.835   4.294   4.238
    1C        C  526   2.695   4.132   4.360
    1C        C  527   2.781   4.244   4.359
    1C        C  528   2.655   4.077   4.484
    1C        C  529   2.691   4.142   4.604
    1C        C  530   2.586   3.960   4.730
    1C        C  531   2.638   4.092   4.726
    1C        C  532   2.549   3.899   4.853
    1C        C  533   2.529   3.993   4.959
    1C        C  534   3.622   4.555   2.038
    1C        C  535   3.757   4.517   2.043
    1C        C  536   3.538   4.534   2.152
    1C        C  537   3.605   4.510   2.275
    1C        C  538   3.395   4.517   2.399
    1C        C  539   3.536   4.512   2.398
    1C        C  540   3.325   4.507   2.521
    1C        C  541   3.393   4.513   2.645
    1C        C  542   3.186   4.475   2.766
    1C        C  543   3.322   4.513   2.767
    1C        C  544   3.119   4.459   2.889
    1C        C  545   3.192   4.476   3.009
    1C        C  546   3.000   4.393   3.134
    1C        C  547   3.126   4.457   3.132
    1C        C  548   2.944   4.355   3.257
    1C        C  549   3.001   4.398   3.379
    1C        C  550   2.830   4.278   3.502
    1C        C  551   2.939   4.368   3.502
    1C        C  552   2.785   4.227   3.626
    1C        C  553   2.832   4.281   3.748
    1C        C  554   2.703   4.118   3.873
    1C        C  555   2.788   4.231   3.872
    1C        C  556   2.661   4.063   3.997
    1C        C  557   2.700   4.125   4.117
    1C        C  558   2.595   3.942   4.244
    1C        C  559   2.657   4.070   4.239
    1C        C  560   2.564   3.882   4.368
    1C        C  561   2.589   3.952   4.489
    1C        C  562   2.529   3.751   4.613
    1C        C  563   2.557   3.890   4.611
    1C        C  564   2.512   3.682   4.735
    1C        C  565   2.520   3.759   4.854
    1C        C  566   2.523   3.545   4.977
    1C        C  567   2.525   3.684   4.973
    1C        C  568   3.330   4.470   2.040
    1C        C  569   3.398   4.507   2.156
    1C        C  570   3.187   4.471   2.280
    1C        C  571   3.324   4.511   2.277
    1C        C  572   3.117   4.453   2.401
    1C        C  573   3.188   4.474   2.522
    1C        C  574   2.991   4.395   2.648
    1C        C  575   3.118   4.457   2.644
    1C        C  576   2.929   4.361   2.770
    1C        C  577   2.989   4.402   2.891
    1C        C  578   2.825   4.268   3.016
    1C        C  579   2.934   4.359   3.014
    1C        C  580   2.776   4.218   3.139
    1C        C  581   2.834   4.267   3.258
    1C        C  582   2.695   4.111   3.384
    1C        C  583   2.778   4.226   3.381
    1C        C  584   2.661   4.053   3.508
    1C        C  585   2.697   4.117   3.630
    1C        C  586   2.592   3.934   3.755
    1C        C  587   2.659   4.059   3.753
    1C        C  588   2.568   3.870   3.879
    1C        C  589   2.602   3.934   4.000
    1C        C  590   2.540   3.735   4.127
    1C        C  591   2.581   3.870   4.124
    1C        C  592   2.527   3.670   4.252
    1C        C  593   2.530   3.745   4.372
    1C        C  594   2.510   3.535   4.495
    1C        C  595   2.518   3.676   4.494
    1C        C  596   2.512   3.465   4.618
    1C        C  597   2.513   3.540   4.738
    1C        C  598   2.533   3.328   4.860
    1C        C  599   2.525   3.469   4.860
    1C        C  600   2.536   3.253   4.978
    1C        C  601   3.196   4.437   2.046
    1C        C  602   2.983   4.386   2.159
    1C        C  603   3.116   4.438   2.161
    1C        C  604   2.924   4.356   2.285
    1C        C  605   2.988   4.397   2.404
    1C        C  606   2.820   4.268   2.527
    1C        C  607   2.928   4.360   2.526
    1C        C  608   2.772   4.218   2.650
    1C        C  609   2.826   4.265   2.771
    1C        C  610   2.681   4.113   2.895
    1C        C  611   2.773   4.219   2.894
    1C        C  612   2.643   4.054   3.018
    1C        C  613   2.683   4.112   3.141
    1C        C  614   2.586   3.926   3.264
    1C        C  615   2.648   4.053   3.265
    1C        C  616   2.569   3.860   3.388
    1C        C  617   2.600   3.926   3.509
    1C        C  618   2.530   3.730   3.639
    1C        C  619   2.571   3.865   3.634
    1C        C  620   2.521   3.660   3.762
    1C        C  621   2.529   3.734   3.882
    1C        C  622   2.520   3.524   4.008
    1C        C  623   2.524   3.665   4.005
    1C        C  624   2.518   3.454   4.132
    1C        C  625   2.516   3.530   4.251
    1C        C  626   2.540   3.323   4.378
    1C        C  627   2.512   3.461   4.375
    1C        C  628   2.559   3.253   4.500
    1C        C  629   2.543   3.327   4.619
    1C        C  630   2.601   3.122   4.740
    1C        C  631   2.553   3.256   4.741
    1C        C  632   2.618   3.053   4.864
    1C        C  633   2.561   3.115   4.980
    1C        C  634   2.778   4.311   2.057
    1C        C  635   2.891   4.394   2.049
    1C        C  636   2.743   4.234   2.169
    1C        C  637   2.805   4.277   2.288
    1C        C  638   2.671   4.111   2.411
    1C        C  639   2.759   4.221   2.409
    1C        C  640   2.638   4.048   2.533
    1C        C  641   2.686   4.106   2.653
    1C        C  642   2.581   3.922   2.777
    1C        C  643   2.641   4.050   2.775
    1C        C  644   2.554   3.857   2.900
    1C        C  645   2.583   3.926   3.020
    1C        C  646   2.522   3.724   3.150
    1C        C  647   2.562   3.859   3.142
    1C        C  648   2.509   3.654   3.272
    1C        C  649   2.525   3.726   3.393
    1C        C  650   2.507   3.518   3.520
    1C        C  651   2.514   3.660   3.518
    1C        C  652   2.511   3.447   3.642
    1C        C  653   2.507   3.520   3.763
    1C        C  654   2.536   3.312   3.891
    1C        C  655   2.515   3.452   3.887
    1C        C  656   2.552   3.244   4.014
    1C        C  657   2.538   3.315   4.135
    1C        C  658   2.603   3.115   4.259
    1C        C  659   2.557   3.249   4.259
    1C        C  660   2.637   3.055   4.382
    1C        C  661   2.597   3.117   4.502
    1C        C  662   2.709   2.934   4.625
    1C        C  663   2.626   3.049   4.622
    1C        C  664   2.755   2.882   4.747
    1C        C  665   2.701   2.937   4.867
    1C        C  666   2.744   2.871   4.983
    1C        C  667   2.676   4.024   2.058
    1C        C  668   2.677   4.109   2.169
    1C        C  669   2.582   3.915   2.292
    1C        C  670   2.635   4.047   2.289
    1C        C  671   2.556   3.850   2.415
    1C        C  672   2.582   3.919   2.535
    1C        C  673   2.513   3.718   2.661
    1C        C  674   2.557   3.852   2.657
    1C        C  675   2.506   3.647   2.783
    1C        C  676   2.520   3.720   2.903
    1C        C  677   2.503   3.513   3.030
    1C        C  678   2.512   3.654   3.028
    1C        C  679   2.504   3.443   3.153
    1C        C  680   2.496   3.514   3.276
    1C        C  681   2.523   3.305   3.400
    1C        C  682   2.505   3.445   3.399
    1C        C  683   2.538   3.235   3.523
    1C        C  684   2.525   3.306   3.644
    1C        C  685   2.583   3.106   3.771
    1C        C  686   2.545   3.242   3.769
    1C        C  687   2.630   3.048   3.891
    1C        C  688   2.604   3.113   4.013
    1C        C  689   2.714   2.934   4.138
    1C        C  690   2.634   3.050   4.137
    1C        C  691   2.760   2.882   4.261
    1C        C  692   2.716   2.937   4.384
    1C        C  693   2.753   2.874   4.505
    1C        C  694   2.631   3.891   2.058
    1C        C  695   2.522   3.707   2.175
    1C        C  696   2.577   3.837   2.175
    1C        C  697   2.503   3.641   2.299
    1C        C  698   2.525   3.712   2.419
    1C        C  699   2.483   3.505   2.542
    1C        C  700   2.498   3.645   2.541
    1C        C  701   2.497   3.434   2.663
    1C        C  702   2.497   3.506   2.785
    1C        C  703   2.531   3.300   2.911
    1C        C  704   2.507   3.439   2.909
    1C        C  705   2.548   3.234   3.035
    1C        C  706   2.534   3.305   3.156
    1C        C  707   2.605   3.107   3.278
    1C        C  708   2.551   3.237   3.279
    1C        C  709   2.635   3.047   3.403
    1C        C  710   2.600   3.108   3.525
    1C        C  711   2.706   2.932   3.650
    1C        C  712   2.619   3.043   3.649
    1C        C  713   2.756   2.878   3.770
    1C        C  714   2.715   2.935   3.893
    1C        C  715   2.755   2.876   4.015
    1C        C  716   2.453   3.498   2.063
    1C        C  717   2.491   3.633   2.061
    1C        C  718   2.469   3.423   2.184
    1C        C  719   2.487   3.500   2.302
    1C        C  720   2.518   3.291   2.424
    1C        C  721   2.484   3.428   2.423
    1C        C  722   2.542   3.225   2.546
    1C        C  723   2.526   3.296   2.668
    1C        C  724   2.596   3.097   2.794
    1C        C  725   2.544   3.228   2.791
    1C        C  726   2.627   3.034   2.916
    1C        C  727   2.594   3.101   3.036
    1C        C  728   2.707   2.919   3.158
    1C        C  729   2.629   3.037   3.158
    1C        C  730   2.747   2.867   3.283
    1C        C  731   2.710   2.927   3.405
    1C        C  732   2.750   2.872   3.529
    1C        C  733   2.488   3.196   2.073
    1C        C  734   2.492   3.281   2.184
    1C        C  735   2.582   3.085   2.307
    1C        C  736   2.527   3.216   2.305
    1C        C  737   2.611   3.020   2.429
    1C        C  738   2.588   3.091   2.549
    1C        C  739   2.694   2.909   2.668
    1C        C  740   2.622   3.030   2.672
    1C        C  741   2.737   2.852   2.790
    1C        C  742   2.702   2.914   2.911
    1C        C  743   2.748   2.863   3.034
    1C        C  744   2.543   3.068   2.074
    1C        C  745   2.684   2.896   2.185
    1C        C  746   2.610   3.017   2.186
    1C        C  747   2.723   2.836   2.306
    1C        C  748   2.690   2.903   2.426
    1C        C  749   2.735   2.846   2.548
    1C        C  750   2.742   2.841   2.070
    1C        C  751   3.672   2.357   1.949
    1C        O  752   3.693   2.233   1.944
    1C        O  753   3.682   2.421   1.825
    1C        C  754   4.640   3.050   1.998
    1C        O  755   4.635   2.999   1.883
    1C        O  756   4.763   3.033   2.064
    1C        C  757   4.452   4.227   1.973
    1C        O  758   4.526   4.316   2.022
    1C        O  759   4.444   4.230   1.834
    1C        C  760   3.583   4.616   1.909
    1C        O  761   3.580   4.742   1.899
    1C        O  762   3.539   4.546   1.797
    1C        C  763   2.882   4.504   1.951
    1C        O  764   2.905   4.495   1.827
    1C        O  765   2.813   4.623   1.972
    1C        C  766   2.333   3.471   1.980
    1C        O  767   2.329   3.469   1.854
    1C        O  768   2.215   3.423   2.038
    1C        C  769   4.702   3.607   5.041
    1C        O  770   4.676   3.577   5.160
    1C        O  771   4.808   3.698   5.040
    1C        C  772   4.272   4.472   5.026
    1C        O  773   4.289   4.443   5.147
    1C        O  774   4.374   4.543   4.960
    1C        C  775   4.163   2.492   5.032
    1C        O  776   4.240   2.419   4.965
    1C        O  777   4.139   2.434   5.157
    1C        C  778   2.896   4.547   5.050
    1C        O  779   2.837   4.655   5.024
    1C        O  780   2.936   4.551   5.184
    1C        C  781   2.467   3.056   5.078
    1C        O  782   2.351   3.018   5.048
    1C        O  783   2.503   3.039   5.211
    1C        C  784   2.421   3.975   5.058
    1C        O  785   2.297   3.973   5.033
    1C        O  786   2.447   4.005   5.193
    1C        C  787   2.952   2.448   1.985
    1C        O  788   2.966   2.466   1.861
    1C        O  789   2.830   2.391   2.020
    1C        C  790   3.184   2.383   5.075
    1C        O  791   3.253   2.278   5.068
    1C        O  792   3.110   2.386   5.194
    1C        H  793   4.302   3.011   5.067
    1C        H  794   4.177   2.808   5.071
    1C        H  795   4.513   3.125   5.048
    1C        H  796   4.571   3.358   5.058
    1C        H  797   4.527   3.799   5.060
    1C        H  798   4.403   3.964   5.046
    1C        H  799   4.242   4.127   5.028
    1C        H  800   4.040   4.552   5.018
    1C        H  801   3.811   4.541   5.045
    1C        H  802   3.589   4.643   5.033
    1C        H  803   3.398   4.448   5.023
    1C        H  804   3.155   4.488   5.051
    1C        H  805   3.902   2.467   5.053
    1C        H  806   3.682   2.428   5.062
    1C        H  807   3.019   2.592   5.073
    1C        H  808   3.435   2.502   5.062
    1C        H  809   2.893   2.766   5.081
    1C        H  810   2.699   2.895   5.078
    1C        H  811   2.538   3.300   5.074
    1C        H  812   2.492   3.497   5.068
    1C        H  813   2.586   3.728   5.049
    1C        H  814   2.605   4.168   5.050
    1C        H  815   2.745   4.336   5.047
    1C        H  816   2.751   2.903   1.983
    1C        H  817   2.793   2.651   1.995
    1C        H  818   3.193   2.391   2.013
    1C        H  819   3.425   2.399   1.986
    1C        H  820   3.835   2.568   1.974
    1C        H  821   4.079   2.579   1.981
    1C        H  822   4.272   2.702   1.979
    1C        H  823   4.410   2.890   1.976
    1C        H  824   4.633   3.300   2.004
    1C        H  825   4.504   3.513   1.957
    1C        H  826   4.517   3.753   1.962
    1C        H  827   3.811   4.524   1.951
    1C        H  828   3.949   4.352   1.946
    1C        H  829   4.124   4.209   1.967
    1C        H  830   4.471   3.954   1.957
    1C        H  831   2.644   3.835   1.968
    1C        H  832   2.737   4.052   1.975
    1C        H  833   2.694   4.332   1.995
    1C        H  834   3.378   4.467   1.944
    1C        H  835   3.146   4.456   1.953
    1C        H  836   2.552   3.023   1.978
    1C        H  837   2.412   3.217   2.001
    1C        H  838   2.498   3.685   1.967
    2V3OU   H29  839   2.805   3.552   3.233
    2V3OU   C27  840   2.795   3.500   3.332
    2V3OU   H27  841   2.735   3.569   3.398
    2V3OU   H28  842   2.734   3.408   3.312
    2V3OU   O11  843   2.916   3.472   3.402
    2V3OU   C15  844   2.928   3.396   3.516
    2V3OU   C13  845   3.054   3.376   3.578
    2V3OU   C14  846   3.081   3.269   3.663
    2V3OU   C16  847   2.980   3.186   3.712
    2V3OU    H6  848   2.998   3.104   3.782
    2V3OU   C12  849   3.219   3.234   3.703
    2V3OU    O2  850   3.242   3.136   3.777
    2V3OU   C10  851   3.329   3.312   3.645
    2V3OU    C8  852   3.461   3.271   3.666
    2V3OU   O10  853   3.490   3.152   3.725
    2V3OU   H26  854   3.403   3.121   3.757
    2V3OU    C6  855   3.568   3.351   3.614
    2V3OU    C5  856   3.536   3.464   3.540
    2V3OU    C4  857   3.704   3.291   3.615
    2V3OU    H4  858   3.724   3.234   3.710
    2V3OU    H5  859   3.708   3.225   3.523
    2V3OU    C2  860   3.817   3.393   3.606
    2V3OU    O6  861   3.811   3.478   3.721
    2V3OU   H21  862   3.759   3.553   3.687
    2V3OU    C3  863   3.781   3.492   3.494
    2V3OU    H2  864   3.861   3.571   3.491
    2V3OU    H3  865   3.783   3.439   3.395
    2V3OU   C25  866   3.953   3.326   3.586
    2V3OU    O7  867   4.005   3.300   3.478
    2V3OU   C26  868   4.032   3.285   3.709
    2V3OU   H22  869   4.072   3.379   3.757
    2V3OU   H23  870   4.120   3.223   3.679
    2V3OU    O8  871   3.964   3.204   3.802
    2V3OU   H24  872   3.931   3.268   3.867
    2V3OU    C1  873   3.647   3.561   3.512
    2V3OU    H1  874   3.624   3.614   3.415
    2V3OU    O3  875   3.659   3.655   3.620
    2V3OU   C19  876   3.619   3.791   3.606
    2V3OU    H9  877   3.524   3.805   3.546
    2V3OU    O4  878   3.718   3.847   3.523
    2V3OU   C20  879   3.849   3.876   3.571
    2V3OU   H10  880   3.900   3.775   3.574
    2V3OU   C24  881   3.610   3.856   3.744
    2V3OU   H16  882   3.540   3.791   3.802
    2V3OU   H17  883   3.564   3.958   3.733
    2V3OU   C23  884   3.750   3.873   3.803
    2V3OU   H15  885   3.793   3.767   3.810
    2V3OU    N1  886   3.735   3.952   3.924
    2V3OU   H19  887   3.804   3.918   3.988
    2V3OU   H20  888   3.647   3.932   3.967
    2V3OU   C21  889   3.848   3.947   3.707
    2V3OU   H11  890   3.948   3.935   3.758
    2V3OU    O5  891   3.829   4.088   3.703
    2V3OU   H18  892   3.780   4.103   3.786
    2V3OU   C22  893   3.916   3.957   3.461
    2V3OU   H12  894   3.868   4.058   3.456
    2V3OU   H13  895   3.912   3.899   3.365
    2V3OU   H14  896   4.024   3.973   3.487
    2V3OU   C11  897   3.159   3.472   3.542
    2V3OU    O1  898   3.137   3.587   3.497
    2V3OU    C9  899   3.298   3.426   3.566
    2V3OU    C7  900   3.401   3.500   3.511
    2V3OU    O9  901   3.382   3.613   3.434
    2V3OU   H25  902   3.286   3.627   3.439
    2V3OU   C17  903   2.829   3.312   3.571
    2V3OU    H7  904   2.733   3.350   3.536
    2V3OU   C18  905   2.851   3.215   3.668
    2V3OU    H8  906   2.788   3.172   3.747
    3SOL     OW  907   2.540   5.315   6.103
    3SOL    HW1  908   2.617   5.278   6.051
    3SOL    HW2  909   2.470   5.244   6.114
    4SOL     OW  910   6.903   0.169   0.583
    4SOL    HW1  911   6.992   0.215   0.582
    4SOL    HW2  912   6.886   0.130   0.674
    5SOL     OW  913   5.065   2.309   2.062
    5SOL    HW1  914   5.063   2.300   1.963
    5SOL    HW2  915   4.989   2.367   2.093
    6SOL     OW  916   4.526   2.101   2.302
    6SOL    HW1  917   4.527   2.124   2.205
    6SOL    HW2  918   4.502   2.181   2.356
    7SOL     OW  919   0.902   4.473   3.810
    7SOL    HW1  920   0.865   4.384   3.835
    7SOL    HW2  921   0.965   4.504   3.881
    8SOL     OW  922   2.446   2.295   5.825
    8SOL    HW1  923   2.413   2.200   5.825
    8SOL    HW2  924   2.421   2.339   5.911
    9SOL     OW  925   6.012   2.524   5.771
    9SOL    HW1  926   6.044   2.571   5.688
    9SOL    HW2  927   5.974   2.435   5.746
   10SOL     OW  928   3.433   5.224   4.815
   10SOL    HW1  929   3.445   5.154   4.886
   10SOL    HW2  930   3.341   5.216   4.777
   11SOL     OW  931   1.926   1.388   5.875
   11SOL    HW1  932   2.021   1.416   5.873
   11SOL    HW2  933   1.874   1.451   5.933
   12SOL     OW  934   3.216   4.902   3.781
   12SOL    HW1  935   3.183   4.917   3.874
   12SOL    HW2  936   3.315   4.883   3.783
   13SOL     OW  937   3.539   6.315   3.895
   13SOL    HW1  938   3.573   6.244   3.834
   13SOL    HW2  939   3.585   6.402   3.873
   14SOL     OW  940   4.054   4.560   6.149
   14SOL    HW1  941   4.057   4.633   6.081
   14SOL    HW2  942   3.996   4.587   6.225
   15SOL     OW  943   0.859   6.437   0.502
   15SOL    HW1  944   0.871   6.505   0.430
   15SOL    HW2  945   0.946   6.393   0.522
   16SOL     OW  946   5.552   2.575   6.547
   16SOL    HW1  947   5.456   2.576   6.574
   16SOL    HW2  948   5.610   2.555   6.626
   17SOL     OW  949   5.173   6.856   6.719
   17SOL    HW1  950   5.243   6.882   6.653
   17SOL    HW2  951   5.106   6.930   6.727
   18SOL     OW  952   3.053   1.135   5.209
   18SOL    HW1  953   3.020   1.151   5.116
   18SOL    HW2  954   3.152   1.119   5.207
   19SOL     OW  955   0.286   2.325   2.409
   19SOL    HW1  956   0.385   2.339   2.402
   19SOL    HW2  957   0.239   2.388   2.346
   20SOL     OW  958   4.493   2.402   5.424
   20SOL    HW1  959   4.504   2.317   5.476
   20SOL    HW2  960   4.576   2.457   5.432
   21SOL     OW  961   2.941   1.093   3.069
   21SOL    HW1  962   2.879   1.023   3.104
   21SOL    HW2  963   2.890   1.176   3.049
   22SOL     OW  964   1.606   6.082   0.311
   22SOL    HW1  965   1.516   6.042   0.291
   22SOL    HW2  966   1.599   6.144   0.388
   23SOL     OW  967   4.286   5.256   2.278
   23SOL    HW1  968   4.217   5.311   2.326
   23SOL    HW2  969   4.343   5.208   2.344
   24SOL     OW  970   3.419   0.518   2.424
   24SOL    HW1  971   3.499   0.550   2.374
   24SOL    HW2  972   3.340   0.513   2.362
   25SOL     OW  973   2.425   6.882   3.770
   25SOL    HW1  974   2.403   6.784   3.763
   25SOL    HW2  975   2.421   6.909   3.866
   26SOL     OW  976   6.538   2.322   0.343
   26SOL    HW1  977   6.538   2.291   0.438
   26SOL    HW2  978   6.593   2.259   0.288
   27SOL     OW  979   1.737   1.384   1.830
   27SOL    HW1  980   1.772   1.475   1.807
   27SOL    HW2  981   1.807   1.333   1.879
   28SOL     OW  982   1.169   0.717   4.794
   28SOL    HW1  983   1.175   0.799   4.737
   28SOL    HW2  984   1.257   0.670   4.793
   29SOL     OW  985   6.450   1.552   0.955
   29SOL    HW1  986   6.447   1.452   0.961
   29SOL    HW2  987   6.379   1.590   1.015
   30SOL     OW  988   4.854   0.377   4.921
   30SOL    HW1  989   4.818   0.470   4.914
   30SOL    HW2  990   4.896   0.365   5.011
   31SOL     OW  991   0.513   2.234   6.264
   31SOL    HW1  992   0.563   2.158   6.305
   31SOL    HW2  993   0.447   2.199   6.198
   32SOL     OW  994   0.982   1.722   2.355
   32SOL    HW1  995   1.054   1.669   2.309
   32SOL    HW2  996   0.893   1.680   2.335
   33SOL     OW  997   0.978   4.763   5.035
   33SOL    HW1  998   1.011   4.680   5.078
   33SOL    HW2  999   1.019   4.843   5.080
   34SOL     OW 1000   2.560   6.131   4.961
   34SOL    HW1 1001   2.553   6.109   4.864
   34SOL    HW2 1002   2.639   6.082   5.000
   35SOL     OW 1003   4.268   2.350   5.609
   35SOL    HW1 1004   4.344   2.291   5.584
   35SOL    HW2 1005   4.292   2.445   5.592
   36SOL     OW 1006   4.178   2.179   3.955
   36SOL    HW1 1007   4.235   2.222   4.025
   36SOL    HW2 1008   4.178   2.236   3.872
   37SOL     OW 1009   1.497   2.052   5.117
   37SOL    HW1 1010   1.441   1.973   5.142
   37SOL    HW2 1011   1.518   2.048   5.019
   38SOL     OW 1012   1.554   4.599   1.568
   38SOL    HW1 1013   1.606   4.684   1.559
   38SOL    HW2 1014   1.461   4.612   1.535
   39SOL     OW 1015   6.362   4.921   6.044
   39SOL    HW1 1016   6.351   5.005   6.098
   39SOL    HW2 1017   6.372   4.945   5.947
   40SOL     OW 1018   3.472   2.511   0.136
   40SOL    HW1 1019   3.449   2.564   0.054
   40SOL    HW2 1020   3.560   2.540   0.171
   41SOL     OW 1021   5.824   3.429   3.252
   41SOL    HW1 1022   5.917   3.418   3.287
   41SOL    HW2 1023   5.804   3.354   3.190
   42SOL     OW 1024   3.298   6.006   4.482
   42SOL    HW1 1025   3.311   6.105   4.475
   42SOL    HW2 1026   3.204   5.983   4.460
   43SOL     OW 1027   4.669   1.071   5.417
   43SOL    HW1 1028   4.632   1.068   5.510
   43SOL    HW2 1029   4.646   0.986   5.370
   44SOL     OW 1030   5.459   2.901   5.379
   44SOL    HW1 1031   5.557   2.899   5.400
   44SOL    HW2 1032   5.445   2.945   5.290
   45SOL     OW 1033   4.456   5.241   1.983
   45SOL    HW1 1034   4.515   5.292   1.920
   45SOL    HW2 1035   4.390   5.303   2.026
   46SOL     OW 1036   1.486   2.351   3.807
   46SOL    HW1 1037   1.543   2.273   3.780
   46SOL    HW2 1038   1.530   2.436   3.778
   47SOL     OW 1039   3.836   4.070   1.473
   47SOL    HW1 1040   3.856   4.023   1.387
   47SOL    HW2 1041   3.921   4.083   1.524
   48SOL     OW 1042   6.973   2.282   7.012
   48SOL    HW1 1043   6.934   2.192   0.007
   48SOL    HW2 1044   0.050   2.278   0.005
   49SOL     OW 1045   5.694   2.700   1.977
   49SOL    HW1 1046   5.661   2.793   1.963
   49SOL    HW2 1047   5.763   2.699   2.049
   50SOL     OW 1048   6.603   1.198   5.401
   50SOL    HW1 1049   6.585   1.101   5.390
   50SOL    HW2 1050   6.702   1.214   5.403
   51SOL     OW 1051   2.007   6.504   3.100
   51SOL    HW1 1052   2.106   6.496   3.102
   51SOL    HW2 1053   1.978   6.539   3.011
   52SOL     OW 1054   5.038   3.633   1.564
   52SOL    HW1 1055   5.017   3.730   1.579
   52SOL    HW2 1056   5.111   3.605   1.626
   53SOL     OW 1057   4.633   1.013   3.574
   53SOL    HW1 1058   4.722   0.981   3.542
   53SOL    HW2 1059   4.570   1.019   3.497
   54SOL     OW 1060   5.554   6.495   1.016
   54SOL    HW1 1061   5.651   6.473   1.031
   54SOL    HW2 1062   5.504   6.484   1.102
   55SOL     OW 1063   2.099   2.973   5.102
   55SOL    HW1 1064   2.197   2.986   5.083
   55SOL    HW2 1065   2.066   2.892   5.054
   56SOL     OW 1066   0.681   0.917   1.156
   56SOL    HW1 1067   0.745   0.950   1.225
   56SOL    HW2 1068   0.588   0.929   1.188
   57SOL     OW 1069   3.665   0.955   1.154
   57SOL    HW1 1070   3.732   0.892   1.194
   57SOL    HW2 1071   3.707   1.045   1.143
   58SOL     OW 1072   0.463   6.411   5.822
   58SOL    HW1 1073   0.416   6.461   5.895
   58SOL    HW2 1074   0.549   6.458   5.799
   59SOL     OW 1075   0.196   3.697   6.025
   59SOL    HW1 1076   0.257   3.746   5.962
   59SOL    HW2 1077   0.241   3.688   6.114
   60SOL     OW 1078   4.720   2.811   4.022
   60SOL    HW1 1079   4.648   2.857   4.074
   60SOL    HW2 1080   4.755   2.734   4.076
   61SOL     OW 1081   6.891   1.383   4.571
   61SOL    HW1 1082   6.821   1.448   4.603
   61SOL    HW2 1083   6.976   1.431   4.553
   62SOL     OW 1084   2.181   1.320   2.176
   62SOL    HW1 1085   2.236   1.304   2.094
   62SOL    HW2 1086   2.240   1.351   2.250
   63SOL     OW 1087   3.531   0.212   4.322
   63SOL    HW1 1088   3.589   0.211   4.241
   63SOL    HW2 1089   3.441   0.248   4.299
   64SOL     OW 1090   6.966   2.684   6.164
   64SOL    HW1 1091   0.031   2.730   6.185
   64SOL    HW2 1092   6.979   2.619   6.089
   65SOL     OW 1093   0.488   5.290   6.107
   65SOL    HW1 1094   0.547   5.369   6.092
   65SOL    HW2 1095   0.451   5.259   6.019
   66SOL     OW 1096   3.396   0.686   3.329
   66SOL    HW1 1097   3.453   0.606   3.311
   66SOL    HW2 1098   3.331   0.666   3.402
   67SOL     OW 1099   0.339   3.278   6.261
   67SOL    HW1 1100   0.310   3.324   6.177
   67SOL    HW2 1101   0.419   3.220   6.241
   68SOL     OW 1102   0.408   1.490   0.013
   68SOL    HW1 1103   0.387   1.438   6.951
   68SOL    HW2 1104   0.505   1.513   0.015
   69SOL     OW 1105   1.132   2.757   5.456
   69SOL    HW1 1106   1.166   2.844   5.492
   69SOL    HW2 1107   1.207   2.691   5.451
   70SOL     OW 1108   5.118   4.778   4.781
   70SOL    HW1 1109   5.019   4.777   4.762
   70SOL    HW2 1110   5.144   4.869   4.812
   71SOL     OW 1111   4.882   2.159   3.614
   71SOL    HW1 1112   4.854   2.249   3.648
   71SOL    HW2 1113   4.975   2.165   3.578
   72SOL     OW 1114   0.921   1.181   2.985
   72SOL    HW1 1115   0.927   1.184   2.886
   72SOL    HW2 1116   1.000   1.133   3.023
   73SOL     OW 1117   3.339   0.303   0.882
   73SOL    HW1 1118   3.242   0.317   0.904
   73SOL    HW2 1119   3.383   0.254   0.957
   74SOL     OW 1120   3.223   1.044   6.812
   74SOL    HW1 1121   3.162   1.051   6.891
   74SOL    HW2 1122   3.279   0.962   6.819
   75SOL     OW 1123   4.284   1.198   1.523
   75SOL    HW1 1124   4.276   1.102   1.552
   75SOL    HW2 1125   4.214   1.252   1.570
   76SOL     OW 1126   3.276   3.214   6.429
   76SOL    HW1 1127   3.213   3.140   6.406
   76SOL    HW2 1128   3.257   3.245   6.523
   77SOL     OW 1129   1.511   6.759   3.080
   77SOL    HW1 1130   1.539   6.702   3.157
   77SOL    HW2 1131   1.447   6.707   3.022
   78SOL     OW 1132   4.751   1.434   1.256
   78SOL    HW1 1133   4.712   1.422   1.165
   78SOL    HW2 1134   4.703   1.508   1.303
   79SOL     OW 1135   2.898   6.384   1.287
   79SOL    HW1 1136   2.825   6.334   1.334
   79SOL    HW2 1137   2.958   6.427   1.354
   80SOL     OW 1138   4.233   1.703   4.199
   80SOL    HW1 1139   4.202   1.708   4.294
   80SOL    HW2 1140   4.157   1.728   4.138
   81SOL     OW 1141   1.541   6.816   1.854
   81SOL    HW1 1142   1.617   6.862   1.901
   81SOL    HW2 1143   1.517   6.867   1.771
   82SOL     OW 1144   6.143   5.589   1.187
   82SOL    HW1 1145   6.232   5.621   1.221
   82SOL    HW2 1146   6.155   5.503   1.137
   83SOL     OW 1147   0.669   1.000   6.667
   83SOL    HW1 1148   0.710   0.910   6.662
   83SOL    HW2 1149   0.679   1.037   6.759
   84SOL     OW 1150   5.584   3.581   3.098
   84SOL    HW1 1151   5.670   3.544   3.131
   84SOL    HW2 1152   5.590   3.681   3.093
   85SOL     OW 1153   1.602   1.021   3.335
   85SOL    HW1 1154   1.691   1.044   3.297
   85SOL    HW2 1155   1.550   0.967   3.269
   86SOL     OW 1156   6.911   1.247   6.880
   86SOL    HW1 1157   6.895   1.257   6.782
   86SOL    HW2 1158   6.948   1.157   6.899
   87SOL     OW 1159   3.612   3.846   1.000
   87SOL    HW1 1160   3.514   3.863   0.988
   87SOL    HW2 1161   3.664   3.919   0.954
   88SOL     OW 1162   2.941   2.373   6.069
   88SOL    HW1 1163   3.040   2.381   6.065
   88SOL    HW2 1164   2.912   2.294   6.016
   89SOL     OW 1165   3.179   3.186   6.830
   89SOL    HW1 1166   3.103   3.137   6.872
   89SOL    HW2 1167   3.156   3.283   6.822
   90SOL     OW 1168   3.753   5.006   2.832
   90SOL    HW1 1169   3.662   4.980   2.802
   90SOL    HW2 1170   3.808   5.032   2.752
   91SOL     OW 1171   6.204   3.996   5.870
   91SOL    HW1 1172   6.247   4.086   5.865
   91SOL    HW2 1173   6.204   3.953   5.779
   92SOL     OW 1174   4.634   4.559   0.665
   92SOL    HW1 1175   4.690   4.640   0.643
   92SOL    HW2 1176   4.691   4.477   0.660
   93SOL     OW 1177   3.346   2.900   6.697
   93SOL    HW1 1178   3.438   2.928   6.670
   93SOL    HW2 1179   3.302   2.974   6.747
   94SOL     OW 1180   2.707   5.796   6.790
   94SOL    HW1 1181   2.775   5.776   6.860
   94SOL    HW2 1182   2.716   5.730   6.715
   95SOL     OW 1183   1.899   0.751   3.416
   95SOL    HW1 1184   1.888   0.677   3.350
   95SOL    HW2 1185   1.809   0.785   3.444
   96SOL     OW 1186   4.809   5.677   5.495
   96SOL    HW1 1187   4.774   5.606   5.556
   96SOL    HW2 1188   4.844   5.753   5.549
   97SOL     OW 1189   2.030   3.746   5.396
   97SOL    HW1 1190   2.073   3.742   5.306
   97SOL    HW2 1191   2.015   3.653   5.430
   98SOL     OW 1192   0.926   1.720   0.243
   98SOL    HW1 1193   0.981   1.789   0.291
   98SOL    HW2 1194   0.874   1.667   0.310
   99SOL     OW 1195   3.732   3.747   2.244
   99SOL    HW1 1196   3.651   3.804   2.234
   99SOL    HW2 1197   3.812   3.796   2.209
  100SOL     OW 1198   6.776   6.735   4.263
  100SOL    HW1 1199   6.838   6.657   4.264
  100SOL    HW2 1200   6.763   6.765   4.168
  101SOL     OW 1201   0.004   5.017   2.280
  101SOL    HW1 1202   0.055   5.092   2.322
  101SOL    HW2 1203   7.009   4.945   2.347
  102SOL     OW 1204   3.668   5.572   2.025
  102SOL    HW1 1205   3.690   5.657   2.073
  102SOL    HW2 1206   3.587   5.530   2.065
  103SOL     OW 1207   2.379   2.248   2.522
  103SOL    HW1 1208   2.308   2.225   2.454
  103SOL    HW2 1209   2.351   2.329   2.572
  104SOL     OW 1210   1.485   4.885   1.971
  104SOL    HW1 1211   1.445   4.898   1.881
  104SOL    HW2 1212   1.484   4.788   1.994
  105SOL     OW 1213   5.891   0.992   6.448
  105SOL    HW1 1214   5.927   1.013   6.357
  105SOL    HW2 1215   5.817   0.925   6.440
  106SOL     OW 1216   4.149   5.956   3.357
  106SOL    HW1 1217   4.193   5.980   3.444
  106SOL    HW2 1218   4.103   5.868   3.366
  107SOL     OW 1219   0.156   1.213   0.322
  107SOL    HW1 1220   0.101   1.139   0.284
  107SOL    HW2 1221   0.100   1.266   0.386
  108SOL     OW 1222   4.084   6.506   6.374
  108SOL    HW1 1223   4.034   6.557   6.304
  108SOL    HW2 1224   4.177   6.542   6.382
  109SOL     OW 1225   2.803   0.910   2.705
  109SOL    HW1 1226   2.798   0.955   2.616
  109SOL    HW2 1227   2.891   0.930   2.748
  110SOL     OW 1228   3.111   4.906   4.289
  110SOL    HW1 1229   3.119   4.973   4.363
  110SOL    HW2 1230   3.025   4.855   4.299
  111SOL     OW 1231   1.971   1.296   3.590
  111SOL    HW1 1232   2.039   1.364   3.616
  111SOL    HW2 1233   1.983   1.213   3.644
  112SOL     OW 1234   5.107   6.047   0.710
  112SOL    HW1 1235   5.036   5.996   0.660
  112SOL    HW2 1236   5.088   6.145   0.704
  113SOL     OW 1237   1.326   5.794   2.682
  113SOL    HW1 1238   1.376   5.738   2.749
  113SOL    HW2 1239   1.253   5.739   2.641
  114SOL     OW 1240   1.552   6.303   1.696
  114SOL    HW1 1241   1.512   6.220   1.735
  114SOL    HW2 1242   1.615   6.344   1.763
  115SOL     OW 1243   5.380   6.845   3.016
  115SOL    HW1 1244   5.335   6.794   3.088
  115SOL    HW2 1245   5.347   6.940   3.017
  116SOL     OW 1246   0.292   5.930   1.235
  116SOL    HW1 1247   0.220   5.962   1.172
  116SOL    HW2 1248   0.250   5.904   1.322
  117SOL     OW 1249   0.897   0.625   0.741
  117SOL    HW1 1250   0.916   0.588   0.650
  117SOL    HW2 1251   0.971   0.597   0.803
  118SOL     OW 1252   1.571   1.831   2.684
  118SOL    HW1 1253   1.622   1.900   2.736
  118SOL    HW2 1254   1.480   1.866   2.662
  119SOL     OW 1255   6.933   0.447   6.709
  119SOL    HW1 1256   6.916   0.531   6.657
  119SOL    HW2 1257   6.903   0.368   6.655
  120SOL     OW 1258   4.969   0.641   4.468
  120SOL    HW1 1259   4.915   0.572   4.516
  120SOL    HW2 1260   5.034   0.596   4.407
  121SOL     OW 1261   1.125   3.969   0.560
  121SOL    HW1 1262   1.070   3.887   0.542
  121SOL    HW2 1263   1.102   4.039   0.492
  122SOL     OW 1264   1.600   3.627   0.427
  122SOL    HW1 1265   1.611   3.654   0.331
  122SOL    HW2 1266   1.519   3.674   0.465
  123SOL     OW 1267   1.003   1.102   2.142
  123SOL    HW1 1268   0.915   1.142   2.119
  123SOL    HW2 1269   1.043   1.058   2.062
  124SOL     OW 1270   3.483   2.325   0.588
  124SOL    HW1 1271   3.431   2.371   0.661
  124SOL    HW2 1272   3.455   2.363   0.500
  125SOL     OW 1273   3.290   2.924   0.649
  125SOL    HW1 1274   3.361   2.855   0.633
  125SOL    HW2 1275   3.255   2.914   0.742
  126SOL     OW 1276   3.610   2.902   3.047
  126SOL    HW1 1277   3.626   2.844   3.127
  126SOL    HW2 1278   3.643   2.995   3.066
  127SOL     OW 1279   6.963   5.890   6.414
  127SOL    HW1 1280   6.923   5.899   6.323
  127SOL    HW2 1281   6.968   5.794   6.438
  128SOL     OW 1282   4.920   3.179   1.438
  128SOL    HW1 1283   4.880   3.263   1.476
  128SOL    HW2 1284   4.997   3.149   1.495
  129SOL     OW 1285   2.790   3.819   0.124
  129SOL    HW1 1286   2.770   3.745   0.188
  129SOL    HW2 1287   2.731   3.897   0.145
  130SOL     OW 1288   6.486   0.431   4.294
  130SOL    HW1 1289   6.508   0.505   4.357
  130SOL    HW2 1290   6.565   0.370   4.286
  131SOL     OW 1291   5.420   0.356   4.067
  131SOL    HW1 1292   5.424   0.328   4.163
  131SOL    HW2 1293   5.376   0.445   4.060
  132SOL     OW 1294   2.972   2.896   1.068
  132SOL    HW1 1295   3.018   2.875   0.981
  132SOL    HW2 1296   2.875   2.910   1.051
  133SOL     OW 1297   5.397   0.628   4.107
  133SOL    HW1 1298   5.478   0.660   4.057
  133SOL    HW2 1299   5.397   0.667   4.198
  134SOL     OW 1300   6.948   0.635   2.824
  134SOL    HW1 1301   6.897   0.720   2.812
  134SOL    HW2 1302   0.019   0.656   2.855
  135SOL     OW 1303   4.986   3.579   4.064
  135SOL    HW1 1304   4.996   3.605   3.968
  135SOL    HW2 1305   4.971   3.661   4.120
  136SOL     OW 1306   1.634   5.401   4.651
  136SOL    HW1 1307   1.560   5.459   4.615
  136SOL    HW2 1308   1.600   5.308   4.665
  137SOL     OW 1309   4.215   1.306   4.310
  137SOL    HW1 1310   4.213   1.346   4.401
  137SOL    HW2 1311   4.310   1.285   4.284
  138SOL     OW 1312   0.781   4.149   2.911
  138SOL    HW1 1313   0.762   4.084   2.985
  138SOL    HW2 1314   0.773   4.102   2.823
  139SOL     OW 1315   1.890   6.006   5.605
  139SOL    HW1 1316   1.962   6.059   5.652
  139SOL    HW2 1317   1.927   5.917   5.580
  140SOL     OW 1318   1.158   6.651   4.089
  140SOL    HW1 1319   1.241   6.697   4.120
  140SOL    HW2 1320   1.154   6.653   3.989
  141SOL     OW 1321   6.459   2.767   5.980
  141SOL    HW1 1322   6.456   2.704   5.902
  141SOL    HW2 1323   6.543   2.752   6.032
  142SOL     OW 1324   2.128   3.455   2.301
  142SOL    HW1 1325   2.168   3.448   2.210
  142SOL    HW2 1326   2.066   3.378   2.316
  143SOL     OW 1327   5.466   5.907   0.679
  143SOL    HW1 1328   5.375   5.948   0.682
  143SOL    HW2 1329   5.519   5.937   0.759
  144SOL     OW 1330   1.889   4.437   5.354
  144SOL    HW1 1331   1.815   4.486   5.307
  144SOL    HW2 1332   1.955   4.503   5.390
  145SOL     OW 1333   1.784   5.718   1.378
  145SOL    HW1 1334   1.794   5.794   1.442
  145SOL    HW2 1335   1.862   5.716   1.316
  146SOL     OW 1336   5.018   0.988   6.920
  146SOL    HW1 1337   5.079   1.060   6.888
  146SOL    HW2 1338   5.031   0.906   6.865
  147SOL     OW 1339   5.366   1.292   5.970
  147SOL    HW1 1340   5.299   1.317   6.041
  147SOL    HW2 1341   5.321   1.292   5.881
  148SOL     OW 1342   0.677   5.550   1.354
  148SOL    HW1 1343   0.675   5.648   1.336
  148SOL    HW2 1344   0.651   5.532   1.448
  149SOL     OW 1345   3.255   1.644   5.019
  149SOL    HW1 1346   3.235   1.546   5.027
  149SOL    HW2 1347   3.226   1.691   5.103
  150SOL     OW 1348   5.134   0.374   6.168
  150SOL    HW1 1349   5.193   0.452   6.190
  150SOL    HW2 1350   5.102   0.332   6.253
  151SOL     OW 1351   3.755   1.019   1.753
  151SOL    HW1 1352   3.738   1.073   1.670
  151SOL    HW2 1353   3.694   1.050   1.826
  152SOL     OW 1354   0.164   1.904   0.476
  152SOL    HW1 1355   0.236   1.881   0.541
  152SOL    HW2 1356   0.197   1.888   0.383
  153SOL     OW 1357   2.791   6.709   3.061
  153SOL    HW1 1358   2.809   6.793   3.012
  153SOL    HW2 1359   2.845   6.706   3.145
  154SOL     OW 1360   0.141   3.327   0.816
  154SOL    HW1 1361   0.168   3.248   0.870
  154SOL    HW2 1362   0.088   3.298   0.737
  155SOL     OW 1363   0.604   0.744   3.111
  155SOL    HW1 1364   0.691   0.710   3.147
  155SOL    HW2 1365   0.529   0.696   3.155
  156SOL     OW 1366   6.598   0.353   6.841
  156SOL    HW1 1367   6.636   0.336   6.751
  156SOL    HW2 1368   6.651   0.424   6.887
  157SOL     OW 1369   5.357   3.345   0.575
  157SOL    HW1 1370   5.430   3.300   0.626
  157SOL    HW2 1371   5.280   3.282   0.564
  158SOL     OW 1372   1.887   2.694   0.967
  158SOL    HW1 1373   1.853   2.647   0.886
  158SOL    HW2 1374   1.824   2.680   1.043
  159SOL     OW 1375   4.046   5.130   1.460
  159SOL    HW1 1376   4.059   5.228   1.476
  159SOL    HW2 1377   4.062   5.109   1.364
  160SOL     OW 1378   6.297   0.093   0.790
  160SOL    HW1 1379   6.284   0.173   0.731
  160SOL    HW2 1380   6.367   0.113   0.858
  161SOL     OW 1381   1.809   0.261   2.033
  161SOL    HW1 1382   1.785   0.210   1.951
  161SOL    HW2 1383   1.908   0.256   2.048
  162SOL     OW 1384   3.400   6.806   6.975
  162SOL    HW1 1385   3.442   6.786   0.042
  162SOL    HW2 1386   3.311   6.762   6.969
  163SOL     OW 1387   0.670   5.672   2.749
  163SOL    HW1 1388   0.735   5.742   2.717
  163SOL    HW2 1389   0.584   5.716   2.775
  164SOL     OW 1390   1.059   3.290   2.399
  164SOL    HW1 1391   0.970   3.308   2.442
  164SOL    HW2 1392   1.046   3.228   2.322
  165SOL     OW 1393   5.389   5.135   0.003
  165SOL    HW1 1394   5.362   5.081   0.083
  165SOL    HW2 1395   5.322   5.207   7.009
  166SOL     OW 1396   0.030   3.636   2.192
  166SOL    HW1 1397   7.018   3.730   2.201
  166SOL    HW2 1398   0.129   3.635   2.203
  167SOL     OW 1399   6.408   1.349   6.384
  167SOL    HW1 1400   6.346   1.271   6.371
  167SOL    HW2 1401   6.503   1.317   6.377
  168SOL     OW 1402   4.330   2.194   1.254
  168SOL    HW1 1403   4.338   2.232   1.162
  168SOL    HW2 1404   4.363   2.262   1.320
  169SOL     OW 1405   5.414   2.208   6.982
  169SOL    HW1 1406   5.388   2.298   7.018
  169SOL    HW2 1407   5.493   2.173   0.009
  170SOL     OW 1408   6.959   5.996   2.626
  170SOL    HW1 1409   6.900   5.934   2.677
  170SOL    HW2 1410   6.904   6.046   2.559
  171SOL     OW 1411   2.279   4.295   0.372
  171SOL    HW1 1412   2.372   4.263   0.358
  171SOL    HW2 1413   2.215   4.236   0.322
  172SOL     OW 1414   5.723   2.055   2.896
  172SOL    HW1 1415   5.764   1.971   2.933
  172SOL    HW2 1416   5.668   2.099   2.967
  173SOL     OW 1417   6.001   1.316   4.745
  173SOL    HW1 1418   5.967   1.243   4.686
  173SOL    HW2 1419   6.031   1.393   4.688
  174SOL     OW 1420   4.559   5.568   3.488
  174SOL    HW1 1421   4.507   5.556   3.573
  174SOL    HW2 1422   4.656   5.583   3.510
  175SOL     OW 1423   3.176   0.881   0.963
  175SOL    HW1 1424   3.192   0.795   0.915
  175SOL    HW2 1425   3.263   0.930   0.971
  176SOL     OW 1426   5.341   4.608   2.617
  176SOL    HW1 1427   5.269   4.540   2.598
  176SOL    HW2 1428   5.380   4.640   2.531
  177SOL     OW 1429   4.793   3.090   4.691
  177SOL    HW1 1430   4.699   3.099   4.723
  177SOL    HW2 1431   4.797   3.026   4.615
  178SOL     OW 1432   2.780   5.009   5.340
  178SOL    HW1 1433   2.866   5.052   5.311
  178SOL    HW2 1434   2.752   4.943   5.271
  179SOL     OW 1435   4.292   0.452   6.984
  179SOL    HW1 1436   4.327   0.418   0.049
  179SOL    HW2 1437   4.198   0.422   6.971
  180SOL     OW 1438   2.260   6.850   0.429
  180SOL    HW1 1439   2.274   6.930   0.371
  180SOL    HW2 1440   2.216   6.777   0.376
  181SOL     OW 1441   3.361   3.150   6.127
  181SOL    HW1 1442   3.271   3.124   6.090
  181SOL    HW2 1443   3.374   3.249   6.116
  182SOL     OW 1444   4.010   2.543   6.367
  182SOL    HW1 1445   4.106   2.570   6.355
  182SOL    HW2 1446   3.955   2.584   6.295
  183SOL     OW 1447   3.528   2.136   3.452
  183SOL    HW1 1448   3.602   2.145   3.518
  183SOL    HW2 1449   3.453   2.084   3.493
  184SOL     OW 1450   0.461   6.637   3.530
  184SOL    HW1 1451   0.528   6.628   3.604
  184SOL    HW2 1452   0.506   6.676   3.449
  185SOL     OW 1453   1.303   1.526   4.694
  185SOL    HW1 1454   1.262   1.435   4.685
  185SOL    HW2 1455   1.289   1.577   4.609
  186SOL     OW 1456   5.376   0.875   4.577
  186SOL    HW1 1457   5.283   0.850   4.607
  186SOL    HW2 1458   5.415   0.942   4.640
  187SOL     OW 1459   5.442   6.635   2.334
  187SOL    HW1 1460   5.462   6.733   2.333
  187SOL    HW2 1461   5.477   6.595   2.419
  188SOL     OW 1462   0.207   3.263   3.880
  188SOL    HW1 1463   0.164   3.353   3.870
  188SOL    HW2 1464   0.306   3.273   3.882
  189SOL     OW 1465   1.664   4.883   6.722
  189SOL    HW1 1466   1.660   4.930   6.809
  189SOL    HW2 1467   1.609   4.932   6.654
  190SOL     OW 1468   5.936   4.525   6.088
  190SOL    HW1 1469   5.930   4.578   6.173
  190SOL    HW2 1470   5.974   4.434   6.108
  191SOL     OW 1471   6.742   1.154   6.642
  191SOL    HW1 1472   6.691   1.087   6.695
  191SOL    HW2 1473   6.691   1.240   6.639
  192SOL     OW 1474   0.303   4.409   1.463
  192SOL    HW1 1475   0.314   4.375   1.369
  192SOL    HW2 1476   0.393   4.424   1.504
  193SOL     OW 1477   4.908   4.287   5.165
  193SOL    HW1 1478   4.856   4.202   5.147
  193SOL    HW2 1479   4.846   4.356   5.202
  194SOL     OW 1480   3.717   6.108   3.122
  194SOL    HW1 1481   3.716   6.024   3.175
  194SOL    HW2 1482   3.749   6.183   3.179
  195SOL     OW 1483   1.867   0.997   3.240
  195SOL    HW1 1484   1.897   1.092   3.254
  195SOL    HW2 1485   1.925   0.936   3.294
  196SOL     OW 1486   3.058   7.006   6.955
  196SOL    HW1 1487   3.006   6.922   6.939
  196SOL    HW2 1488   2.995   0.061   6.968
  197SOL     OW 1489   2.681   7.001   0.338
  197SOL    HW1 1490   2.666   6.940   0.260
  197SOL    HW2 1491   2.765   6.974   0.386
  198SOL     OW 1492   4.804   6.745   2.058
  198SOL    HW1 1493   4.786   6.809   1.983
  198SOL    HW2 1494   4.751   6.661   2.043
  199SOL     OW 1495   6.349   1.167   2.993
  199SOL    HW1 1496   6.339   1.095   3.062
  199SOL    HW2 1497   6.422   1.229   3.019
  200SOL     OW 1498   1.056   4.004   2.173
  200SOL    HW1 1499   1.056   4.086   2.116
  200SOL    HW2 1500   0.982   3.944   2.145
  201SOL     OW 1501   4.569   6.917   6.531
  201SOL    HW1 1502   4.571   6.846   6.602
  201SOL    HW2 1503   4.475   6.951   6.522
  202SOL     OW 1504   5.873   0.557   5.783
  202SOL    HW1 1505   5.829   0.506   5.856
  202SOL    HW2 1506   5.809   0.570   5.708
  203SOL     OW 1507   5.054   2.360   4.588
  203SOL    HW1 1508   5.124   2.355   4.516
  203SOL    HW2 1509   5.078   2.432   4.653
  204SOL     OW 1510   0.163   0.902   6.681
  204SOL    HW1 1511   0.080   0.869   6.728
  204SOL    HW2 1512   0.172   0.856   6.593
  205SOL     OW 1513   0.768   1.184   2.036
  205SOL    HW1 1514   0.792   1.191   1.939
  205SOL    HW2 1515   0.669   1.172   2.044
  206SOL     OW 1516   0.184   5.274   2.533
  206SOL    HW1 1517   0.186   5.223   2.620
  206SOL    HW2 1518   0.228   5.219   2.462
  207SOL     OW 1519   4.212   0.192   4.573
  207SOL    HW1 1520   4.203   0.121   4.503
  207SOL    HW2 1521   4.307   0.196   4.605
  208SOL     OW 1522   5.060   4.148   5.695
  208SOL    HW1 1523   4.986   4.150   5.628
  208SOL    HW2 1524   5.135   4.092   5.661
  209SOL     OW 1525   0.855   5.248   5.568
  209SOL    HW1 1526   0.953   5.242   5.588
  209SOL    HW2 1527   0.839   5.322   5.503
  210SOL     OW 1528   4.404   2.080   1.650
  210SOL    HW1 1529   4.385   2.171   1.686
  210SOL    HW2 1530   4.319   2.037   1.620
  211SOL     OW 1531   1.207   6.687   4.505
  211SOL    HW1 1532   1.149   6.695   4.585
  211SOL    HW2 1533   1.186   6.602   4.457
  212SOL     OW 1534   2.165   4.630   1.963
  212SOL    HW1 1535   2.140   4.624   1.866
  212SOL    HW2 1536   2.094   4.681   2.012
  213SOL     OW 1537   3.588   0.826   6.131
  213SOL    HW1 1538   3.687   0.818   6.132
  213SOL    HW2 1539   3.560   0.887   6.057
  214SOL     OW 1540   3.272   6.084   2.475
  214SOL    HW1 1541   3.276   6.014   2.404
  214SOL    HW2 1542   3.355   6.140   2.472
  215SOL     OW 1543   3.237   4.147   1.810
  215SOL    HW1 1544   3.167   4.219   1.803
  215SOL    HW2 1545   3.284   4.138   1.722
  216SOL     OW 1546   1.808   6.731   4.936
  216SOL    HW1 1547   1.867   6.789   4.992
  216SOL    HW2 1548   1.852   6.714   4.848
  217SOL     OW 1549   2.783   2.336   3.989
  217SOL    HW1 1550   2.790   2.433   3.964
  217SOL    HW2 1551   2.719   2.325   4.065
  218SOL     OW 1552   0.553   3.384   4.366
  218SOL    HW1 1553   0.646   3.381   4.403
  218SOL    HW2 1554   0.511   3.472   4.390
  219SOL     OW 1555   3.552   6.507   6.672
  219SOL    HW1 1556   3.561   6.419   6.626
  219SOL    HW2 1557   3.573   6.581   6.608
  220SOL     OW 1558   3.693   6.142   6.190
  220SOL    HW1 1559   3.622   6.212   6.188
  220SOL    HW2 1560   3.779   6.183   6.218
  221SOL     OW 1561   6.879   3.831   2.607
  221SOL    HW1 1562   6.900   3.907   2.668
  221SOL    HW2 1563   6.915   3.746   2.645
  222SOL     OW 1564   1.950   5.053   5.896
  222SOL    HW1 1565   1.915   5.027   5.806
  222SOL    HW2 1566   2.049   5.067   5.890
  223SOL     OW 1567   6.311   3.684   0.803
  223SOL    HW1 1568   6.311   3.678   0.703
  223SOL    HW2 1569   6.382   3.624   0.839
  224SOL     OW 1570   2.797   1.858   3.717
  224SOL    HW1 1571   2.844   1.920   3.780
  224SOL    HW2 1572   2.817   1.884   3.623
  225SOL     OW 1573   5.183   1.336   6.178
  225SOL    HW1 1574   5.105   1.398   6.169
  225SOL    HW2 1575   5.209   1.329   6.275
  226SOL     OW 1576   0.576   7.019   6.272
  226SOL    HW1 1577   0.661   6.994   6.318
  226SOL    HW2 1578   0.595   0.023   6.177
  227SOL     OW 1579   1.306   4.194   2.124
  227SOL    HW1 1580   1.213   4.170   2.098
  227SOL    HW2 1581   1.367   4.118   2.103
  228SOL     OW 1582   3.564   6.130   3.462
  228SOL    HW1 1583   3.527   6.221   3.446
  228SOL    HW2 1584   3.664   6.132   3.454
  229SOL     OW 1585   5.716   6.308   0.361
  229SOL    HW1 1586   5.654   6.257   0.420
  229SOL    HW2 1587   5.801   6.329   0.410
  230SOL     OW 1588   2.845   4.834   2.746
  230SOL    HW1 1589   2.815   4.928   2.730
  230SOL    HW2 1590   2.800   4.774   2.680
  231SOL     OW 1591   6.265   2.031   6.222
  231SOL    HW1 1592   6.347   2.013   6.276
  231SOL    HW2 1593   6.215   1.945   6.208
  232SOL     OW 1594   0.924   3.950   5.717
  232SOL    HW1 1595   0.892   3.863   5.680
  232SOL    HW2 1596   0.845   4.009   5.735
  233SOL     OW 1597   2.091   0.771   4.089
  233SOL    HW1 1598   2.173   0.789   4.035
  233SOL    HW2 1599   2.016   0.828   4.056
  234SOL     OW 1600   2.834   6.105   5.390
  234SOL    HW1 1601   2.827   6.008   5.414
  234SOL    HW2 1602   2.752   6.133   5.340
  235SOL     OW 1603   3.062   3.459   2.243
  235SOL    HW1 1604   2.992   3.508   2.191
  235SOL    HW2 1605   3.106   3.522   2.307
  236SOL     OW 1606   6.294   2.680   6.596
  236SOL    HW1 1607   6.216   2.634   6.553
  236SOL    HW2 1608   6.350   2.724   6.527
  237SOL     OW 1609   6.587   6.761   0.763
  237SOL    HW1 1610   6.589   6.661   0.767
  237SOL    HW2 1611   6.520   6.790   0.695
  238SOL     OW 1612   5.954   1.886   0.008
  238SOL    HW1 1613   5.980   1.957   0.074
  238SOL    HW2 1614   5.915   1.929   6.949
  239SOL     OW 1615   6.560   5.396   0.162
  239SOL    HW1 1616   6.577   5.484   0.207
  239SOL    HW2 1617   6.647   5.355   0.136
  240SOL     OW 1618   0.128   3.228   5.365
  240SOL    HW1 1619   0.151   3.306   5.423
  240SOL    HW2 1620   0.063   3.257   5.294
  241SOL     OW 1621   1.317   0.496   4.215
  241SOL    HW1 1622   1.229   0.496   4.263
  241SOL    HW2 1623   1.348   0.401   4.203
  242SOL     OW 1624   2.110   3.045   6.208
  242SOL    HW1 1625   2.093   2.957   6.163
  242SOL    HW2 1626   2.095   3.119   6.143
  243SOL     OW 1627   4.981   6.929   6.430
  243SOL    HW1 1628   5.040   6.938   6.511
  243SOL    HW2 1629   4.986   7.012   6.376
  244SOL     OW 1630   4.870   3.159   4.354
  244SOL    HW1 1631   4.916   3.101   4.287
  244SOL    HW2 1632   4.780   3.121   4.374
  245SOL     OW 1633   6.986   2.494   4.784
  245SOL    HW1 1634   6.931   2.513   4.865
  245SOL    HW2 1635   6.959   2.556   4.710
  246SOL     OW 1636   5.698   3.046   3.319
  246SOL    HW1 1637   5.628   3.096   3.268
  246SOL    HW2 1638   5.782   3.040   3.265
  247SOL     OW 1639   1.763   2.019   2.244
  247SOL    HW1 1640   1.704   1.957   2.192
  247SOL    HW2 1641   1.728   2.028   2.337
  248SOL     OW 1642   4.655   2.607   4.611
  248SOL    HW1 1643   4.716   2.555   4.670
  248SOL    HW2 1644   4.621   2.687   4.660
  249SOL     OW 1645   5.010   0.090   5.346
  249SOL    HW1 1646   5.058   0.110   5.262
  249SOL    HW2 1647   4.958   0.005   5.335
  250SOL     OW 1648   4.618   2.423   5.698
  250SOL    HW1 1649   4.642   2.419   5.795
  250SOL    HW2 1650   4.542   2.486   5.686
  251SOL     OW 1651   4.439   4.614   6.087
  251SOL    HW1 1652   4.399   4.695   6.131
  251SOL    HW2 1653   4.428   4.535   6.148
  252SOL     OW 1654   6.766   0.526   7.014
  252SOL    HW1 1655   6.794   0.461   0.063
  252SOL    HW2 1656   6.847   0.569   6.974
  253SOL     OW 1657   2.093   4.117   0.289
  253SOL    HW1 1658   2.108   4.019   0.277
  253SOL    HW2 1659   2.033   4.151   0.216
  254SOL     OW 1660   6.387   2.703   3.432
  254SOL    HW1 1661   6.375   2.621   3.488
  254SOL    HW2 1662   6.482   2.707   3.399
  255SOL     OW 1663   2.206   2.868   4.236
  255SOL    HW1 1664   2.114   2.829   4.238
  255SOL    HW2 1665   2.200   2.967   4.251
  256SOL     OW 1666   6.653   4.559   0.107
  256SOL    HW1 1667   6.717   4.482   0.109
  256SOL    HW2 1668   6.599   4.559   0.191
  257SOL     OW 1669   3.505   5.598   5.292
  257SOL    HW1 1670   3.531   5.642   5.206
  257SOL    HW2 1671   3.456   5.513   5.272
  258SOL     OW 1672   5.716   4.480   4.896
  258SOL    HW1 1673   5.754   4.570   4.919
  258SOL    HW2 1674   5.629   4.467   4.943
  259SOL     OW 1675   1.905   2.912   2.202
  259SOL    HW1 1676   1.843   2.964   2.261
  259SOL    HW2 1677   1.996   2.910   2.242
  260SOL     OW 1678   4.135   0.940   1.207
  260SOL    HW1 1679   4.157   0.998   1.128
  260SOL    HW2 1680   4.217   0.926   1.262
  261SOL     OW 1681   6.703   3.593   1.311
  261SOL    HW1 1682   6.608   3.566   1.322
  261SOL    HW2 1683   6.745   3.539   1.238
  262SOL     OW 1684   0.763   3.865   1.913
  262SOL    HW1 1685   0.787   3.768   1.909
  262SOL    HW2 1686   0.665   3.875   1.930
  263SOL     OW 1687   0.589   1.344   3.641
  263SOL    HW1 1688   0.681   1.374   3.667
  263SOL    HW2 1689   0.559   1.394   3.560
  264SOL     OW 1690   5.790   4.634   5.417
  264SOL    HW1 1691   5.884   4.643   5.384
  264SOL    HW2 1692   5.726   4.643   5.340
  265SOL     OW 1693   4.849   4.030   3.172
  265SOL    HW1 1694   4.882   4.089   3.099
  265SOL    HW2 1695   4.843   3.936   3.139
  266SOL     OW 1696   3.521   2.675   6.285
  266SOL    HW1 1697   3.548   2.623   6.366
  266SOL    HW2 1698   3.526   2.773   6.304
  267SOL     OW 1699   7.015   2.416   6.010
  267SOL    HW1 1700   0.021   2.320   6.017
  267SOL    HW2 1701   0.010   2.448   5.917
  268SOL     OW 1702   5.197   5.862   5.214
  268SOL    HW1 1703   5.212   5.833   5.119
  268SOL    HW2 1704   5.277   5.914   5.245
  269SOL     OW 1705   1.780   1.792   0.485
  269SOL    HW1 1706   1.820   1.701   0.493
  269SOL    HW2 1707   1.687   1.784   0.448
  270SOL     OW 1708   0.017   0.558   2.363
  270SOL    HW1 1709   0.054   0.582   2.274
  270SOL    HW2 1710   0.044   0.626   2.431
  271SOL     OW 1711   2.872   1.965   0.225
  271SOL    HW1 1712   2.779   1.934   0.207
  271SOL    HW2 1713   2.907   1.920   0.307
  272SOL     OW 1714   3.073   5.447   4.374
  272SOL    HW1 1715   3.158   5.487   4.340
  272SOL    HW2 1716   3.030   5.393   4.302
  273SOL     OW 1717   1.507   5.446   5.309
  273SOL    HW1 1718   1.416   5.447   5.268
  273SOL    HW2 1719   1.500   5.416   5.404
  274SOL     OW 1720   5.790   2.226   4.204
  274SOL    HW1 1721   5.701   2.184   4.187
  274SOL    HW2 1722   5.796   2.255   4.300
  275SOL     OW 1723   0.074   6.124   6.442
  275SOL    HW1 1724   0.024   6.038   6.445
  275SOL    HW2 1725   0.034   6.183   6.372
  276SOL     OW 1726   6.707   5.380   3.877
  276SOL    HW1 1727   6.645   5.311   3.914
  276SOL    HW2 1728   6.685   5.396   3.780
  277SOL     OW 1729   3.069   1.451   6.552
  277SOL    HW1 1730   3.099   1.546   6.561
  277SOL    HW2 1731   2.990   1.447   6.491
  278SOL     OW 1732   6.326   3.455   2.004
  278SOL    HW1 1733   6.362   3.420   2.090
  278SOL    HW2 1734   6.365   3.403   1.928
  279SOL     OW 1735   6.383   2.899   4.251
  279SOL    HW1 1736   6.404   2.855   4.163
  279SOL    HW2 1737   6.467   2.936   4.291
  280SOL     OW 1738   3.920   0.006   2.977
  280SOL    HW1 1739   3.902   0.096   2.937
  280SOL    HW2 1740   3.838   6.971   2.971
  281SOL     OW 1741   2.705   4.801   3.007
  281SOL    HW1 1742   2.635   4.849   2.954
  281SOL    HW2 1743   2.793   4.806   2.959
  282SOL     OW 1744   4.047   2.511   5.397
  282SOL    HW1 1745   4.104   2.469   5.327
  282SOL    HW2 1746   4.013   2.441   5.460
  283SOL     OW 1747   6.111   0.630   5.900
  283SOL    HW1 1748   6.037   0.602   5.839
  283SOL    HW2 1749   6.188   0.566   5.892
  284SOL     OW 1750   0.744   4.753   4.873
  284SOL    HW1 1751   0.694   4.697   4.939
  284SOL    HW2 1752   0.837   4.770   4.906
  285SOL     OW 1753   5.377   5.564   7.020
  285SOL    HW1 1754   5.285   5.602   0.012
  285SOL    HW2 1755   5.369   5.468   6.994
  286SOL     OW 1756   4.201   4.831   5.182
  286SOL    HW1 1757   4.106   4.805   5.199
  286SOL    HW2 1758   4.214   4.927   5.205
  287SOL     OW 1759   0.987   5.476   6.837
  287SOL    HW1 1760   0.896   5.449   6.870
  287SOL    HW2 1761   1.028   5.542   6.900
  288SOL     OW 1762   4.008   1.291   0.358
  288SOL    HW1 1763   4.105   1.288   0.336
  288SOL    HW2 1764   3.955   1.310   0.276
  289SOL     OW 1765   0.428   5.572   5.438
  289SOL    HW1 1766   0.390   5.665   5.436
  289SOL    HW2 1767   0.355   5.506   5.423
  290SOL     OW 1768   5.045   1.244   3.601
  290SOL    HW1 1769   5.020   1.156   3.561
  290SOL    HW2 1770   4.973   1.273   3.664
  291SOL     OW 1771   3.908   1.012   4.440
  291SOL    HW1 1772   3.944   0.963   4.361
  291SOL    HW2 1773   3.911   1.111   4.423
  292SOL     OW 1774   4.842   1.322   3.771
  292SOL    HW1 1775   4.819   1.248   3.834
  292SOL    HW2 1776   4.869   1.403   3.823
  293SOL     OW 1777   4.220   6.342   1.510
  293SOL    HW1 1778   4.276   6.415   1.471
  293SOL    HW2 1779   4.153   6.380   1.573
  294SOL     OW 1780   6.046   5.626   6.909
  294SOL    HW1 1781   5.955   5.602   6.876
  294SOL    HW2 1782   6.098   5.543   6.929
  295SOL     OW 1783   2.456   1.982   5.348
  295SOL    HW1 1784   2.534   2.041   5.324
  295SOL    HW2 1785   2.374   2.038   5.359
  296SOL     OW 1786   6.546   2.456   1.885
  296SOL    HW1 1787   6.635   2.478   1.846
  296SOL    HW2 1788   6.558   2.388   1.958
  297SOL     OW 1789   3.282   4.898   2.992
  297SOL    HW1 1790   3.214   4.897   2.919
  297SOL    HW2 1791   3.237   4.920   3.079
  298SOL     OW 1792   4.367   6.974   0.310
  298SOL    HW1 1793   4.362   6.947   0.214
  298SOL    HW2 1794   4.384   6.893   0.367
  299SOL     OW 1795   4.662   2.192   6.366
  299SOL    HW1 1796   4.595   2.265   6.349
  299SOL    HW2 1797   4.625   2.128   6.433
  300SOL     OW 1798   4.235   0.650   2.515
  300SOL    HW1 1799   4.236   0.552   2.537
  300SOL    HW2 1800   4.317   0.673   2.463
  301SOL     OW 1801   5.031   1.346   1.135
  301SOL    HW1 1802   5.090   1.406   1.081
  301SOL    HW2 1803   4.947   1.395   1.160
  302SOL     OW 1804   6.899   0.897   2.689
  302SOL    HW1 1805   6.857   0.935   2.606
  302SOL    HW2 1806   6.867   0.949   2.769
  303SOL     OW 1807   6.601   5.829   2.014
  303SOL    HW1 1808   6.665   5.799   2.085
  303SOL    HW2 1809   6.513   5.851   2.056
  304SOL     OW 1810   2.182   6.052   6.540
  304SOL    HW1 1811   2.164   6.150   6.549
  304SOL    HW2 1812   2.184   6.010   6.631
  305SOL     OW 1813   1.332   2.806   0.801
  305SOL    HW1 1814   1.261   2.844   0.860
  305SOL    HW2 1815   1.415   2.862   0.809
  306SOL     OW 1816   0.457   1.049   2.835
  306SOL    HW1 1817   0.414   1.122   2.888
  306SOL    HW2 1818   0.556   1.063   2.833
  307SOL     OW 1819   4.289   4.379   0.298
  307SOL    HW1 1820   4.315   4.461   0.247
  307SOL    HW2 1821   4.325   4.384   0.391
  308SOL     OW 1822   5.671   2.919   4.685
  308SOL    HW1 1823   5.675   2.990   4.614
  308SOL    HW2 1824   5.576   2.908   4.714
  309SOL     OW 1825   1.667   6.026   7.009
  309SOL    HW1 1826   1.592   6.051   6.948
  309SOL    HW2 1827   1.631   6.007   0.079
  310SOL     OW 1828   5.031   5.988   4.691
  310SOL    HW1 1829   4.939   6.027   4.702
  310SOL    HW2 1830   5.090   6.023   4.763
  311SOL     OW 1831   3.108   5.248   2.535
  311SOL    HW1 1832   3.187   5.252   2.474
  311SOL    HW2 1833   3.035   5.196   2.492
  312SOL     OW 1834   3.540   2.053   4.217
  312SOL    HW1 1835   3.553   1.954   4.223
  312SOL    HW2 1836   3.468   2.080   4.281
  313SOL     OW 1837   3.300   4.055   2.397
  313SOL    HW1 1838   3.397   4.034   2.390
  313SOL    HW2 1839   3.257   3.990   2.460
  314SOL     OW 1840   2.302   4.619   5.664
  314SOL    HW1 1841   2.395   4.655   5.660
  314SOL    HW2 1842   2.249   4.668   5.734
  315SOL     OW 1843   1.178   2.397   4.172
  315SOL    HW1 1844   1.253   2.337   4.143
  315SOL    HW2 1845   1.206   2.448   4.253
  316SOL     OW 1846   3.497   0.654   4.290
  316SOL    HW1 1847   3.489   0.585   4.362
  316SOL    HW2 1848   3.562   0.724   4.318
  317SOL     OW 1849   0.207   1.865   1.261
  317SOL    HW1 1850   0.151   1.943   1.285
  317SOL    HW2 1851   0.165   1.781   1.296
  318SOL     OW 1852   7.003   6.663   0.008
  318SOL    HW1 1853   7.016   6.759   0.034
  318SOL    HW2 1854   7.004   6.655   6.930
  319SOL     OW 1855   6.465   1.621   3.530
  319SOL    HW1 1856   6.562   1.643   3.542
  319SOL    HW2 1857   6.415   1.647   3.613
  320SOL     OW 1858   5.849   2.714   0.181
  320SOL    HW1 1859   5.791   2.634   0.167
  320SOL    HW2 1860   5.873   2.754   0.093
  321SOL     OW 1861   4.051   2.083   7.015
  321SOL    HW1 1862   4.127   2.147   7.006
  321SOL    HW2 1863   4.011   2.092   0.084
  322SOL     OW 1864   2.979   3.154   4.320
  322SOL    HW1 1865   2.945   3.062   4.342
  322SOL    HW2 1866   2.969   3.213   4.400
  323SOL     OW 1867   1.014   2.583   5.839
  323SOL    HW1 1868   0.932   2.538   5.873
  323SOL    HW2 1869   1.083   2.514   5.816
  324SOL     OW 1870   2.754   0.350   3.208
  324SOL    HW1 1871   2.809   0.298   3.142
  324SOL    HW2 1872   2.750   0.446   3.181
  325SOL     OW 1873   0.277   2.731   1.985
  325SOL    HW1 1874   0.351   2.782   1.942
  325SOL    HW2 1875   0.193   2.786   1.983
  326SOL     OW 1876   1.098   4.354   6.147
  326SOL    HW1 1877   1.113   4.422   6.219
  326SOL    HW2 1878   1.002   4.329   6.144
  327SOL     OW 1879   2.219   4.635   2.798
  327SOL    HW1 1880   2.260   4.634   2.889
  327SOL    HW2 1881   2.233   4.725   2.757
  328SOL     OW 1882   1.971   5.542   1.979
  328SOL    HW1 1883   1.941   5.634   2.006
  328SOL    HW2 1884   1.947   5.526   1.883
  329SOL     OW 1885   2.940   3.436   5.543
  329SOL    HW1 1886   2.912   3.417   5.449
  329SOL    HW2 1887   2.866   3.412   5.605
  330SOL     OW 1888   3.228   6.584   0.985
  330SOL    HW1 1889   3.227   6.630   0.896
  330SOL    HW2 1890   3.221   6.486   0.972
  331SOL     OW 1891   4.321   5.772   0.528
  331SOL    HW1 1892   4.326   5.801   0.624
  331SOL    HW2 1893   4.231   5.734   0.509
  332SOL     OW 1894   5.303   2.877   5.580
  332SOL    HW1 1895   5.374   2.866   5.510
  332SOL    HW2 1896   5.345   2.872   5.671
  333SOL     OW 1897   4.388   0.966   5.549
  333SOL    HW1 1898   4.313   0.901   5.536
  333SOL    HW2 1899   4.458   0.924   5.607
  334SOL     OW 1900   3.151   2.073   0.213
  334SOL    HW1 1901   3.209   2.095   0.292
  334SOL    HW2 1902   3.074   2.016   0.243
  335SOL     OW 1903   3.769   0.045   6.235
  335SOL    HW1 1904   3.812   0.089   6.157
  335SOL    HW2 1905   3.682   0.091   6.256
  336SOL     OW 1906   3.157   1.039   3.213
  336SOL    HW1 1907   3.180   0.942   3.209
  336SOL    HW2 1908   3.070   1.055   3.166
  337SOL     OW 1909   6.873   3.569   5.475
  337SOL    HW1 1910   6.971   3.549   5.464
  337SOL    HW2 1911   6.854   3.588   5.572
  338SOL     OW 1912   2.987   2.461   1.208
  338SOL    HW1 1913   2.995   2.556   1.238
  338SOL    HW2 1914   3.059   2.406   1.252
  339SOL     OW 1915   4.414   5.696   4.542
  339SOL    HW1 1916   4.434   5.682   4.445
  339SOL    HW2 1917   4.438   5.789   4.568
  340SOL     OW 1918   5.492   3.543   4.432
  340SOL    HW1 1919   5.548   3.539   4.515
  340SOL    HW2 1920   5.406   3.588   4.453
  341SOL     OW 1921   6.297   6.530   4.482
  341SOL    HW1 1922   6.210   6.559   4.442
  341SOL    HW2 1923   6.329   6.600   4.546
  342SOL     OW 1924   5.828   3.586   0.475
  342SOL    HW1 1925   5.741   3.605   0.520
  342SOL    HW2 1926   5.811   3.533   0.391
  343SOL     OW 1927   0.744   5.869   1.534
  343SOL    HW1 1928   0.727   5.860   1.436
  343SOL    HW2 1929   0.741   5.965   1.561
  344SOL     OW 1930   0.645   3.434   1.790
  344SOL    HW1 1931   0.727   3.479   1.755
  344SOL    HW2 1932   0.626   3.353   1.734
  345SOL     OW 1933   5.192   2.284   3.446
  345SOL    HW1 1934   5.204   2.368   3.394
  345SOL    HW2 1935   5.120   2.229   3.402
  346SOL     OW 1936   1.867   1.246   2.329
  346SOL    HW1 1937   1.859   1.162   2.383
  346SOL    HW2 1938   1.962   1.275   2.326
  347SOL     OW 1939   2.803   5.753   0.047
  347SOL    HW1 1940   2.838   5.839   0.009
  347SOL    HW2 1941   2.877   5.705   0.094
  348SOL     OW 1942   4.857   3.783   2.421
  348SOL    HW1 1943   4.839   3.880   2.403
  348SOL    HW2 1944   4.865   3.734   2.334
  349SOL     OW 1945   0.011   5.096   1.421
  349SOL    HW1 1946   6.952   5.036   1.421
  349SOL    HW2 1947   0.039   5.113   1.516
  350SOL     OW 1948   3.047   2.056   1.295
  350SOL    HW1 1949   3.029   2.096   1.385
  350SOL    HW2 1950   3.120   2.107   1.249
  351SOL     OW 1951   2.623   3.431   0.740
  351SOL    HW1 1952   2.652   3.337   0.721
  351SOL    HW2 1953   2.695   3.478   0.791
  352SOL     OW 1954   3.271   6.741   3.482
  352SOL    HW1 1955   3.347   6.767   3.422
  352SOL    HW2 1956   3.274   6.643   3.500
  353SOL     OW 1957   3.465   0.241   6.835
  353SOL    HW1 1958   3.502   0.151   6.860
  353SOL    HW2 1959   3.435   0.240   6.740
  354SOL     OW 1960   4.599   2.144   1.456
  354SOL    HW1 1961   4.527   2.123   1.522
  354SOL    HW2 1962   4.606   2.070   1.389
  355SOL     OW 1963   1.562   4.207   2.808
  355SOL    HW1 1964   1.621   4.138   2.767
  355SOL    HW2 1965   1.610   4.294   2.815
  356SOL     OW 1966   2.251   0.575   5.485
  356SOL    HW1 1967   2.260   0.609   5.579
  356SOL    HW2 1968   2.175   0.621   5.439
  357SOL     OW 1969   6.841   6.997   5.259
  357SOL    HW1 1970   6.913   6.951   5.207
  357SOL    HW2 1971   6.855   6.981   5.356
  358SOL     OW 1972   4.712   6.537   0.276
  358SOL    HW1 1973   4.637   6.481   0.243
  358SOL    HW2 1974   4.751   6.496   0.358
  359SOL     OW 1975   3.055   1.927   1.742
  359SOL    HW1 1976   3.017   1.862   1.807
  359SOL    HW2 1977   2.990   1.941   1.667
  360SOL     OW 1978   1.216   4.327   5.350
  360SOL    HW1 1979   1.267   4.410   5.329
  360SOL    HW2 1980   1.121   4.351   5.369
  361SOL     OW 1981   6.797   6.116   2.922
  361SOL    HW1 1982   6.697   6.112   2.927
  361SOL    HW2 1983   6.835   6.105   3.014
  362SOL     OW 1984   3.321   2.699   1.819
  362SOL    HW1 1985   3.304   2.611   1.864
  362SOL    HW2 1986   3.419   2.710   1.804
  363SOL     OW 1987   5.581   3.870   3.017
  363SOL    HW1 1988   5.492   3.892   2.977
  363SOL    HW2 1989   5.654   3.894   2.952
  364SOL     OW 1990   6.371   5.044   6.608
  364SOL    HW1 1991   6.428   4.978   6.560
  364SOL    HW2 1992   6.326   5.104   6.542
  365SOL     OW 1993   5.267   6.885   2.138
  365SOL    HW1 1994   5.188   6.842   2.181
  365SOL    HW2 1995   5.235   6.954   2.072
  366SOL     OW 1996   5.429   1.327   6.945
  366SOL    HW1 1997   5.464   1.276   0.002
  366SOL    HW2 1998   5.345   1.283   6.912
  367SOL     OW 1999   5.884   2.386   1.283
  367SOL    HW1 2000   5.954   2.394   1.354
  367SOL    HW2 2001   5.885   2.293   1.246
  368SOL     OW 2002   0.559   2.915   5.590
  368SOL    HW1 2003   0.512   2.923   5.503
  368SOL    HW2 2004   0.635   2.980   5.594
  369SOL     OW 2005   6.205   5.205   2.977
  369SOL    HW1 2006   6.183   5.256   2.894
  369SOL    HW2 2007   6.291   5.156   2.964
  370SOL     OW 2008   1.694   1.482   5.208
  370SOL    HW1 2009   1.643   1.433   5.137
  370SOL    HW2 2010   1.734   1.565   5.169
  371SOL     OW 2011   1.543   4.525   5.534
  371SOL    HW1 2012   1.511   4.484   5.620
  371SOL    HW2 2013   1.623   4.582   5.552
  372SOL     OW 2014   1.535   0.154   6.328
  372SOL    HW1 2015   1.455   0.213   6.320
  372SOL    HW2 2016   1.523   0.073   6.270
  373SOL     OW 2017   6.256   6.261   4.720
  373SOL    HW1 2018   6.231   6.183   4.777
  373SOL    HW2 2019   6.321   6.319   4.770
  374SOL     OW 2020   2.798   1.761   4.180
  374SOL    HW1 2021   2.822   1.677   4.131
  374SOL    HW2 2022   2.700   1.778   4.170
  375SOL     OW 2023   0.904   4.541   3.539
  375SOL    HW1 2024   0.917   4.515   3.635
  375SOL    HW2 2025   0.876   4.637   3.534
  376SOL     OW 2026   2.197   1.077   5.332
  376SOL    HW1 2027   2.175   1.120   5.419
  376SOL    HW2 2028   2.151   1.125   5.258
  377SOL     OW 2029   1.345   1.823   0.796
  377SOL    HW1 2030   1.371   1.834   0.892
  377SOL    HW2 2031   1.257   1.867   0.781
  378SOL     OW 2032   4.803   2.418   6.689
  378SOL    HW1 2033   4.779   2.482   6.615
  378SOL    HW2 2034   4.747   2.336   6.681
  379SOL     OW 2035   6.155   2.471   1.698
  379SOL    HW1 2036   6.080   2.447   1.759
  379SOL    HW2 2037   6.219   2.531   1.746
  380SOL     OW 2038   3.215   0.934   0.604
  380SOL    HW1 2039   3.160   0.977   0.676
  380SOL    HW2 2040   3.160   0.923   0.522
  381SOL     OW 2041   1.713   4.129   3.152
  381SOL    HW1 2042   1.722   4.193   3.076
  381SOL    HW2 2043   1.773   4.051   3.137
  382SOL     OW 2044   5.899   0.745   0.144
  382SOL    HW1 2045   5.932   0.825   0.095
  382SOL    HW2 2046   5.859   0.680   0.078
  383SOL     OW 2047   3.870   3.716   6.604
  383SOL    HW1 2048   3.803   3.715   6.530
  383SOL    HW2 2049   3.874   3.808   6.643
  384SOL     OW 2050   6.897   5.584   4.308
  384SOL    HW1 2051   6.815   5.541   4.346
  384SOL    HW2 2052   6.872   5.639   4.228
  385SOL     OW 2053   3.073   4.806   5.159
  385SOL    HW1 2054   3.005   4.733   5.152
  385SOL    HW2 2055   3.092   4.825   5.255
  386SOL     OW 2056   2.717   6.823   4.532
  386SOL    HW1 2057   2.806   6.869   4.539
  386SOL    HW2 2058   2.674   6.847   4.445
  387SOL     OW 2059   1.423   6.842   2.273
  387SOL    HW1 2060   1.521   6.821   2.272
  387SOL    HW2 2061   1.382   6.817   2.186
  388SOL     OW 2062   1.024   2.375   5.525
  388SOL    HW1 2063   0.936   2.419   5.541
  388SOL    HW2 2064   1.055   2.396   5.432
  389SOL     OW 2065   3.821   3.600   1.785
  389SOL    HW1 2066   3.825   3.603   1.685
  389SOL    HW2 2067   3.726   3.589   1.815
  390SOL     OW 2068   2.515   1.790   2.220
  390SOL    HW1 2069   2.609   1.763   2.201
  390SOL    HW2 2070   2.511   1.887   2.242
  391SOL     OW 2071   2.359   2.332   6.761
  391SOL    HW1 2072   2.282   2.374   6.809
  391SOL    HW2 2073   2.401   2.263   6.820
  392SOL     OW 2074   1.412   4.526   0.411
  392SOL    HW1 2075   1.447   4.433   0.423
  392SOL    HW2 2076   1.486   4.591   0.422
  393SOL     OW 2077   1.085   4.529   6.350
  393SOL    HW1 2078   0.998   4.573   6.374
  393SOL    HW2 2079   1.153   4.547   6.421
  394SOL     OW 2080   6.679   1.881   0.190
  394SOL    HW1 2081   6.755   1.883   0.125
  394SOL    HW2 2082   6.710   1.841   0.276
  395SOL     OW 2083   4.846   3.777   2.703
  395SOL    HW1 2084   4.853   3.782   2.604
  395SOL    HW2 2085   4.830   3.683   2.731
  396SOL     OW 2086   3.619   3.704   1.348
  396SOL    HW1 2087   3.587   3.793   1.316
  396SOL    HW2 2088   3.609   3.637   1.274
  397SOL     OW 2089   5.876   1.525   5.671
  397SOL    HW1 2090   5.780   1.526   5.643
  397SOL    HW2 2091   5.934   1.519   5.589
  398SOL     OW 2092   0.675   6.661   2.226
  398SOL    HW1 2093   0.623   6.579   2.250
  398SOL    HW2 2094   0.768   6.654   2.263
  399SOL     OW 2095   6.143   6.073   2.699
  399SOL    HW1 2096   6.157   6.153   2.757
  399SOL    HW2 2097   6.209   6.074   2.624
  400SOL     OW 2098   6.526   6.325   5.803
  400SOL    HW1 2099   6.620   6.332   5.839
  400SOL    HW2 2100   6.528   6.336   5.704
  401SOL     OW 2101   5.811   0.688   6.197
  401SOL    HW1 2102   5.758   0.706   6.114
  401SOL    HW2 2103   5.854   0.773   6.228
  402SOL     OW 2104   5.749   6.927   3.342
  402SOL    HW1 2105   5.737   6.849   3.404
  402SOL    HW2 2106   5.659   6.966   3.321
  403SOL     OW 2107   3.844   2.208   4.225
  403SOL    HW1 2108   3.838   2.163   4.136
  403SOL    HW2 2109   3.882   2.300   4.215
  404SOL     OW 2110   1.699   4.891   4.119
  404SOL    HW1 2111   1.670   4.892   4.214
  404SOL    HW2 2112   1.785   4.841   4.110
  405SOL     OW 2113   1.537   3.666   1.775
  405SOL    HW1 2114   1.542   3.750   1.720
  405SOL    HW2 2115   1.444   3.655   1.810
  406SOL     OW 2116   1.010   4.362   4.453
  406SOL    HW1 2117   1.045   4.390   4.542
  406SOL    HW2 2118   1.086   4.338   4.393
  407SOL     OW 2119   1.713   0.617   4.154
  407SOL    HW1 2120   1.767   0.650   4.232
  407SOL    HW2 2121   1.684   0.523   4.172
  408SOL     OW 2122   1.419   2.149   2.786
  408SOL    HW1 2123   1.377   2.063   2.814
  408SOL    HW2 2124   1.428   2.209   2.866
  409SOL     OW 2125   6.903   2.970   1.644
  409SOL    HW1 2126   6.950   3.052   1.612
  409SOL    HW2 2127   6.806   2.990   1.656
  410SOL     OW 2128   1.908   1.753   1.215
  410SOL    HW1 2129   1.911   1.724   1.119
  410SOL    HW2 2130   1.921   1.673   1.274
  411SOL     OW 2131   5.573   6.738   1.651
  411SOL    HW1 2132   5.568   6.734   1.751
  411SOL    HW2 2133   5.589   6.646   1.616
  412SOL     OW 2134   4.304   6.208   3.994
  412SOL    HW1 2135   4.267   6.248   4.077
  412SOL    HW2 2136   4.264   6.117   3.980
  413SOL     OW 2137   4.910   3.657   1.225
  413SOL    HW1 2138   4.906   3.635   1.128
  413SOL    HW2 2139   5.000   3.634   1.261
  414SOL     OW 2140   3.730   5.536   3.631
  414SOL    HW1 2141   3.805   5.478   3.601
  414SOL    HW2 2142   3.725   5.617   3.573
  415SOL     OW 2143   0.845   6.118   6.572
  415SOL    HW1 2144   0.841   6.082   6.479
  415SOL    HW2 2145   0.928   6.173   6.582
  416SOL     OW 2146   5.233   6.674   4.399
  416SOL    HW1 2147   5.156   6.707   4.344
  416SOL    HW2 2148   5.313   6.663   4.339
  417SOL     OW 2149   2.596   5.476   6.339
  417SOL    HW1 2150   2.534   5.507   6.411
  417SOL    HW2 2151   2.558   5.395   6.295
  418SOL     OW 2152   4.555   6.681   7.004
  418SOL    HW1 2153   4.506   6.600   0.015
  418SOL    HW2 2154   4.653   6.663   7.003
  419SOL     OW 2155   2.173   7.018   1.670
  419SOL    HW1 2156   2.077   0.024   1.676
  419SOL    HW2 2157   2.193   6.950   1.740
  420SOL     OW 2158   5.870   1.285   0.199
  420SOL    HW1 2159   5.892   1.318   0.108
  420SOL    HW2 2160   5.941   1.313   0.263
  421SOL     OW 2161   0.062   4.474   5.857
  421SOL    HW1 2162   0.046   4.380   5.885
  421SOL    HW2 2163   0.101   4.475   5.765
  422SOL     OW 2164   5.934   3.453   1.788
  422SOL    HW1 2165   5.852   3.464   1.733
  422SOL    HW2 2166   5.978   3.366   1.766
  423SOL     OW 2167   0.854   2.124   6.300
  423SOL    HW1 2168   0.822   2.107   6.207
  423SOL    HW2 2169   0.941   2.076   6.314
  424SOL     OW 2170   2.056   5.035   0.847
  424SOL    HW1 2171   2.093   5.035   0.754
  424SOL    HW2 2172   2.131   5.026   0.913
  425SOL     OW 2173   5.151   1.501   3.624
  425SOL    HW1 2174   5.193   1.510   3.534
  425SOL    HW2 2175   5.131   1.404   3.641
  426SOL     OW 2176   3.768   2.056   4.480
  426SOL    HW1 2177   3.745   2.114   4.401
  426SOL    HW2 2178   3.693   1.991   4.495
  427SOL     OW 2179   5.627   6.475   3.804
  427SOL    HW1 2180   5.725   6.488   3.789
  427SOL    HW2 2181   5.581   6.564   3.809
  428SOL     OW 2182   4.369   0.503   4.237
  428SOL    HW1 2183   4.315   0.419   4.250
  428SOL    HW2 2184   4.311   0.583   4.249
  429SOL     OW 2185   1.418   4.505   1.260
  429SOL    HW1 2186   1.431   4.501   1.160
  429SOL    HW2 2187   1.353   4.434   1.287
  430SOL     OW 2188   0.703   0.547   5.089
  430SOL    HW1 2189   0.624   0.501   5.130
  430SOL    HW2 2190   0.674   0.596   5.007
  431SOL     OW 2191   2.510   0.417   0.838
  431SOL    HW1 2192   2.583   0.445   0.901
  431SOL    HW2 2193   2.431   0.384   0.890
  432SOL     OW 2194   6.416   1.880   0.789
  432SOL    HW1 2195   6.430   1.901   0.693
  432SOL    HW2 2196   6.351   1.805   0.798
  433SOL     OW 2197   2.441   6.610   4.669
  433SOL    HW1 2198   2.521   6.596   4.611
  433SOL    HW2 2199   2.471   6.628   4.763
  434SOL     OW 2200   3.317   5.703   2.958
  434SOL    HW1 2201   3.342   5.634   2.889
  434SOL    HW2 2202   3.286   5.786   2.912
  435SOL     OW 2203   5.224   2.884   6.696
  435SOL    HW1 2204   5.149   2.819   6.688
  435SOL    HW2 2205   5.275   2.865   6.780
  436SOL     OW 2206   3.198   5.995   1.805
  436SOL    HW1 2207   3.266   6.061   1.771
  436SOL    HW2 2208   3.138   5.968   1.730
  437SOL     OW 2209   0.865   1.381   0.310
  437SOL    HW1 2210   0.857   1.301   0.250
  437SOL    HW2 2211   0.799   1.450   0.283
  438SOL     OW 2212   2.041   4.026   3.593
  438SOL    HW1 2213   2.006   4.090   3.525
  438SOL    HW2 2214   2.128   4.059   3.628
  439SOL     OW 2215   5.566   5.145   2.547
  439SOL    HW1 2216   5.658   5.131   2.585
  439SOL    HW2 2217   5.498   5.132   2.618
  440SOL     OW 2218   2.294   1.429   4.864
  440SOL    HW1 2219   2.366   1.468   4.921
  440SOL    HW2 2220   2.321   1.436   4.768
  441SOL     OW 2221   0.481   3.036   4.036
  441SOL    HW1 2222   0.559   3.053   4.096
  441SOL    HW2 2223   0.479   3.105   3.963
  442SOL     OW 2224   3.873   5.382   5.728
  442SOL    HW1 2225   3.783   5.339   5.736
  442SOL    HW2 2226   3.885   5.417   5.634
  443SOL     OW 2227   6.020   4.604   3.798
  443SOL    HW1 2228   6.114   4.606   3.763
  443SOL    HW2 2229   6.018   4.649   3.888
  444SOL     OW 2230   4.758   0.693   6.103
  444SOL    HW1 2231   4.726   0.607   6.062
  444SOL    HW2 2232   4.858   0.696   6.099
  445SOL     OW 2233   1.055   5.773   2.633
  445SOL    HW1 2234   1.020   5.690   2.591
  445SOL    HW2 2235   1.028   5.852   2.578
  446SOL     OW 2236   2.854   5.599   3.801
  446SOL    HW1 2237   2.939   5.587   3.851
  446SOL    HW2 2238   2.784   5.638   3.861
  447SOL     OW 2239   0.139   2.876   6.219
  447SOL    HW1 2240   0.230   2.885   6.179
  447SOL    HW2 2241   0.090   2.963   6.209
  448SOL     OW 2242   2.121   0.243   3.713
  448SOL    HW1 2243   2.144   0.318   3.652
  448SOL    HW2 2244   2.204   0.194   3.739
  449SOL     OW 2245   3.674   1.288   3.828
  449SOL    HW1 2246   3.753   1.343   3.798
  449SOL    HW2 2247   3.642   1.232   3.751
  450SOL     OW 2248   1.410   5.182   2.636
  450SOL    HW1 2249   1.462   5.169   2.721
  450SOL    HW2 2250   1.323   5.226   2.657
  451SOL     OW 2251   1.642   2.262   3.499
  451SOL    HW1 2252   1.617   2.219   3.586
  451SOL    HW2 2253   1.588   2.222   3.425
  452SOL     OW 2254   5.495   6.707   0.608
  452SOL    HW1 2255   5.429   6.728   0.536
  452SOL    HW2 2256   5.588   6.720   0.572
  453SOL     OW 2257   4.398   0.408   6.202
  453SOL    HW1 2258   4.495   0.430   6.207
  453SOL    HW2 2259   4.349   0.453   6.276
  454SOL     OW 2260   6.456   4.242   6.096
  454SOL    HW1 2261   6.540   4.270   6.141
  454SOL    HW2 2262   6.458   4.270   6.000
  455SOL     OW 2263   5.779   2.373   3.964
  455SOL    HW1 2264   5.770   2.301   4.033
  455SOL    HW2 2265   5.821   2.335   3.881
  456SOL     OW 2266   6.318   6.627   3.720
  456SOL    HW1 2267   6.286   6.671   3.804
  456SOL    HW2 2268   6.335   6.530   3.738
  457SOL     OW 2269   2.075   2.570   3.885
  457SOL    HW1 2270   2.067   2.579   3.786
  457SOL    HW2 2271   2.060   2.474   3.911
  458SOL     OW 2272   4.425   5.728   3.165
  458SOL    HW1 2273   4.363   5.781   3.107
  458SOL    HW2 2274   4.440   5.776   3.251
  459SOL     OW 2275   1.812   6.957   5.713
  459SOL    HW1 2276   1.847   7.002   5.631
  459SOL    HW2 2277   1.850   6.865   5.720
  460SOL     OW 2278   2.603   6.460   3.978
  460SOL    HW1 2279   2.653   6.526   3.921
  460SOL    HW2 2280   2.666   6.421   4.045
  461SOL     OW 2281   6.775   5.961   6.580
  461SOL    HW1 2282   6.838   5.909   6.522
  461SOL    HW2 2283   6.694   5.986   6.527
  462SOL     OW 2284   4.055   3.497   0.137
  462SOL    HW1 2285   4.101   3.530   0.220
  462SOL    HW2 2286   3.988   3.428   0.162
  463SOL     OW 2287   5.469   6.028   3.336
  463SOL    HW1 2288   5.463   5.980   3.423
  463SOL    HW2 2289   5.444   5.964   3.262
  464SOL     OW 2290   2.701   1.559   5.621
  464SOL    HW1 2291   2.646   1.538   5.540
  464SOL    HW2 2292   2.648   1.617   5.683
  465SOL     OW 2293   0.583   2.786   0.371
  465SOL    HW1 2294   0.658   2.733   0.331
  465SOL    HW2 2295   0.586   2.879   0.334
  466SOL     OW 2296   1.281   6.110   3.677
  466SOL    HW1 2297   1.244   6.135   3.588
  466SOL    HW2 2298   1.325   6.021   3.672
  467SOL     OW 2299   1.540   1.011   0.903
  467SOL    HW1 2300   1.561   0.966   0.990
  467SOL    HW2 2301   1.447   0.987   0.874
  468SOL     OW 2302   3.619   6.836   6.141
  468SOL    HW1 2303   3.687   6.823   6.069
  468SOL    HW2 2304   3.647   6.913   6.199
  469SOL     OW 2305   2.924   3.357   6.443
  469SOL    HW1 2306   2.843   3.389   6.491
  469SOL    HW2 2307   2.897   3.317   6.355
  470SOL     OW 2308   4.661   6.294   1.629
  470SOL    HW1 2309   4.676   6.227   1.701
  470SOL    HW2 2310   4.620   6.376   1.667
  471SOL     OW 2311   2.602   2.459   3.740
  471SOL    HW1 2312   2.647   2.470   3.651
  471SOL    HW2 2313   2.593   2.362   3.762
  472SOL     OW 2314   4.339   3.492   0.085
  472SOL    HW1 2315   4.249   3.469   0.122
  472SOL    HW2 2316   4.377   3.413   0.036
  473SOL     OW 2317   1.862   2.274   2.602
  473SOL    HW1 2318   1.892   2.195   2.547
  473SOL    HW2 2319   1.764   2.286   2.592
  474SOL     OW 2320   5.415   5.338   4.296
  474SOL    HW1 2321   5.464   5.258   4.261
  474SOL    HW2 2322   5.470   5.383   4.366
  475SOL     OW 2323   5.937   1.319   6.466
  475SOL    HW1 2324   6.014   1.374   6.497
  475SOL    HW2 2325   5.928   1.238   6.523
  476SOL     OW 2326   0.355   3.260   2.893
  476SOL    HW1 2327   0.367   3.341   2.951
  476SOL    HW2 2328   0.352   3.178   2.950
  477SOL     OW 2329   2.701   6.112   2.814
  477SOL    HW1 2330   2.742   6.196   2.779
  477SOL    HW2 2331   2.620   6.134   2.868
  478SOL     OW 2332   3.479   6.550   2.676
  478SOL    HW1 2333   3.469   6.451   2.684
  478SOL    HW2 2334   3.559   6.572   2.620
  479SOL     OW 2335   4.178   2.187   6.219
  479SOL    HW1 2336   4.097   2.178   6.161
  479SOL    HW2 2337   4.173   2.122   6.295
  480SOL     OW 2338   2.910   0.156   0.081
  480SOL    HW1 2339   2.900   0.233   0.144
  480SOL    HW2 2340   2.932   0.073   0.133
  481SOL     OW 2341   2.163   6.805   1.395
  481SOL    HW1 2342   2.121   6.844   1.313
  481SOL    HW2 2343   2.228   6.870   1.434
  482SOL     OW 2344   4.173   4.744   2.128
  482SOL    HW1 2345   4.097   4.777   2.184
  482SOL    HW2 2346   4.230   4.682   2.182
  483SOL     OW 2347   6.305   1.682   2.201
  483SOL    HW1 2348   6.229   1.617   2.208
  483SOL    HW2 2349   6.392   1.634   2.205
  484SOL     OW 2350   1.548   3.369   5.096
  484SOL    HW1 2351   1.491   3.451   5.105
  484SOL    HW2 2352   1.644   3.393   5.111
  485SOL     OW 2353   3.974   5.521   2.807
  485SOL    HW1 2354   3.893   5.503   2.752
  485SOL    HW2 2355   3.960   5.487   2.900
  486SOL     OW 2356   6.454   1.889   0.502
  486SOL    HW1 2357   6.419   1.813   0.447
  486SOL    HW2 2358   6.553   1.892   0.495
  487SOL     OW 2359   0.981   0.484   2.882
  487SOL    HW1 2360   0.932   0.422   2.943
  487SOL    HW2 2361   0.952   0.468   2.788
  488SOL     OW 2362   0.827   1.198   1.762
  488SOL    HW1 2363   0.927   1.194   1.758
  488SOL    HW2 2364   0.789   1.165   1.676
  489SOL     OW 2365   4.486   6.025   5.792
  489SOL    HW1 2366   4.518   5.992   5.703
  489SOL    HW2 2367   4.519   5.964   5.864
  490SOL     OW 2368   0.600   5.998   2.896
  490SOL    HW1 2369   0.671   6.067   2.883
  490SOL    HW2 2370   0.514   6.030   2.856
  491SOL     OW 2371   1.186   3.837   2.333
  491SOL    HW1 2372   1.272   3.886   2.343
  491SOL    HW2 2373   1.136   3.874   2.255
  492SOL     OW 2374   1.293   0.444   5.245
  492SOL    HW1 2375   1.272   0.361   5.296
  492SOL    HW2 2376   1.289   0.425   5.147
  493SOL     OW 2377   4.700   6.398   5.564
  493SOL    HW1 2378   4.647   6.480   5.584
  493SOL    HW2 2379   4.733   6.402   5.469
  494SOL     OW 2380   0.635   6.729   6.993
  494SOL    HW1 2381   0.561   6.796   7.000
  494SOL    HW2 2382   0.607   6.653   6.935
  495SOL     OW 2383   4.716   5.891   3.535
  495SOL    HW1 2384   4.713   5.991   3.527
  495SOL    HW2 2385   4.767   5.866   3.617
  496SOL     OW 2386   5.039   2.633   1.790
  496SOL    HW1 2387   4.964   2.689   1.824
  496SOL    HW2 2388   5.031   2.540   1.825
  497SOL     OW 2389   2.768   1.760   4.810
  497SOL    HW1 2390   2.844   1.758   4.875
  497SOL    HW2 2391   2.802   1.750   4.717
  498SOL     OW 2392   0.716   4.584   1.283
  498SOL    HW1 2393   0.689   4.529   1.203
  498SOL    HW2 2394   0.719   4.681   1.256
  499SOL     OW 2395   1.307   5.763   4.219
  499SOL    HW1 2396   1.385   5.819   4.244
  499SOL    HW2 2397   1.332   5.666   4.225
  500SOL     OW 2398   0.039   2.156   6.056
  500SOL    HW1 2399   0.030   2.103   6.140
  500SOL    HW2 2400   6.985   2.135   5.995
  501SOL     OW 2401   2.936   0.288   0.575
  501SOL    HW1 2402   3.029   0.287   0.537
  501SOL    HW2 2403   2.870   0.302   0.501
  502SOL     OW 2404   1.020   3.829   6.229
  502SOL    HW1 2405   1.113   3.812   6.259
  502SOL    HW2 2406   0.958   3.827   6.308
  503SOL     OW 2407   7.019   5.193   6.784
  503SOL    HW1 2408   0.055   5.142   6.721
  503SOL    HW2 2409   6.960   5.130   6.834
  504SOL     OW 2410   1.032   5.048   2.553
  504SOL    HW1 2411   1.030   4.952   2.583
  504SOL    HW2 2412   1.110   5.062   2.491
  505SOL     OW 2413   2.947   6.086   4.871
  505SOL    HW1 2414   2.880   6.065   4.941
  505SOL    HW2 2415   3.039   6.071   4.907
  506SOL     OW 2416   3.203   4.996   4.060
  506SOL    HW1 2417   3.180   4.955   4.148
  506SOL    HW2 2418   3.121   5.035   4.019
  507SOL     OW 2419   3.446   6.837   3.322
  507SOL    HW1 2420   3.406   6.909   3.266
  507SOL    HW2 2421   3.544   6.851   3.330
  508SOL     OW 2422   6.585   3.775   2.893
  508SOL    HW1 2423   6.528   3.753   2.814
  508SOL    HW2 2424   6.675   3.733   2.881
  509SOL     OW 2425   2.644   1.497   1.557
  509SOL    HW1 2426   2.597   1.550   1.627
  509SOL    HW2 2427   2.697   1.558   1.497
  510SOL     OW 2428   6.176   3.848   6.660
  510SOL    HW1 2429   6.221   3.758   6.663
  510SOL    HW2 2430   6.238   3.917   6.696
  511SOL     OW 2431   1.013   2.549   6.199
  511SOL    HW1 2432   1.104   2.571   6.163
  511SOL    HW2 2433   0.943   2.594   6.144
  512SOL     OW 2434   6.634   3.074   6.153
  512SOL    HW1 2435   6.607   3.164   6.117
  512SOL    HW2 2436   6.606   3.067   6.249
  513SOL     OW 2437   5.783   6.811   3.765
  513SOL    HW1 2438   5.830   6.739   3.815
  513SOL    HW2 2439   5.772   6.783   3.669
  514SOL     OW 2440   6.327   0.975   4.321
  514SOL    HW1 2441   6.287   0.884   4.324
  514SOL    HW2 2442   6.295   1.023   4.239
  515SOL     OW 2443   0.994   6.568   0.284
  515SOL    HW1 2444   0.946   6.517   0.212
  515SOL    HW2 2445   1.091   6.572   0.262
  516SOL     OW 2446   2.714   4.719   2.199
  516SOL    HW1 2447   2.725   4.817   2.218
  516SOL    HW2 2448   2.773   4.692   2.123
  517SOL     OW 2449   4.144   5.380   1.457
  517SOL    HW1 2450   4.098   5.439   1.523
  517SOL    HW2 2451   4.242   5.382   1.474
  518SOL     OW 2452   2.515   2.092   3.399
  518SOL    HW1 2453   2.434   2.137   3.437
  518SOL    HW2 2454   2.511   1.994   3.421
  519SOL     OW 2455   0.366   6.117   4.162
  519SOL    HW1 2456   0.439   6.160   4.215
  519SOL    HW2 2457   0.289   6.181   4.153
  520SOL     OW 2458   6.239   3.441   6.872
  520SOL    HW1 2459   6.305   3.516   6.874
  520SOL    HW2 2460   6.204   3.426   6.964
  521SOL     OW 2461   6.194   5.785   5.247
  521SOL    HW1 2462   6.114   5.727   5.263
  521SOL    HW2 2463   6.192   5.863   5.311
  522SOL     OW 2464   3.406   3.306   4.741
  522SOL    HW1 2465   3.321   3.357   4.726
  522SOL    HW2 2466   3.384   3.212   4.768
  523SOL     OW 2467   1.216   5.741   1.255
  523SOL    HW1 2468   1.251   5.672   1.318
  523SOL    HW2 2469   1.276   5.821   1.257
  524SOL     OW 2470   0.513   1.810   2.601
  524SOL    HW1 2471   0.546   1.737   2.661
  524SOL    HW2 2472   0.427   1.782   2.558
  525SOL     OW 2473   1.872   4.119   6.032
  525SOL    HW1 2474   1.898   4.024   6.021
  525SOL    HW2 2475   1.866   4.163   5.942
  526SOL     OW 2476   3.913   5.488   3.909
  526SOL    HW1 2477   3.862   5.548   3.847
  526SOL    HW2 2478   4.011   5.500   3.894
  527SOL     OW 2479   6.066   2.814   0.600
  527SOL    HW1 2480   6.144   2.853   0.551
  527SOL    HW2 2481   5.994   2.790   0.535
  528SOL     OW 2482   1.238   2.477   3.812
  528SOL    HW1 2483   1.163   2.412   3.824
  528SOL    HW2 2484   1.326   2.428   3.812
  529SOL     OW 2485   1.511   6.490   4.735
  529SOL    HW1 2486   1.534   6.478   4.638
  529SOL    HW2 2487   1.507   6.401   4.779
  530SOL     OW 2488   3.500   3.247   4.034
  530SOL    HW1 2489   3.522   3.169   3.974
  530SOL    HW2 2490   3.409   3.234   4.072
  531SOL     OW 2491   0.558   2.055   2.970
  531SOL    HW1 2492   0.548   2.102   3.058
  531SOL    HW2 2493   0.556   2.122   2.896
  532SOL     OW 2494   0.691   3.061   6.874
  532SOL    HW1 2495   0.774   3.009   6.894
  532SOL    HW2 2496   0.613   3.020   6.923
  533SOL     OW 2497   3.861   6.863   4.346
  533SOL    HW1 2498   3.778   6.814   4.319
  533SOL    HW2 2499   3.918   6.804   4.403
  534SOL     OW 2500   5.482   6.033   1.968
  534SOL    HW1 2501   5.560   5.971   1.962
  534SOL    HW2 2502   5.410   5.990   2.022
  535SOL     OW 2503   6.881   3.479   4.427
  535SOL    HW1 2504   6.976   3.452   4.413
  535SOL    HW2 2505   6.828   3.459   4.345
  536SOL     OW 2506   5.985   4.942   2.220
  536SOL    HW1 2507   6.083   4.928   2.204
  536SOL    HW2 2508   5.938   4.854   2.216
  537SOL     OW 2509   2.706   6.550   4.599
  537SOL    HW1 2510   2.782   6.550   4.664
  537SOL    HW2 2511   2.699   6.641   4.557
  538SOL     OW 2512   1.406   5.507   3.844
  538SOL    HW1 2513   1.395   5.524   3.746
  538SOL    HW2 2514   1.317   5.512   3.889
  539SOL     OW 2515   2.022   5.900   1.261
  539SOL    HW1 2516   2.037   5.899   1.162
  539SOL    HW2 2517   1.941   5.955   1.281
  540SOL     OW 2518   1.588   1.422   3.246
  540SOL    HW1 2519   1.598   1.519   3.222
  540SOL    HW2 2520   1.621   1.366   3.170
  541SOL     OW 2521   4.836   5.518   3.503
  541SOL    HW1 2522   4.852   5.496   3.407
  541SOL    HW2 2523   4.852   5.437   3.559
  542SOL     OW 2524   5.717   6.228   6.565
  542SOL    HW1 2525   5.755   6.246   6.474
  542SOL    HW2 2526   5.617   6.222   6.558
  543SOL     OW 2527   0.817   3.156   4.743
  543SOL    HW1 2528   0.912   3.184   4.734
  543SOL    HW2 2529   0.803   3.114   4.832
  544SOL     OW 2530   1.962   4.794   6.878
  544SOL    HW1 2531   2.026   4.752   6.813
  544SOL    HW2 2532   1.984   4.891   6.888
  545SOL     OW 2533   3.338   1.370   1.725
  545SOL    HW1 2534   3.356   1.467   1.708
  545SOL    HW2 2535   3.256   1.361   1.781
  546SOL     OW 2536   1.938   3.194   0.580
  546SOL    HW1 2537   1.914   3.214   0.485
  546SOL    HW2 2538   1.862   3.222   0.640
  547SOL     OW 2539   3.339   0.765   0.403
  547SOL    HW1 2540   3.303   0.848   0.447
  547SOL    HW2 2541   3.386   0.790   0.319
  548SOL     OW 2542   3.582   3.517   2.119
  548SOL    HW1 2543   3.602   3.613   2.135
  548SOL    HW2 2544   3.534   3.479   2.198
  549SOL     OW 2545   5.361   2.915   1.214
  549SOL    HW1 2546   5.369   2.896   1.116
  549SOL    HW2 2547   5.420   2.852   1.265
  550SOL     OW 2548   1.175   5.457   3.958
  550SOL    HW1 2549   1.094   5.510   3.984
  550SOL    HW2 2550   1.147   5.375   3.908
  551SOL     OW 2551   1.235   1.045   2.589
  551SOL    HW1 2552   1.210   0.948   2.600
  551SOL    HW2 2553   1.228   1.071   2.493
  552SOL     OW 2554   5.843   4.486   0.057
  552SOL    HW1 2555   5.868   4.391   0.075
  552SOL    HW2 2556   5.783   4.519   0.130
  553SOL     OW 2557   2.537   6.735   2.764
  553SOL    HW1 2558   2.488   6.809   2.811
  553SOL    HW2 2559   2.624   6.719   2.810
  554SOL     OW 2560   5.665   0.069   6.677
  554SOL    HW1 2561   5.696   0.129   6.751
  554SOL    HW2 2562   5.708   7.001   6.686
  555SOL     OW 2563   1.979   4.544   4.184
  555SOL    HW1 2564   2.007   4.525   4.090
  555SOL    HW2 2565   1.936   4.463   4.223
  556SOL     OW 2566   3.936   2.162   3.587
  556SOL    HW1 2567   3.961   2.070   3.554
  556SOL    HW2 2568   3.847   2.158   3.632
  557SOL     OW 2569   0.280   5.360   0.917
  557SOL    HW1 2570   0.305   5.448   0.877
  557SOL    HW2 2571   0.338   5.342   0.997
  558SOL     OW 2572   2.958   3.255   4.566
  558SOL    HW1 2573   2.947   3.174   4.624
  558SOL    HW2 2574   2.905   3.331   4.602
  559SOL     OW 2575   6.818   6.215   0.422
  559SOL    HW1 2576   6.889   6.221   0.352
  559SOL    HW2 2577   6.740   6.272   0.393
  560SOL     OW 2578   4.869   4.820   6.698
  560SOL    HW1 2579   4.935   4.804   6.624
  560SOL    HW2 2580   4.792   4.758   6.687
  561SOL     OW 2581   0.996   1.674   1.709
  561SOL    HW1 2582   0.930   1.616   1.756
  561SOL    HW2 2583   1.087   1.658   1.748
  562SOL     OW 2584   5.133   0.855   5.812
  562SOL    HW1 2585   5.109   0.939   5.764
  562SOL    HW2 2586   5.201   0.804   5.759
  563SOL     OW 2587   2.636   0.421   3.597
  563SOL    HW1 2588   2.565   0.469   3.546
  563SOL    HW2 2589   2.674   0.348   3.541
  564SOL     OW 2590   1.674   1.667   0.228
  564SOL    HW1 2591   1.752   1.606   0.243
  564SOL    HW2 2592   1.706   1.751   0.184
  565SOL     OW 2593   3.227   3.178   5.358
  565SOL    HW1 2594   3.303   3.121   5.326
  565SOL    HW2 2595   3.151   3.171   5.293
  566SOL     OW 2596   0.049   5.012   3.486
  566SOL    HW1 2597   0.121   4.942   3.487
  566SOL    HW2 2598   0.025   5.032   3.391
  567SOL     OW 2599   3.018   2.708   1.276
  567SOL    HW1 2600   2.987   2.768   1.202
  567SOL    HW2 2601   2.981   2.741   1.363
  568SOL     OW 2602   4.519   1.437   0.290
  568SOL    HW1 2603   4.497   1.390   0.375
  568SOL    HW2 2604   4.578   1.379   0.234
  569SOL     OW 2605   1.799   3.172   6.194
  569SOL    HW1 2606   1.865   3.177   6.270
  569SOL    HW2 2607   1.776   3.264   6.163
  570SOL     OW 2608   3.613   6.671   6.915
  570SOL    HW1 2609   3.596   6.625   6.827
  570SOL    HW2 2610   3.534   6.728   6.938
  571SOL     OW 2611   2.965   0.033   1.912
  571SOL    HW1 2612   2.899   0.101   1.883
  571SOL    HW2 2613   2.982   6.989   1.838
  572SOL     OW 2614   2.232   5.018   5.848
  572SOL    HW1 2615   2.331   5.007   5.849
  572SOL    HW2 2616   2.206   5.081   5.775
  573SOL     OW 2617   5.871   1.886   5.475
  573SOL    HW1 2618   5.836   1.800   5.437
  573SOL    HW2 2619   5.905   1.944   5.401
  574SOL     OW 2620   3.323   1.792   4.121
  574SOL    HW1 2621   3.367   1.881   4.105
  574SOL    HW2 2622   3.254   1.776   4.051
  575SOL     OW 2623   5.223   3.953   6.977
  575SOL    HW1 2624   5.171   4.028   7.019
  575SOL    HW2 2625   5.291   3.991   6.915
  576SOL     OW 2626   0.885   2.270   2.923
  576SOL    HW1 2627   0.960   2.231   2.977
  576SOL    HW2 2628   0.881   2.369   2.938
  577SOL     OW 2629   1.490   1.083   2.415
  577SOL    HW1 2630   1.459   1.175   2.440
  577SOL    HW2 2631   1.420   1.039   2.359
  578SOL     OW 2632   5.778   5.734   3.560
  578SOL    HW1 2633   5.826   5.800   3.502
  578SOL    HW2 2634   5.816   5.642   3.545
  579SOL     OW 2635   2.111   2.984   2.713
  579SOL    HW1 2636   2.041   2.920   2.681
  579SOL    HW2 2637   2.137   2.961   2.807
  580SOL     OW 2638   6.273   5.275   0.535
  580SOL    HW1 2639   6.365   5.283   0.497
  580SOL    HW2 2640   6.234   5.186   0.509
  581SOL     OW 2641   2.644   3.690   1.472
  581SOL    HW1 2642   2.717   3.637   1.429
  581SOL    HW2 2643   2.648   3.679   1.571
  582SOL     OW 2644   4.407   6.956   1.884
  582SOL    HW1 2645   4.338   0.005   1.901
  582SOL    HW2 2646   4.392   6.916   1.793
  583SOL     OW 2647   2.736   5.232   5.769
  583SOL    HW1 2648   2.802   5.297   5.731
  583SOL    HW2 2649   2.705   5.170   5.697
  584SOL     OW 2650   2.851   4.042   6.282
  584SOL    HW1 2651   2.774   4.028   6.221
  584SOL    HW2 2652   2.822   4.026   6.377
  585SOL     OW 2653   5.744   3.039   6.450
  585SOL    HW1 2654   5.694   3.118   6.486
  585SOL    HW2 2655   5.680   2.965   6.429
  586SOL     OW 2656   3.735   1.567   5.571
  586SOL    HW1 2657   3.771   1.525   5.654
  586SOL    HW2 2658   3.650   1.521   5.543
  587SOL     OW 2659   4.475   1.862   5.725
  587SOL    HW1 2660   4.414   1.927   5.770
  587SOL    HW2 2661   4.442   1.844   5.632
  588SOL     OW 2662   1.946   4.463   1.565
  588SOL    HW1 2663   1.854   4.455   1.603
  588SOL    HW2 2664   1.994   4.538   1.610
  589SOL     OW 2665   3.296   4.622   1.378
  589SOL    HW1 2666   3.227   4.689   1.349
  589SOL    HW2 2667   3.326   4.644   1.470
  590SOL     OW 2668   4.924   3.298   3.258
  590SOL    HW1 2669   5.023   3.287   3.261
  590SOL    HW2 2670   4.881   3.238   3.326
  591SOL     OW 2671   4.030   5.764   4.125
  591SOL    HW1 2672   4.009   5.756   4.223
  591SOL    HW2 2673   4.082   5.684   4.095
  592SOL     OW 2674   3.456   0.887   1.301
  592SOL    HW1 2675   3.537   0.911   1.247
  592SOL    HW2 2676   3.434   0.790   1.286
  593SOL     OW 2677   4.816   2.532   3.388
  593SOL    HW1 2678   4.820   2.581   3.301
  593SOL    HW2 2679   4.733   2.476   3.391
  594SOL     OW 2680   6.228   2.175   6.773
  594SOL    HW1 2681   6.233   2.274   6.762
  594SOL    HW2 2682   6.244   2.150   6.868
  595SOL     OW 2683   5.954   6.883   3.161
  595SOL    HW1 2684   5.880   6.903   3.225
  595SOL    HW2 2685   6.028   6.837   3.209
  596SOL     OW 2686   1.449   4.786   3.028
  596SOL    HW1 2687   1.532   4.800   3.080
  596SOL    HW2 2688   1.373   4.833   3.073
  597SOL     OW 2689   3.705   0.396   0.279
  597SOL    HW1 2690   3.663   0.482   0.250
  597SOL    HW2 2691   3.779   0.372   0.216
  598SOL     OW 2692   4.063   4.886   5.536
  598SOL    HW1 2693   4.017   4.857   5.451
  598SOL    HW2 2694   4.090   4.981   5.527
  599SOL     OW 2695   2.365   6.102   2.035
  599SOL    HW1 2696   2.402   6.135   1.948
  599SOL    HW2 2697   2.394   6.163   2.108
  600SOL     OW 2698   0.569   1.258   0.295
  600SOL    HW1 2699   0.500   1.330   0.289
  600SOL    HW2 2700   0.525   1.171   0.314
  601SOL     OW 2701   2.706   0.264   4.007
  601SOL    HW1 2702   2.638   0.303   3.946
  601SOL    HW2 2703   2.781   0.329   4.020
  602SOL     OW 2704   1.974   2.798   6.762
  602SOL    HW1 2705   1.931   2.884   6.789
  602SOL    HW2 2706   2.067   2.816   6.729
  603SOL     OW 2707   2.795   2.296   4.375
  603SOL    HW1 2708   2.771   2.355   4.452
  603SOL    HW2 2709   2.773   2.201   4.397
  604SOL     OW 2710   1.091   3.271   1.493
  604SOL    HW1 2711   1.084   3.366   1.524
  604SOL    HW2 2712   1.007   3.222   1.515
  605SOL     OW 2713   6.952   6.536   2.153
  605SOL    HW1 2714   6.910   6.445   2.145
  605SOL    HW2 2715   6.885   6.606   2.129
  606SOL     OW 2716   4.699   0.311   6.851
  606SOL    HW1 2717   4.740   0.242   6.791
  606SOL    HW2 2718   4.761   0.388   6.860
  607SOL     OW 2719   6.649   6.866   6.083
  607SOL    HW1 2720   6.620   6.950   6.128
  607SOL    HW2 2721   6.666   6.884   5.986
  608SOL     OW 2722   3.016   6.362   6.405
  608SOL    HW1 2723   3.035   6.302   6.327
  608SOL    HW2 2724   3.099   6.372   6.460
  609SOL     OW 2725   4.081   3.409   3.227
  609SOL    HW1 2726   4.092   3.508   3.221
  609SOL    HW2 2727   4.066   3.382   3.322
  610SOL     OW 2728   4.851   3.063   2.323
  610SOL    HW1 2729   4.858   3.159   2.350
  610SOL    HW2 2730   4.816   3.058   2.229
  611SOL     OW 2731   3.847   0.187   0.623
  611SOL    HW1 2732   3.801   0.236   0.549
  611SOL    HW2 2733   3.941   0.165   0.596
  612SOL     OW 2734   4.151   6.778   5.641
  612SOL    HW1 2735   4.142   6.714   5.718
  612SOL    HW2 2736   4.200   6.860   5.672
  613SOL     OW 2737   4.020   0.071   5.641
  613SOL    HW1 2738   3.964   0.126   5.702
  613SOL    HW2 2739   4.072   0.004   5.694
  614SOL     OW 2740   4.666   4.459   1.177
  614SOL    HW1 2741   4.602   4.521   1.222
  614SOL    HW2 2742   4.635   4.441   1.084
  615SOL     OW 2743   6.847   2.800   2.057
  615SOL    HW1 2744   6.825   2.884   2.106
  615SOL    HW2 2745   6.933   2.813   2.006
  616SOL     OW 2746   0.699   2.118   4.081
  616SOL    HW1 2747   0.799   2.121   4.090
  616SOL    HW2 2748   0.670   2.178   4.007
  617SOL     OW 2749   6.271   4.096   6.240
  617SOL    HW1 2750   6.338   4.139   6.178
  617SOL    HW2 2751   6.251   4.003   6.208
  618SOL     OW 2752   6.673   2.625   6.752
  618SOL    HW1 2753   6.641   2.635   6.657
  618SOL    HW2 2754   6.594   2.628   6.814
  619SOL     OW 2755   4.312   0.999   6.858
  619SOL    HW1 2756   4.332   0.926   6.923
  619SOL    HW2 2757   4.318   0.963   6.765
  620SOL     OW 2758   4.509   3.246   1.548
  620SOL    HW1 2759   4.452   3.329   1.547
  620SOL    HW2 2760   4.579   3.254   1.477
  621SOL     OW 2761   2.397   6.155   6.334
  621SOL    HW1 2762   2.470   6.220   6.358
  621SOL    HW2 2763   2.312   6.182   6.379
  622SOL     OW 2764   1.596   0.968   4.915
  622SOL    HW1 2765   1.655   1.022   4.855
  622SOL    HW2 2766   1.513   1.020   4.935
  623SOL     OW 2767   0.826   5.721   6.047
  623SOL    HW1 2768   0.902   5.667   6.013
  623SOL    HW2 2769   0.791   5.779   5.974
  624SOL     OW 2770   6.994   1.910   1.845
  624SOL    HW1 2771   6.974   2.003   1.813
  624SOL    HW2 2772   6.987   1.846   1.769
  625SOL     OW 2773   0.954   1.912   1.894
  625SOL    HW1 2774   0.893   1.945   1.966
  625SOL    HW2 2775   1.008   1.835   1.928
  626SOL     OW 2776   0.941   6.018   2.994
  626SOL    HW1 2777   0.877   6.017   3.071
  626SOL    HW2 2778   0.989   6.106   2.993
  627SOL     OW 2779   6.324   6.547   1.060
  627SOL    HW1 2780   6.328   6.461   1.112
  627SOL    HW2 2781   6.313   6.624   1.124
  628SOL     OW 2782   5.968   5.714   6.076
  628SOL    HW1 2783   6.000   5.777   6.005
  628SOL    HW2 2784   5.901   5.651   6.036
  629SOL     OW 2785   0.434   0.797   6.877
  629SOL    HW1 2786   0.392   0.745   6.803
  629SOL    HW2 2787   0.470   0.734   6.946
  630SOL     OW 2788   0.386   1.509   0.951
  630SOL    HW1 2789   0.291   1.536   0.963
  630SOL    HW2 2790   0.430   1.570   0.885
  631SOL     OW 2791   4.153   1.405   5.027
  631SOL    HW1 2792   4.117   1.488   5.068
  631SOL    HW2 2793   4.228   1.428   4.965
  632SOL     OW 2794   4.064   1.596   1.448
  632SOL    HW1 2795   4.010   1.636   1.374
  632SOL    HW2 2796   4.030   1.630   1.536
  633SOL     OW 2797   3.424   3.482   6.592
  633SOL    HW1 2798   3.333   3.447   6.570
  633SOL    HW2 2799   3.465   3.523   6.510
  634SOL     OW 2800   4.006   3.190   2.584
  634SOL    HW1 2801   4.006   3.201   2.485
  634SOL    HW2 2802   3.989   3.094   2.607
  635SOL     OW 2803   4.003   5.272   0.790
  635SOL    HW1 2804   4.026   5.368   0.804
  635SOL    HW2 2805   4.086   5.217   0.796
  636SOL     OW 2806   2.870   6.483   0.331
  636SOL    HW1 2807   2.789   6.523   0.289
  636SOL    HW2 2808   2.844   6.438   0.417
  637SOL     OW 2809   6.903   3.211   2.831
  637SOL    HW1 2810   6.840   3.289   2.825
  637SOL    HW2 2811   6.965   3.224   2.909
  638SOL     OW 2812   5.576   2.256   3.560
  638SOL    HW1 2813   5.518   2.204   3.623
  638SOL    HW2 2814   5.541   2.350   3.554
  639SOL     OW 2815   4.897   3.483   3.055
  639SOL    HW1 2816   4.966   3.426   3.010
  639SOL    HW2 2817   4.856   3.432   3.131
  640SOL     OW 2818   0.371   5.419   3.855
  640SOL    HW1 2819   0.437   5.487   3.886
  640SOL    HW2 2820   0.286   5.428   3.907
  641SOL     OW 2821   0.205   4.913   5.352
  641SOL    HW1 2822   0.178   4.891   5.258
  641SOL    HW2 2823   0.123   4.928   5.407
  642SOL     OW 2824   6.784   3.016   3.808
  642SOL    HW1 2825   6.765   2.990   3.713
  642SOL    HW2 2826   6.881   3.034   3.819
  643SOL     OW 2827   5.566   5.888   6.072
  643SOL    HW1 2828   5.511   5.866   5.991
  643SOL    HW2 2829   5.526   5.967   6.119
  644SOL     OW 2830   1.829   6.648   4.494
  644SOL    HW1 2831   1.826   6.549   4.503
  644SOL    HW2 2832   1.762   6.679   4.427
  645SOL     OW 2833   4.484   0.353   4.799
  645SOL    HW1 2834   4.493   0.281   4.730
  645SOL    HW2 2835   4.572   0.397   4.813
  646SOL     OW 2836   3.580   0.758   4.588
  646SOL    HW1 2837   3.626   0.763   4.677
  646SOL    HW2 2838   3.613   0.832   4.529
  647SOL     OW 2839   5.650   1.861   5.248
  647SOL    HW1 2840   5.717   1.792   5.277
  647SOL    HW2 2841   5.607   1.832   5.163
  648SOL     OW 2842   0.853   3.535   3.244
  648SOL    HW1 2843   0.776   3.591   3.273
  648SOL    HW2 2844   0.907   3.507   3.324
  649SOL     OW 2845   2.399   4.337   0.838
  649SOL    HW1 2846   2.429   4.261   0.780
  649SOL    HW2 2847   2.478   4.389   0.869
  650SOL     OW 2848   5.767   4.227   0.128
  650SOL    HW1 2849   5.730   4.169   0.200
  650SOL    HW2 2850   5.850   4.185   0.091
  651SOL     OW 2851   0.606   6.456   6.144
  651SOL    HW1 2852   0.667   6.404   6.084
  651SOL    HW2 2853   0.630   6.438   6.239
  652SOL     OW 2854   5.028   0.263   4.000
  652SOL    HW1 2855   4.989   0.203   3.931
  652SOL    HW2 2856   5.003   0.358   3.980
  653SOL     OW 2857   0.662   5.943   6.680
  653SOL    HW1 2858   0.567   5.920   6.661
  653SOL    HW2 2859   0.688   6.024   6.628
  654SOL     OW 2860   0.713   5.230   6.824
  654SOL    HW1 2861   0.689   5.206   6.918
  654SOL    HW2 2862   0.768   5.157   6.783
  655SOL     OW 2863   0.166   5.574   1.867
  655SOL    HW1 2864   0.198   5.507   1.800
  655SOL    HW2 2865   0.099   5.530   1.928
  656SOL     OW 2866   1.838   6.361   1.151
  656SOL    HW1 2867   1.802   6.407   1.232
  656SOL    HW2 2868   1.784   6.387   1.071
  657SOL     OW 2869   2.415   3.779   1.714
  657SOL    HW1 2870   2.374   3.812   1.629
  657SOL    HW2 2871   2.409   3.679   1.717
  658SOL     OW 2872   2.353   3.670   6.591
  658SOL    HW1 2873   2.406   3.718   6.521
  658SOL    HW2 2874   2.342   3.729   6.671
  659SOL     OW 2875   1.328   5.871   5.093
  659SOL    HW1 2876   1.295   5.965   5.096
  659SOL    HW2 2877   1.250   5.808   5.084
  660SOL     OW 2878   5.406   3.630   2.225
  660SOL    HW1 2879   5.394   3.545   2.277
  660SOL    HW2 2880   5.494   3.627   2.178
  661SOL     OW 2881   4.805   4.318   3.036
  661SOL    HW1 2882   4.741   4.315   2.959
  661SOL    HW2 2883   4.754   4.309   3.122
  662SOL     OW 2884   4.171   0.492   4.657
  662SOL    HW1 2885   4.265   0.525   4.660
  662SOL    HW2 2886   4.171   0.393   4.640
  663SOL     OW 2887   1.279   3.663   6.516
  663SOL    HW1 2888   1.364   3.623   6.551
  663SOL    HW2 2889   1.264   3.633   6.422
  664SOL     OW 2890   6.775   5.217   6.632
  664SOL    HW1 2891   6.856   5.204   6.689
  664SOL    HW2 2892   6.789   5.298   6.574
  665SOL     OW 2893   4.627   4.908   1.206
  665SOL    HW1 2894   4.590   4.826   1.249
  665SOL    HW2 2895   4.559   4.947   1.145
  666SOL     OW 2896   4.931   1.743   2.913
  666SOL    HW1 2897   4.852   1.774   2.860
  666SOL    HW2 2898   4.960   1.653   2.881
  667SOL     OW 2899   6.514   3.479   3.531
  667SOL    HW1 2900   6.574   3.528   3.468
  667SOL    HW2 2901   6.539   3.382   3.533
  668SOL     OW 2902   4.618   5.644   6.830
  668SOL    HW1 2903   4.588   5.681   6.918
  668SOL    HW2 2904   4.539   5.628   6.771
  669SOL     OW 2905   3.818   6.160   3.488
  669SOL    HW1 2906   3.854   6.090   3.550
  669SOL    HW2 2907   3.850   6.250   3.517
  670SOL     OW 2908   2.509   3.341   1.156
  670SOL    HW1 2909   2.571   3.418   1.145
  670SOL    HW2 2910   2.496   3.322   1.253
  671SOL     OW 2911   2.593   5.785   0.205
  671SOL    HW1 2912   2.503   5.793   0.162
  671SOL    HW2 2913   2.661   5.766   0.135
  672SOL     OW 2914   0.785   4.951   1.934
  672SOL    HW1 2915   0.738   4.869   1.967
  672SOL    HW2 2916   0.883   4.934   1.931
  673SOL     OW 2917   0.076   0.737   1.533
  673SOL    HW1 2918   0.055   0.790   1.452
  673SOL    HW2 2919   0.086   0.640   1.509
  674SOL     OW 2920   6.900   3.108   4.540
  674SOL    HW1 2921   6.861   3.199   4.555
  674SOL    HW2 2922   6.832   3.038   4.560
  675SOL     OW 2923   0.924   0.648   4.456
  675SOL    HW1 2924   0.874   0.583   4.513
  675SOL    HW2 2925   0.867   0.729   4.441
  676SOL     OW 2926   4.035   6.031   2.602
  676SOL    HW1 2927   4.033   5.934   2.627
  676SOL    HW2 2928   4.045   6.087   2.685
  677SOL     OW 2929   6.245   1.582   6.735
  677SOL    HW1 2930   6.215   1.501   6.685
  677SOL    HW2 2931   6.181   1.603   6.808
  678SOL     OW 2932   1.801   1.066   4.767
  678SOL    HW1 2933   1.786   1.030   4.675
  678SOL    HW2 2934   1.861   1.005   4.818
  679SOL     OW 2935   4.648   1.660   4.321
  679SOL    HW1 2936   4.611   1.736   4.375
  679SOL    HW2 2937   4.575   1.622   4.264
  680SOL     OW 2938   6.208   5.492   5.836
  680SOL    HW1 2939   6.176   5.502   5.742
  680SOL    HW2 2940   6.269   5.568   5.859
  681SOL     OW 2941   5.387   5.763   1.640
  681SOL    HW1 2942   5.331   5.818   1.702
  681SOL    HW2 2943   5.394   5.810   1.552
  682SOL     OW 2944   1.375   0.649   0.748
  682SOL    HW1 2945   1.471   0.678   0.755
  682SOL    HW2 2946   1.316   0.729   0.760
  683SOL     OW 2947   3.856   2.882   6.719
  683SOL    HW1 2948   3.880   2.978   6.704
  683SOL    HW2 2949   3.811   2.873   6.808
  684SOL     OW 2950   6.596   0.947   0.072
  684SOL    HW1 2951   6.518   0.961   0.133
  684SOL    HW2 2952   6.638   1.035   0.051
  685SOL     OW 2953   4.996   1.288   4.281
  685SOL    HW1 2954   4.928   1.217   4.298
  685SOL    HW2 2955   4.959   1.377   4.306
  686SOL     OW 2956   5.574   2.249   3.849
  686SOL    HW1 2957   5.631   2.316   3.896
  686SOL    HW2 2958   5.627   2.167   3.830
  687SOL     OW 2959   0.836   2.564   4.323
  687SOL    HW1 2960   0.854   2.518   4.410
  687SOL    HW2 2961   0.905   2.634   4.307
  688SOL     OW 2962   1.095   2.673   0.344
  688SOL    HW1 2963   1.118   2.648   0.438
  688SOL    HW2 2964   1.116   2.770   0.329
  689SOL     OW 2965   0.559   4.112   6.014
  689SOL    HW1 2966   0.567   4.026   5.964
  689SOL    HW2 2967   0.517   4.181   5.955
  690SOL     OW 2968   0.656   4.004   3.140
  690SOL    HW1 2969   0.593   4.077   3.168
  690SOL    HW2 2970   0.705   3.970   3.220
  691SOL     OW 2971   2.774   7.020   6.563
  691SOL    HW1 2972   2.694   0.007   6.622
  691SOL    HW2 2973   2.856   0.028   6.612
  692SOL     OW 2974   4.189   5.973   3.976
  692SOL    HW1 2975   4.165   5.911   4.051
  692SOL    HW2 2976   4.110   5.989   3.918
  693SOL     OW 2977   6.499   0.421   3.257
  693SOL    HW1 2978   6.456   0.480   3.326
  693SOL    HW2 2979   6.431   0.398   3.187
  694SOL     OW 2980   4.034   6.407   2.404
  694SOL    HW1 2981   4.065   6.313   2.391
  694SOL    HW2 2982   3.976   6.411   2.486
  695SOL     OW 2983   4.411   5.900   4.860
  695SOL    HW1 2984   4.454   5.985   4.891
  695SOL    HW2 2985   4.371   5.913   4.770
  696SOL     OW 2986   3.451   5.241   2.296
  696SOL    HW1 2987   3.466   5.332   2.258
  696SOL    HW2 2988   3.380   5.194   2.244
  697SOL     OW 2989   1.951   2.940   3.719
  697SOL    HW1 2990   1.980   2.871   3.653
  697SOL    HW2 2991   2.004   3.024   3.704
  698SOL     OW 2992   5.488   6.728   6.905
  698SOL    HW1 2993   5.521   6.806   6.958
  698SOL    HW2 2994   5.395   6.706   6.932
  699SOL     OW 2995   1.781   3.642   6.116
  699SOL    HW1 2996   1.815   3.581   6.188
  699SOL    HW2 2997   1.783   3.594   6.028
  700SOL     OW 2998   2.600   1.442   3.610
  700SOL    HW1 2999   2.521   1.384   3.632
  700SOL    HW2 3000   2.627   1.426   3.515
  701SOL     OW 3001   6.000   3.437   4.981
  701SOL    HW1 3002   5.989   3.415   5.078
  701SOL    HW2 3003   6.078   3.498   4.969
  702SOL     OW 3004   0.531   6.197   5.943
  702SOL    HW1 3005   0.440   6.165   5.969
  702SOL    HW2 3006   0.523   6.280   5.888
  703SOL     OW 3007   3.189   4.505   6.521
  703SOL    HW1 3008   3.104   4.557   6.509
  703SOL    HW2 3009   3.225   4.480   6.431
  704SOL     OW 3010   1.329   1.304   0.310
  704SOL    HW1 3011   1.376   1.360   0.241
  704SOL    HW2 3012   1.398   1.262   0.369
  705SOL     OW 3013   5.987   6.031   3.043
  705SOL    HW1 3014   6.006   6.080   3.128
  705SOL    HW2 3015   5.957   6.096   2.973
  706SOL     OW 3016   4.709   2.372   4.039
  706SOL    HW1 3017   4.721   2.278   4.009
  706SOL    HW2 3018   4.627   2.411   3.997
  707SOL     OW 3019   5.134   6.641   2.326
  707SOL    HW1 3020   5.118   6.653   2.424
  707SOL    HW2 3021   5.232   6.629   2.310
  708SOL     OW 3022   3.759   0.767   1.430
  708SOL    HW1 3023   3.809   0.852   1.421
  708SOL    HW2 3024   3.818   0.690   1.406
  709SOL     OW 3025   1.078   5.359   1.029
  709SOL    HW1 3026   1.161   5.392   1.073
  709SOL    HW2 3027   1.086   5.370   0.930
  710SOL     OW 3028   3.547   2.906   2.746
  710SOL    HW1 3029   3.549   2.896   2.846
  710SOL    HW2 3030   3.453   2.924   2.716
  711SOL     OW 3031   0.173   2.475   5.344
  711SOL    HW1 3032   0.246   2.537   5.316
  711SOL    HW2 3033   0.211   2.400   5.398
  712SOL     OW 3034   3.822   3.647   1.064
  712SOL    HW1 3035   3.759   3.571   1.085
  712SOL    HW2 3036   3.780   3.707   0.996
  713SOL     OW 3037   4.112   2.962   5.930
  713SOL    HW1 3038   4.045   2.900   5.890
  713SOL    HW2 3039   4.097   2.969   6.029
  714SOL     OW 3040   6.724   4.052   3.931
  714SOL    HW1 3041   6.658   4.059   3.856
  714SOL    HW2 3042   6.675   4.053   4.019
  715SOL     OW 3043   5.797   5.366   0.265
  715SOL    HW1 3044   5.889   5.336   0.287
  715SOL    HW2 3045   5.799   5.425   0.185
  716SOL     OW 3046   1.207   6.988   0.966
  716SOL    HW1 3047   1.205   7.016   1.062
  716SOL    HW2 3048   1.127   6.931   0.946
  717SOL     OW 3049   6.105   4.780   6.152
  717SOL    HW1 3050   6.164   4.759   6.075
  717SOL    HW2 3051   6.149   4.752   6.237
  718SOL     OW 3052   4.958   2.490   6.281
  718SOL    HW1 3053   4.924   2.572   6.235
  718SOL    HW2 3054   5.056   2.500   6.299
  719SOL     OW 3055   6.559   0.371   2.071
  719SOL    HW1 3056   6.503   0.450   2.043
  719SOL    HW2 3057   6.539   0.294   2.010
  720SOL     OW 3058   3.348   1.002   6.441
  720SOL    HW1 3059   3.265   0.948   6.456
  720SOL    HW2 3060   3.344   1.085   6.496
  721SOL     OW 3061   2.897   0.825   4.188
  721SOL    HW1 3062   2.869   0.919   4.206
  721SOL    HW2 3063   2.985   0.825   4.139
  722SOL     OW 3064   2.914   0.587   4.910
  722SOL    HW1 3065   2.877   0.553   4.823
  722SOL    HW2 3066   2.863   0.668   4.939
  723SOL     OW 3067   1.867   3.922   3.091
  723SOL    HW1 3068   1.950   3.930   3.146
  723SOL    HW2 3069   1.858   3.828   3.057
  724SOL     OW 3070   1.135   3.031   4.268
  724SOL    HW1 3071   1.045   3.005   4.234
  724SOL    HW2 3072   1.139   3.015   4.367
  725SOL     OW 3073   3.599   5.664   0.648
  725SOL    HW1 3074   3.619   5.747   0.595
  725SOL    HW2 3075   3.642   5.672   0.738
  726SOL     OW 3076   4.110   4.834   0.772
  726SOL    HW1 3077   4.158   4.921   0.776
  726SOL    HW2 3078   4.168   4.761   0.809
  727SOL     OW 3079   5.665   4.773   6.055
  727SOL    HW1 3080   5.745   4.831   6.038
  727SOL    HW2 3081   5.612   4.765   5.971
  728SOL     OW 3082   6.666   3.249   4.722
  728SOL    HW1 3083   6.718   3.334   4.730
  728SOL    HW2 3084   6.656   3.207   4.813
  729SOL     OW 3085   1.445   2.226   1.159
  729SOL    HW1 3086   1.404   2.314   1.136
  729SOL    HW2 3087   1.386   2.177   1.223
  730SOL     OW 3088   5.525   0.900   3.188
  730SOL    HW1 3089   5.611   0.852   3.207
  730SOL    HW2 3090   5.526   0.989   3.235
  731SOL     OW 3091   5.235   4.383   5.707
  731SOL    HW1 3092   5.167   4.310   5.698
  731SOL    HW2 3093   5.262   4.413   5.615
  732SOL     OW 3094   6.953   2.181   1.824
  732SOL    HW1 3095   7.017   2.238   1.772
  732SOL    HW2 3096   6.984   2.174   1.919
  733SOL     OW 3097   6.055   6.153   5.683
  733SOL    HW1 3098   5.973   6.136   5.737
  733SOL    HW2 3099   6.136   6.130   5.737
  734SOL     OW 3100   0.240   4.776   2.695
  734SOL    HW1 3101   0.319   4.832   2.671
  734SOL    HW2 3102   0.268   4.700   2.753
  735SOL     OW 3103   3.599   1.994   0.387
  735SOL    HW1 3104   3.676   1.935   0.364
  735SOL    HW2 3105   3.633   2.081   0.422
  736SOL     OW 3106   0.851   0.661   3.270
  736SOL    HW1 3107   0.911   0.741   3.266
  736SOL    HW2 3108   0.846   0.629   3.364
  737SOL     OW 3109   4.688   2.391   5.959
  737SOL    HW1 3110   4.670   2.433   6.048
  737SOL    HW2 3111   4.657   2.296   5.959
  738SOL     OW 3112   1.889   4.248   1.821
  738SOL    HW1 3113   1.818   4.179   1.832
  738SOL    HW2 3114   1.853   4.324   1.767
  739SOL     OW 3115   4.188   0.277   3.901
  739SOL    HW1 3116   4.193   0.291   3.802
  739SOL    HW2 3117   4.260   0.330   3.946
  740SOL     OW 3118   5.418   0.354   1.295
  740SOL    HW1 3119   5.368   0.409   1.362
  740SOL    HW2 3120   5.354   0.297   1.244
  741SOL     OW 3121   2.326   6.185   3.312
  741SOL    HW1 3122   2.400   6.149   3.369
  741SOL    HW2 3123   2.353   6.180   3.216
  742SOL     OW 3124   2.696   6.763   2.314
  742SOL    HW1 3125   2.609   6.733   2.275
  742SOL    HW2 3126   2.752   6.807   2.244
  743SOL     OW 3127   0.349   3.817   3.973
  743SOL    HW1 3128   0.279   3.747   3.987
  743SOL    HW2 3129   0.429   3.796   4.028
  744SOL     OW 3130   5.713   0.633   6.986
  744SOL    HW1 3131   5.652   0.566   0.005
  744SOL    HW2 3132   5.660   0.702   6.937
  745SOL     OW 3133   0.977   5.738   4.818
  745SOL    HW1 3134   0.924   5.671   4.765
  745SOL    HW2 3135   0.959   5.830   4.785
  746SOL     OW 3136   0.092   4.707   5.950
  746SOL    HW1 3137   0.062   4.621   5.910
  746SOL    HW2 3138   0.190   4.701   5.972
  747SOL     OW 3139   3.857   6.428   4.520
  747SOL    HW1 3140   3.924   6.479   4.575
  747SOL    HW2 3141   3.776   6.409   4.576
  748SOL     OW 3142   3.982   4.853   2.281
  748SOL    HW1 3143   3.987   4.911   2.362
  748SOL    HW2 3144   3.886   4.836   2.258
  749SOL     OW 3145   6.424   4.841   4.763
  749SOL    HW1 3146   6.464   4.928   4.792
  749SOL    HW2 3147   6.438   4.830   4.664
  750SOL     OW 3148   1.713   2.162   1.120
  750SOL    HW1 3149   1.621   2.192   1.147
  750SOL    HW2 3150   1.705   2.079   1.066
  751SOL     OW 3151   4.085   2.477   6.661
  751SOL    HW1 3152   3.995   2.461   6.700
  751SOL    HW2 3153   4.076   2.517   6.570
  752SOL     OW 3154   3.684   1.361   2.215
  752SOL    HW1 3155   3.639   1.283   2.259
  752SOL    HW2 3156   3.653   1.446   2.257
  753SOL     OW 3157   2.080   3.456   5.441
  753SOL    HW1 3158   2.093   3.504   5.528
  753SOL    HW2 3159   2.166   3.457   5.390
  754SOL     OW 3160   5.126   2.675   5.524
  754SOL    HW1 3161   5.177   2.759   5.542
  754SOL    HW2 3162   5.077   2.683   5.437
  755SOL     OW 3163   1.337   4.206   5.079
  755SOL    HW1 3164   1.359   4.237   5.171
  755SOL    HW2 3165   1.406   4.140   5.049
  756SOL     OW 3166   3.355   6.666   0.346
  756SOL    HW1 3167   3.421   6.595   0.371
  756SOL    HW2 3168   3.402   6.743   0.303
  757SOL     OW 3169   1.171   0.244   3.931
  757SOL    HW1 3170   1.091   0.197   3.969
  757SOL    HW2 3171   1.155   0.343   3.930
  758SOL     OW 3172   3.549   0.072   1.929
  758SOL    HW1 3173   3.509   7.021   1.984
  758SOL    HW2 3174   3.643   0.088   1.958
  759SOL     OW 3175   0.350   1.483   1.279
  759SOL    HW1 3176   0.397   1.456   1.195
  759SOL    HW2 3177   0.402   1.451   1.358
  760SOL     OW 3178   5.646   0.263   5.758
  760SOL    HW1 3179   5.564   0.216   5.791
  760SOL    HW2 3180   5.623   0.315   5.675
  761SOL     OW 3181   5.638   3.018   5.746
  761SOL    HW1 3182   5.622   3.113   5.773
  761SOL    HW2 3183   5.654   2.962   5.828
  762SOL     OW 3184   2.466   0.957   4.769
  762SOL    HW1 3185   2.518   0.906   4.701
  762SOL    HW2 3186   2.494   1.053   4.767
  763SOL     OW 3187   4.130   5.436   6.183
  763SOL    HW1 3188   4.197   5.478   6.245
  763SOL    HW2 3189   4.069   5.507   6.147
  764SOL     OW 3190   5.328   2.016   5.354
  764SOL    HW1 3191   5.404   2.038   5.414
  764SOL    HW2 3192   5.278   1.938   5.391
  765SOL     OW 3193   1.106   6.108   1.528
  765SOL    HW1 3194   1.123   6.113   1.430
  765SOL    HW2 3195   1.033   6.172   1.553
  766SOL     OW 3196   2.182   3.220   6.589
  766SOL    HW1 3197   2.256   3.180   6.643
  766SOL    HW2 3198   2.185   3.320   6.598
  767SOL     OW 3199   6.251   5.911   1.851
  767SOL    HW1 3200   6.282   5.818   1.869
  767SOL    HW2 3201   6.151   5.916   1.861
  768SOL     OW 3202   2.116   6.421   2.000
  768SOL    HW1 3203   2.156   6.506   2.034
  768SOL    HW2 3204   2.082   6.367   2.077
  769SOL     OW 3205   3.403   0.746   4.893
  769SOL    HW1 3206   3.411   0.698   4.981
  769SOL    HW2 3207   3.426   0.843   4.906
  770SOL     OW 3208   2.066   4.352   2.827
  770SOL    HW1 3209   1.992   4.341   2.893
  770SOL    HW2 3210   2.097   4.447   2.826
  771SOL     OW 3211   2.617   5.231   2.499
  771SOL    HW1 3212   2.636   5.328   2.512
  771SOL    HW2 3213   2.521   5.219   2.476
  772SOL     OW 3214   5.659   5.152   0.296
  772SOL    HW1 3215   5.715   5.233   0.276
  772SOL    HW2 3216   5.563   5.179   0.301
  773SOL     OW 3217   0.374   3.577   4.881
  773SOL    HW1 3218   0.313   3.508   4.919
  773SOL    HW2 3219   0.407   3.547   4.792
  774SOL     OW 3220   1.009   1.749   1.268
  774SOL    HW1 3221   0.938   1.689   1.234
  774SOL    HW2 3222   0.986   1.781   1.360
  775SOL     OW 3223   0.579   2.235   2.768
  775SOL    HW1 3224   0.571   2.332   2.744
  775SOL    HW2 3225   0.676   2.212   2.780
  776SOL     OW 3226   1.047   0.523   6.398
  776SOL    HW1 3227   1.098   0.522   6.312
  776SOL    HW2 3228   0.964   0.578   6.386
  777SOL     OW 3229   2.346   4.986   1.456
  777SOL    HW1 3230   2.434   4.945   1.434
  777SOL    HW2 3231   2.325   4.970   1.553
  778SOL     OW 3232   2.567   1.245   2.094
  778SOL    HW1 3233   2.592   1.314   2.026
  778SOL    HW2 3234   2.531   1.290   2.176
  779SOL     OW 3235   6.758   2.610   2.575
  779SOL    HW1 3236   6.855   2.623   2.553
  779SOL    HW2 3237   6.709   2.581   2.492
  780SOL     OW 3238   6.446   3.547   3.790
  780SOL    HW1 3239   6.488   3.637   3.798
  780SOL    HW2 3240   6.474   3.505   3.704
  781SOL     OW 3241   5.485   1.237   0.179
  781SOL    HW1 3242   5.507   1.287   0.264
  781SOL    HW2 3243   5.549   1.161   0.168
  782SOL     OW 3244   1.410   4.157   6.699
  782SOL    HW1 3245   1.485   4.198   6.646
  782SOL    HW2 3246   1.326   4.161   6.645
  783SOL     OW 3247   4.195   5.075   0.846
  783SOL    HW1 3248   4.135   5.078   0.926
  783SOL    HW2 3249   4.290   5.085   0.875
  784SOL     OW 3250   5.186   5.657   0.430
  784SOL    HW1 3251   5.150   5.748   0.413
  784SOL    HW2 3252   5.273   5.646   0.382
  785SOL     OW 3253   0.621   2.503   3.113
  785SOL    HW1 3254   0.646   2.505   3.016
  785SOL    HW2 3255   0.693   2.457   3.165
  786SOL     OW 3256   1.562   0.810   1.738
  786SOL    HW1 3257   1.613   0.771   1.662
  786SOL    HW2 3258   1.542   0.739   1.806
  787SOL     OW 3259   2.555   0.440   6.856
  787SOL    HW1 3260   2.457   0.456   6.856
  787SOL    HW2 3261   2.584   0.413   6.948
  788SOL     OW 3262   3.836   3.130   5.573
  788SOL    HW1 3263   3.881   3.042   5.558
  788SOL    HW2 3264   3.756   3.117   5.631
  789SOL     OW 3265   5.233   3.945   0.835
  789SOL    HW1 3266   5.202   3.894   0.916
  789SOL    HW2 3267   5.154   3.985   0.788
  790SOL     OW 3268   2.232   1.183   3.877
  790SOL    HW1 3269   2.287   1.100   3.865
  790SOL    HW2 3270   2.138   1.165   3.849
  791SOL     OW 3271   3.146   5.821   4.156
  791SOL    HW1 3272   3.218   5.887   4.172
  791SOL    HW2 3273   3.057   5.865   4.169
  792SOL     OW 3274   0.981   6.818   0.916
  792SOL    HW1 3275   0.907   6.872   0.876
  792SOL    HW2 3276   1.012   6.750   0.849
  793SOL     OW 3277   4.791   5.071   3.546
  793SOL    HW1 3278   4.761   5.069   3.642
  793SOL    HW2 3279   4.764   4.986   3.501
  794SOL     OW 3280   3.299   3.711   5.090
  794SOL    HW1 3281   3.373   3.779   5.086
  794SOL    HW2 3282   3.336   3.623   5.120
  795SOL     OW 3283   3.376   6.850   3.991
  795SOL    HW1 3284   3.415   6.764   3.958
  795SOL    HW2 3285   3.277   6.848   3.977
  796SOL     OW 3286   0.284   1.835   6.746
  796SOL    HW1 3287   0.368   1.822   6.694
  796SOL    HW2 3288   0.286   1.777   6.828
  797SOL     OW 3289   5.519   3.017   0.551
  797SOL    HW1 3290   5.500   3.109   0.586
  797SOL    HW2 3291   5.601   2.981   0.595
  798SOL     OW 3292   3.758   0.567   2.579
  798SOL    HW1 3293   3.703   0.570   2.662
  798SOL    HW2 3294   3.699   0.570   2.499
  799SOL     OW 3295   6.723   0.199   5.895
  799SOL    HW1 3296   6.689   0.268   5.831
  799SOL    HW2 3297   6.816   0.222   5.922
  800SOL     OW 3298   5.386   2.157   2.639
  800SOL    HW1 3299   5.297   2.129   2.605
  800SOL    HW2 3300   5.453   2.085   2.620
  801SOL     OW 3301   1.001   3.613   4.382
  801SOL    HW1 3302   1.073   3.574   4.440
  801SOL    HW2 3303   0.985   3.708   4.409
  802SOL     OW 3304   3.975   1.720   1.107
  802SOL    HW1 3305   3.961   1.758   1.199
  802SOL    HW2 3306   3.911   1.764   1.044
  803SOL     OW 3307   0.392   6.869   5.438
  803SOL    HW1 3308   0.320   6.822   5.387
  803SOL    HW2 3309   0.381   6.852   5.536
  804SOL     OW 3310   5.227   5.353   6.907
  804SOL    HW1 3311   5.244   5.420   6.834
  804SOL    HW2 3312   5.154   5.386   6.966
  805SOL     OW 3313   3.874   6.905   5.483
  805SOL    HW1 3314   3.921   6.840   5.424
  805SOL    HW2 3315   3.939   6.947   5.546
  806SOL     OW 3316   5.442   1.019   4.836
  806SOL    HW1 3317   5.521   1.074   4.813
  806SOL    HW2 3318   5.358   1.069   4.814
  807SOL     OW 3319   1.544   2.126   4.245
  807SOL    HW1 3320   1.577   2.188   4.317
  807SOL    HW2 3321   1.620   2.104   4.183
  808SOL     OW 3322   4.503   3.588   6.374
  808SOL    HW1 3323   4.547   3.671   6.409
  808SOL    HW2 3324   4.540   3.567   6.284
  809SOL     OW 3325   6.547   5.139   1.095
  809SOL    HW1 3326   6.612   5.116   1.168
  809SOL    HW2 3327   6.582   5.105   1.007
  810SOL     OW 3328   3.344   3.001   1.621
  810SOL    HW1 3329   3.370   2.992   1.717
  810SOL    HW2 3330   3.427   2.999   1.564
  811SOL     OW 3331   4.024   5.400   5.169
  811SOL    HW1 3332   4.045   5.477   5.230
  811SOL    HW2 3333   3.925   5.386   5.167
  812SOL     OW 3334   0.575   1.283   2.336
  812SOL    HW1 3335   0.601   1.186   2.341
  812SOL    HW2 3336   0.561   1.318   2.428
  813SOL     OW 3337   3.365   6.127   5.342
  813SOL    HW1 3338   3.292   6.095   5.402
  813SOL    HW2 3339   3.427   6.051   5.321
  814SOL     OW 3340   6.774   6.093   2.422
  814SOL    HW1 3341   6.831   6.056   2.349
  814SOL    HW2 3342   6.798   6.188   2.439
  815SOL     OW 3343   0.417   3.486   3.025
  815SOL    HW1 3344   0.407   3.518   3.119
  815SOL    HW2 3345   0.484   3.543   2.978
  816SOL     OW 3346   6.298   6.661   0.819
  816SOL    HW1 3347   6.282   6.602   0.898
  816SOL    HW2 3348   6.393   6.694   0.821
  817SOL     OW 3349   1.927   4.386   0.627
  817SOL    HW1 3350   2.025   4.385   0.607
  817SOL    HW2 3351   1.906   4.463   0.687
  818SOL     OW 3352   6.141   2.965   2.309
  818SOL    HW1 3353   6.072   3.027   2.272
  818SOL    HW2 3354   6.098   2.879   2.336
  819SOL     OW 3355   5.601   2.759   3.308
  819SOL    HW1 3356   5.626   2.848   3.345
  819SOL    HW2 3357   5.674   2.726   3.248
  820SOL     OW 3358   3.025   2.556   5.380
  820SOL    HW1 3359   3.055   2.496   5.306
  820SOL    HW2 3360   3.079   2.639   5.379
  821SOL     OW 3361   1.788   4.646   1.361
  821SOL    HW1 3362   1.757   4.568   1.415
  821SOL    HW2 3363   1.796   4.726   1.420
  822SOL     OW 3364   1.823   4.526   3.813
  822SOL    HW1 3365   1.783   4.439   3.839
  822SOL    HW2 3366   1.836   4.530   3.714
  823SOL     OW 3367   5.284   3.684   6.534
  823SOL    HW1 3368   5.213   3.696   6.603
  823SOL    HW2 3369   5.267   3.745   6.457
  824SOL     OW 3370   6.005   1.197   5.972
  824SOL    HW1 3371   5.929   1.219   5.910
  824SOL    HW2 3372   5.983   1.229   6.064
  825SOL     OW 3373   0.597   4.237   1.501
  825SOL    HW1 3374   0.607   4.329   1.540
  825SOL    HW2 3375   0.674   4.180   1.530
  826SOL     OW 3376   5.370   3.324   5.332
  826SOL    HW1 3377   5.444   3.391   5.332
  826SOL    HW2 3378   5.285   3.369   5.359
  827SOL     OW 3379   2.656   5.012   5.610
  827SOL    HW1 3380   2.671   4.921   5.649
  827SOL    HW2 3381   2.710   5.021   5.527
  828SOL     OW 3382   5.658   6.713   6.617
  828SOL    HW1 3383   5.574   6.766   6.603
  828SOL    HW2 3384   5.634   6.618   6.637
  829SOL     OW 3385   3.151   3.995   2.876
  829SOL    HW1 3386   3.119   4.005   2.971
  829SOL    HW2 3387   3.238   4.042   2.865
  830SOL     OW 3388   5.118   5.003   6.689
  830SOL    HW1 3389   5.137   4.950   6.607
  830SOL    HW2 3390   5.022   5.032   6.688
  831SOL     OW 3391   6.307   0.618   6.884
  831SOL    HW1 3392   6.283   0.522   6.865
  831SOL    HW2 3393   6.375   0.621   6.958
  832SOL     OW 3394   3.131   0.693   1.713
  832SOL    HW1 3395   3.202   0.762   1.699
  832SOL    HW2 3396   3.138   0.657   1.806
  833SOL     OW 3397   0.565   4.072   5.506
  833SOL    HW1 3398   0.599   3.982   5.475
  833SOL    HW2 3399   0.575   4.138   5.432
  834SOL     OW 3400   4.011   3.844   0.391
  834SOL    HW1 3401   3.971   3.862   0.301
  834SOL    HW2 3402   4.073   3.918   0.416
  835SOL     OW 3403   3.613   0.331   5.277
  835SOL    HW1 3404   3.674   0.366   5.206
  835SOL    HW2 3405   3.626   0.384   5.361
  836SOL     OW 3406   3.520   6.266   6.574
  836SOL    HW1 3407   3.516   6.222   6.664
  836SOL    HW2 3408   3.543   6.198   6.505
  837SOL     OW 3409   5.374   0.460   0.607
  837SOL    HW1 3410   5.349   0.541   0.660
  837SOL    HW2 3411   5.423   0.488   0.524
  838SOL     OW 3412   2.292   0.438   4.542
  838SOL    HW1 3413   2.351   0.373   4.590
  838SOL    HW2 3414   2.217   0.465   4.601
  839SOL     OW 3415   1.719   2.769   2.018
  839SOL    HW1 3416   1.805   2.820   2.027
  839SOL    HW2 3417   1.704   2.716   2.101
  840SOL     OW 3418   6.067   6.557   0.244
  840SOL    HW1 3419   6.050   6.515   0.333
  840SOL    HW2 3420   6.050   6.490   0.172
  841SOL     OW 3421   4.084   4.966   6.391
  841SOL    HW1 3422   4.145   5.034   6.351
  841SOL    HW2 3423   4.063   4.991   6.485
  842SOL     OW 3424   4.210   0.118   5.244
  842SOL    HW1 3425   4.259   0.155   5.165
  842SOL    HW2 3426   4.113   0.111   5.223
  843SOL     OW 3427   1.239   1.670   1.019
  843SOL    HW1 3428   1.208   1.712   1.104
  843SOL    HW2 3429   1.331   1.703   0.997
  844SOL     OW 3430   6.225   0.741   0.750
  844SOL    HW1 3431   6.234   0.704   0.657
  844SOL    HW2 3432   6.179   0.830   0.746
  845SOL     OW 3433   5.400   4.680   5.279
  845SOL    HW1 3434   5.364   4.613   5.345
  845SOL    HW2 3435   5.327   4.709   5.217
  846SOL     OW 3436   1.674   2.201   6.918
  846SOL    HW1 3437   1.765   2.179   6.953
  846SOL    HW2 3438   1.637   2.279   6.970
  847SOL     OW 3439   1.612   3.290   1.455
  847SOL    HW1 3440   1.680   3.301   1.527
  847SOL    HW2 3441   1.526   3.332   1.483
  848SOL     OW 3442   6.072   0.642   6.363
  848SOL    HW1 3443   6.123   0.704   6.303
  848SOL    HW2 3444   6.072   0.551   6.323
  849SOL     OW 3445   0.848   4.268   6.128
  849SOL    HW1 3446   0.788   4.296   6.203
  849SOL    HW2 3447   0.874   4.172   6.141
  850SOL     OW 3448   4.806   0.258   3.540
  850SOL    HW1 3449   4.893   0.210   3.533
  850SOL    HW2 3450   4.799   0.324   3.465
  851SOL     OW 3451   0.092   1.609   2.636
  851SOL    HW1 3452   0.164   1.669   2.601
  851SOL    HW2 3453   0.113   1.514   2.613
  852SOL     OW 3454   1.418   3.013   6.746
  852SOL    HW1 3455   1.446   3.029   6.841
  852SOL    HW2 3456   1.427   3.098   6.694
  853SOL     OW 3457   1.446   4.620   2.023
  853SOL    HW1 3458   1.539   4.604   1.992
  853SOL    HW2 3459   1.389   4.541   2.002
  854SOL     OW 3460   4.681   6.025   1.399
  854SOL    HW1 3461   4.596   6.017   1.452
  854SOL    HW2 3462   4.673   6.101   1.334
  855SOL     OW 3463   0.188   0.397   2.030
  855SOL    HW1 3464   0.259   0.447   1.979
  855SOL    HW2 3465   0.217   0.387   2.125
  856SOL     OW 3466   1.306   2.333   5.357
  856SOL    HW1 3467   1.275   2.250   5.404
  856SOL    HW2 3468   1.236   2.363   5.293
  857SOL     OW 3469   5.830   4.542   1.821
  857SOL    HW1 3470   5.874   4.465   1.868
  857SOL    HW2 3471   5.840   4.625   1.876
  858SOL     OW 3472   2.755   3.495   1.124
  858SOL    HW1 3473   2.793   3.405   1.103
  858SOL    HW2 3474   2.785   3.561   1.055
  859SOL     OW 3475   5.236   5.664   5.655
  859SOL    HW1 3476   5.208   5.752   5.617
  859SOL    HW2 3477   5.158   5.601   5.654
  860SOL     OW 3478   4.968   3.666   0.204
  860SOL    HW1 3479   5.014   3.607   0.138
  860SOL    HW2 3480   5.018   3.664   0.291
  861SOL     OW 3481   2.788   6.146   3.467
  861SOL    HW1 3482   2.794   6.073   3.399
  861SOL    HW2 3483   2.874   6.151   3.518
  862SOL     OW 3484   0.898   4.304   5.084
  862SOL    HW1 3485   0.928   4.268   5.172
  862SOL    HW2 3486   0.975   4.347   5.037
  863SOL     OW 3487   6.387   0.215   1.084
  863SOL    HW1 3488   6.378   0.312   1.106
  863SOL    HW2 3489   6.357   0.159   1.161
  864SOL     OW 3490   3.953   4.849   3.851
  864SOL    HW1 3491   3.884   4.913   3.818
  864SOL    HW2 3492   3.969   4.864   3.949
  865SOL     OW 3493   0.639   5.973   6.082
  865SOL    HW1 3494   0.584   6.040   6.033
  865SOL    HW2 3495   0.714   5.941   6.023
  866SOL     OW 3496   1.732   1.915   1.608
  866SOL    HW1 3497   1.758   1.965   1.690
  866SOL    HW2 3498   1.683   1.975   1.545
  867SOL     OW 3499   4.330   3.879   0.764
  867SOL    HW1 3500   4.317   3.791   0.717
  867SOL    HW2 3501   4.348   3.950   0.697
  868SOL     OW 3502   6.016   0.670   1.102
  868SOL    HW1 3503   6.018   0.613   1.020
  868SOL    HW2 3504   6.062   0.621   1.177
  869SOL     OW 3505   0.055   5.322   3.101
  869SOL    HW1 3506   0.006   5.244   3.061
  869SOL    HW2 3507   0.145   5.330   3.058
  870SOL     OW 3508   4.089   3.450   0.595
  870SOL    HW1 3509   4.106   3.357   0.563
  870SOL    HW2 3510   4.043   3.502   0.523
  871SOL     OW 3511   4.993   2.957   3.277
  871SOL    HW1 3512   4.930   3.011   3.221
  871SOL    HW2 3513   4.942   2.912   3.350
  872SOL     OW 3514   5.276   4.166   3.952
  872SOL    HW1 3515   5.270   4.092   3.885
  872SOL    HW2 3516   5.296   4.127   4.042
  873SOL     OW 3517   5.761   6.755   4.075
  873SOL    HW1 3518   5.683   6.764   4.013
  873SOL    HW2 3519   5.833   6.819   4.048
  874SOL     OW 3520   1.246   4.337   5.934
  874SOL    HW1 3521   1.177   4.315   5.866
  874SOL    HW2 3522   1.203   4.346   6.024
  875SOL     OW 3523   3.248   3.028   0.417
  875SOL    HW1 3524   3.227   2.996   0.509
  875SOL    HW2 3525   3.316   3.101   0.422
  876SOL     OW 3526   0.484   5.082   2.786
  876SOL    HW1 3527   0.518   5.010   2.847
  876SOL    HW2 3528   0.400   5.121   2.825
  877SOL     OW 3529   3.986   3.939   6.736
  877SOL    HW1 3530   4.062   3.876   6.720
  877SOL    HW2 3531   3.953   3.929   6.830
  878SOL     OW 3532   4.046   5.669   5.361
  878SOL    HW1 3533   4.128   5.717   5.392
  878SOL    HW2 3534   4.012   5.713   5.278
  879SOL     OW 3535   2.984   2.300   1.669
  879SOL    HW1 3536   2.907   2.236   1.670
  879SOL    HW2 3537   2.962   2.378   1.727
  880SOL     OW 3538   3.082   4.323   5.632
  880SOL    HW1 3539   3.002   4.366   5.675
  880SOL    HW2 3540   3.098   4.234   5.675
  881SOL     OW 3541   4.692   4.100   5.185
  881SOL    HW1 3542   4.621   4.169   5.201
  881SOL    HW2 3543   4.702   4.085   5.087
  882SOL     OW 3544   1.028   1.682   4.376
  882SOL    HW1 3545   1.039   1.759   4.313
  882SOL    HW2 3546   0.941   1.692   4.424
  883SOL     OW 3547   4.709   5.538   5.937
  883SOL    HW1 3548   4.726   5.622   5.989
  883SOL    HW2 3549   4.762   5.462   5.977
  884SOL     OW 3550   0.066   4.144   0.521
  884SOL    HW1 3551   0.155   4.184   0.540
  884SOL    HW2 3552   0.061   4.118   0.424
  885SOL     OW 3553   4.525   5.481   6.595
  885SOL    HW1 3554   4.598   5.543   6.566
  885SOL    HW2 3555   4.564   5.397   6.632
  886SOL     OW 3556   3.932   0.773   0.872
  886SOL    HW1 3557   3.972   0.856   0.833
  886SOL    HW2 3558   3.924   0.703   0.801
  887SOL     OW 3559   3.567   0.018   3.925
  887SOL    HW1 3560   3.577   0.015   3.826
  887SOL    HW2 3561   3.494   6.977   3.954
  888SOL     OW 3562   5.753   6.138   3.312
  888SOL    HW1 3563   5.783   6.198   3.238
  888SOL    HW2 3564   5.685   6.074   3.277
  889SOL     OW 3565   1.790   6.736   5.987
  889SOL    HW1 3566   1.764   6.820   5.939
  889SOL    HW2 3567   1.889   6.723   5.980
  890SOL     OW 3568   2.315   5.037   2.140
  890SOL    HW1 3569   2.314   4.956   2.198
  890SOL    HW2 3570   2.409   5.060   2.117
  891SOL     OW 3571   6.242   4.501   0.474
  891SOL    HW1 3572   6.291   4.566   0.417
  891SOL    HW2 3573   6.270   4.511   0.569
  892SOL     OW 3574   3.824   4.023   5.393
  892SOL    HW1 3575   3.858   4.090   5.327
  892SOL    HW2 3576   3.832   3.931   5.355
  893SOL     OW 3577   1.966   1.264   1.924
  893SOL    HW1 3578   1.970   1.196   1.997
  893SOL    HW2 3579   2.031   1.338   1.944
  894SOL     OW 3580   1.765   2.189   3.046
  894SOL    HW1 3581   1.811   2.154   3.128
  894SOL    HW2 3582   1.753   2.288   3.054
  895SOL     OW 3583   1.002   5.407   4.329
  895SOL    HW1 3584   1.035   5.498   4.302
  895SOL    HW2 3585   0.909   5.415   4.365
  896SOL     OW 3586   6.455   6.296   1.885
  896SOL    HW1 3587   6.447   6.225   1.815
  896SOL    HW2 3588   6.494   6.256   1.968
  897SOL     OW 3589   4.466   0.910   0.338
  897SOL    HW1 3590   4.371   0.936   0.356
  897SOL    HW2 3591   4.472   0.812   0.323
  898SOL     OW 3592   3.843   5.989   2.914
  898SOL    HW1 3593   3.928   6.032   2.884
  898SOL    HW2 3594   3.799   6.048   2.983
  899SOL     OW 3595   0.207   4.985   0.460
  899SOL    HW1 3596   0.185   5.082   0.452
  899SOL    HW2 3597   0.305   4.972   0.452
  900SOL     OW 3598   4.469   6.424   0.593
  900SOL    HW1 3599   4.414   6.475   0.527
  900SOL    HW2 3600   4.458   6.326   0.575
  901SOL     OW 3601   0.967   1.229   5.524
  901SOL    HW1 3602   0.960   1.130   5.515
  901SOL    HW2 3603   1.038   1.251   5.591
  902SOL     OW 3604   0.553   2.534   0.683
  902SOL    HW1 3605   0.543   2.471   0.606
  902SOL    HW2 3606   0.617   2.495   0.749
  903SOL     OW 3607   6.874   4.261   5.901
  903SOL    HW1 3608   6.876   4.239   5.998
  903SOL    HW2 3609   6.784   4.241   5.864
  904SOL     OW 3610   2.099   2.420   3.200
  904SOL    HW1 3611   2.035   2.497   3.201
  904SOL    HW2 3612   2.135   2.409   3.107
  905SOL     OW 3613   4.799   3.860   6.136
  905SOL    HW1 3614   4.871   3.818   6.079
  905SOL    HW2 3615   4.711   3.852   6.089
  906SOL     OW 3616   0.513   3.265   5.795
  906SOL    HW1 3617   0.458   3.338   5.753
  906SOL    HW2 3618   0.587   3.240   5.733
  907SOL     OW 3619   5.942   2.784   2.678
  907SOL    HW1 3620   6.011   2.832   2.733
  907SOL    HW2 3621   5.937   2.688   2.707
  908SOL     OW 3622   1.627   5.957   3.323
  908SOL    HW1 3623   1.606   5.864   3.292
  908SOL    HW2 3624   1.587   6.023   3.259
  909SOL     OW 3625   2.762   5.963   2.042
  909SOL    HW1 3626   2.838   5.905   2.016
  909SOL    HW2 3627   2.784   6.014   2.125
  910SOL     OW 3628   2.786   1.076   0.744
  910SOL    HW1 3629   2.785   0.976   0.748
  910SOL    HW2 3630   2.778   1.112   0.837
  911SOL     OW 3631   0.036   5.195   0.907
  911SOL    HW1 3632   0.088   5.277   0.930
  911SOL    HW2 3633   0.010   5.147   0.991
  912SOL     OW 3634   5.971   0.720   4.029
  912SOL    HW1 3635   5.884   0.769   4.038
  912SOL    HW2 3636   5.975   0.675   3.940
  913SOL     OW 3637   1.849   0.830   3.004
  913SOL    HW1 3638   1.926   0.825   2.940
  913SOL    HW2 3639   1.855   0.915   3.057
  914SOL     OW 3640   2.262   6.159   4.983
  914SOL    HW1 3641   2.354   6.169   4.946
  914SOL    HW2 3642   2.196   6.202   4.920
  915SOL     OW 3643   1.181   3.583   6.950
  915SOL    HW1 3644   1.206   3.569   0.024
  915SOL    HW2 3645   1.217   3.671   6.918
  916SOL     OW 3646   1.170   2.615   1.900
  916SOL    HW1 3647   1.144   2.692   1.841
  916SOL    HW2 3648   1.156   2.529   1.851
  917SOL     OW 3649   5.690   0.291   2.271
  917SOL    HW1 3650   5.653   0.290   2.178
  917SOL    HW2 3651   5.789   0.278   2.267
  918SOL     OW 3652   2.900   6.789   6.866
  918SOL    HW1 3653   2.927   6.700   6.904
  918SOL    HW2 3654   2.840   6.774   6.787
  919SOL     OW 3655   6.537   5.450   2.480
  919SOL    HW1 3656   6.595   5.406   2.549
  919SOL    HW2 3657   6.499   5.381   2.418
  920SOL     OW 3658   2.303   5.798   3.108
  920SOL    HW1 3659   2.354   5.852   3.042
  920SOL    HW2 3660   2.223   5.849   3.139
  921SOL     OW 3661   4.615   4.282   3.576
  921SOL    HW1 3662   4.660   4.201   3.615
  921SOL    HW2 3663   4.587   4.343   3.650
  922SOL     OW 3664   3.348   3.089   5.583
  922SOL    HW1 3665   3.440   3.110   5.616
  922SOL    HW2 3666   3.322   3.155   5.513
  923SOL     OW 3667   2.833   4.501   6.206
  923SOL    HW1 3668   2.865   4.549   6.287
  923SOL    HW2 3669   2.877   4.539   6.125
  924SOL     OW 3670   6.424   2.425   2.526
  924SOL    HW1 3671   6.338   2.454   2.569
  924SOL    HW2 3672   6.490   2.400   2.597
  925SOL     OW 3673   6.864   1.969   6.541
  925SOL    HW1 3674   6.852   2.061   6.577
  925SOL    HW2 3675   6.930   1.920   6.596
  926SOL     OW 3676   5.933   1.585   0.700
  926SOL    HW1 3677   5.882   1.587   0.786
  926SOL    HW2 3678   5.903   1.506   0.646
  927SOL     OW 3679   5.851   3.837   3.318
  927SOL    HW1 3680   5.844   3.837   3.219
  927SOL    HW2 3681   5.793   3.765   3.356
  928SOL     OW 3682   1.111   6.322   0.588
  928SOL    HW1 3683   1.211   6.326   0.582
  928SOL    HW2 3684   1.083   6.237   0.634
  929SOL     OW 3685   0.444   0.527   1.409
  929SOL    HW1 3686   0.524   0.485   1.366
  929SOL    HW2 3687   0.475   0.598   1.473
  930SOL     OW 3688   5.639   6.022   4.678
  930SOL    HW1 3689   5.608   5.969   4.599
  930SOL    HW2 3690   5.566   6.084   4.706
  931SOL     OW 3691   5.661   2.936   2.994
  931SOL    HW1 3692   5.742   2.895   3.037
  931SOL    HW2 3693   5.681   2.957   2.899
  932SOL     OW 3694   3.334   6.835   2.904
  932SOL    HW1 3695   3.396   6.759   2.925
  932SOL    HW2 3696   3.249   6.798   2.866
  933SOL     OW 3697   0.916   5.487   3.376
  933SOL    HW1 3698   0.968   5.438   3.306
  933SOL    HW2 3699   0.825   5.508   3.342
  934SOL     OW 3700   1.792   0.515   4.845
  934SOL    HW1 3701   1.768   0.447   4.914
  934SOL    HW2 3702   1.724   0.588   4.845
  935SOL     OW 3703   5.156   4.430   5.107
  935SOL    HW1 3704   5.083   4.363   5.112
  935SOL    HW2 3705   5.237   4.396   5.156
  936SOL     OW 3706   1.607   0.696   6.473
  936SOL    HW1 3707   1.522   0.691   6.420
  936SOL    HW2 3708   1.684   0.666   6.416
  937SOL     OW 3709   4.868   1.332   4.953
  937SOL    HW1 3710   4.919   1.415   4.932
  937SOL    HW2 3711   4.900   1.294   5.039
  938SOL     OW 3712   0.198   5.542   5.990
  938SOL    HW1 3713   0.124   5.498   5.939
  938SOL    HW2 3714   0.209   5.498   6.079
  939SOL     OW 3715   5.724   0.762   5.922
  939SOL    HW1 3716   5.631   0.798   5.912
  939SOL    HW2 3717   5.720   0.666   5.949
  940SOL     OW 3718   0.783   2.710   2.291
  940SOL    HW1 3719   0.685   2.692   2.298
  940SOL    HW2 3720   0.797   2.806   2.265
  941SOL     OW 3721   6.361   0.704   5.222
  941SOL    HW1 3722   6.344   0.607   5.236
  941SOL    HW2 3723   6.291   0.742   5.162
  942SOL     OW 3724   4.691   6.997   3.511
  942SOL    HW1 3725   4.653   6.999   3.418
  942SOL    HW2 3726   4.725   0.066   3.535
  943SOL     OW 3727   1.838   3.315   3.530
  943SOL    HW1 3728   1.766   3.284   3.592
  943SOL    HW2 3729   1.832   3.263   3.445
  944SOL     OW 3730   6.595   4.151   5.316
  944SOL    HW1 3731   6.503   4.112   5.310
  944SOL    HW2 3732   6.656   4.085   5.359
  945SOL     OW 3733   6.438   4.444   5.356
  945SOL    HW1 3734   6.490   4.426   5.273
  945SOL    HW2 3735   6.499   4.472   5.429
  946SOL     OW 3736   4.634   3.036   5.943
  946SOL    HW1 3737   4.543   3.036   5.902
  946SOL    HW2 3738   4.632   2.989   6.031
  947SOL     OW 3739   3.323   2.952   4.221
  947SOL    HW1 3740   3.407   2.946   4.275
  947SOL    HW2 3741   3.252   2.998   4.274
  948SOL     OW 3742   4.392   0.146   0.939
  948SOL    HW1 3743   4.422   0.238   0.964
  948SOL    HW2 3744   4.306   0.126   0.987
  949SOL     OW 3745   1.067   6.627   6.127
  949SOL    HW1 3746   1.031   6.720   6.136
  949SOL    HW2 3747   1.144   6.615   6.189
  950SOL     OW 3748   4.420   5.002   1.819
  950SOL    HW1 3749   4.484   4.926   1.805
  950SOL    HW2 3750   4.457   5.063   1.889
  951SOL     OW 3751   2.128   0.355   3.165
  951SOL    HW1 3752   2.084   0.357   3.255
  951SOL    HW2 3753   2.190   0.277   3.160
  952SOL     OW 3754   5.284   1.990   2.972
  952SOL    HW1 3755   5.364   1.956   2.922
  952SOL    HW2 3756   5.294   2.088   2.987
  953SOL     OW 3757   4.958   5.352   4.421
  953SOL    HW1 3758   5.047   5.365   4.463
  953SOL    HW2 3759   4.900   5.432   4.439
  954SOL     OW 3760   4.901   5.863   0.529
  954SOL    HW1 3761   4.838   5.933   0.498
  954SOL    HW2 3762   4.852   5.776   0.538
  955SOL     OW 3763   7.000   4.200   2.652
  955SOL    HW1 3764   0.033   4.116   2.657
  955SOL    HW2 3765   6.970   4.225   2.744
  956SOL     OW 3766   6.917   2.273   2.733
  956SOL    HW1 3767   6.900   2.254   2.829
  956SOL    HW2 3768   6.836   2.247   2.680
  957SOL     OW 3769   0.625   5.107   4.775
  957SOL    HW1 3770   0.614   5.101   4.875
  957SOL    HW2 3771   0.540   5.142   4.735
  958SOL     OW 3772   4.409   1.760   3.071
  958SOL    HW1 3773   4.367   1.675   3.040
  958SOL    HW2 3774   4.508   1.750   3.070
  959SOL     OW 3775   3.574   5.173   3.117
  959SOL    HW1 3776   3.581   5.076   3.141
  959SOL    HW2 3777   3.633   5.226   3.179
  960SOL     OW 3778   0.869   6.036   3.420
  960SOL    HW1 3779   0.808   6.072   3.349
  960SOL    HW2 3780   0.923   6.111   3.459
  961SOL     OW 3781   4.120   0.252   3.330
  961SOL    HW1 3782   4.118   0.198   3.246
  961SOL    HW2 3783   4.155   0.344   3.310
  962SOL     OW 3784   1.468   1.055   4.264
  962SOL    HW1 3785   1.461   1.130   4.329
  962SOL    HW2 3786   1.419   1.079   4.180
  963SOL     OW 3787   0.133   2.432   6.242
  963SOL    HW1 3788   0.095   2.430   6.150
  963SOL    HW2 3789   0.059   2.420   6.309
  964SOL     OW 3790   6.206   4.528   6.808
  964SOL    HW1 3791   6.228   4.461   6.879
  964SOL    HW2 3792   6.249   4.615   6.831
  965SOL     OW 3793   5.904   1.791   1.050
  965SOL    HW1 3794   5.992   1.824   1.014
  965SOL    HW2 3795   5.834   1.861   1.036
  966SOL     OW 3796   5.317   2.761   1.809
  966SOL    HW1 3797   5.224   2.726   1.796
  966SOL    HW2 3798   5.376   2.729   1.735
  967SOL     OW 3799   2.340   4.564   1.569
  967SOL    HW1 3800   2.295   4.505   1.636
  967SOL    HW2 3801   2.333   4.522   1.478
  968SOL     OW 3802   3.602   1.722   2.041
  968SOL    HW1 3803   3.611   1.673   2.128
  968SOL    HW2 3804   3.582   1.818   2.059
  969SOL     OW 3805   3.391   5.838   6.373
  969SOL    HW1 3806   3.412   5.756   6.426
  969SOL    HW2 3807   3.294   5.838   6.348
  970SOL     OW 3808   5.022   0.966   6.151
  970SOL    HW1 3809   5.031   0.890   6.086
  970SOL    HW2 3810   4.934   1.011   6.137
  971SOL     OW 3811   6.607   2.032   3.378
  971SOL    HW1 3812   6.589   2.066   3.286
  971SOL    HW2 3813   6.666   2.097   3.426
  972SOL     OW 3814   5.923   3.870   1.604
  972SOL    HW1 3815   5.965   3.796   1.552
  972SOL    HW2 3816   5.831   3.845   1.632
  973SOL     OW 3817   6.915   4.581   6.818
  973SOL    HW1 3818   6.937   4.676   6.840
  973SOL    HW2 3819   6.903   4.571   6.719
  974SOL     OW 3820   5.910   6.718   2.538
  974SOL    HW1 3821   5.837   6.778   2.505
  974SOL    HW2 3822   5.871   6.629   2.562
  975SOL     OW 3823   1.615   5.509   6.482
  975SOL    HW1 3824   1.702   5.464   6.462
  975SOL    HW2 3825   1.633   5.603   6.513
  976SOL     OW 3826   0.128   3.549   2.968
  976SOL    HW1 3827   0.139   3.643   3.000
  976SOL    HW2 3828   0.218   3.507   2.959
  977SOL     OW 3829   1.381   0.902   2.884
  977SOL    HW1 3830   1.283   0.906   2.900
  977SOL    HW2 3831   1.410   0.979   2.827
  978SOL     OW 3832   4.816   4.091   5.461
  978SOL    HW1 3833   4.739   4.073   5.398
  978SOL    HW2 3834   4.848   4.004   5.499
  979SOL     OW 3835   6.886   2.372   1.137
  979SOL    HW1 3836   6.861   2.402   1.045
  979SOL    HW2 3837   6.803   2.356   1.190
  980SOL     OW 3838   4.458   2.423   3.951
  980SOL    HW1 3839   4.420   2.375   3.872
  980SOL    HW2 3840   4.434   2.374   4.034
  981SOL     OW 3841   1.038   2.054   5.384
  981SOL    HW1 3842   1.016   1.957   5.395
  981SOL    HW2 3843   1.071   2.070   5.291
  982SOL     OW 3844   2.328   2.244   3.547
  982SOL    HW1 3845   2.238   2.207   3.571
  982SOL    HW2 3846   2.318   2.331   3.499
  983SOL     OW 3847   5.891   2.192   4.896
  983SOL    HW1 3848   5.966   2.257   4.897
  983SOL    HW2 3849   5.828   2.215   4.822
  984SOL     OW 3850   2.903   1.705   4.420
  984SOL    HW1 3851   2.868   1.726   4.328
  984SOL    HW2 3852   3.002   1.694   4.416
  985SOL     OW 3853   5.040   4.772   5.891
  985SOL    HW1 3854   5.005   4.762   5.798
  985SOL    HW2 3855   4.979   4.726   5.955
  986SOL     OW 3856   5.406   4.256   0.656
  986SOL    HW1 3857   5.364   4.241   0.745
  986SOL    HW2 3858   5.503   4.231   0.661
  987SOL     OW 3859   4.249   0.178   1.942
  987SOL    HW1 3860   4.162   0.141   1.908
  987SOL    HW2 3861   4.250   0.174   2.042
  988SOL     OW 3862   3.228   3.341   3.023
  988SOL    HW1 3863   3.218   3.307   3.117
  988SOL    HW2 3864   3.199   3.270   2.959
  989SOL     OW 3865   6.634   0.686   5.216
  989SOL    HW1 3866   6.534   0.679   5.218
  989SOL    HW2 3867   6.666   0.731   5.299
  990SOL     OW 3868   4.006   0.109   1.863
  990SOL    HW1 3869   3.964   0.078   1.948
  990SOL    HW2 3870   3.967   0.197   1.837
  991SOL     OW 3871   1.354   2.600   5.403
  991SOL    HW1 3872   1.326   2.506   5.384
  991SOL    HW2 3873   1.364   2.649   5.316
  992SOL     OW 3874   6.859   2.366   2.188
  992SOL    HW1 3875   6.760   2.355   2.179
  992SOL    HW2 3876   6.883   2.376   2.284
  993SOL     OW 3877   1.554   4.259   1.832
  993SOL    HW1 3878   1.543   4.222   1.740
  993SOL    HW2 3879   1.592   4.188   1.892
  994SOL     OW 3880   3.447   3.799   2.179
  994SOL    HW1 3881   3.357   3.760   2.157
  994SOL    HW2 3882   3.452   3.893   2.144
  995SOL     OW 3883   3.530   2.835   5.218
  995SOL    HW1 3884   3.544   2.740   5.247
  995SOL    HW2 3885   3.581   2.853   5.134
  996SOL     OW 3886   2.864   4.788   3.970
  996SOL    HW1 3887   2.840   4.713   4.032
  996SOL    HW2 3888   2.921   4.854   4.018
  997SOL     OW 3889   1.477   0.867   3.151
  997SOL    HW1 3890   1.458   0.871   3.052
  997SOL    HW2 3891   1.462   0.774   3.183
  998SOL     OW 3892   4.258   0.249   4.266
  998SOL    HW1 3893   4.296   0.197   4.190
  998SOL    HW2 3894   4.188   0.196   4.312
  999SOL     OW 3895   5.352   4.203   2.080
  999SOL    HW1 3896   5.356   4.103   2.082
  999SOL    HW2 3897   5.386   4.236   1.991
 1000SOL     OW 3898   2.180   1.041   2.292
 1000SOL    HW1 3899   2.201   1.062   2.387
 1000SOL    HW2 3900   2.249   1.085   2.233
 1001SOL     OW 3901   5.325   6.336   0.530
 1001SOL    HW1 3902   5.372   6.255   0.494
 1001SOL    HW2 3903   5.377   6.372   0.607
 1002SOL     OW 3904   6.066   1.665   0.464
 1002SOL    HW1 3905   6.020   1.636   0.548
 1002SOL    HW2 3906   6.164   1.648   0.473
 1003SOL     OW 3907   2.093   6.105   1.498
 1003SOL    HW1 3908   2.088   6.186   1.439
 1003SOL    HW2 3909   2.042   6.030   1.457
 1004SOL     OW 3910   0.330   0.548   1.878
 1004SOL    HW1 3911   0.267   0.619   1.846
 1004SOL    HW2 3912   0.420   0.588   1.893
 1005SOL     OW 3913   1.514   2.660   3.438
 1005SOL    HW1 3914   1.522   2.728   3.364
 1005SOL    HW2 3915   1.420   2.627   3.441
 1006SOL     OW 3916   1.572   4.716   1.101
 1006SOL    HW1 3917   1.672   4.728   1.103
 1006SOL    HW2 3918   1.550   4.628   1.059
 1007SOL     OW 3919   5.006   0.361   5.142
 1007SOL    HW1 3920   5.021   0.455   5.174
 1007SOL    HW2 3921   5.091   0.309   5.152
 1008SOL     OW 3922   1.884   3.155   4.980
 1008SOL    HW1 3923   1.975   3.134   5.014
 1008SOL    HW2 3924   1.815   3.121   5.045
 1009SOL     OW 3925   6.943   5.716   4.831
 1009SOL    HW1 3926   6.846   5.725   4.853
 1009SOL    HW2 3927   6.956   5.731   4.733
 1010SOL     OW 3928   3.702   2.451   5.887
 1010SOL    HW1 3929   3.647   2.407   5.816
 1010SOL    HW2 3930   3.669   2.423   5.977
 1011SOL     OW 3931   2.570   4.919   2.389
 1011SOL    HW1 3932   2.598   4.875   2.474
 1011SOL    HW2 3933   2.470   4.915   2.382
 1012SOL     OW 3934   6.381   0.642   1.403
 1012SOL    HW1 3935   6.480   0.653   1.412
 1012SOL    HW2 3936   6.334   0.716   1.453
 1013SOL     OW 3937   0.841   1.311   6.094
 1013SOL    HW1 3938   0.744   1.324   6.116
 1013SOL    HW2 3939   0.875   1.230   6.142
 1014SOL     OW 3940   5.190   5.557   6.721
 1014SOL    HW1 3941   5.165   5.591   6.812
 1014SOL    HW2 3942   5.108   5.530   6.671
 1015SOL     OW 3943   2.408   6.926   5.536
 1015SOL    HW1 3944   2.312   6.942   5.559
 1015SOL    HW2 3945   2.465   6.996   5.578
 1016SOL     OW 3946   3.715   3.626   6.827
 1016SOL    HW1 3947   3.656   3.546   6.830
 1016SOL    HW2 3948   3.766   3.626   6.741
 1017SOL     OW 3949   3.919   2.542   1.412
 1017SOL    HW1 3950   3.841   2.491   1.449
 1017SOL    HW2 3951   3.959   2.491   1.336
 1018SOL     OW 3952   0.702   3.400   4.100
 1018SOL    HW1 3953   0.722   3.484   4.050
 1018SOL    HW2 3954   0.688   3.420   4.196
 1019SOL     OW 3955   6.889   0.180   1.642
 1019SOL    HW1 3956   6.813   0.189   1.707
 1019SOL    HW2 3957   6.976   0.198   1.690
 1020SOL     OW 3958   0.965   6.816   1.176
 1020SOL    HW1 3959   0.989   6.818   1.079
 1020SOL    HW2 3960   1.043   6.781   1.229
 1021SOL     OW 3961   4.893   0.261   1.540
 1021SOL    HW1 3962   4.976   0.227   1.496
 1021SOL    HW2 3963   4.817   0.257   1.476
 1022SOL     OW 3964   3.576   4.883   6.055
 1022SOL    HW1 3965   3.644   4.932   5.999
 1022SOL    HW2 3966   3.624   4.823   6.119
 1023SOL     OW 3967   0.919   6.661   2.976
 1023SOL    HW1 3968   0.983   6.598   2.932
 1023SOL    HW2 3969   0.857   6.699   2.908
 1024SOL     OW 3970   0.011   2.707   3.946
 1024SOL    HW1 3971   0.110   2.694   3.938
 1024SOL    HW2 3972   7.013   2.805   3.953
 1025SOL     OW 3973   2.666   2.819   0.429
 1025SOL    HW1 3974   2.567   2.824   0.417
 1025SOL    HW2 3975   2.687   2.782   0.520
 1026SOL     OW 3976   2.645   2.795   1.392
 1026SOL    HW1 3977   2.579   2.780   1.318
 1026SOL    HW2 3978   2.649   2.893   1.412
 1027SOL     OW 3979   3.135   6.801   1.223
 1027SOL    HW1 3980   3.081   6.840   1.148
 1027SOL    HW2 3981   3.209   6.745   1.185
 1028SOL     OW 3982   2.824   6.153   0.457
 1028SOL    HW1 3983   2.790   6.248   0.460
 1028SOL    HW2 3984   2.746   6.091   0.445
 1029SOL     OW 3985   1.903   0.369   0.282
 1029SOL    HW1 3986   1.907   0.422   0.197
 1029SOL    HW2 3987   1.816   0.386   0.328
 1030SOL     OW 3988   3.211   3.338   1.793
 1030SOL    HW1 3989   3.152   3.406   1.750
 1030SOL    HW2 3990   3.241   3.371   1.882
 1031SOL     OW 3991   4.611   5.288   0.845
 1031SOL    HW1 3992   4.644   5.269   0.752
 1031SOL    HW2 3993   4.549   5.367   0.842
 1032SOL     OW 3994   2.235   1.748   4.784
 1032SOL    HW1 3995   2.310   1.687   4.757
 1032SOL    HW2 3996   2.195   1.716   4.870
 1033SOL     OW 3997   1.728   6.197   0.805
 1033SOL    HW1 3998   1.711   6.166   0.899
 1033SOL    HW2 3999   1.714   6.295   0.799
 1034SOL     OW 4000   0.529   5.661   5.163
 1034SOL    HW1 4001   0.505   5.608   5.245
 1034SOL    HW2 4002   0.466   5.738   5.153
 1035SOL     OW 4003   1.170   1.074   4.805
 1035SOL    HW1 4004   1.095   1.048   4.866
 1035SOL    HW2 4005   1.202   0.994   4.755
 1036SOL     OW 4006   3.226   0.978   2.009
 1036SOL    HW1 4007   3.294   0.995   1.938
 1036SOL    HW2 4008   3.162   0.907   1.977
 1037SOL     OW 4009   1.309   0.507   1.891
 1037SOL    HW1 4010   1.361   0.544   1.969
 1037SOL    HW2 4011   1.353   0.423   1.859
 1038SOL     OW 4012   1.524   0.043   5.564
 1038SOL    HW1 4013   1.473   0.125   5.590
 1038SOL    HW2 4014   1.622   0.061   5.572
 1039SOL     OW 4015   3.580   3.161   5.708
 1039SOL    HW1 4016   3.569   3.261   5.705
 1039SOL    HW2 4017   3.601   3.133   5.802
 1040SOL     OW 4018   4.782   2.860   2.772
 1040SOL    HW1 4019   4.845   2.783   2.779
 1040SOL    HW2 4020   4.830   2.940   2.737
 1041SOL     OW 4021   6.519   6.878   4.395
 1041SOL    HW1 4022   6.555   6.950   4.454
 1041SOL    HW2 4023   6.581   6.799   4.397
 1042SOL     OW 4024   4.386   5.006   2.392
 1042SOL    HW1 4025   4.308   4.945   2.406
 1042SOL    HW2 4026   4.465   4.973   2.444
 1043SOL     OW 4027   3.542   1.614   4.789
 1043SOL    HW1 4028   3.491   1.536   4.824
 1043SOL    HW2 4029   3.497   1.649   4.706
 1044SOL     OW 4030   4.983   4.268   2.068
 1044SOL    HW1 4031   4.887   4.261   2.095
 1044SOL    HW2 4032   5.004   4.196   2.002
 1045SOL     OW 4033   4.223   6.319   2.075
 1045SOL    HW1 4034   4.300   6.318   2.139
 1045SOL    HW2 4035   4.258   6.327   1.982
 1046SOL     OW 4036   1.091   0.466   0.438
 1046SOL    HW1 4037   1.068   0.539   0.373
 1046SOL    HW2 4038   1.009   0.413   0.459
 1047SOL     OW 4039   1.939   0.546   3.188
 1047SOL    HW1 4040   2.012   0.479   3.172
 1047SOL    HW2 4041   1.880   0.550   3.107
 1048SOL     OW 4042   5.806   6.124   4.447
 1048SOL    HW1 4043   5.748   6.135   4.527
 1048SOL    HW2 4044   5.809   6.211   4.397
 1049SOL     OW 4045   6.463   5.399   4.162
 1049SOL    HW1 4046   6.450   5.346   4.079
 1049SOL    HW2 4047   6.375   5.438   4.191
 1050SOL     OW 4048   4.266   5.253   1.082
 1050SOL    HW1 4049   4.313   5.304   1.010
 1050SOL    HW2 4050   4.207   5.314   1.134
 1051SOL     OW 4051   2.370   6.073   1.047
 1051SOL    HW1 4052   2.280   6.043   1.016
 1051SOL    HW2 4053   2.372   6.173   1.050
 1052SOL     OW 4054   3.908   0.593   4.598
 1052SOL    HW1 4055   3.886   0.637   4.684
 1052SOL    HW2 4056   3.997   0.547   4.606
 1053SOL     OW 4057   6.083   4.789   3.099
 1053SOL    HW1 4058   6.164   4.778   3.157
 1053SOL    HW2 4059   6.018   4.716   3.119
 1054SOL     OW 4060   2.475   4.158   5.927
 1054SOL    HW1 4061   2.575   4.164   5.919
 1054SOL    HW2 4062   2.433   4.229   5.872
 1055SOL     OW 4063   5.271   6.317   4.139
 1055SOL    HW1 4064   5.341   6.387   4.122
 1055SOL    HW2 4065   5.255   6.266   4.054
 1056SOL     OW 4066   1.723   4.918   5.736
 1056SOL    HW1 4067   1.695   4.825   5.712
 1056SOL    HW2 4068   1.720   4.976   5.655
 1057SOL     OW 4069   2.983   3.153   2.591
 1057SOL    HW1 4070   2.894   3.133   2.550
 1057SOL    HW2 4071   3.055   3.127   2.527
 1058SOL     OW 4072   4.707   1.448   3.346
 1058SOL    HW1 4073   4.702   1.400   3.434
 1058SOL    HW2 4074   4.803   1.461   3.321
 1059SOL     OW 4075   2.193   0.164   1.201
 1059SOL    HW1 4076   2.251   0.099   1.250
 1059SOL    HW2 4077   2.250   0.238   1.165
 1060SOL     OW 4078   0.086   4.480   4.240
 1060SOL    HW1 4079   0.158   4.411   4.251
 1060SOL    HW2 4080   7.021   4.441   4.272
 1061SOL     OW 4081   5.691   3.840   1.403
 1061SOL    HW1 4082   5.704   3.794   1.316
 1061SOL    HW2 4083   5.695   3.772   1.477
 1062SOL     OW 4084   5.822   3.734   6.432
 1062SOL    HW1 4085   5.825   3.719   6.333
 1062SOL    HW2 4086   5.844   3.829   6.452
 1063SOL     OW 4087   2.044   4.697   1.676
 1063SOL    HW1 4088   1.981   4.769   1.705
 1063SOL    HW2 4089   2.136   4.734   1.669
 1064SOL     OW 4090   1.878   3.890   1.841
 1064SOL    HW1 4091   1.953   3.955   1.858
 1064SOL    HW2 4092   1.894   3.843   1.754
 1065SOL     OW 4093   4.289   6.851   3.838
 1065SOL    HW1 4094   4.262   6.930   3.894
 1065SOL    HW2 4095   4.379   6.819   3.867
 1066SOL     OW 4096   4.697   0.462   3.856
 1066SOL    HW1 4097   4.706   0.560   3.871
 1066SOL    HW2 4098   4.700   0.414   3.943
 1067SOL     OW 4099   0.656   3.125   0.857
 1067SOL    HW1 4100   0.591   3.097   0.928
 1067SOL    HW2 4101   0.618   3.103   0.767
 1068SOL     OW 4102   5.482   4.844   2.825
 1068SOL    HW1 4103   5.493   4.755   2.780
 1068SOL    HW2 4104   5.571   4.891   2.827
 1069SOL     OW 4105   4.586   4.814   0.890
 1069SOL    HW1 4106   4.659   4.787   0.953
 1069SOL    HW2 4107   4.620   4.808   0.796
 1070SOL     OW 4108   6.983   0.147   2.354
 1070SOL    HW1 4109   6.986   0.083   2.431
 1070SOL    HW2 4110   6.958   0.238   2.388
 1071SOL     OW 4111   1.852   0.176   3.113
 1071SOL    HW1 4112   1.830   0.233   3.193
 1071SOL    HW2 4113   1.817   0.219   3.030
 1072SOL     OW 4114   1.725   0.432   0.934
 1072SOL    HW1 4115   1.675   0.518   0.929
 1072SOL    HW2 4116   1.794   0.438   1.006
 1073SOL     OW 4117   4.676   6.842   1.815
 1073SOL    HW1 4118   4.705   6.906   1.744
 1073SOL    HW2 4119   4.585   6.867   1.847
 1074SOL     OW 4120   2.761   5.205   0.632
 1074SOL    HW1 4121   2.758   5.210   0.732
 1074SOL    HW2 4122   2.728   5.291   0.593
 1075SOL     OW 4123   4.401   6.974   4.206
 1075SOL    HW1 4124   4.329   6.993   4.140
 1075SOL    HW2 4125   4.408   6.875   4.221
 1076SOL     OW 4126   6.427   3.599   5.601
 1076SOL    HW1 4127   6.523   3.595   5.630
 1076SOL    HW2 4128   6.412   3.534   5.527
 1077SOL     OW 4129   5.499   0.342   0.833
 1077SOL    HW1 4130   5.436   0.370   0.759
 1077SOL    HW2 4131   5.493   0.407   0.908
 1078SOL     OW 4132   0.790   1.425   2.189
 1078SOL    HW1 4133   0.871   1.405   2.134
 1078SOL    HW2 4134   0.724   1.351   2.180
 1079SOL     OW 4135   1.816   6.122   2.179
 1079SOL    HW1 4136   1.904   6.114   2.131
 1079SOL    HW2 4137   1.745   6.077   2.125
 1080SOL     OW 4138   1.540   4.398   3.383
 1080SOL    HW1 4139   1.498   4.488   3.388
 1080SOL    HW2 4140   1.542   4.357   3.474
 1081SOL     OW 4141   0.476   6.218   6.347
 1081SOL    HW1 4142   0.434   6.182   6.264
 1081SOL    HW2 4143   0.564   6.259   6.325
 1082SOL     OW 4144   3.746   1.831   5.501
 1082SOL    HW1 4145   3.709   1.741   5.522
 1082SOL    HW2 4146   3.731   1.851   5.404
 1083SOL     OW 4147   4.056   4.015   0.896
 1083SOL    HW1 4148   4.144   3.967   0.897
 1083SOL    HW2 4149   4.043   4.060   0.808
 1084SOL     OW 4150   6.290   5.691   0.281
 1084SOL    HW1 4151   6.239   5.758   0.227
 1084SOL    HW2 4152   6.295   5.605   0.232
 1085SOL     OW 4153   1.203   3.540   4.109
 1085SOL    HW1 4154   1.247   3.511   4.024
 1085SOL    HW2 4155   1.251   3.620   4.145
 1086SOL     OW 4156   6.276   6.375   1.566
 1086SOL    HW1 4157   6.269   6.471   1.591
 1086SOL    HW2 4158   6.188   6.330   1.579
 1087SOL     OW 4159   6.140   2.719   5.629
 1087SOL    HW1 4160   6.172   2.813   5.618
 1087SOL    HW2 4161   6.206   2.667   5.683
 1088SOL     OW 4162   6.426   4.448   3.624
 1088SOL    HW1 4163   6.372   4.532   3.615
 1088SOL    HW2 4164   6.419   4.395   3.540
 1089SOL     OW 4165   1.505   6.431   4.467
 1089SOL    HW1 4166   1.434   6.455   4.400
 1089SOL    HW2 4167   1.592   6.416   4.421
 1090SOL     OW 4168   2.292   1.646   3.558
 1090SOL    HW1 4169   2.302   1.577   3.630
 1090SOL    HW2 4170   2.199   1.643   3.522
 1091SOL     OW 4171   2.494   2.721   5.662
 1091SOL    HW1 4172   2.406   2.714   5.709
 1091SOL    HW2 4173   2.483   2.693   5.567
 1092SOL     OW 4174   1.756   4.242   0.848
 1092SOL    HW1 4175   1.766   4.316   0.914
 1092SOL    HW2 4176   1.835   4.240   0.786
 1093SOL     OW 4177   1.295   1.904   2.164
 1093SOL    HW1 4178   1.387   1.878   2.135
 1093SOL    HW2 4179   1.228   1.847   2.116
 1094SOL     OW 4180   0.866   6.318   3.746
 1094SOL    HW1 4181   0.881   6.406   3.791
 1094SOL    HW2 4182   0.915   6.315   3.659
 1095SOL     OW 4183   0.658   2.674   6.387
 1095SOL    HW1 4184   0.684   2.668   6.484
 1095SOL    HW2 4185   0.726   2.728   6.338
 1096SOL     OW 4186   3.353   4.376   1.672
 1096SOL    HW1 4187   3.396   4.291   1.643
 1096SOL    HW2 4188   3.419   4.432   1.722
 1097SOL     OW 4189   2.152   4.165   4.261
 1097SOL    HW1 4190   2.185   4.148   4.353
 1097SOL    HW2 4191   2.075   4.230   4.264
 1098SOL     OW 4192   4.448   3.495   0.870
 1098SOL    HW1 4193   4.418   3.474   0.963
 1098SOL    HW2 4194   4.526   3.436   0.847
 1099SOL     OW 4195   4.130   1.789   4.934
 1099SOL    HW1 4196   4.065   1.866   4.931
 1099SOL    HW2 4197   4.090   1.714   4.985
 1100SOL     OW 4198   3.418   2.164   6.193
 1100SOL    HW1 4199   3.344   2.171   6.259
 1100SOL    HW2 4200   3.408   2.080   6.139
 1101SOL     OW 4201   6.035   1.904   0.321
 1101SOL    HW1 4202   5.955   1.946   0.363
 1101SOL    HW2 4203   6.053   1.816   0.366
 1102SOL     OW 4204   0.843   5.812   4.384
 1102SOL    HW1 4205   0.760   5.757   4.395
 1102SOL    HW2 4206   0.833   5.875   4.307
 1103SOL     OW 4207   3.563   2.069   1.021
 1103SOL    HW1 4208   3.516   2.157   1.013
 1103SOL    HW2 4209   3.511   1.999   0.972
 1104SOL     OW 4210   2.336   3.463   5.324
 1104SOL    HW1 4211   2.420   3.490   5.277
 1104SOL    HW2 4212   2.349   3.375   5.368
 1105SOL     OW 4213   6.425   3.905   5.059
 1105SOL    HW1 4214   6.434   3.875   5.154
 1105SOL    HW2 4215   6.466   3.996   5.048
 1106SOL     OW 4216   0.913   2.120   1.530
 1106SOL    HW1 4217   0.877   2.198   1.480
 1106SOL    HW2 4218   0.917   2.141   1.628
 1107SOL     OW 4219   2.314   0.428   6.501
 1107SOL    HW1 4220   2.388   0.444   6.436
 1107SOL    HW2 4221   2.309   0.506   6.564
 1108SOL     OW 4222   3.608   0.742   5.590
 1108SOL    HW1 4223   3.677   0.763   5.521
 1108SOL    HW2 4224   3.519   0.778   5.560
 1109SOL     OW 4225   5.060   0.109   4.754
 1109SOL    HW1 4226   5.007   0.128   4.671
 1109SOL    HW2 4227   4.998   0.085   4.828
 1110SOL     OW 4228   2.628   2.126   3.135
 1110SOL    HW1 4229   2.618   2.100   3.231
 1110SOL    HW2 4230   2.703   2.075   3.094
 1111SOL     OW 4231   5.084   5.001   6.162
 1111SOL    HW1 4232   5.083   5.025   6.065
 1111SOL    HW2 4233   5.179   4.998   6.194
 1112SOL     OW 4234   5.119   1.382   2.251
 1112SOL    HW1 4235   5.166   1.419   2.171
 1112SOL    HW2 4236   5.157   1.292   2.274
 1113SOL     OW 4237   6.972   3.164   2.573
 1113SOL    HW1 4238   6.990   3.252   2.528
 1113SOL    HW2 4239   6.956   3.179   2.670
 1114SOL     OW 4240   4.119   1.941   6.344
 1114SOL    HW1 4241   4.209   1.935   6.387
 1114SOL    HW2 4242   4.058   1.995   6.402
 1115SOL     OW 4243   4.402   3.335   0.376
 1115SOL    HW1 4244   4.309   3.305   0.354
 1115SOL    HW2 4245   4.428   3.298   0.466
 1116SOL     OW 4246   5.285   6.274   5.097
 1116SOL    HW1 4247   5.375   6.298   5.060
 1116SOL    HW2 4248   5.217   6.340   5.065
 1117SOL     OW 4249   1.499   2.331   1.409
 1117SOL    HW1 4250   1.568   2.347   1.338
 1117SOL    HW2 4251   1.410   2.317   1.365
 1118SOL     OW 4252   2.746   4.417   1.516
 1118SOL    HW1 4253   2.693   4.445   1.436
 1118SOL    HW2 4254   2.694   4.437   1.599
 1119SOL     OW 4255   4.157   4.110   0.416
 1119SOL    HW1 4256   4.135   4.207   0.399
 1119SOL    HW2 4257   4.185   4.067   0.330
 1120SOL     OW 4258   6.094   0.090   4.818
 1120SOL    HW1 4259   6.039   0.088   4.734
 1120SOL    HW2 4260   6.063   0.165   4.876
 1121SOL     OW 4261   4.879   5.138   2.949
 1121SOL    HW1 4262   4.838   5.068   2.892
 1121SOL    HW2 4263   4.859   5.120   3.045
 1122SOL     OW 4264   4.981   3.346   6.900
 1122SOL    HW1 4265   5.001   3.389   6.812
 1122SOL    HW2 4266   4.883   3.326   6.905
 1123SOL     OW 4267   5.494   1.076   3.419
 1123SOL    HW1 4268   5.427   1.089   3.346
 1123SOL    HW2 4269   5.447   1.053   3.504
 1124SOL     OW 4270   6.321   4.068   5.295
 1124SOL    HW1 4271   6.256   4.039   5.366
 1124SOL    HW2 4272   6.271   4.113   5.221
 1125SOL     OW 4273   3.164   1.404   5.086
 1125SOL    HW1 4274   3.199   1.310   5.088
 1125SOL    HW2 4275   3.074   1.405   5.043
 1126SOL     OW 4276   5.653   5.270   6.730
 1126SOL    HW1 4277   5.676   5.214   6.809
 1126SOL    HW2 4278   5.724   5.261   6.660
 1127SOL     OW 4279   4.707   5.008   4.398
 1127SOL    HW1 4280   4.763   4.925   4.400
 1127SOL    HW2 4281   4.611   4.983   4.403
 1128SOL     OW 4282   5.659   1.939   5.713
 1128SOL    HW1 4283   5.686   1.917   5.620
 1128SOL    HW2 4284   5.569   1.899   5.732
 1129SOL     OW 4285   3.428   0.514   6.843
 1129SOL    HW1 4286   3.360   0.528   6.771
 1129SOL    HW2 4287   3.441   0.416   6.858
 1130SOL     OW 4288   2.275   4.683   0.485
 1130SOL    HW1 4289   2.254   4.596   0.528
 1130SOL    HW2 4290   2.341   4.734   0.542
 1131SOL     OW 4291   0.226   6.430   6.510
 1131SOL    HW1 4292   0.236   6.332   6.491
 1131SOL    HW2 4293   0.177   6.442   6.597
 1132SOL     OW 4294   5.110   0.185   1.309
 1132SOL    HW1 4295   5.040   0.118   1.286
 1132SOL    HW2 4296   5.200   0.141   1.311
 1133SOL     OW 4297   1.080   0.409   1.193
 1133SOL    HW1 4298   1.022   0.328   1.188
 1133SOL    HW2 4299   1.037   0.477   1.253
 1134SOL     OW 4300   4.939   1.448   1.749
 1134SOL    HW1 4301   4.951   1.421   1.653
 1134SOL    HW2 4302   4.996   1.527   1.769
 1135SOL     OW 4303   2.218   1.520   2.742
 1135SOL    HW1 4304   2.225   1.585   2.667
 1135SOL    HW2 4305   2.167   1.560   2.817
 1136SOL     OW 4306   2.883   4.945   4.632
 1136SOL    HW1 4307   2.914   4.917   4.722
 1136SOL    HW2 4308   2.797   4.995   4.640
 1137SOL     OW 4309   1.541   1.385   5.941
 1137SOL    HW1 4310   1.547   1.470   5.992
 1137SOL    HW2 4311   1.493   1.316   5.996
 1138SOL     OW 4312   0.880   1.262   6.683
 1138SOL    HW1 4313   0.938   1.311   6.748
 1138SOL    HW2 4314   0.796   1.233   6.730
 1139SOL     OW 4315   3.318   5.614   1.421
 1139SOL    HW1 4316   3.306   5.682   1.493
 1139SOL    HW2 4317   3.260   5.535   1.439
 1140SOL     OW 4318   4.099   0.934   1.879
 1140SOL    HW1 4319   4.096   0.898   1.972
 1140SOL    HW2 4320   4.041   0.879   1.820
 1141SOL     OW 4321   0.455   6.763   6.365
 1141SOL    HW1 4322   0.438   6.844   6.308
 1141SOL    HW2 4323   0.544   6.725   6.342
 1142SOL     OW 4324   2.727   0.193   4.505
 1142SOL    HW1 4325   2.791   0.118   4.490
 1142SOL    HW2 4326   2.676   0.212   4.421
 1143SOL     OW 4327   1.672   3.555   2.400
 1143SOL    HW1 4328   1.597   3.490   2.404
 1143SOL    HW2 4329   1.691   3.590   2.492
 1144SOL     OW 4330   6.586   4.875   5.399
 1144SOL    HW1 4331   6.676   4.912   5.375
 1144SOL    HW2 4332   6.524   4.951   5.419
 1145SOL     OW 4333   0.223   4.009   2.253
 1145SOL    HW1 4334   0.197   3.968   2.165
 1145SOL    HW2 4335   0.271   4.095   2.236
 1146SOL     OW 4336   6.280   0.622   1.809
 1146SOL    HW1 4337   6.204   0.594   1.750
 1146SOL    HW2 4338   6.328   0.698   1.767
 1147SOL     OW 4339   1.666   5.348   1.178
 1147SOL    HW1 4340   1.754   5.340   1.226
 1147SOL    HW2 4341   1.603   5.279   1.214
 1148SOL     OW 4342   5.088   6.981   0.224
 1148SOL    HW1 4343   5.040   6.895   0.244
 1148SOL    HW2 4344   5.121   6.979   0.130
 1149SOL     OW 4345   6.297   4.123   2.399
 1149SOL    HW1 4346   6.345   4.195   2.349
 1149SOL    HW2 4347   6.343   4.036   2.383
 1150SOL     OW 4348   2.774   4.145   0.474
 1150SOL    HW1 4349   2.733   4.055   0.485
 1150SOL    HW2 4350   2.871   4.136   0.454
 1151SOL     OW 4351   4.154   5.172   6.671
 1151SOL    HW1 4352   4.218   5.095   6.677
 1151SOL    HW2 4353   4.203   5.257   6.691
 1152SOL     OW 4354   6.554   5.347   6.024
 1152SOL    HW1 4355   6.457   5.326   6.028
 1152SOL    HW2 4356   6.583   5.386   6.112
 1153SOL     OW 4357   2.487   7.012   2.167
 1153SOL    HW1 4358   2.394   6.978   2.182
 1153SOL    HW2 4359   2.511   7.002   2.071
 1154SOL     OW 4360   0.839   4.113   1.593
 1154SOL    HW1 4361   0.832   4.016   1.617
 1154SOL    HW2 4362   0.886   4.122   1.505
 1155SOL     OW 4363   2.143   5.411   6.811
 1155SOL    HW1 4364   2.128   5.459   6.724
 1155SOL    HW2 4365   2.197   5.328   6.794
 1156SOL     OW 4366   3.006   1.153   4.960
 1156SOL    HW1 4367   2.917   1.119   4.930
 1156SOL    HW2 4368   3.077   1.121   4.898
 1157SOL     OW 4369   5.995   0.937   5.319
 1157SOL    HW1 4370   6.053   0.915   5.397
 1157SOL    HW2 4371   5.912   0.983   5.351
 1158SOL     OW 4372   0.085   6.239   5.330
 1158SOL    HW1 4373   7.018   6.230   5.375
 1158SOL    HW2 4374   0.071   6.276   5.238
 1159SOL     OW 4375   6.053   6.631   4.393
 1159SOL    HW1 4376   5.983   6.621   4.464
 1159SOL    HW2 4377   6.028   6.576   4.313
 1160SOL     OW 4378   3.614   3.361   0.900
 1160SOL    HW1 4379   3.519   3.329   0.906
 1160SOL    HW2 4380   3.615   3.458   0.878
 1161SOL     OW 4381   5.996   0.432   6.618
 1161SOL    HW1 4382   5.966   0.355   6.562
 1161SOL    HW2 4383   6.022   0.509   6.558
 1162SOL     OW 4384   2.749   2.245   6.354
 1162SOL    HW1 4385   2.704   2.233   6.443
 1162SOL    HW2 4386   2.844   2.272   6.368
 1163SOL     OW 4387   6.782   3.222   1.359
 1163SOL    HW1 4388   6.725   3.290   1.314
 1163SOL    HW2 4389   6.733   3.134   1.360
 1164SOL     OW 4390   5.386   2.709   5.145
 1164SOL    HW1 4391   5.352   2.638   5.206
 1164SOL    HW2 4392   5.325   2.789   5.148
 1165SOL     OW 4393   2.762   4.698   3.689
 1165SOL    HW1 4394   2.813   4.724   3.770
 1165SOL    HW2 4395   2.765   4.772   3.622
 1166SOL     OW 4396   3.813   6.773   0.252
 1166SOL    HW1 4397   3.879   6.737   0.318
 1166SOL    HW2 4398   3.769   6.854   0.290
 1167SOL     OW 4399   4.337   6.645   6.653
 1167SOL    HW1 4400   4.420   6.668   6.703
 1167SOL    HW2 4401   4.361   6.596   6.570
 1168SOL     OW 4402   5.559   1.828   4.086
 1168SOL    HW1 4403   5.659   1.825   4.073
 1168SOL    HW2 4404   5.533   1.767   4.161
 1169SOL     OW 4405   5.410   2.430   6.088
 1169SOL    HW1 4406   5.441   2.526   6.085
 1169SOL    HW2 4407   5.348   2.413   6.011
 1170SOL     OW 4408   5.252   1.379   2.913
 1170SOL    HW1 4409   5.292   1.379   3.004
 1170SOL    HW2 4410   5.210   1.291   2.895
 1171SOL     OW 4411   3.335   6.477   0.145
 1171SOL    HW1 4412   3.433   6.467   0.126
 1171SOL    HW2 4413   3.322   6.547   0.215
 1172SOL     OW 4414   3.461   4.002   1.923
 1172SOL    HW1 4415   3.456   3.919   1.867
 1172SOL    HW2 4416   3.379   4.058   1.908
 1173SOL     OW 4417   3.628   0.492   6.068
 1173SOL    HW1 4418   3.653   0.453   6.157
 1173SOL    HW2 4419   3.613   0.591   6.079
 1174SOL     OW 4420   3.024   3.985   6.833
 1174SOL    HW1 4421   3.079   4.060   6.797
 1174SOL    HW2 4422   3.040   3.976   6.932
 1175SOL     OW 4423   3.872   3.390   6.529
 1175SOL    HW1 4424   3.957   3.440   6.546
 1175SOL    HW2 4425   3.838   3.414   6.438
 1176SOL     OW 4426   5.960   4.668   0.348
 1176SOL    HW1 4427   5.879   4.650   0.294
 1176SOL    HW2 4428   5.996   4.582   0.385
 1177SOL     OW 4429   6.932   1.739   6.241
 1177SOL    HW1 4430   6.839   1.722   6.210
 1177SOL    HW2 4431   6.959   1.670   6.308
 1178SOL     OW 4432   3.290   3.334   1.377
 1178SOL    HW1 4433   3.332   3.249   1.345
 1178SOL    HW2 4434   3.195   3.316   1.405
 1179SOL     OW 4435   3.189   6.450   0.570
 1179SOL    HW1 4436   3.124   6.506   0.621
 1179SOL    HW2 4437   3.181   6.354   0.598
 1180SOL     OW 4438   2.410   5.715   3.791
 1180SOL    HW1 4439   2.446   5.627   3.760
 1180SOL    HW2 4440   2.353   5.702   3.872
 1181SOL     OW 4441   6.990   2.791   4.998
 1181SOL    HW1 4442   6.982   2.773   5.095
 1181SOL    HW2 4443   6.907   2.761   4.951
 1182SOL     OW 4444   3.171   5.287   3.583
 1182SOL    HW1 4445   3.102   5.348   3.622
 1182SOL    HW2 4446   3.203   5.324   3.495
 1183SOL     OW 4447   3.793   6.257   1.802
 1183SOL    HW1 4448   3.748   6.261   1.892
 1183SOL    HW2 4449   3.725   6.233   1.733
 1184SOL     OW 4450   5.013   0.060   6.708
 1184SOL    HW1 4451   5.017   0.160   6.705
 1184SOL    HW2 4452   4.917   0.031   6.702
 1185SOL     OW 4453   1.130   0.754   0.980
 1185SOL    HW1 4454   1.210   0.784   1.033
 1185SOL    HW2 4455   1.147   0.663   0.943
 1186SOL     OW 4456   5.793   6.250   6.039
 1186SOL    HW1 4457   5.893   6.257   6.034
 1186SOL    HW2 4458   5.752   6.333   6.000
 1187SOL     OW 4459   5.908   6.838   5.262
 1187SOL    HW1 4460   5.832   6.826   5.198
 1187SOL    HW2 4461   5.877   6.888   5.343
 1188SOL     OW 4462   3.803   5.729   5.924
 1188SOL    HW1 4463   3.770   5.823   5.913
 1188SOL    HW2 4464   3.738   5.666   5.882
 1189SOL     OW 4465   6.348   0.623   2.071
 1189SOL    HW1 4466   6.329   0.623   1.973
 1189SOL    HW2 4467   6.366   0.717   2.102
 1190SOL     OW 4468   3.354   5.356   3.384
 1190SOL    HW1 4469   3.398   5.441   3.355
 1190SOL    HW2 4470   3.342   5.295   3.305
 1191SOL     OW 4471   2.944   6.355   4.398
 1191SOL    HW1 4472   2.922   6.316   4.488
 1191SOL    HW2 4473   3.035   6.395   4.400
 1192SOL     OW 4474   5.392   6.228   3.013
 1192SOL    HW1 4475   5.316   6.278   3.055
 1192SOL    HW2 4476   5.400   6.138   3.056
 1193SOL     OW 4477   0.690   0.771   5.586
 1193SOL    HW1 4478   0.692   0.841   5.515
 1193SOL    HW2 4479   0.759   0.702   5.567
 1194SOL     OW 4480   0.144   1.647   1.013
 1194SOL    HW1 4481   0.075   1.700   1.063
 1194SOL    HW2 4482   0.098   1.574   0.962
 1195SOL     OW 4483   6.436   3.881   0.989
 1195SOL    HW1 4484   6.437   3.801   0.929
 1195SOL    HW2 4485   6.446   3.964   0.934
 1196SOL     OW 4486   5.809   4.560   2.881
 1196SOL    HW1 4487   5.841   4.640   2.830
 1196SOL    HW2 4488   5.871   4.483   2.865
 1197SOL     OW 4489   4.728   6.743   4.365
 1197SOL    HW1 4490   4.637   6.705   4.350
 1197SOL    HW2 4491   4.796   6.670   4.359
 1198SOL     OW 4492   1.178   3.624   2.628
 1198SOL    HW1 4493   1.129   3.641   2.543
 1198SOL    HW2 4494   1.273   3.652   2.617
 1199SOL     OW 4495   3.806   3.502   2.850
 1199SOL    HW1 4496   3.894   3.549   2.860
 1199SOL    HW2 4497   3.801   3.461   2.759
 1200SOL     OW 4498   4.079   3.828   4.025
 1200SOL    HW1 4499   4.069   3.762   3.952
 1200SOL    HW2 4500   4.154   3.890   4.004
 1201SOL     OW 4501   0.142   1.157   4.347
 1201SOL    HW1 4502   0.051   1.197   4.337
 1201SOL    HW2 4503   0.203   1.223   4.390
 1202SOL     OW 4504   6.427   0.168   5.973
 1202SOL    HW1 4505   6.524   0.167   5.949
 1202SOL    HW2 4506   6.374   0.129   5.898
 1203SOL     OW 4507   0.237   6.884   1.212
 1203SOL    HW1 4508   0.296   6.861   1.290
 1203SOL    HW2 4509   0.211   6.800   1.164
 1204SOL     OW 4510   4.575   1.728   1.896
 1204SOL    HW1 4511   4.602   1.646   1.845
 1204SOL    HW2 4512   4.492   1.708   1.949
 1205SOL     OW 4513   3.639   3.303   0.107
 1205SOL    HW1 4514   3.613   3.211   0.135
 1205SOL    HW2 4515   3.659   3.304   0.009
 1206SOL     OW 4516   1.263   2.911   4.484
 1206SOL    HW1 4517   1.349   2.951   4.455
 1206SOL    HW2 4518   1.271   2.879   4.579
 1207SOL     OW 4519   0.276   0.798   0.390
 1207SOL    HW1 4520   0.295   0.896   0.392
 1207SOL    HW2 4521   0.194   0.778   0.444
 1208SOL     OW 4522   3.306   3.550   1.210
 1208SOL    HW1 4523   3.301   3.483   1.284
 1208SOL    HW2 4524   3.334   3.505   1.125
 1209SOL     OW 4525   5.591   0.484   4.353
 1209SOL    HW1 4526   5.610   0.520   4.261
 1209SOL    HW2 4527   5.672   0.497   4.411
 1210SOL     OW 4528   4.807   6.559   3.492
 1210SOL    HW1 4529   4.709   6.542   3.489
 1210SOL    HW2 4530   4.824   6.657   3.488
 1211SOL     OW 4531   0.778   3.337   3.062
 1211SOL    HW1 4532   0.833   3.343   2.979
 1211SOL    HW2 4533   0.811   3.404   3.129
 1212SOL     OW 4534   6.600   0.875   6.080
 1212SOL    HW1 4535   6.693   0.878   6.045
 1212SOL    HW2 4536   6.557   0.965   6.070
 1213SOL     OW 4537   5.505   1.903   2.839
 1213SOL    HW1 4538   5.500   1.849   2.755
 1213SOL    HW2 4539   5.583   1.965   2.835
 1214SOL     OW 4540   0.513   2.401   6.521
 1214SOL    HW1 4541   0.566   2.341   6.579
 1214SOL    HW2 4542   0.487   2.483   6.572
 1215SOL     OW 4543   2.260   4.902   2.708
 1215SOL    HW1 4544   2.283   4.998   2.726
 1215SOL    HW2 4545   2.193   4.897   2.634
 1216SOL     OW 4546   6.607   1.650   0.750
 1216SOL    HW1 4547   6.567   1.741   0.733
 1216SOL    HW2 4548   6.573   1.615   0.837
 1217SOL     OW 4549   2.761   4.784   0.392
 1217SOL    HW1 4550   2.835   4.817   0.334
 1217SOL    HW2 4551   2.701   4.860   0.416
 1218SOL     OW 4552   1.474   3.725   5.688
 1218SOL    HW1 4553   1.569   3.749   5.711
 1218SOL    HW2 4554   1.463   3.626   5.694
 1219SOL     OW 4555   5.293   5.660   1.351
 1219SOL    HW1 4556   5.196   5.684   1.350
 1219SOL    HW2 4557   5.326   5.653   1.257
 1220SOL     OW 4558   6.711   3.712   2.261
 1220SOL    HW1 4559   6.713   3.808   2.290
 1220SOL    HW2 4560   6.801   3.672   2.274
 1221SOL     OW 4561   5.776   3.311   6.255
 1221SOL    HW1 4562   5.706   3.376   6.225
 1221SOL    HW2 4563   5.779   3.234   6.191
 1222SOL     OW 4564   0.464   0.995   0.040
 1222SOL    HW1 4565   0.455   0.932   6.984
 1222SOL    HW2 4566   0.495   0.944   0.120
 1223SOL     OW 4567   3.610   1.545   0.434
 1223SOL    HW1 4568   3.612   1.603   0.516
 1223SOL    HW2 4569   3.560   1.461   0.454
 1224SOL     OW 4570   3.450   5.733   6.779
 1224SOL    HW1 4571   3.504   5.814   6.757
 1224SOL    HW2 4572   3.353   5.756   6.775
 1225SOL     OW 4573   4.210   2.840   7.004
 1225SOL    HW1 4574   4.209   2.870   6.909
 1225SOL    HW2 4575   4.258   2.752   7.011
 1226SOL     OW 4576   4.126   6.116   0.556
 1226SOL    HW1 4577   4.065   6.045   0.591
 1226SOL    HW2 4578   4.144   6.101   0.459
 1227SOL     OW 4579   5.098   5.555   5.914
 1227SOL    HW1 4580   5.133   5.582   6.003
 1227SOL    HW2 4581   5.175   5.536   5.852
 1228SOL     OW 4582   3.456   2.458   6.701
 1228SOL    HW1 4583   3.384   2.512   6.659
 1228SOL    HW2 4584   3.417   2.397   6.770
 1229SOL     OW 4585   1.580   5.290   0.259
 1229SOL    HW1 4586   1.627   5.276   0.172
 1229SOL    HW2 4587   1.635   5.252   0.333
 1230SOL     OW 4588   5.990   5.805   2.180
 1230SOL    HW1 4589   5.903   5.836   2.219
 1230SOL    HW2 4590   6.011   5.714   2.215
 1231SOL     OW 4591   1.922   1.776   5.462
 1231SOL    HW1 4592   1.937   1.821   5.374
 1231SOL    HW2 4593   1.824   1.758   5.474
 1232SOL     OW 4594   6.643   1.373   4.789
 1232SOL    HW1 4595   6.669   1.469   4.778
 1232SOL    HW2 4596   6.545   1.364   4.776
 1233SOL     OW 4597   0.634   5.667   4.439
 1233SOL    HW1 4598   0.642   5.711   4.529
 1233SOL    HW2 4599   0.540   5.675   4.407
 1234SOL     OW 4600   6.043   2.222   5.483
 1234SOL    HW1 4601   6.012   2.160   5.411
 1234SOL    HW2 4602   6.082   2.170   5.558
 1235SOL     OW 4603   6.036   4.830   1.542
 1235SOL    HW1 4604   6.088   4.818   1.626
 1235SOL    HW2 4605   5.956   4.769   1.543
 1236SOL     OW 4606   4.148   1.371   1.944
 1236SOL    HW1 4607   4.139   1.323   1.857
 1236SOL    HW2 4608   4.126   1.468   1.932
 1237SOL     OW 4609   1.124   4.605   5.192
 1237SOL    HW1 4610   1.116   4.674   5.264
 1237SOL    HW2 4611   1.106   4.514   5.230
 1238SOL     OW 4612   1.177   0.595   6.172
 1238SOL    HW1 4613   1.164   0.524   6.102
 1238SOL    HW2 4614   1.136   0.681   6.141
 1239SOL     OW 4615   0.193   0.070   5.988
 1239SOL    HW1 4616   0.197   6.992   5.994
 1239SOL    HW2 4617   0.255   0.110   6.056
 1240SOL     OW 4618   5.855   5.941   1.154
 1240SOL    HW1 4619   5.880   6.014   1.090
 1240SOL    HW2 4620   5.799   5.979   1.228
 1241SOL     OW 4621   6.205   4.869   5.594
 1241SOL    HW1 4622   6.224   4.788   5.538
 1241SOL    HW2 4623   6.107   4.888   5.592
 1242SOL     OW 4624   2.243   4.663   0.865
 1242SOL    HW1 4625   2.308   4.733   0.895
 1242SOL    HW2 4626   2.293   4.579   0.841
 1243SOL     OW 4627   0.934   0.972   4.987
 1243SOL    HW1 4628   0.870   1.022   5.046
 1243SOL    HW2 4629   0.882   0.916   4.922
 1244SOL     OW 4630   4.980   5.836   5.025
 1244SOL    HW1 4631   4.966   5.780   5.107
 1244SOL    HW2 4632   4.892   5.852   4.981
 1245SOL     OW 4633   5.404   4.044   6.795
 1245SOL    HW1 4634   5.412   4.048   6.695
 1245SOL    HW2 4635   5.456   4.119   6.835
 1246SOL     OW 4636   3.019   1.453   2.104
 1246SOL    HW1 4637   2.940   1.425   2.050
 1246SOL    HW2 4638   2.990   1.474   2.198
 1247SOL     OW 4639   6.742   6.751   6.345
 1247SOL    HW1 4640   6.806   6.804   6.401
 1247SOL    HW2 4641   6.731   6.796   6.257
 1248SOL     OW 4642   1.854   6.163   3.665
 1248SOL    HW1 4643   1.774   6.137   3.719
 1248SOL    HW2 4644   1.843   6.256   3.630
 1249SOL     OW 4645   0.131   2.509   2.275
 1249SOL    HW1 4646   0.077   2.519   2.191
 1249SOL    HW2 4647   0.191   2.589   2.285
 1250SOL     OW 4648   5.479   5.159   3.373
 1250SOL    HW1 4649   5.420   5.181   3.295
 1250SOL    HW2 4650   5.438   5.085   3.426
 1251SOL     OW 4651   2.042   0.815   2.587
 1251SOL    HW1 4652   2.038   0.721   2.554
 1251SOL    HW2 4653   2.044   0.815   2.687
 1252SOL     OW 4654   3.790   4.543   6.821
 1252SOL    HW1 4655   3.826   4.628   6.860
 1252SOL    HW2 4656   3.713   4.563   6.761
 1253SOL     OW 4657   3.873   6.377   2.653
 1253SOL    HW1 4658   3.795   6.440   2.655
 1253SOL    HW2 4659   3.840   6.283   2.665
 1254SOL     OW 4660   0.469   2.234   3.631
 1254SOL    HW1 4661   0.541   2.286   3.586
 1254SOL    HW2 4662   0.481   2.136   3.612
 1255SOL     OW 4663   5.960   1.370   6.206
 1255SOL    HW1 4664   5.899   1.441   6.171
 1255SOL    HW2 4665   5.928   1.339   6.296
 1256SOL     OW 4666   0.534   6.629   4.319
 1256SOL    HW1 4667   0.628   6.598   4.334
 1256SOL    HW2 4668   0.475   6.592   4.391
 1257SOL     OW 4669   0.356   5.469   4.743
 1257SOL    HW1 4670   0.271   5.447   4.790
 1257SOL    HW2 4671   0.359   5.568   4.724
 1258SOL     OW 4672   1.788   5.015   2.660
 1258SOL    HW1 4673   1.844   5.092   2.630
 1258SOL    HW2 4674   1.739   4.976   2.582
 1259SOL     OW 4675   3.961   6.929   4.801
 1259SOL    HW1 4676   4.016   6.899   4.880
 1259SOL    HW2 4677   4.018   6.986   4.742
 1260SOL     OW 4678   3.496   1.834   0.575
 1260SOL    HW1 4679   3.536   1.866   0.489
 1260SOL    HW2 4680   3.463   1.913   0.628
 1261SOL     OW 4681   6.679   5.649   6.534
 1261SOL    HW1 4682   6.671   5.694   6.623
 1261SOL    HW2 4683   6.772   5.659   6.500
 1262SOL     OW 4684   5.273   4.699   1.352
 1262SOL    HW1 4685   5.196   4.646   1.389
 1262SOL    HW2 4686   5.358   4.665   1.392
 1263SOL     OW 4687   6.969   1.990   1.268
 1263SOL    HW1 4688   6.896   2.016   1.332
 1263SOL    HW2 4689   6.993   2.069   1.211
 1264SOL     OW 4690   0.100   3.753   1.643
 1264SOL    HW1 4691   0.174   3.820   1.655
 1264SOL    HW2 4692   0.035   3.761   1.718
 1265SOL     OW 4693   5.249   5.668   3.371
 1265SOL    HW1 4694   5.204   5.739   3.425
 1265SOL    HW2 4695   5.233   5.579   3.413
 1266SOL     OW 4696   0.709   1.247   3.983
 1266SOL    HW1 4697   0.722   1.346   3.993
 1266SOL    HW2 4698   0.617   1.222   4.013
 1267SOL     OW 4699   5.385   6.382   1.227
 1267SOL    HW1 4700   5.360   6.442   1.304
 1267SOL    HW2 4701   5.347   6.291   1.243
 1268SOL     OW 4702   4.168   3.013   0.180
 1268SOL    HW1 4703   4.133   2.957   0.256
 1268SOL    HW2 4704   4.184   2.954   0.101
 1269SOL     OW 4705   5.221   6.178   5.710
 1269SOL    HW1 4706   5.210   6.112   5.784
 1269SOL    HW2 4707   5.270   6.135   5.634
 1270SOL     OW 4708   2.491   4.448   4.032
 1270SOL    HW1 4709   2.436   4.376   3.991
 1270SOL    HW2 4710   2.515   4.515   3.961
 1271SOL     OW 4711   2.935   2.179   4.162
 1271SOL    HW1 4712   2.896   2.217   4.078
 1271SOL    HW2 4713   2.902   2.232   4.241
 1272SOL     OW 4714   5.425   5.671   0.256
 1272SOL    HW1 4715   5.426   5.643   0.160
 1272SOL    HW2 4716   5.467   5.762   0.265
 1273SOL     OW 4717   0.563   4.666   6.894
 1273SOL    HW1 4718   0.573   4.612   6.810
 1273SOL    HW2 4719   0.650   4.711   6.915
 1274SOL     OW 4720   6.321   3.814   1.677
 1274SOL    HW1 4721   6.305   3.912   1.668
 1274SOL    HW2 4722   6.301   3.785   1.770
 1275SOL     OW 4723   3.529   1.485   4.393
 1275SOL    HW1 4724   3.576   1.417   4.449
 1275SOL    HW2 4725   3.447   1.516   4.441
 1276SOL     OW 4726   0.039   0.152   4.680
 1276SOL    HW1 4727   6.986   0.199   4.726
 1276SOL    HW2 4728   0.087   0.215   4.620
 1277SOL     OW 4729   0.911   6.455   5.971
 1277SOL    HW1 4730   0.967   6.495   6.043
 1277SOL    HW2 4731   0.920   6.355   5.974
 1278SOL     OW 4732   1.257   0.216   5.399
 1278SOL    HW1 4733   1.282   0.235   5.494
 1278SOL    HW2 4734   1.257   0.118   5.384
 1279SOL     OW 4735   3.554   6.339   0.839
 1279SOL    HW1 4736   3.591   6.339   0.746
 1279SOL    HW2 4737   3.515   6.249   0.859
 1280SOL     OW 4738   3.183   6.474   4.435
 1280SOL    HW1 4739   3.146   6.561   4.402
 1280SOL    HW2 4740   3.212   6.484   4.530
 1281SOL     OW 4741   1.389   6.635   3.644
 1281SOL    HW1 4742   1.369   6.591   3.556
 1281SOL    HW2 4743   1.475   6.598   3.680
 1282SOL     OW 4744   0.792   1.965   6.794
 1282SOL    HW1 4745   0.739   2.045   6.824
 1282SOL    HW2 4746   0.729   1.897   6.755
 1283SOL     OW 4747   6.562   2.986   5.226
 1283SOL    HW1 4748   6.598   3.062   5.281
 1283SOL    HW2 4749   6.487   3.020   5.168
 1284SOL     OW 4750   4.862   1.442   2.115
 1284SOL    HW1 4751   4.941   1.413   2.169
 1284SOL    HW2 4752   4.800   1.364   2.103
 1285SOL     OW 4753   4.895   2.223   6.228
 1285SOL    HW1 4754   4.808   2.207   6.275
 1285SOL    HW2 4755   4.931   2.313   6.255
 1286SOL     OW 4756   4.881   3.721   2.169
 1286SOL    HW1 4757   4.972   3.754   2.143
 1286SOL    HW2 4758   4.812   3.788   2.141
 1287SOL     OW 4759   5.218   5.325   5.244
 1287SOL    HW1 4760   5.305   5.319   5.195
 1287SOL    HW2 4761   5.143   5.333   5.178
 1288SOL     OW 4762   4.577   3.653   6.804
 1288SOL    HW1 4763   4.596   3.561   6.769
 1288SOL    HW2 4764   4.614   3.662   6.897
 1289SOL     OW 4765   0.869   6.108   2.121
 1289SOL    HW1 4766   0.923   6.143   2.045
 1289SOL    HW2 4767   0.780   6.076   2.087
 1290SOL     OW 4768   0.968   6.496   6.611
 1290SOL    HW1 4769   1.016   6.584   6.614
 1290SOL    HW2 4770   0.872   6.512   6.589
 1291SOL     OW 4771   7.018   4.189   5.348
 1291SOL    HW1 4772   6.983   4.194   5.442
 1291SOL    HW2 4773   6.947   4.219   5.285
 1292SOL     OW 4774   0.351   6.203   2.435
 1292SOL    HW1 4775   0.334   6.128   2.499
 1292SOL    HW2 4776   0.299   6.284   2.464
 1293SOL     OW 4777   1.477   1.722   0.406
 1293SOL    HW1 4778   1.391   1.767   0.380
 1293SOL    HW2 4779   1.531   1.704   0.324
 1294SOL     OW 4780   0.937   3.436   6.881
 1294SOL    HW1 4781   1.013   3.501   6.884
 1294SOL    HW2 4782   0.925   3.394   6.971
 1295SOL     OW 4783   0.095   3.611   2.590
 1295SOL    HW1 4784   0.143   3.675   2.529
 1295SOL    HW2 4785   0.014   3.575   2.545
 1296SOL     OW 4786   3.546   0.189   5.573
 1296SOL    HW1 4787   3.628   0.246   5.570
 1296SOL    HW2 4788   3.536   0.148   5.663
 1297SOL     OW 4789   6.445   0.883   1.010
 1297SOL    HW1 4790   6.405   0.922   0.926
 1297SOL    HW2 4791   6.468   0.787   0.994
 1298SOL     OW 4792   5.957   4.763   2.751
 1298SOL    HW1 4793   5.999   4.774   2.660
 1298SOL    HW2 4794   5.940   4.853   2.790
 1299SOL     OW 4795   1.346   3.450   3.252
 1299SOL    HW1 4796   1.299   3.401   3.326
 1299SOL    HW2 4797   1.298   3.536   3.234
 1300SOL     OW 4798   3.261   2.902   2.156
 1300SOL    HW1 4799   3.308   2.825   2.113
 1300SOL    HW2 4800   3.180   2.926   2.102
 1301SOL     OW 4801   0.707   5.822   1.263
 1301SOL    HW1 4802   0.640   5.895   1.254
 1301SOL    HW2 4803   0.786   5.840   1.204
 1302SOL     OW 4804   4.694   0.485   5.445
 1302SOL    HW1 4805   4.771   0.547   5.454
 1302SOL    HW2 4806   4.719   0.408   5.386
 1303SOL     OW 4807   4.489   1.472   2.198
 1303SOL    HW1 4808   4.531   1.412   2.129
 1303SOL    HW2 4809   4.469   1.418   2.280
 1304SOL     OW 4810   1.968   0.823   6.755
 1304SOL    HW1 4811   2.001   0.850   6.664
 1304SOL    HW2 4812   1.869   0.816   6.753
 1305SOL     OW 4813   5.155   3.081   6.975
 1305SOL    HW1 4814   5.095   3.155   6.944
 1305SOL    HW2 4815   5.237   3.121   7.016
 1306SOL     OW 4816   0.484   4.451   4.348
 1306SOL    HW1 4817   0.419   4.377   4.366
 1306SOL    HW2 4818   0.468   4.526   4.412
 1307SOL     OW 4819   0.662   3.719   4.392
 1307SOL    HW1 4820   0.617   3.642   4.438
 1307SOL    HW2 4821   0.735   3.754   4.451
 1308SOL     OW 4822   5.826   6.364   4.941
 1308SOL    HW1 4823   5.786   6.283   4.983
 1308SOL    HW2 4824   5.880   6.338   4.861
 1309SOL     OW 4825   5.024   3.408   5.420
 1309SOL    HW1 4826   4.998   3.439   5.328
 1309SOL    HW2 4827   5.079   3.479   5.464
 1310SOL     OW 4828   0.057   3.628   4.226
 1310SOL    HW1 4829   0.116   3.554   4.256
 1310SOL    HW2 4830   0.051   3.698   4.297
 1311SOL     OW 4831   0.629   6.735   4.843
 1311SOL    HW1 4832   0.705   6.676   4.871
 1311SOL    HW2 4833   0.614   6.725   4.745
 1312SOL     OW 4834   1.768   0.286   6.371
 1312SOL    HW1 4835   1.753   0.338   6.287
 1312SOL    HW2 4836   1.700   0.212   6.377
 1313SOL     OW 4837   0.955   4.110   3.799
 1313SOL    HW1 4838   0.860   4.137   3.810
 1313SOL    HW2 4839   0.966   4.061   3.713
 1314SOL     OW 4840   4.204   0.853   5.857
 1314SOL    HW1 4841   4.256   0.797   5.792
 1314SOL    HW2 4842   4.119   0.883   5.815
 1315SOL     OW 4843   0.118   1.381   1.132
 1315SOL    HW1 4844   0.186   1.437   1.178
 1315SOL    HW2 4845   0.031   1.430   1.129
 1316SOL     OW 4846   2.254   6.493   4.961
 1316SOL    HW1 4847   2.304   6.577   4.978
 1316SOL    HW2 4848   2.186   6.508   4.890
 1317SOL     OW 4849   2.042   4.357   6.001
 1317SOL    HW1 4850   2.029   4.391   5.908
 1317SOL    HW2 4851   1.992   4.271   6.013
 1318SOL     OW 4852   1.284   1.159   1.126
 1318SOL    HW1 4853   1.255   1.190   1.217
 1318SOL    HW2 4854   1.354   1.221   1.091
 1319SOL     OW 4855   6.922   0.777   6.659
 1319SOL    HW1 4856   6.835   0.737   6.688
 1319SOL    HW2 4857   6.964   0.717   6.591
 1320SOL     OW 4858   5.313   3.592   0.507
 1320SOL    HW1 4859   5.316   3.609   0.409
 1320SOL    HW2 4860   5.341   3.497   0.526
 1321SOL     OW 4861   5.593   1.837   6.170
 1321SOL    HW1 4862   5.620   1.867   6.262
 1321SOL    HW2 4863   5.599   1.913   6.107
 1322SOL     OW 4864   3.686   0.631   3.904
 1322SOL    HW1 4865   3.604   0.611   3.957
 1322SOL    HW2 4866   3.727   0.545   3.872
 1323SOL     OW 4867   4.893   1.226   5.706
 1323SOL    HW1 4868   4.820   1.164   5.733
 1323SOL    HW2 4869   4.928   1.274   5.786
 1324SOL     OW 4870   1.305   3.286   0.547
 1324SOL    HW1 4871   1.290   3.383   0.529
 1324SOL    HW2 4872   1.394   3.259   0.512
 1325SOL     OW 4873   2.295   6.842   2.263
 1325SOL    HW1 4874   2.336   6.807   2.347
 1325SOL    HW2 4875   2.204   6.880   2.283
 1326SOL     OW 4876   5.057   3.237   5.013
 1326SOL    HW1 4877   5.029   3.296   5.089
 1326SOL    HW2 4878   5.026   3.144   5.029
 1327SOL     OW 4879   1.342   4.916   1.765
 1327SOL    HW1 4880   1.282   4.964   1.701
 1327SOL    HW2 4881   1.334   4.817   1.751
 1328SOL     OW 4882   1.522   3.069   0.884
 1328SOL    HW1 4883   1.576   3.104   0.960
 1328SOL    HW2 4884   1.437   3.122   0.877
 1329SOL     OW 4885   0.369   2.043   1.458
 1329SOL    HW1 4886   0.305   2.113   1.426
 1329SOL    HW2 4887   0.337   1.953   1.428
 1330SOL     OW 4888   0.019   1.464   1.849
 1330SOL    HW1 4889   0.041   1.398   1.921
 1330SOL    HW2 4890   6.984   1.537   1.887
 1331SOL     OW 4891   5.174   2.846   3.546
 1331SOL    HW1 4892   5.120   2.915   3.498
 1331SOL    HW2 4893   5.115   2.768   3.569
 1332SOL     OW 4894   3.171   6.744   0.066
 1332SOL    HW1 4895   3.149   6.830   0.111
 1332SOL    HW2 4896   3.104   6.674   0.093
 1333SOL     OW 4897   3.536   3.836   5.053
 1333SOL    HW1 4898   3.601   3.767   5.086
 1333SOL    HW2 4899   3.550   3.921   5.104
 1334SOL     OW 4900   6.792   2.186   4.177
 1334SOL    HW1 4901   6.776   2.281   4.148
 1334SOL    HW2 4902   6.772   2.177   4.274
 1335SOL     OW 4903   2.512   1.586   3.361
 1335SOL    HW1 4904   2.606   1.600   3.332
 1335SOL    HW2 4905   2.501   1.620   3.455
 1336SOL     OW 4906   1.734   2.414   5.419
 1336SOL    HW1 4907   1.798   2.354   5.467
 1336SOL    HW2 4908   1.667   2.358   5.370
 1337SOL     OW 4909   2.153   1.771   5.107
 1337SOL    HW1 4910   2.207   1.853   5.093
 1337SOL    HW2 4911   2.058   1.796   5.123
 1338SOL     OW 4912   5.800   2.302   5.372
 1338SOL    HW1 4913   5.888   2.291   5.417
 1338SOL    HW2 4914   5.807   2.267   5.278
 1339SOL     OW 4915   1.045   1.760   6.229
 1339SOL    HW1 4916   0.998   1.761   6.140
 1339SOL    HW2 4917   1.035   1.670   6.270
 1340SOL     OW 4918   0.253   1.810   2.503
 1340SOL    HW1 4919   0.259   1.835   2.406
 1340SOL    HW2 4920   0.238   1.892   2.558
 1341SOL     OW 4921   5.157   0.222   5.904
 1341SOL    HW1 4922   5.108   0.226   5.817
 1341SOL    HW2 4923   5.122   0.294   5.965
 1342SOL     OW 4924   1.798   5.522   6.050
 1342SOL    HW1 4925   1.736   5.443   6.045
 1342SOL    HW2 4926   1.843   5.535   5.962
 1343SOL     OW 4927   4.860   5.873   3.301
 1343SOL    HW1 4928   4.814   5.811   3.237
 1343SOL    HW2 4929   4.804   5.883   3.383
 1344SOL     OW 4930   6.872   4.760   4.065
 1344SOL    HW1 4931   6.895   4.692   3.996
 1344SOL    HW2 4932   6.953   4.781   4.120
 1345SOL     OW 4933   2.096   0.471   2.593
 1345SOL    HW1 4934   2.112   0.481   2.691
 1345SOL    HW2 4935   2.169   0.415   2.553
 1346SOL     OW 4936   0.548   6.258   4.311
 1346SOL    HW1 4937   0.635   6.270   4.358
 1346SOL    HW2 4938   0.475   6.301   4.365
 1347SOL     OW 4939   6.359   5.833   4.383
 1347SOL    HW1 4940   6.385   5.820   4.479
 1347SOL    HW2 4941   6.262   5.811   4.372
 1348SOL     OW 4942   5.207   5.139   2.540
 1348SOL    HW1 4943   5.206   5.045   2.573
 1348SOL    HW2 4944   5.123   5.159   2.490
 1349SOL     OW 4945   4.586   2.476   6.202
 1349SOL    HW1 4946   4.584   2.513   6.295
 1349SOL    HW2 4947   4.493   2.454   6.173
 1350SOL     OW 4948   5.000   4.499   6.343
 1350SOL    HW1 4949   5.019   4.596   6.325
 1350SOL    HW2 4950   4.938   4.491   6.421
 1351SOL     OW 4951   6.609   1.154   3.355
 1351SOL    HW1 4952   6.671   1.205   3.414
 1351SOL    HW2 4953   6.518   1.150   3.398
 1352SOL     OW 4954   6.863   6.862   3.197
 1352SOL    HW1 4955   6.792   6.930   3.214
 1352SOL    HW2 4956   6.827   6.790   3.137
 1353SOL     OW 4957   6.870   3.784   6.275
 1353SOL    HW1 4958   6.875   3.695   6.318
 1353SOL    HW2 4959   6.946   3.841   6.306
 1354SOL     OW 4960   0.851   2.953   0.743
 1354SOL    HW1 4961   0.819   2.860   0.723
 1354SOL    HW2 4962   0.842   2.970   0.841
 1355SOL     OW 4963   6.906   2.456   5.310
 1355SOL    HW1 4964   6.859   2.436   5.396
 1355SOL    HW2 4965   7.002   2.432   5.318
 1356SOL     OW 4966   3.064   3.734   2.738
 1356SOL    HW1 4967   3.076   3.820   2.788
 1356SOL    HW2 4968   3.057   3.753   2.640
 1357SOL     OW 4969   1.089   3.440   4.966
 1357SOL    HW1 4970   0.989   3.439   4.961
 1357SOL    HW2 4971   1.120   3.530   4.997
 1358SOL     OW 4972   3.808   1.164   6.002
 1358SOL    HW1 4973   3.711   1.154   5.979
 1358SOL    HW2 4974   3.818   1.169   6.101
 1359SOL     OW 4975   5.825   4.766   1.978
 1359SOL    HW1 4976   5.729   4.792   1.987
 1359SOL    HW2 4977   5.867   4.765   2.069
 1360SOL     OW 4978   3.793   2.679   0.503
 1360SOL    HW1 4979   3.892   2.673   0.519
 1360SOL    HW2 4980   3.751   2.733   0.576
 1361SOL     OW 4981   0.313   5.806   5.427
 1361SOL    HW1 4982   0.220   5.793   5.462
 1361SOL    HW2 4983   0.333   5.903   5.420
 1362SOL     OW 4984   3.152   4.055   4.375
 1362SOL    HW1 4985   3.092   4.038   4.453
 1362SOL    HW2 4986   3.217   4.127   4.399
 1363SOL     OW 4987   6.874   5.678   3.577
 1363SOL    HW1 4988   6.926   5.664   3.661
 1363SOL    HW2 4989   6.937   5.693   3.501
 1364SOL     OW 4990   6.645   2.337   1.296
 1364SOL    HW1 4991   6.577   2.280   1.343
 1364SOL    HW2 4992   6.716   2.364   1.361
 1365SOL     OW 4993   0.820   2.898   5.925
 1365SOL    HW1 4994   0.909   2.941   5.906
 1365SOL    HW2 4995   0.749   2.969   5.927
 1366SOL     OW 4996   0.427   4.607   0.455
 1366SOL    HW1 4997   0.523   4.581   0.464
 1366SOL    HW2 4998   0.418   4.705   0.466
 1367SOL     OW 4999   1.483   6.554   2.710
 1367SOL    HW1 5000   1.410   6.493   2.742
 1367SOL    HW2 5001   1.454   6.649   2.722
 1368SOL     OW 5002   0.049   0.287   3.963
 1368SOL    HW1 5003   0.065   0.199   4.009
 1368SOL    HW2 5004   6.994   0.334   4.006
 1369SOL     OW 5005   2.429   0.260   2.217
 1369SOL    HW1 5006   2.500   0.305   2.163
 1369SOL    HW2 5007   2.450   0.163   2.225
 1370SOL     OW 5008   4.344   1.359   2.433
 1370SOL    HW1 5009   4.273   1.338   2.366
 1370SOL    HW2 5010   4.300   1.395   2.516
 1371SOL     OW 5011   6.373   1.496   4.561
 1371SOL    HW1 5012   6.429   1.574   4.531
 1371SOL    HW2 5013   6.348   1.508   4.657
 1372SOL     OW 5014   1.236   2.869   0.565
 1372SOL    HW1 5015   1.142   2.888   0.593
 1372SOL    HW2 5016   1.286   2.830   0.643
 1373SOL     OW 5017   4.380   2.462   6.794
 1373SOL    HW1 5018   4.418   2.546   6.833
 1373SOL    HW2 5019   4.294   2.483   6.747
 1374SOL     OW 5020   4.400   2.239   0.564
 1374SOL    HW1 5021   4.468   2.202   0.500
 1374SOL    HW2 5022   4.316   2.185   0.558
 1375SOL     OW 5023   0.216   5.461   6.644
 1375SOL    HW1 5024   0.136   5.403   6.629
 1375SOL    HW2 5025   0.296   5.417   6.604
 1376SOL     OW 5026   4.535   4.659   5.141
 1376SOL    HW1 5027   4.626   4.635   5.175
 1376SOL    HW2 5028   4.502   4.589   5.078
 1377SOL     OW 5029   0.342   3.080   5.294
 1377SOL    HW1 5030   0.311   2.990   5.262
 1377SOL    HW2 5031   0.263   3.133   5.325
 1378SOL     OW 5032   6.097   1.529   4.615
 1378SOL    HW1 5033   6.084   1.624   4.642
 1378SOL    HW2 5034   6.166   1.524   4.542
 1379SOL     OW 5035   3.889   6.357   3.143
 1379SOL    HW1 5036   3.935   6.417   3.078
 1379SOL    HW2 5037   3.956   6.316   3.204
 1380SOL     OW 5038   0.866   0.266   3.652
 1380SOL    HW1 5039   0.862   0.345   3.591
 1380SOL    HW2 5040   0.962   0.238   3.663
 1381SOL     OW 5041   6.221   1.752   6.950
 1381SOL    HW1 5042   6.248   1.779   6.858
 1381SOL    HW2 5043   6.142   1.806   6.979
 1382SOL     OW 5044   5.132   3.525   0.754
 1382SOL    HW1 5045   5.176   3.535   0.664
 1382SOL    HW2 5046   5.149   3.433   0.789
 1383SOL     OW 5047   0.583   0.378   2.386
 1383SOL    HW1 5048   0.612   0.310   2.453
 1383SOL    HW2 5049   0.628   0.465   2.406
 1384SOL     OW 5050   4.652   0.700   2.158
 1384SOL    HW1 5051   4.728   0.641   2.184
 1384SOL    HW2 5052   4.674   0.749   2.074
 1385SOL     OW 5053   2.366   4.336   3.320
 1385SOL    HW1 5054   2.313   4.368   3.399
 1385SOL    HW2 5055   2.446   4.285   3.352
 1386SOL     OW 5056   3.003   0.541   4.376
 1386SOL    HW1 5057   3.067   0.604   4.334
 1386SOL    HW2 5058   2.910   0.563   4.348
 1387SOL     OW 5059   3.363   5.990   2.895
 1387SOL    HW1 5060   3.461   5.970   2.888
 1387SOL    HW2 5061   3.320   5.979   2.805
 1388SOL     OW 5062   0.389   0.608   3.209
 1388SOL    HW1 5063   0.345   0.665   3.279
 1388SOL    HW2 5064   0.422   0.523   3.250
 1389SOL     OW 5065   6.772   1.624   4.347
 1389SOL    HW1 5066   6.871   1.624   4.361
 1389SOL    HW2 5067   6.751   1.652   4.254
 1390SOL     OW 5068   6.603   3.374   6.097
 1390SOL    HW1 5069   6.520   3.429   6.096
 1390SOL    HW2 5070   6.682   3.432   6.078
 1391SOL     OW 5071   5.828   6.958   5.484
 1391SOL    HW1 5072   5.766   0.015   5.478
 1391SOL    HW2 5073   5.846   6.937   5.580
 1392SOL     OW 5074   6.265   6.500   5.501
 1392SOL    HW1 5075   6.296   6.594   5.485
 1392SOL    HW2 5076   6.343   6.442   5.523
 1393SOL     OW 5077   6.706   4.405   6.203
 1393SOL    HW1 5078   6.690   4.474   6.274
 1393SOL    HW2 5079   6.741   4.449   6.121
 1394SOL     OW 5080   3.263   5.842   5.526
 1394SOL    HW1 5081   3.213   5.794   5.454
 1394SOL    HW2 5082   3.226   5.935   5.536
 1395SOL     OW 5083   1.855   4.107   4.934
 1395SOL    HW1 5084   1.909   4.143   5.009
 1395SOL    HW2 5085   1.912   4.100   4.852
 1396SOL     OW 5086   0.214   1.094   5.001
 1396SOL    HW1 5087   0.246   1.011   4.955
 1396SOL    HW2 5088   0.184   1.160   4.933
 1397SOL     OW 5089   7.020   6.288   4.745
 1397SOL    HW1 5090   7.021   6.202   4.695
 1397SOL    HW2 5091   6.961   6.354   4.698
 1398SOL     OW 5092   2.942   0.750   6.468
 1398SOL    HW1 5093   3.006   0.827   6.465
 1398SOL    HW2 5094   2.851   0.783   6.490
 1399SOL     OW 5095   4.085   5.648   0.443
 1399SOL    HW1 5096   4.071   5.652   0.344
 1399SOL    HW2 5097   3.997   5.634   0.489
 1400SOL     OW 5098   0.481   1.738   3.945
 1400SOL    HW1 5099   0.489   1.652   3.995
 1400SOL    HW2 5100   0.394   1.740   3.895
 1401SOL     OW 5101   5.808   0.206   4.383
 1401SOL    HW1 5102   5.884   0.234   4.324
 1401SOL    HW2 5103   5.784   0.280   4.445
 1402SOL     OW 5104   5.452   4.402   6.295
 1402SOL    HW1 5105   5.526   4.346   6.332
 1402SOL    HW2 5106   5.477   4.499   6.302
 1403SOL     OW 5107   2.581   1.969   0.672
 1403SOL    HW1 5108   2.513   1.912   0.719
 1403SOL    HW2 5109   2.659   1.913   0.646
 1404SOL     OW 5110   6.524   0.633   0.075
 1404SOL    HW1 5111   6.606   0.581   0.049
 1404SOL    HW2 5112   6.545   0.731   0.075
 1405SOL     OW 5113   2.597   3.763   0.513
 1405SOL    HW1 5114   2.692   3.733   0.523
 1405SOL    HW2 5115   2.550   3.752   0.600
 1406SOL     OW 5116   1.458   5.840   0.748
 1406SOL    HW1 5117   1.432   5.935   0.732
 1406SOL    HW2 5118   1.534   5.837   0.813
 1407SOL     OW 5119   0.809   3.833   3.363
 1407SOL    HW1 5120   0.901   3.838   3.324
 1407SOL    HW2 5121   0.785   3.921   3.404
 1408SOL     OW 5122   5.315   0.693   6.670
 1408SOL    HW1 5123   5.375   0.728   6.742
 1408SOL    HW2 5124   5.336   0.597   6.653
 1409SOL     OW 5125   0.500   0.665   5.372
 1409SOL    HW1 5126   0.524   0.576   5.335
 1409SOL    HW2 5127   0.536   0.674   5.465
 1410SOL     OW 5128   1.478   4.346   6.323
 1410SOL    HW1 5129   1.520   4.268   6.275
 1410SOL    HW2 5130   1.391   4.368   6.279
 1411SOL     OW 5131   3.551   6.238   0.295
 1411SOL    HW1 5132   3.476   6.196   0.244
 1411SOL    HW2 5133   3.592   6.310   0.241
 1412SOL     OW 5134   0.695   3.728   1.313
 1412SOL    HW1 5135   0.715   3.656   1.247
 1412SOL    HW2 5136   0.716   3.696   1.405
 1413SOL     OW 5137   2.314   1.053   4.385
 1413SOL    HW1 5138   2.398   1.093   4.420
 1413SOL    HW2 5139   2.324   0.954   4.379
 1414SOL     OW 5140   2.238   1.527   1.701
 1414SOL    HW1 5141   2.203   1.441   1.664
 1414SOL    HW2 5142   2.219   1.531   1.799
 1415SOL     OW 5143   2.615   1.310   4.041
 1415SOL    HW1 5144   2.584   1.218   4.064
 1415SOL    HW2 5145   2.685   1.304   3.969
 1416SOL     OW 5146   4.426   6.444   5.160
 1416SOL    HW1 5147   4.441   6.457   5.062
 1416SOL    HW2 5148   4.452   6.527   5.209
 1417SOL     OW 5149   2.890   2.399   0.137
 1417SOL    HW1 5150   2.964   2.466   0.127
 1417SOL    HW2 5151   2.803   2.443   0.115
 1418SOL     OW 5152   3.067   3.535   1.667
 1418SOL    HW1 5153   3.110   3.621   1.693
 1418SOL    HW2 5154   3.049   3.534   1.568
 1419SOL     OW 5155   3.564   5.979   4.300
 1419SOL    HW1 5156   3.584   6.075   4.279
 1419SOL    HW2 5157   3.582   5.923   4.219
 1420SOL     OW 5158   3.667   5.857   3.210
 1420SOL    HW1 5159   3.570   5.870   3.190
 1420SOL    HW2 5160   3.677   5.797   3.289
 1421SOL     OW 5161   1.630   4.215   4.183
 1421SOL    HW1 5162   1.618   4.132   4.128
 1421SOL    HW2 5163   1.546   4.269   4.180
 1422SOL     OW 5164   1.951   4.371   6.358
 1422SOL    HW1 5165   1.877   4.428   6.395
 1422SOL    HW2 5166   1.927   4.341   6.266
 1423SOL     OW 5167   4.496   6.926   4.509
 1423SOL    HW1 5168   4.411   6.978   4.510
 1423SOL    HW2 5169   4.525   6.911   4.414
 1424SOL     OW 5170   6.862   3.803   6.612
 1424SOL    HW1 5171   6.814   3.746   6.679
 1424SOL    HW2 5172   6.960   3.787   6.618
 1425SOL     OW 5173   1.872   5.634   5.670
 1425SOL    HW1 5174   1.780   5.652   5.637
 1425SOL    HW2 5175   1.938   5.690   5.620
 1426SOL     OW 5176   2.645   2.381   6.980
 1426SOL    HW1 5177   2.643   2.316   6.904
 1426SOL    HW2 5178   2.703   2.458   6.956
 1427SOL     OW 5179   6.677   0.027   4.547
 1427SOL    HW1 5180   6.675   0.069   4.638
 1427SOL    HW2 5181   6.770   0.000   4.525
 1428SOL     OW 5182   0.739   2.513   1.108
 1428SOL    HW1 5183   0.740   2.438   1.173
 1428SOL    HW2 5184   0.727   2.599   1.157
 1429SOL     OW 5185   4.990   1.613   0.541
 1429SOL    HW1 5186   5.037   1.533   0.503
 1429SOL    HW2 5187   4.905   1.585   0.584
 1430SOL     OW 5188   1.926   5.060   3.989
 1430SOL    HW1 5189   1.938   4.964   3.965
 1430SOL    HW2 5190   1.871   5.068   4.072
 1431SOL     OW 5191   2.798   2.618   6.937
 1431SOL    HW1 5192   2.894   2.628   6.913
 1431SOL    HW2 5193   2.741   2.633   6.857
 1432SOL     OW 5194   3.098   1.322   1.053
 1432SOL    HW1 5195   3.096   1.224   1.075
 1432SOL    HW2 5196   3.084   1.334   0.955
 1433SOL     OW 5197   5.247   0.653   5.545
 1433SOL    HW1 5198   5.191   0.680   5.467
 1433SOL    HW2 5199   5.344   0.661   5.522
 1434SOL     OW 5200   0.714   0.776   6.451
 1434SOL    HW1 5201   0.741   0.694   6.502
 1434SOL    HW2 5202   0.768   0.854   6.482
 1435SOL     OW 5203   0.051   0.213   3.058
 1435SOL    HW1 5204   6.986   0.164   3.047
 1435SOL    HW2 5205   0.041   0.283   3.129
 1436SOL     OW 5206   5.373   4.357   6.806
 1436SOL    HW1 5207   5.353   4.413   6.886
 1436SOL    HW2 5208   5.362   4.261   6.828
 1437SOL     OW 5209   3.304   1.940   5.760
 1437SOL    HW1 5210   3.303   1.989   5.673
 1437SOL    HW2 5211   3.280   1.844   5.744
 1438SOL     OW 5212   2.536   0.078   1.881
 1438SOL    HW1 5213   2.631   0.105   1.865
 1438SOL    HW2 5214   2.483   0.159   1.907
 1439SOL     OW 5215   6.937   4.851   0.908
 1439SOL    HW1 5216   0.010   4.875   0.886
 1439SOL    HW2 5217   6.936   4.780   0.978
 1440SOL     OW 5218   3.746   2.850   5.977
 1440SOL    HW1 5219   3.712   2.941   6.003
 1440SOL    HW2 5220   3.675   2.803   5.924
 1441SOL     OW 5221   6.114   2.359   3.826
 1441SOL    HW1 5222   6.034   2.310   3.793
 1441SOL    HW2 5223   6.114   2.452   3.789
 1442SOL     OW 5224   5.855   5.021   0.037
 1442SOL    HW1 5225   5.856   4.925   0.010
 1442SOL    HW2 5226   5.930   5.070   7.015
 1443SOL     OW 5227   0.822   3.108   4.471
 1443SOL    HW1 5228   0.796   3.105   4.568
 1443SOL    HW2 5229   0.819   3.016   4.433
 1444SOL     OW 5230   3.888   6.045   1.432
 1444SOL    HW1 5231   3.935   5.979   1.373
 1444SOL    HW2 5232   3.916   6.137   1.407
 1445SOL     OW 5233   0.292   2.457   1.943
 1445SOL    HW1 5234   0.324   2.542   1.985
 1445SOL    HW2 5235   0.195   2.444   1.961
 1446SOL     OW 5236   4.679   2.358   0.085
 1446SOL    HW1 5237   4.688   2.288   0.014
 1446SOL    HW2 5238   4.742   2.336   0.160
 1447SOL     OW 5239   6.140   6.832   5.758
 1447SOL    HW1 5240   6.145   6.760   5.828
 1447SOL    HW2 5241   6.184   6.915   5.793
 1448SOL     OW 5242   6.561   3.068   0.010
 1448SOL    HW1 5243   6.600   3.017   6.955
 1448SOL    HW2 5244   6.505   3.007   0.066
 1449SOL     OW 5245   0.191   1.034   6.953
 1449SOL    HW1 5246   0.214   0.985   6.869
 1449SOL    HW2 5247   0.275   1.059   7.001
 1450SOL     OW 5248   0.678   1.829   1.689
 1450SOL    HW1 5249   0.768   1.828   1.644
 1450SOL    HW2 5250   0.687   1.797   1.783
 1451SOL     OW 5251   2.313   0.318   2.487
 1451SOL    HW1 5252   2.344   0.331   2.393
 1451SOL    HW2 5253   2.390   0.293   2.545
 1452SOL     OW 5254   4.416   0.578   4.655
 1452SOL    HW1 5255   4.505   0.614   4.625
 1452SOL    HW2 5256   4.429   0.490   4.701
 1453SOL     OW 5257   0.182   4.046   5.208
 1453SOL    HW1 5258   0.142   4.100   5.134
 1453SOL    HW2 5259   0.129   4.061   5.292
 1454SOL     OW 5260   6.554   2.921   2.398
 1454SOL    HW1 5261   6.619   2.982   2.443
 1454SOL    HW2 5262   6.603   2.848   2.351
 1455SOL     OW 5263   1.018   0.321   1.817
 1455SOL    HW1 5264   1.015   0.418   1.841
 1455SOL    HW2 5265   1.035   0.312   1.719
 1456SOL     OW 5266   6.627   6.514   5.573
 1456SOL    HW1 5267   6.619   6.603   5.617
 1456SOL    HW2 5268   6.716   6.505   5.530
 1457SOL     OW 5269   1.182   6.731   1.320
 1457SOL    HW1 5270   1.260   6.691   1.273
 1457SOL    HW2 5271   1.153   6.671   1.395
 1458SOL     OW 5272   5.767   5.492   3.222
 1458SOL    HW1 5273   5.769   5.537   3.133
 1458SOL    HW2 5274   5.680   5.513   3.267
 1459SOL     OW 5275   2.821   5.289   5.364
 1459SOL    HW1 5276   2.760   5.240   5.303
 1459SOL    HW2 5277   2.772   5.365   5.406
 1460SOL     OW 5278   0.839   5.488   5.430
 1460SOL    HW1 5279   0.790   5.521   5.510
 1460SOL    HW2 5280   0.897   5.561   5.394
 1461SOL     OW 5281   0.212   5.254   3.535
 1461SOL    HW1 5282   0.178   5.183   3.474
 1461SOL    HW2 5283   0.267   5.212   3.608
 1462SOL     OW 5284   0.964   0.883   6.545
 1462SOL    HW1 5285   1.040   0.819   6.531
 1462SOL    HW2 5286   0.974   0.928   6.633
 1463SOL     OW 5287   0.001   5.596   6.720
 1463SOL    HW1 5288   0.101   5.600   6.721
 1463SOL    HW2 5289   6.990   5.538   6.794
 1464SOL     OW 5290   5.802   7.014   0.720
 1464SOL    HW1 5291   5.717   7.020   0.774
 1464SOL    HW2 5292   5.880   0.010   0.780
 1465SOL     OW 5293   1.572   0.843   3.649
 1465SOL    HW1 5294   1.499   0.910   3.631
 1465SOL    HW2 5295   1.619   0.869   3.734
 1466SOL     OW 5296   1.195   1.580   2.289
 1466SOL    HW1 5297   1.207   1.486   2.255
 1466SOL    HW2 5298   1.223   1.584   2.385
 1467SOL     OW 5299   2.117   1.810   2.297
 1467SOL    HW1 5300   2.024   1.778   2.310
 1467SOL    HW2 5301   2.139   1.878   2.368
 1468SOL     OW 5302   5.486   5.575   2.852
 1468SOL    HW1 5303   5.397   5.571   2.897
 1468SOL    HW2 5304   5.484   5.644   2.780
 1469SOL     OW 5305   0.616   0.882   2.227
 1469SOL    HW1 5306   0.632   0.939   2.307
 1469SOL    HW2 5307   0.703   0.864   2.181
 1470SOL     OW 5308   1.445   1.636   2.491
 1470SOL    HW1 5309   1.516   1.666   2.427
 1470SOL    HW2 5310   1.446   1.694   2.572
 1471SOL     OW 5311   0.936   0.200   0.383
 1471SOL    HW1 5312   0.900   0.107   0.388
 1471SOL    HW2 5313   0.863   0.263   0.357
 1472SOL     OW 5314   3.890   6.035   5.140
 1472SOL    HW1 5315   3.844   6.105   5.086
 1472SOL    HW2 5316   3.835   6.013   5.220
 1473SOL     OW 5317   5.263   5.976   4.502
 1473SOL    HW1 5318   5.201   5.976   4.581
 1473SOL    HW2 5319   5.210   5.964   4.418
 1474SOL     OW 5320   5.614   5.342   2.806
 1474SOL    HW1 5321   5.553   5.421   2.805
 1474SOL    HW2 5322   5.701   5.367   2.763
 1475SOL     OW 5323   6.010   6.982   1.887
 1475SOL    HW1 5324   5.979   6.900   1.936
 1475SOL    HW2 5325   6.042   6.956   1.796
 1476SOL     OW 5326   2.299   1.021   1.514
 1476SOL    HW1 5327   2.306   1.031   1.415
 1476SOL    HW2 5328   2.390   1.019   1.554
 1477SOL     OW 5329   3.302   0.589   6.615
 1477SOL    HW1 5330   3.208   0.566   6.593
 1477SOL    HW2 5331   3.362   0.556   6.542
 1478SOL     OW 5332   6.059   5.336   0.353
 1478SOL    HW1 5333   6.110   5.283   0.285
 1478SOL    HW2 5334   6.112   5.342   0.437
 1479SOL     OW 5335   1.508   3.331   0.023
 1479SOL    HW1 5336   1.521   3.382   6.961
 1479SOL    HW2 5337   1.441   3.378   0.081
 1480SOL     OW 5338   3.493   0.501   5.659
 1480SOL    HW1 5339   3.565   0.463   5.717
 1480SOL    HW2 5340   3.516   0.595   5.634
 1481SOL     OW 5341   6.386   2.596   5.309
 1481SOL    HW1 5342   6.469   2.540   5.308
 1481SOL    HW2 5343   6.309   2.541   5.277
 1482SOL     OW 5344   4.910   2.368   1.453
 1482SOL    HW1 5345   4.882   2.325   1.539
 1482SOL    HW2 5346   4.830   2.378   1.394
 1483SOL     OW 5347   5.225   1.870   6.558
 1483SOL    HW1 5348   5.218   1.968   6.579
 1483SOL    HW2 5349   5.228   1.857   6.459
 1484SOL     OW 5350   5.791   4.733   3.746
 1484SOL    HW1 5351   5.829   4.750   3.655
 1484SOL    HW2 5352   5.858   4.685   3.802
 1485SOL     OW 5353   3.376   1.898   3.245
 1485SOL    HW1 5354   3.403   1.995   3.245
 1485SOL    HW2 5355   3.286   1.889   3.287
 1486SOL     OW 5356   4.721   1.846   3.057
 1486SOL    HW1 5357   4.686   1.808   3.143
 1486SOL    HW2 5358   4.795   1.788   3.023
 1487SOL     OW 5359   6.659   2.628   6.478
 1487SOL    HW1 5360   6.629   2.723   6.467
 1487SOL    HW2 5361   6.755   2.620   6.451
 1488SOL     OW 5362   5.397   1.389   3.753
 1488SOL    HW1 5363   5.406   1.352   3.846
 1488SOL    HW2 5364   5.333   1.465   3.754
 1489SOL     OW 5365   4.016   5.194   4.358
 1489SOL    HW1 5366   4.021   5.290   4.332
 1489SOL    HW2 5367   3.924   5.160   4.339
 1490SOL     OW 5368   1.080   2.852   1.750
 1490SOL    HW1 5369   1.079   2.859   1.651
 1490SOL    HW2 5370   0.987   2.862   1.786
 1491SOL     OW 5371   6.488   3.977   3.705
 1491SOL    HW1 5372   6.482   3.931   3.793
 1491SOL    HW2 5373   6.396   4.003   3.674
 1492SOL     OW 5374   5.408   0.680   2.310
 1492SOL    HW1 5375   5.342   0.647   2.242
 1492SOL    HW2 5376   5.496   0.635   2.295
 1493SOL     OW 5377   4.474   6.390   4.488
 1493SOL    HW1 5378   4.522   6.428   4.568
 1493SOL    HW2 5379   4.376   6.398   4.502
 1494SOL     OW 5380   5.645   2.025   5.970
 1494SOL    HW1 5381   5.741   2.027   5.998
 1494SOL    HW2 5382   5.638   2.001   5.873
 1495SOL     OW 5383   6.665   2.379   4.566
 1495SOL    HW1 5384   6.671   2.407   4.662
 1495SOL    HW2 5385   6.720   2.442   4.510
 1496SOL     OW 5386   0.368   1.282   1.620
 1496SOL    HW1 5387   0.440   1.336   1.577
 1496SOL    HW2 5388   0.388   1.273   1.718
 1497SOL     OW 5389   6.559   2.880   3.075
 1497SOL    HW1 5390   6.609   2.909   2.993
 1497SOL    HW2 5391   6.560   2.780   3.082
 1498SOL     OW 5392   1.728   4.971   6.309
 1498SOL    HW1 5393   1.755   4.919   6.229
 1498SOL    HW2 5394   1.791   4.951   6.385
 1499SOL     OW 5395   1.189   3.249   6.521
 1499SOL    HW1 5396   1.237   3.282   6.439
 1499SOL    HW2 5397   1.232   3.288   6.602
 1500SOL     OW 5398   6.615   6.435   0.096
 1500SOL    HW1 5399   6.703   6.401   0.131
 1500SOL    HW2 5400   6.545   6.364   0.109
 1501SOL     OW 5401   5.654   2.021   6.392
 1501SOL    HW1 5402   5.749   2.017   6.423
 1501SOL    HW2 5403   5.621   2.116   6.398
 1502SOL     OW 5404   5.344   0.652   0.786
 1502SOL    HW1 5405   5.307   0.724   0.727
 1502SOL    HW2 5406   5.316   0.670   0.881
 1503SOL     OW 5407   1.335   3.046   1.525
 1503SOL    HW1 5408   1.362   3.108   1.451
 1503SOL    HW2 5409   1.347   3.092   1.613
 1504SOL     OW 5410   0.760   0.372   5.600
 1504SOL    HW1 5411   0.818   0.298   5.569
 1504SOL    HW2 5412   0.697   0.398   5.527
 1505SOL     OW 5413   6.113   1.087   5.759
 1505SOL    HW1 5414   6.082   1.155   5.827
 1505SOL    HW2 5415   6.062   1.002   5.771
 1506SOL     OW 5416   1.630   5.632   1.169
 1506SOL    HW1 5417   1.679   5.677   1.244
 1506SOL    HW2 5418   1.639   5.533   1.178
 1507SOL     OW 5419   0.913   1.868   5.711
 1507SOL    HW1 5420   0.919   1.836   5.806
 1507SOL    HW2 5421   0.817   1.872   5.684
 1508SOL     OW 5422   6.732   0.759   2.019
 1508SOL    HW1 5423   6.808   0.817   2.047
 1508SOL    HW2 5424   6.667   0.750   2.095
 1509SOL     OW 5425   4.430   2.727   5.896
 1509SOL    HW1 5426   4.337   2.722   5.933
 1509SOL    HW2 5427   4.456   2.823   5.883
 1510SOL     OW 5428   4.862   2.528   4.773
 1510SOL    HW1 5429   4.867   2.491   4.865
 1510SOL    HW2 5430   4.954   2.553   4.742
 1511SOL     OW 5431   3.066   3.115   1.907
 1511SOL    HW1 5432   3.131   3.164   1.849
 1511SOL    HW2 5433   3.098   3.021   1.921
 1512SOL     OW 5434   0.954   5.156   1.149
 1512SOL    HW1 5435   1.035   5.104   1.176
 1512SOL    HW2 5436   0.982   5.238   1.099
 1513SOL     OW 5437   3.231   0.655   3.617
 1513SOL    HW1 5438   3.306   0.612   3.667
 1513SOL    HW2 5439   3.203   0.594   3.542
 1514SOL     OW 5440   4.087   2.133   5.613
 1514SOL    HW1 5441   4.135   2.221   5.609
 1514SOL    HW2 5442   4.116   2.083   5.695
 1515SOL     OW 5443   5.721   2.354   4.469
 1515SOL    HW1 5444   5.675   2.282   4.521
 1515SOL    HW2 5445   5.661   2.433   4.461
 1516SOL     OW 5446   6.572   0.290   0.703
 1516SOL    HW1 5447   6.483   0.307   0.659
 1516SOL    HW2 5448   6.597   0.194   0.689
 1517SOL     OW 5449   4.506   6.135   3.841
 1517SOL    HW1 5450   4.439   6.135   3.915
 1517SOL    HW2 5451   4.507   6.224   3.796
 1518SOL     OW 5452   0.955   3.328   0.116
 1518SOL    HW1 5453   0.864   3.306   0.152
 1518SOL    HW2 5454   1.003   3.389   0.179
 1519SOL     OW 5455   6.051   4.977   1.856
 1519SOL    HW1 5456   6.132   4.931   1.819
 1519SOL    HW2 5457   5.998   4.912   1.911
 1520SOL     OW 5458   0.502   3.873   2.413
 1520SOL    HW1 5459   0.556   3.942   2.462
 1520SOL    HW2 5460   0.415   3.859   2.461
 1521SOL     OW 5461   1.537   4.264   6.932
 1521SOL    HW1 5462   1.477   4.224   6.863
 1521SOL    HW2 5463   1.501   4.353   6.960
 1522SOL     OW 5464   6.136   6.955   5.331
 1522SOL    HW1 5465   6.112   6.983   5.424
 1522SOL    HW2 5466   6.054   6.925   5.283
 1523SOL     OW 5467   5.365   4.953   0.632
 1523SOL    HW1 5468   5.413   4.959   0.720
 1523SOL    HW2 5469   5.312   5.036   0.617
 1524SOL     OW 5470   1.526   2.422   2.126
 1524SOL    HW1 5471   1.516   2.325   2.151
 1524SOL    HW2 5472   1.595   2.431   2.055
 1525SOL     OW 5473   6.617   2.624   0.154
 1525SOL    HW1 5474   6.716   2.630   0.164
 1525SOL    HW2 5475   6.578   2.716   0.150
 1526SOL     OW 5476   6.888   6.499   0.197
 1526SOL    HW1 5477   6.959   6.455   0.252
 1526SOL    HW2 5478   6.931   6.558   0.129
 1527SOL     OW 5479   3.460   1.566   5.315
 1527SOL    HW1 5480   3.389   1.497   5.309
 1527SOL    HW2 5481   3.489   1.592   5.222
 1528SOL     OW 5482   4.747   6.349   2.656
 1528SOL    HW1 5483   4.681   6.316   2.724
 1528SOL    HW2 5484   4.777   6.272   2.599
 1529SOL     OW 5485   3.454   0.580   0.588
 1529SOL    HW1 5486   3.357   0.559   0.578
 1529SOL    HW2 5487   3.476   0.663   0.537
 1530SOL     OW 5488   3.685   1.610   1.818
 1530SOL    HW1 5489   3.671   1.668   1.898
 1530SOL    HW2 5490   3.598   1.599   1.769
 1531SOL     OW 5491   4.651   0.862   4.707
 1531SOL    HW1 5492   4.656   0.938   4.642
 1531SOL    HW2 5493   4.636   0.777   4.657
 1532SOL     OW 5494   2.593   3.724   6.093
 1532SOL    HW1 5495   2.604   3.823   6.105
 1532SOL    HW2 5496   2.656   3.677   6.155
 1533SOL     OW 5497   6.765   3.417   0.211
 1533SOL    HW1 5498   6.672   3.428   0.175
 1533SOL    HW2 5499   6.763   3.352   0.287
 1534SOL     OW 5500   1.745   4.585   6.176
 1534SOL    HW1 5501   1.646   4.592   6.172
 1534SOL    HW2 5502   1.786   4.659   6.122
 1535SOL     OW 5503   4.805   6.235   3.928
 1535SOL    HW1 5504   4.897   6.267   3.953
 1535SOL    HW2 5505   4.808   6.190   3.839
 1536SOL     OW 5506   4.248   4.263   5.313
 1536SOL    HW1 5507   4.335   4.249   5.361
 1536SOL    HW2 5508   4.256   4.340   5.250
 1537SOL     OW 5509   4.187   6.364   3.816
 1537SOL    HW1 5510   4.100   6.370   3.865
 1537SOL    HW2 5511   4.247   6.299   3.862
 1538SOL     OW 5512   4.181   6.597   5.844
 1538SOL    HW1 5513   4.225   6.536   5.778
 1538SOL    HW2 5514   4.251   6.640   5.902
 1539SOL     OW 5515   4.198   3.719   1.852
 1539SOL    HW1 5516   4.253   3.758   1.779
 1539SOL    HW2 5517   4.122   3.781   1.874
 1540SOL     OW 5518   1.927   6.476   6.157
 1540SOL    HW1 5519   1.965   6.550   6.102
 1540SOL    HW2 5520   1.854   6.431   6.106
 1541SOL     OW 5521   3.555   2.848   2.442
 1541SOL    HW1 5522   3.578   2.835   2.539
 1541SOL    HW2 5523   3.473   2.796   2.420
 1542SOL     OW 5524   6.334   5.772   2.208
 1542SOL    HW1 5525   6.346   5.705   2.281
 1542SOL    HW2 5526   6.306   5.726   2.124
 1543SOL     OW 5527   3.520   4.155   4.996
 1543SOL    HW1 5528   3.577   4.194   5.068
 1543SOL    HW2 5529   3.576   4.138   4.915
 1544SOL     OW 5530   3.208   3.722   3.014
 1544SOL    HW1 5531   3.144   3.767   3.076
 1544SOL    HW2 5532   3.284   3.784   2.993
 1545SOL     OW 5533   4.860   0.770   4.164
 1545SOL    HW1 5534   4.950   0.805   4.188
 1545SOL    HW2 5535   4.791   0.841   4.179
 1546SOL     OW 5536   4.202   6.748   6.221
 1546SOL    HW1 5537   4.170   6.770   6.314
 1546SOL    HW2 5538   4.301   6.739   6.221
 1547SOL     OW 5539   1.570   3.713   3.070
 1547SOL    HW1 5540   1.661   3.716   3.027
 1547SOL    HW2 5541   1.565   3.635   3.132
 1548SOL     OW 5542   4.725   4.251   5.656
 1548SOL    HW1 5543   4.758   4.222   5.566
 1548SOL    HW2 5544   4.750   4.182   5.724
 1549SOL     OW 5545   3.995   0.991   3.302
 1549SOL    HW1 5546   4.046   1.062   3.254
 1549SOL    HW2 5547   4.059   0.936   3.356
 1550SOL     OW 5548   2.330   5.049   6.376
 1550SOL    HW1 5549   2.398   4.987   6.339
 1550SOL    HW2 5550   2.256   4.997   6.419
 1551SOL     OW 5551   2.074   3.971   6.891
 1551SOL    HW1 5552   2.044   4.035   6.961
 1551SOL    HW2 5553   2.056   4.010   6.801
 1552SOL     OW 5554   0.167   0.089   0.631
 1552SOL    HW1 5555   0.144   7.019   0.598
 1552SOL    HW2 5556   0.200   0.145   0.555
 1553SOL     OW 5557   0.466   1.189   5.753
 1553SOL    HW1 5558   0.459   1.098   5.792
 1553SOL    HW2 5559   0.406   1.197   5.673
 1554SOL     OW 5560   4.350   1.474   3.407
 1554SOL    HW1 5561   4.251   1.461   3.403
 1554SOL    HW2 5562   4.395   1.392   3.372
 1555SOL     OW 5563   4.808   2.213   0.531
 1555SOL    HW1 5564   4.729   2.214   0.593
 1555SOL    HW2 5565   4.864   2.133   0.552
 1556SOL     OW 5566   3.019   1.215   0.714
 1556SOL    HW1 5567   2.931   1.168   0.708
 1556SOL    HW2 5568   3.006   1.308   0.746
 1557SOL     OW 5569   2.124   1.267   6.461
 1557SOL    HW1 5570   2.134   1.241   6.365
 1557SOL    HW2 5571   2.057   1.341   6.468
 1558SOL     OW 5572   5.266   1.059   4.355
 1558SOL    HW1 5573   5.310   1.009   4.429
 1558SOL    HW2 5574   5.318   1.143   4.335
 1559SOL     OW 5575   0.168   2.675   7.021
 1559SOL    HW1 5576   0.081   2.631   0.021
 1559SOL    HW2 5577   0.229   2.608   6.980
 1560SOL     OW 5578   2.838   2.197   5.921
 1560SOL    HW1 5579   2.803   2.258   5.849
 1560SOL    HW2 5580   2.933   2.175   5.903
 1561SOL     OW 5581   0.006   6.249   2.917
 1561SOL    HW1 5582   0.009   6.288   2.825
 1561SOL    HW2 5583   6.951   6.186   2.925
 1562SOL     OW 5584   3.938   5.642   1.857
 1562SOL    HW1 5585   4.024   5.641   1.909
 1562SOL    HW2 5586   3.869   5.692   1.909
 1563SOL     OW 5587   2.376   1.095   6.049
 1563SOL    HW1 5588   2.326   1.022   6.003
 1563SOL    HW2 5589   2.457   1.058   6.093
 1564SOL     OW 5590   1.250   3.003   2.823
 1564SOL    HW1 5591   1.303   2.919   2.811
 1564SOL    HW2 5592   1.240   3.049   2.735
 1565SOL     OW 5593   4.283   5.161   4.337
 1565SOL    HW1 5594   4.312   5.201   4.251
 1565SOL    HW2 5595   4.184   5.173   4.347
 1566SOL     OW 5596   5.607   4.885   4.224
 1566SOL    HW1 5597   5.520   4.855   4.263
 1566SOL    HW2 5598   5.637   4.819   4.155
 1567SOL     OW 5599   6.117   6.260   0.297
 1567SOL    HW1 5600   6.053   6.297   0.365
 1567SOL    HW2 5601   6.210   6.262   0.335
 1568SOL     OW 5602   2.205   5.694   1.323
 1568SOL    HW1 5603   2.209   5.670   1.420
 1568SOL    HW2 5604   2.141   5.770   1.310
 1569SOL     OW 5605   2.678   6.905   3.645
 1569SOL    HW1 5606   2.597   6.901   3.705
 1569SOL    HW2 5607   2.713   6.813   3.630
 1570SOL     OW 5608   2.077   6.776   0.688
 1570SOL    HW1 5609   2.167   6.743   0.718
 1570SOL    HW2 5610   2.063   6.752   0.592
 1571SOL     OW 5611   6.081   1.399   2.516
 1571SOL    HW1 5612   6.025   1.378   2.597
 1571SOL    HW2 5613   6.097   1.315   2.464
 1572SOL     OW 5614   1.378   6.058   0.543
 1572SOL    HW1 5615   1.299   6.052   0.604
 1572SOL    HW2 5616   1.373   5.985   0.474
 1573SOL     OW 5617   6.011   3.378   2.184
 1573SOL    HW1 5618   6.054   3.429   2.110
 1573SOL    HW2 5619   5.955   3.440   2.239
 1574SOL     OW 5620   0.020   1.134   3.245
 1574SOL    HW1 5621   6.990   1.211   3.206
 1574SOL    HW2 5622   0.089   1.105   3.179
 1575SOL     OW 5623   2.419   2.324   1.449
 1575SOL    HW1 5624   2.329   2.329   1.492
 1575SOL    HW2 5625   2.430   2.235   1.405
 1576SOL     OW 5626   1.065   0.797   2.935
 1576SOL    HW1 5627   1.046   0.846   3.021
 1576SOL    HW2 5628   1.019   0.708   2.937
 1577SOL     OW 5629   2.802   0.657   5.559
 1577SOL    HW1 5630   2.797   0.756   5.546
 1577SOL    HW2 5631   2.747   0.630   5.638
 1578SOL     OW 5632   5.662   2.866   5.981
 1578SOL    HW1 5633   5.742   2.812   5.954
 1578SOL    HW2 5634   5.668   2.887   6.079
 1579SOL     OW 5635   0.401   2.054   2.283
 1579SOL    HW1 5636   0.458   2.071   2.363
 1579SOL    HW2 5637   0.380   2.141   2.238
 1580SOL     OW 5638   3.449   4.179   3.977
 1580SOL    HW1 5639   3.381   4.243   4.012
 1580SOL    HW2 5640   3.510   4.152   4.052
 1581SOL     OW 5641   6.475   4.489   5.049
 1581SOL    HW1 5642   6.526   4.520   4.969
 1581SOL    HW2 5643   6.379   4.519   5.041
 1582SOL     OW 5644   2.157   6.724   4.155
 1582SOL    HW1 5645   2.107   6.638   4.154
 1582SOL    HW2 5646   2.255   6.707   4.148
 1583SOL     OW 5647   0.834   5.239   2.490
 1583SOL    HW1 5648   0.885   5.155   2.504
 1583SOL    HW2 5649   0.863   5.283   2.404
 1584SOL     OW 5650   0.697   6.367   6.397
 1584SOL    HW1 5651   0.790   6.361   6.359
 1584SOL    HW2 5652   0.694   6.317   6.484
 1585SOL     OW 5653   4.608   1.890   3.776
 1585SOL    HW1 5654   4.552   1.912   3.696
 1585SOL    HW2 5655   4.705   1.894   3.751
 1586SOL     OW 5656   3.247   4.771   1.855
 1586SOL    HW1 5657   3.322   4.709   1.881
 1586SOL    HW2 5658   3.285   4.849   1.805
 1587SOL     OW 5659   2.885   6.047   6.128
 1587SOL    HW1 5660   2.924   6.139   6.127
 1587SOL    HW2 5661   2.917   5.996   6.047
 1588SOL     OW 5662   3.745   1.122   2.718
 1588SOL    HW1 5663   3.769   1.176   2.800
 1588SOL    HW2 5664   3.780   1.168   2.637
 1589SOL     OW 5665   6.545   3.145   1.942
 1589SOL    HW1 5666   6.474   3.109   2.003
 1589SOL    HW2 5667   6.585   3.069   1.890
 1590SOL     OW 5668   4.291   0.210   4.965
 1590SOL    HW1 5669   4.361   0.256   4.910
 1590SOL    HW2 5670   4.200   0.234   4.932
 1591SOL     OW 5671   6.902   5.355   1.651
 1591SOL    HW1 5672   6.823   5.295   1.640
 1591SOL    HW2 5673   6.875   5.450   1.634
 1592SOL     OW 5674   1.731   3.775   6.913
 1592SOL    HW1 5675   1.759   3.820   6.998
 1592SOL    HW2 5676   1.673   3.837   6.860
 1593SOL     OW 5677   1.193   6.296   5.588
 1593SOL    HW1 5678   1.212   6.393   5.594
 1593SOL    HW2 5679   1.275   6.247   5.558
 1594SOL     OW 5680   0.661   6.324   1.892
 1594SOL    HW1 5681   0.657   6.224   1.891
 1594SOL    HW2 5682   0.603   6.360   1.819
 1595SOL     OW 5683   1.797   4.898   0.293
 1595SOL    HW1 5684   1.769   4.823   0.354
 1595SOL    HW2 5685   1.804   4.983   0.346
 1596SOL     OW 5686   0.074   2.240   3.937
 1596SOL    HW1 5687   0.030   2.155   3.965
 1596SOL    HW2 5688   0.173   2.230   3.942
 1597SOL     OW 5689   1.484   6.412   0.266
 1597SOL    HW1 5690   1.485   6.325   0.217
 1597SOL    HW2 5691   1.390   6.444   0.276
 1598SOL     OW 5692   0.415   4.221   5.810
 1598SOL    HW1 5693   0.405   4.308   5.857
 1598SOL    HW2 5694   0.418   4.236   5.711
 1599SOL     OW 5695   4.723   5.132   4.882
 1599SOL    HW1 5696   4.623   5.126   4.883
 1599SOL    HW2 5697   4.752   5.184   4.801
 1600SOL     OW 5698   3.855   1.454   3.296
 1600SOL    HW1 5699   3.756   1.441   3.291
 1600SOL    HW2 5700   3.895   1.436   3.207
 1601SOL     OW 5701   6.689   5.895   4.441
 1601SOL    HW1 5702   6.630   5.873   4.519
 1601SOL    HW2 5703   6.639   5.881   4.356
 1602SOL     OW 5704   3.878   6.252   3.826
 1602SOL    HW1 5705   3.902   6.281   3.919
 1602SOL    HW2 5706   3.791   6.203   3.827
 1603SOL     OW 5707   1.458   5.902   3.544
 1603SOL    HW1 5708   1.527   5.928   3.475
 1603SOL    HW2 5709   1.383   5.853   3.499
 1604SOL     OW 5710   5.902   4.290   1.434
 1604SOL    HW1 5711   5.813   4.328   1.462
 1604SOL    HW2 5712   5.963   4.287   1.513
 1605SOL     OW 5713   6.239   5.013   1.520
 1605SOL    HW1 5714   6.163   4.948   1.517
 1605SOL    HW2 5715   6.324   4.965   1.541
 1606SOL     OW 5716   4.043   0.864   5.575
 1606SOL    HW1 5717   3.957   0.841   5.621
 1606SOL    HW2 5718   4.116   0.803   5.607
 1607SOL     OW 5719   4.506   1.079   1.114
 1607SOL    HW1 5720   4.520   1.095   1.212
 1607SOL    HW2 5721   4.426   1.130   1.083
 1608SOL     OW 5722   1.164   1.170   3.418
 1608SOL    HW1 5723   1.113   1.244   3.375
 1608SOL    HW2 5724   1.186   1.195   3.512
 1609SOL     OW 5725   4.227   0.334   0.387
 1609SOL    HW1 5726   4.300   0.329   0.455
 1609SOL    HW2 5727   4.193   0.428   0.381
 1610SOL     OW 5728   6.065   4.593   6.546
 1610SOL    HW1 5729   6.015   4.516   6.507
 1610SOL    HW2 5730   6.081   4.576   6.644
 1611SOL     OW 5731   2.181   3.996   1.199
 1611SOL    HW1 5732   2.257   3.941   1.165
 1611SOL    HW2 5733   2.212   4.054   1.275
 1612SOL     OW 5734   2.609   6.712   6.773
 1612SOL    HW1 5735   2.581   6.618   6.793
 1612SOL    HW2 5736   2.540   6.775   6.807
 1613SOL     OW 5737   1.133   5.916   1.939
 1613SOL    HW1 5738   1.228   5.929   1.913
 1613SOL    HW2 5739   1.083   5.875   1.862
 1614SOL     OW 5740   5.447   3.119   6.754
 1614SOL    HW1 5741   5.444   3.023   6.780
 1614SOL    HW2 5742   5.379   3.137   6.683
 1615SOL     OW 5743   5.854   5.478   0.529
 1615SOL    HW1 5744   5.885   5.548   0.464
 1615SOL    HW2 5745   5.851   5.389   0.483
 1616SOL     OW 5746   3.288   1.360   5.346
 1616SOL    HW1 5747   3.237   1.379   5.262
 1616SOL    HW2 5748   3.235   1.298   5.404
 1617SOL     OW 5749   5.697   6.550   2.864
 1617SOL    HW1 5750   5.655   6.627   2.816
 1617SOL    HW2 5751   5.718   6.575   2.958
 1618SOL     OW 5752   1.688   5.052   1.934
 1618SOL    HW1 5753   1.614   4.990   1.958
 1618SOL    HW2 5754   1.676   5.139   1.982
 1619SOL     OW 5755   1.004   3.855   1.719
 1619SOL    HW1 5756   0.907   3.831   1.714
 1619SOL    HW2 5757   1.050   3.794   1.783
 1620SOL     OW 5758   2.820   4.784   1.741
 1620SOL    HW1 5759   2.781   4.873   1.762
 1620SOL    HW2 5760   2.828   4.730   1.825
 1621SOL     OW 5761   6.971   1.206   0.777
 1621SOL    HW1 5762   0.005   1.133   0.815
 1621SOL    HW2 5763   6.977   1.287   0.835
 1622SOL     OW 5764   0.742   2.813   4.891
 1622SOL    HW1 5765   0.690   2.829   4.807
 1622SOL    HW2 5766   0.683   2.833   4.970
 1623SOL     OW 5767   2.153   3.278   5.044
 1623SOL    HW1 5768   2.135   3.367   5.087
 1623SOL    HW2 5769   2.217   3.227   5.101
 1624SOL     OW 5770   3.319   1.063   5.225
 1624SOL    HW1 5771   3.388   0.992   5.231
 1624SOL    HW2 5772   3.292   1.091   5.318
 1625SOL     OW 5773   1.486   4.983   0.303
 1625SOL    HW1 5774   1.476   5.047   0.226
 1625SOL    HW2 5775   1.494   4.890   0.268
 1626SOL     OW 5776   4.337   1.878   0.001
 1626SOL    HW1 5777   4.386   1.795   0.025
 1626SOL    HW2 5778   4.324   1.934   0.082
 1627SOL     OW 5779   6.497   3.334   3.198
 1627SOL    HW1 5780   6.484   3.430   3.176
 1627SOL    HW2 5781   6.447   3.278   3.132
 1628SOL     OW 5782   5.016   4.325   6.769
 1628SOL    HW1 5783   5.067   4.280   6.695
 1628SOL    HW2 5784   5.049   4.419   6.780
 1629SOL     OW 5785   3.117   0.826   4.040
 1629SOL    HW1 5786   3.168   0.907   4.012
 1629SOL    HW2 5787   3.161   0.786   4.120
 1630SOL     OW 5788   1.249   5.047   5.646
 1630SOL    HW1 5789   1.252   4.982   5.721
 1630SOL    HW2 5790   1.235   4.999   5.560
 1631SOL     OW 5791   1.151   3.168   7.016
 1631SOL    HW1 5792   1.167   3.237   6.946
 1631SOL    HW2 5793   1.071   3.195   0.049
 1632SOL     OW 5794   6.200   2.564   0.445
 1632SOL    HW1 5795   6.190   2.470   0.414
 1632SOL    HW2 5796   6.294   2.595   0.428
 1633SOL     OW 5797   5.317   3.741   4.245
 1633SOL    HW1 5798   5.277   3.741   4.337
 1633SOL    HW2 5799   5.399   3.685   4.244
 1634SOL     OW 5800   4.309   5.725   5.029
 1634SOL    HW1 5801   4.305   5.765   5.120
 1634SOL    HW2 5802   4.367   5.781   4.970
 1635SOL     OW 5803   6.984   5.042   6.396
 1635SOL    HW1 5804   0.012   5.019   6.480
 1635SOL    HW2 5805   7.009   4.978   6.324
 1636SOL     OW 5806   2.640   4.472   1.760
 1636SOL    HW1 5807   2.582   4.549   1.786
 1636SOL    HW2 5808   2.727   4.479   1.809
 1637SOL     OW 5809   1.066   0.549   2.490
 1637SOL    HW1 5810   1.008   0.495   2.551
 1637SOL    HW2 5811   1.101   0.491   2.416
 1638SOL     OW 5812   0.029   4.401   3.414
 1638SOL    HW1 5813   0.097   4.384   3.485
 1638SOL    HW2 5814   6.979   4.331   3.418
 1639SOL     OW 5815   4.953   6.871   2.237
 1639SOL    HW1 5816   4.995   6.802   2.296
 1639SOL    HW2 5817   4.902   6.825   2.163
 1640SOL     OW 5818   6.223   0.646   0.180
 1640SOL    HW1 5819   6.221   0.547   0.168
 1640SOL    HW2 5820   6.174   0.689   0.104
 1641SOL     OW 5821   4.604   2.058   3.540
 1641SOL    HW1 5822   4.580   2.152   3.564
 1641SOL    HW2 5823   4.700   2.042   3.559
 1642SOL     OW 5824   6.276   3.619   6.364
 1642SOL    HW1 5825   6.312   3.684   6.431
 1642SOL    HW2 5826   6.196   3.658   6.319
 1643SOL     OW 5827   2.923   4.855   4.879
 1643SOL    HW1 5828   3.022   4.870   4.876
 1643SOL    HW2 5829   2.904   4.770   4.927
 1644SOL     OW 5830   6.322   3.630   0.524
 1644SOL    HW1 5831   6.406   3.676   0.495
 1644SOL    HW2 5832   6.249   3.649   0.459
 1645SOL     OW 5833   3.121   5.144   5.813
 1645SOL    HW1 5834   3.212   5.122   5.777
 1645SOL    HW2 5835   3.073   5.204   5.749
 1646SOL     OW 5836   3.090   6.364   0.191
 1646SOL    HW1 5837   3.185   6.390   0.172
 1646SOL    HW2 5838   3.053   6.424   0.262
 1647SOL     OW 5839   5.800   3.026   4.896
 1647SOL    HW1 5840   5.766   3.008   4.803
 1647SOL    HW2 5841   5.797   2.941   4.949
 1648SOL     OW 5842   5.105   5.156   0.713
 1648SOL    HW1 5843   5.171   5.221   0.674
 1648SOL    HW2 5844   5.041   5.205   0.772
 1649SOL     OW 5845   3.406   1.105   4.303
 1649SOL    HW1 5846   3.420   1.076   4.397
 1649SOL    HW2 5847   3.349   1.187   4.302
 1650SOL     OW 5848   1.908   6.455   5.858
 1650SOL    HW1 5849   1.990   6.399   5.865
 1650SOL    HW2 5850   1.827   6.399   5.874
 1651SOL     OW 5851   0.375   1.551   2.006
 1651SOL    HW1 5852   0.399   1.631   2.062
 1651SOL    HW2 5853   0.343   1.581   1.917
 1652SOL     OW 5854   0.992   3.651   2.413
 1652SOL    HW1 5855   0.973   3.570   2.356
 1652SOL    HW2 5856   1.049   3.715   2.361
 1653SOL     OW 5857   0.781   7.004   1.128
 1653SOL    HW1 5858   0.849   6.933   1.150
 1653SOL    HW2 5859   0.690   6.963   1.128
 1654SOL     OW 5860   0.760   3.842   1.603
 1654SOL    HW1 5861   0.756   3.745   1.579
 1654SOL    HW2 5862   0.675   3.887   1.577
 1655SOL     OW 5863   0.730   2.150   5.211
 1655SOL    HW1 5864   0.724   2.056   5.176
 1655SOL    HW2 5865   0.773   2.150   5.301
 1656SOL     OW 5866   2.458   4.589   2.194
 1656SOL    HW1 5867   2.449   4.532   2.112
 1656SOL    HW2 5868   2.545   4.639   2.189
 1657SOL     OW 5869   0.257   1.265   3.572
 1657SOL    HW1 5870   0.290   1.335   3.508
 1657SOL    HW2 5871   0.306   1.274   3.659
 1658SOL     OW 5872   0.043   5.993   1.113
 1658SOL    HW1 5873   0.071   5.955   1.025
 1658SOL    HW2 5874   0.003   6.084   1.099
 1659SOL     OW 5875   3.862   6.853   6.401
 1659SOL    HW1 5876   3.841   6.939   6.353
 1659SOL    HW2 5877   3.933   6.869   6.469
 1660SOL     OW 5878   1.046   5.263   3.753
 1660SOL    HW1 5879   1.093   5.213   3.680
 1660SOL    HW2 5880   1.001   5.343   3.713
 1661SOL     OW 5881   2.426   0.127   1.573
 1661SOL    HW1 5882   2.345   0.135   1.631
 1661SOL    HW2 5883   2.495   0.072   1.621
 1662SOL     OW 5884   6.525   0.689   4.403
 1662SOL    HW1 5885   6.454   0.742   4.448
 1662SOL    HW2 5886   6.614   0.716   4.438
 1663SOL     OW 5887   4.516   6.260   3.170
 1663SOL    HW1 5888   4.504   6.292   3.076
 1663SOL    HW2 5889   4.613   6.248   3.189
 1664SOL     OW 5890   1.827   0.260   4.650
 1664SOL    HW1 5891   1.776   0.339   4.617
 1664SOL    HW2 5892   1.764   0.191   4.687
 1665SOL     OW 5893   6.992   1.690   2.872
 1665SOL    HW1 5894   6.943   1.764   2.826
 1665SOL    HW2 5895   0.022   1.638   2.804
 1666SOL     OW 5896   5.645   1.745   6.798
 1666SOL    HW1 5897   5.595   1.785   6.874
 1666SOL    HW2 5898   5.581   1.722   6.724
 1667SOL     OW 5899   6.768   6.061   1.288
 1667SOL    HW1 5900   6.864   6.046   1.310
 1667SOL    HW2 5901   6.713   5.985   1.322
 1668SOL     OW 5902   5.480   6.406   4.891
 1668SOL    HW1 5903   5.427   6.487   4.918
 1668SOL    HW2 5904   5.568   6.407   4.938
 1669SOL     OW 5905   6.175   5.808   6.719
 1669SOL    HW1 5906   6.131   5.755   6.791
 1669SOL    HW2 5907   6.267   5.772   6.703
 1670SOL     OW 5908   6.945   4.205   5.609
 1670SOL    HW1 5909   6.969   4.155   5.691
 1670SOL    HW2 5910   6.864   4.262   5.627
 1671SOL     OW 5911   5.154   1.624   1.853
 1671SOL    HW1 5912   5.088   1.636   1.928
 1671SOL    HW2 5913   5.195   1.712   1.831
 1672SOL     OW 5914   1.764   3.225   0.962
 1672SOL    HW1 5915   1.805   3.135   0.981
 1672SOL    HW2 5916   1.787   3.288   1.037
 1673SOL     OW 5917   1.282   1.372   4.228
 1673SOL    HW1 5918   1.300   1.297   4.163
 1673SOL    HW2 5919   1.209   1.430   4.192
 1674SOL     OW 5920   0.783   2.991   2.227
 1674SOL    HW1 5921   0.769   3.068   2.164
 1674SOL    HW2 5922   0.743   3.013   2.316
 1675SOL     OW 5923   5.221   6.990   7.004
 1675SOL    HW1 5924   5.178   0.013   6.926
 1675SOL    HW2 5925   5.301   6.938   6.974
 1676SOL     OW 5926   2.125   2.585   2.059
 1676SOL    HW1 5927   2.217   2.546   2.069
 1676SOL    HW2 5928   2.073   2.532   1.992
 1677SOL     OW 5929   3.142   3.546   4.435
 1677SOL    HW1 5930   3.213   3.607   4.469
 1677SOL    HW2 5931   3.184   3.464   4.396
 1678SOL     OW 5932   5.097   4.088   4.201
 1678SOL    HW1 5933   5.013   4.134   4.171
 1678SOL    HW2 5934   5.111   4.104   4.298
 1679SOL     OW 5935   2.362   2.179   4.312
 1679SOL    HW1 5936   2.374   2.277   4.326
 1679SOL    HW2 5937   2.375   2.157   4.215
 1680SOL     OW 5938   6.748   2.738   4.874
 1680SOL    HW1 5939   6.708   2.672   4.809
 1680SOL    HW2 5940   6.697   2.735   4.960
 1681SOL     OW 5941   6.721   5.917   0.225
 1681SOL    HW1 5942   6.657   5.994   0.227
 1681SOL    HW2 5943   6.670   5.831   0.226
 1682SOL     OW 5944   1.693   1.128   4.458
 1682SOL    HW1 5945   1.712   1.104   4.363
 1682SOL    HW2 5946   1.604   1.173   4.464
 1683SOL     OW 5947   5.071   4.979   1.249
 1683SOL    HW1 5948   5.089   5.010   1.343
 1683SOL    HW2 5949   5.150   4.999   1.192
 1684SOL     OW 5950   1.197   6.123   2.108
 1684SOL    HW1 5951   1.154   6.069   2.036
 1684SOL    HW2 5952   1.260   6.189   2.067
 1685SOL     OW 5953   2.968   0.951   4.693
 1685SOL    HW1 5954   2.947   0.861   4.655
 1685SOL    HW2 5955   2.915   0.965   4.777
 1686SOL     OW 5956   2.895   6.169   4.611
 1686SOL    HW1 5957   2.912   6.120   4.696
 1686SOL    HW2 5958   2.797   6.189   4.603
 1687SOL     OW 5959   2.075   3.596   1.470
 1687SOL    HW1 5960   2.148   3.553   1.417
 1687SOL    HW2 5961   2.088   3.577   1.567
 1688SOL     OW 5962   2.370   2.640   4.147
 1688SOL    HW1 5963   2.344   2.732   4.178
 1688SOL    HW2 5964   2.387   2.642   4.048
 1689SOL     OW 5965   5.888   1.263   2.847
 1689SOL    HW1 5966   5.981   1.294   2.828
 1689SOL    HW2 5967   5.823   1.331   2.816
 1690SOL     OW 5968   1.459   2.822   3.813
 1690SOL    HW1 5969   1.375   2.783   3.850
 1690SOL    HW2 5970   1.524   2.749   3.792
 1691SOL     OW 5971   6.236   3.443   3.545
 1691SOL    HW1 5972   6.331   3.468   3.528
 1691SOL    HW2 5973   6.219   3.443   3.644
 1692SOL     OW 5974   5.684   6.311   1.298
 1692SOL    HW1 5975   5.586   6.332   1.308
 1692SOL    HW2 5976   5.738   6.384   1.339
 1693SOL     OW 5977   0.036   2.163   2.075
 1693SOL    HW1 5978   0.039   2.259   2.103
 1693SOL    HW2 5979   0.018   2.105   2.154
 1694SOL     OW 5980   5.444   0.226   2.350
 1694SOL    HW1 5981   5.403   0.296   2.408
 1694SOL    HW2 5982   5.539   0.250   2.329
 1695SOL     OW 5983   3.826   0.960   5.144
 1695SOL    HW1 5984   3.760   1.034   5.151
 1695SOL    HW2 5985   3.917   0.997   5.127
 1696SOL     OW 5986   4.428   4.731   0.581
 1696SOL    HW1 5987   4.506   4.672   0.603
 1696SOL    HW2 5988   4.373   4.747   0.663
 1697SOL     OW 5989   5.767   0.365   0.695
 1697SOL    HW1 5990   5.796   0.317   0.612
 1697SOL    HW2 5991   5.686   0.321   0.733
 1698SOL     OW 5992   4.121   0.570   0.494
 1698SOL    HW1 5993   4.209   0.590   0.536
 1698SOL    HW2 5994   4.121   0.600   0.399
 1699SOL     OW 5995   1.639   0.602   1.194
 1699SOL    HW1 5996   1.559   0.565   1.242
 1699SOL    HW2 5997   1.717   0.542   1.209
 1700SOL     OW 5998   5.649   2.756   3.672
 1700SOL    HW1 5999   5.726   2.820   3.681
 1700SOL    HW2 6000   5.569   2.806   3.639
 1701SOL     OW 6001   4.517   4.444   6.408
 1701SOL    HW1 6002   4.521   4.455   6.507
 1701SOL    HW2 6003   4.422   4.438   6.379
 1702SOL     OW 6004   6.686   2.522   0.474
 1702SOL    HW1 6005   6.657   2.455   0.406
 1702SOL    HW2 6006   6.783   2.544   0.461
 1703SOL     OW 6007   2.870   2.664   1.721
 1703SOL    HW1 6008   2.912   2.597   1.782
 1703SOL    HW2 6009   2.777   2.637   1.700
 1704SOL     OW 6010   1.301   2.447   1.103
 1704SOL    HW1 6011   1.325   2.506   1.026
 1704SOL    HW2 6012   1.283   2.503   1.184
 1705SOL     OW 6013   3.439   1.630   1.667
 1705SOL    HW1 6014   3.490   1.683   1.599
 1705SOL    HW2 6015   3.394   1.691   1.732
 1706SOL     OW 6016   4.889   0.983   2.357
 1706SOL    HW1 6017   4.898   1.007   2.261
 1706SOL    HW2 6018   4.945   1.044   2.413
 1707SOL     OW 6019   4.943   2.054   2.395
 1707SOL    HW1 6020   4.872   1.994   2.357
 1707SOL    HW2 6021   5.014   2.069   2.326
 1708SOL     OW 6022   4.886   5.306   1.424
 1708SOL    HW1 6023   4.961   5.242   1.406
 1708SOL    HW2 6024   4.825   5.269   1.494
 1709SOL     OW 6025   3.025   5.890   2.373
 1709SOL    HW1 6026   3.032   5.837   2.457
 1709SOL    HW2 6027   2.946   5.952   2.379
 1710SOL     OW 6028   5.192   4.866   4.117
 1710SOL    HW1 6029   5.146   4.952   4.139
 1710SOL    HW2 6030   5.124   4.799   4.085
 1711SOL     OW 6031   1.389   4.340   4.152
 1711SOL    HW1 6032   1.371   4.347   4.054
 1711SOL    HW2 6033   1.417   4.429   4.187
 1712SOL     OW 6034   6.764   2.380   5.538
 1712SOL    HW1 6035   6.756   2.437   5.621
 1712SOL    HW2 6036   6.673   2.350   5.510
 1713SOL     OW 6037   4.310   2.339   1.494
 1713SOL    HW1 6038   4.373   2.409   1.528
 1713SOL    HW2 6039   4.243   2.381   1.434
 1714SOL     OW 6040   3.148   1.684   5.637
 1714SOL    HW1 6041   3.208   1.713   5.563
 1714SOL    HW2 6042   3.198   1.624   5.700
 1715SOL     OW 6043   0.425   5.746   2.860
 1715SOL    HW1 6044   0.414   5.844   2.877
 1715SOL    HW2 6045   0.420   5.696   2.946
 1716SOL     OW 6046   4.897   6.550   3.134
 1716SOL    HW1 6047   4.905   6.509   3.225
 1716SOL    HW2 6048   4.947   6.494   3.068
 1717SOL     OW 6049   2.491   6.649   5.776
 1717SOL    HW1 6050   2.437   6.648   5.691
 1717SOL    HW2 6051   2.582   6.611   5.758
 1718SOL     OW 6052   2.479   1.676   1.351
 1718SOL    HW1 6053   2.400   1.737   1.339
 1718SOL    HW2 6054   2.450   1.581   1.337
 1719SOL     OW 6055   1.500   3.382   1.057
 1719SOL    HW1 6056   1.553   3.465   1.045
 1719SOL    HW2 6057   1.561   3.306   1.079
 1720SOL     OW 6058   0.307   3.309   7.009
 1720SOL    HW1 6059   0.223   3.361   6.994
 1720SOL    HW2 6060   0.311   3.278   0.082
 1721SOL     OW 6061   1.461   6.158   1.415
 1721SOL    HW1 6062   1.452   6.254   1.389
 1721SOL    HW2 6063   1.538   6.147   1.478
 1722SOL     OW 6064   3.596   1.418   3.563
 1722SOL    HW1 6065   3.690   1.433   3.591
 1722SOL    HW2 6066   3.538   1.489   3.603
 1723SOL     OW 6067   6.252   2.430   2.753
 1723SOL    HW1 6068   6.279   2.373   2.831
 1723SOL    HW2 6069   6.286   2.523   2.766
 1724SOL     OW 6070   6.788   2.611   1.845
 1724SOL    HW1 6071   6.796   2.671   1.925
 1724SOL    HW2 6072   6.877   2.601   1.802
 1725SOL     OW 6073   1.874   4.908   6.546
 1725SOL    HW1 6074   1.887   4.818   6.505
 1725SOL    HW2 6075   1.826   4.899   6.633
 1726SOL     OW 6076   5.763   4.816   4.718
 1726SOL    HW1 6077   5.673   4.856   4.702
 1726SOL    HW2 6078   5.783   4.814   4.816
 1727SOL     OW 6079   3.396   2.942   3.939
 1727SOL    HW1 6080   3.358   2.938   4.031
 1727SOL    HW2 6081   3.323   2.947   3.872
 1728SOL     OW 6082   5.090   5.012   5.261
 1728SOL    HW1 6083   5.026   5.029   5.186
 1728SOL    HW2 6084   5.041   4.980   5.341
 1729SOL     OW 6085   2.267   4.161   2.837
 1729SOL    HW1 6086   2.188   4.222   2.831
 1729SOL    HW2 6087   2.296   4.152   2.932
 1730SOL     OW 6088   1.438   6.779   5.685
 1730SOL    HW1 6089   1.500   6.853   5.660
 1730SOL    HW2 6090   1.479   6.726   5.761
 1731SOL     OW 6091   6.702   4.070   2.929
 1731SOL    HW1 6092   6.647   3.988   2.912
 1731SOL    HW2 6093   6.777   4.048   2.991
 1732SOL     OW 6094   2.593   5.476   5.492
 1732SOL    HW1 6095   2.575   5.465   5.395
 1732SOL    HW2 6096   2.525   5.424   5.545
 1733SOL     OW 6097   2.082   4.605   1.310
 1733SOL    HW1 6098   2.013   4.570   1.373
 1733SOL    HW2 6099   2.159   4.541   1.305
 1734SOL     OW 6100   4.284   3.240   0.842
 1734SOL    HW1 6101   4.273   3.339   0.849
 1734SOL    HW2 6102   4.313   3.204   0.931
 1735SOL     OW 6103   5.111   5.912   0.365
 1735SOL    HW1 6104   5.122   6.010   0.346
 1735SOL    HW2 6105   5.036   5.899   0.430
 1736SOL     OW 6106   3.102   3.177   0.235
 1736SOL    HW1 6107   3.154   3.118   0.297
 1736SOL    HW2 6108   3.154   3.260   0.215
 1737SOL     OW 6109   3.232   1.308   4.290
 1737SOL    HW1 6110   3.273   1.380   4.234
 1737SOL    HW2 6111   3.150   1.274   4.245
 1738SOL     OW 6112   2.133   2.361   4.126
 1738SOL    HW1 6113   2.209   2.399   4.074
 1738SOL    HW2 6114   2.132   2.400   4.218
 1739SOL     OW 6115   0.287   2.214   5.540
 1739SOL    HW1 6116   0.363   2.186   5.481
 1739SOL    HW2 6117   0.253   2.134   5.590
 1740SOL     OW 6118   6.959   1.675   5.657
 1740SOL    HW1 6119   0.002   1.628   5.597
 1740SOL    HW2 6120   6.871   1.628   5.654
 1741SOL     OW 6121   2.460   0.537   3.413
 1741SOL    HW1 6122   2.365   0.562   3.433
 1741SOL    HW2 6123   2.461   0.457   3.354
 1742SOL     OW 6124   5.755   0.500   6.403
 1742SOL    HW1 6125   5.773   0.402   6.413
 1742SOL    HW2 6126   5.801   0.534   6.321
 1743SOL     OW 6127   1.066   2.399   1.419
 1743SOL    HW1 6128   1.109   2.466   1.359
 1743SOL    HW2 6129   0.968   2.394   1.399
 1744SOL     OW 6130   6.467   1.790   2.589
 1744SOL    HW1 6131   6.526   1.846   2.647
 1744SOL    HW2 6132   6.414   1.728   2.646
 1745SOL     OW 6133   5.909   5.914   2.687
 1745SOL    HW1 6134   5.893   5.863   2.772
 1745SOL    HW2 6135   5.989   5.973   2.698
 1746SOL     OW 6136   0.973   4.085   4.535
 1746SOL    HW1 6137   0.990   4.173   4.490
 1746SOL    HW2 6138   1.059   4.036   4.546
 1747SOL     OW 6139   5.007   1.360   3.358
 1747SOL    HW1 6140   5.033   1.319   3.445
 1747SOL    HW2 6141   5.060   1.443   3.343
 1748SOL     OW 6142   1.169   0.968   5.310
 1748SOL    HW1 6143   1.162   0.918   5.224
 1748SOL    HW2 6144   1.085   0.955   5.363
 1749SOL     OW 6145   2.636   0.823   4.582
 1749SOL    HW1 6146   2.721   0.874   4.566
 1749SOL    HW2 6147   2.657   0.725   4.591
 1750SOL     OW 6148   5.429   6.153   4.308
 1750SOL    HW1 6149   5.409   6.105   4.394
 1750SOL    HW2 6150   5.344   6.190   4.271
 1751SOL     OW 6151   3.906   6.460   4.990
 1751SOL    HW1 6152   3.863   6.501   5.070
 1751SOL    HW2 6153   3.994   6.421   5.015
 1752SOL     OW 6154   6.706   2.183   1.659
 1752SOL    HW1 6155   6.706   2.087   1.685
 1752SOL    HW2 6156   6.796   2.223   1.680
 1753SOL     OW 6157   0.327   1.244   1.017
 1753SOL    HW1 6158   0.249   1.287   1.061
 1753SOL    HW2 6159   0.387   1.313   0.978
 1754SOL     OW 6160   1.202   4.596   6.924
 1754SOL    HW1 6161   1.136   4.586   6.850
 1754SOL    HW2 6162   1.188   4.523   6.991
 1755SOL     OW 6163   7.004   6.019   2.269
 1755SOL    HW1 6164   6.995   6.048   2.174
 1755SOL    HW2 6165   0.077   6.031   2.299
 1756SOL     OW 6166   4.243   6.002   5.933
 1756SOL    HW1 6167   4.216   5.908   5.913
 1756SOL    HW2 6168   4.322   6.026   5.877
 1757SOL     OW 6169   2.653   5.727   4.901
 1757SOL    HW1 6170   2.661   5.824   4.879
 1757SOL    HW2 6171   2.691   5.672   4.827
 1758SOL     OW 6172   2.024   6.988   3.909
 1758SOL    HW1 6173   2.072   6.997   3.997
 1758SOL    HW2 6174   2.060   0.032   3.844
 1759SOL     OW 6175   1.463   5.956   6.296
 1759SOL    HW1 6176   1.393   6.025   6.313
 1759SOL    HW2 6177   1.506   5.973   6.208
 1760SOL     OW 6178   5.375   1.344   3.182
 1760SOL    HW1 6179   5.469   1.365   3.158
 1760SOL    HW2 6180   5.346   1.402   3.259
 1761SOL     OW 6181   0.433   0.396   0.754
 1761SOL    HW1 6182   0.510   0.457   0.771
 1761SOL    HW2 6183   0.393   0.367   0.841
 1762SOL     OW 6184   0.540   0.826   4.917
 1762SOL    HW1 6185   0.521   0.807   5.013
 1762SOL    HW2 6186   0.459   0.806   4.862
 1763SOL     OW 6187   1.332   3.684   3.821
 1763SOL    HW1 6188   1.258   3.714   3.761
 1763SOL    HW2 6189   1.397   3.759   3.835
 1764SOL     OW 6190   2.117   3.448   2.566
 1764SOL    HW1 6191   2.157   3.465   2.475
 1764SOL    HW2 6192   2.032   3.398   2.556
 1765SOL     OW 6193   3.421   0.969   0.958
 1765SOL    HW1 6194   3.443   0.948   0.863
 1765SOL    HW2 6195   3.496   0.940   1.017
 1766SOL     OW 6196   4.821   4.026   2.299
 1766SOL    HW1 6197   4.893   4.085   2.337
 1766SOL    HW2 6198   4.761   4.080   2.240
 1767SOL     OW 6199   0.571   3.605   2.811
 1767SOL    HW1 6200   0.660   3.560   2.808
 1767SOL    HW2 6201   0.510   3.563   2.744
 1768SOL     OW 6202   4.065   1.922   6.059
 1768SOL    HW1 6203   3.967   1.942   6.054
 1768SOL    HW2 6204   4.097   1.932   6.154
 1769SOL     OW 6205   4.192   1.950   5.815
 1769SOL    HW1 6206   4.166   1.865   5.769
 1769SOL    HW2 6207   4.144   1.958   5.902
 1770SOL     OW 6208   0.009   4.395   4.645
 1770SOL    HW1 6209   0.047   4.312   4.603
 1770SOL    HW2 6210   6.942   4.373   4.686
 1771SOL     OW 6211   1.972   5.208   0.244
 1771SOL    HW1 6212   2.052   5.204   0.185
 1771SOL    HW2 6213   1.917   5.289   0.221
 1772SOL     OW 6214   3.462   0.228   3.271
 1772SOL    HW1 6215   3.555   0.263   3.259
 1772SOL    HW2 6216   3.404   0.260   3.196
 1773SOL     OW 6217   3.001   3.640   6.702
 1773SOL    HW1 6218   2.960   3.647   6.793
 1773SOL    HW2 6219   3.055   3.721   6.683
 1774SOL     OW 6220   4.359   0.352   1.732
 1774SOL    HW1 6221   4.446   0.389   1.764
 1774SOL    HW2 6222   4.329   0.279   1.794
 1775SOL     OW 6223   1.701   5.587   5.129
 1775SOL    HW1 6224   1.787   5.602   5.177
 1775SOL    HW2 6225   1.636   5.541   5.190
 1776SOL     OW 6226   4.779   0.969   6.041
 1776SOL    HW1 6227   4.768   0.874   6.069
 1776SOL    HW2 6228   4.689   1.008   6.018
 1777SOL     OW 6229   2.938   5.921   5.659
 1777SOL    HW1 6230   2.910   5.873   5.576
 1777SOL    HW2 6231   2.919   5.864   5.738
 1778SOL     OW 6232   4.261   2.160   4.393
 1778SOL    HW1 6233   4.349   2.116   4.414
 1778SOL    HW2 6234   4.260   2.251   4.434
 1779SOL     OW 6235   3.927   1.745   4.332
 1779SOL    HW1 6236   3.962   1.823   4.384
 1779SOL    HW2 6237   3.842   1.770   4.287
 1780SOL     OW 6238   2.048   4.370   5.679
 1780SOL    HW1 6239   2.075   4.380   5.583
 1780SOL    HW2 6240   2.058   4.274   5.706
 1781SOL     OW 6241   5.116   5.245   3.651
 1781SOL    HW1 6242   5.020   5.270   3.669
 1781SOL    HW2 6243   5.171   5.328   3.647
 1782SOL     OW 6244   2.834   1.797   3.433
 1782SOL    HW1 6245   2.901   1.770   3.363
 1782SOL    HW2 6246   2.796   1.715   3.476
 1783SOL     OW 6247   2.231   3.285   5.818
 1783SOL    HW1 6248   2.311   3.243   5.863
 1783SOL    HW2 6249   2.262   3.354   5.753
 1784SOL     OW 6250   3.059   1.040   2.786
 1784SOL    HW1 6251   3.042   1.059   2.882
 1784SOL    HW2 6252   3.050   1.124   2.733
 1785SOL     OW 6253   5.528   5.511   3.587
 1785SOL    HW1 6254   5.505   5.570   3.510
 1785SOL    HW2 6255   5.619   5.533   3.620
 1786SOL     OW 6256   0.882   3.536   0.684
 1786SOL    HW1 6257   0.793   3.545   0.638
 1786SOL    HW2 6258   0.886   3.447   0.730
 1787SOL     OW 6259   2.290   0.834   5.193
 1787SOL    HW1 6260   2.227   0.905   5.227
 1787SOL    HW2 6261   2.379   0.845   5.238
 1788SOL     OW 6262   3.359   3.702   6.976
 1788SOL    HW1 6263   3.305   3.687   0.037
 1788SOL    HW2 6264   3.382   3.614   6.935
 1789SOL     OW 6265   6.063   2.200   2.577
 1789SOL    HW1 6266   5.967   2.192   2.604
 1789SOL    HW2 6267   6.116   2.238   2.653
 1790SOL     OW 6268   4.057   6.697   4.451
 1790SOL    HW1 6269   4.128   6.660   4.391
 1790SOL    HW2 6270   4.043   6.634   4.528
 1791SOL     OW 6271   0.735   1.447   4.577
 1791SOL    HW1 6272   0.807   1.430   4.643
 1791SOL    HW2 6273   0.668   1.373   4.581
 1792SOL     OW 6274   0.820   1.226   4.316
 1792SOL    HW1 6275   0.804   1.211   4.218
 1792SOL    HW2 6276   0.740   1.198   4.368
 1793SOL     OW 6277   6.615   0.217   3.371
 1793SOL    HW1 6278   6.701   0.249   3.410
 1793SOL    HW2 6279   6.570   0.292   3.323
 1794SOL     OW 6280   4.992   6.531   6.415
 1794SOL    HW1 6281   5.006   6.603   6.348
 1794SOL    HW2 6282   5.027   6.560   6.504
 1795SOL     OW 6283   6.955   4.817   1.743
 1795SOL    HW1 6284   6.910   4.873   1.813
 1795SOL    HW2 6285   6.969   4.724   1.778
 1796SOL     OW 6286   2.243   1.400   4.089
 1796SOL    HW1 6287   2.221   1.467   4.017
 1796SOL    HW2 6288   2.268   1.313   4.048
 1797SOL     OW 6289   1.447   6.927   6.129
 1797SOL    HW1 6290   1.535   6.937   6.082
 1797SOL    HW2 6291   1.414   6.833   6.118
 1798SOL     OW 6292   4.844   2.836   5.462
 1798SOL    HW1 6293   4.921   2.893   5.437
 1798SOL    HW2 6294   4.801   2.798   5.380
 1799SOL     OW 6295   5.715   2.182   6.696
 1799SOL    HW1 6296   5.622   2.211   6.717
 1799SOL    HW2 6297   5.725   2.173   6.597
 1800SOL     OW 6298   5.261   4.258   3.580
 1800SOL    HW1 6299   5.269   4.357   3.576
 1800SOL    HW2 6300   5.347   4.217   3.549
 1801SOL     OW 6301   1.167   1.475   3.011
 1801SOL    HW1 6302   1.091   1.503   2.951
 1801SOL    HW2 6303   1.221   1.405   2.964
 1802SOL     OW 6304   5.985   5.634   2.829
 1802SOL    HW1 6305   5.901   5.622   2.883
 1802SOL    HW2 6306   6.034   5.714   2.863
 1803SOL     OW 6307   6.510   6.539   1.333
 1803SOL    HW1 6308   6.604   6.511   1.311
 1803SOL    HW2 6309   6.478   6.488   1.412
 1804SOL     OW 6310   3.525   3.421   5.367
 1804SOL    HW1 6311   3.455   3.406   5.297
 1804SOL    HW2 6312   3.591   3.345   5.363
 1805SOL     OW 6313   0.995   4.480   5.800
 1805SOL    HW1 6314   1.002   4.385   5.770
 1805SOL    HW2 6315   0.999   4.541   5.721
 1806SOL     OW 6316   1.676   2.200   1.779
 1806SOL    HW1 6317   1.744   2.190   1.851
 1806SOL    HW2 6318   1.673   2.295   1.749
 1807SOL     OW 6319   6.237   2.308   6.347
 1807SOL    HW1 6320   6.303   2.355   6.289
 1807SOL    HW2 6321   6.201   2.227   6.300
 1808SOL     OW 6322   5.915   4.729   4.461
 1808SOL    HW1 6323   6.011   4.737   4.486
 1808SOL    HW2 6324   5.858   4.758   4.538
 1809SOL     OW 6325   2.390   2.398   4.792
 1809SOL    HW1 6326   2.357   2.307   4.817
 1809SOL    HW2 6327   2.473   2.418   4.844
 1810SOL     OW 6328   1.781   6.831   5.243
 1810SOL    HW1 6329   1.843   6.823   5.165
 1810SOL    HW2 6330   1.815   6.775   5.318
 1811SOL     OW 6331   4.641   4.516   3.444
 1811SOL    HW1 6332   4.596   4.428   3.464
 1811SOL    HW2 6333   4.612   4.548   3.354
 1812SOL     OW 6334   4.993   0.274   5.710
 1812SOL    HW1 6335   5.035   0.316   5.629
 1812SOL    HW2 6336   4.894   0.270   5.699
 1813SOL     OW 6337   4.358   5.004   1.238
 1813SOL    HW1 6338   4.285   4.938   1.221
 1813SOL    HW2 6339   4.342   5.085   1.182
 1814SOL     OW 6340   6.466   0.658   0.825
 1814SOL    HW1 6341   6.534   0.621   0.762
 1814SOL    HW2 6342   6.385   0.686   0.774
 1815SOL     OW 6343   5.969   0.765   2.426
 1815SOL    HW1 6344   6.020   0.719   2.499
 1815SOL    HW2 6345   6.033   0.802   2.359
 1816SOL     OW 6346   2.468   4.830   0.598
 1816SOL    HW1 6347   2.518   4.750   0.631
 1816SOL    HW2 6348   2.532   4.906   0.583
 1817SOL     OW 6349   3.712   6.710   3.007
 1817SOL    HW1 6350   3.741   6.775   2.936
 1817SOL    HW2 6351   3.785   6.700   3.075
 1818SOL     OW 6352   2.422   5.875   1.234
 1818SOL    HW1 6353   2.352   5.807   1.257
 1818SOL    HW2 6354   2.383   5.943   1.172
 1819SOL     OW 6355   0.904   6.471   1.937
 1819SOL    HW1 6356   0.972   6.456   1.865
 1819SOL    HW2 6357   0.842   6.393   1.941
 1820SOL     OW 6358   3.154   0.050   2.150
 1820SOL    HW1 6359   3.084   0.093   2.092
 1820SOL    HW2 6360   3.118   0.041   2.243
 1821SOL     OW 6361   2.625   0.821   1.506
 1821SOL    HW1 6362   2.711   0.778   1.535
 1821SOL    HW2 6363   2.638   0.864   1.417
 1822SOL     OW 6364   1.055   2.879   1.465
 1822SOL    HW1 6365   1.155   2.870   1.460
 1822SOL    HW2 6366   1.020   2.910   1.377
 1823SOL     OW 6367   3.280   5.548   3.179
 1823SOL    HW1 6368   3.199   5.491   3.176
 1823SOL    HW2 6369   3.287   5.602   3.095
 1824SOL     OW 6370   3.908   3.271   0.223
 1824SOL    HW1 6371   3.914   3.172   0.212
 1824SOL    HW2 6372   3.821   3.303   0.186
 1825SOL     OW 6373   1.872   2.310   4.320
 1825SOL    HW1 6374   1.883   2.352   4.410
 1825SOL    HW2 6375   1.796   2.355   4.272
 1826SOL     OW 6376   3.589   1.777   1.497
 1826SOL    HW1 6377   3.642   1.694   1.479
 1826SOL    HW2 6378   3.588   1.835   1.415
 1827SOL     OW 6379   6.549   5.384   1.446
 1827SOL    HW1 6380   6.451   5.366   1.445
 1827SOL    HW2 6381   6.584   5.386   1.352
 1828SOL     OW 6382   1.772   2.542   0.500
 1828SOL    HW1 6383   1.805   2.447   0.500
 1828SOL    HW2 6384   1.672   2.542   0.490
 1829SOL     OW 6385   3.517   0.577   3.049
 1829SOL    HW1 6386   3.432   0.629   3.045
 1829SOL    HW2 6387   3.500   0.483   3.018
 1830SOL     OW 6388   5.724   5.668   4.426
 1830SOL    HW1 6389   5.771   5.713   4.349
 1830SOL    HW2 6390   5.636   5.713   4.442
 1831SOL     OW 6391   5.647   6.960   1.513
 1831SOL    HW1 6392   5.746   6.950   1.510
 1831SOL    HW2 6393   5.607   6.882   1.562
 1832SOL     OW 6394   4.581   2.258   1.037
 1832SOL    HW1 6395   4.498   2.222   0.994
 1832SOL    HW2 6396   4.615   2.335   0.983
 1833SOL     OW 6397   5.282   0.778   1.061
 1833SOL    HW1 6398   5.370   0.792   1.108
 1833SOL    HW2 6399   5.228   0.711   1.112
 1834SOL     OW 6400   2.026   3.830   0.857
 1834SOL    HW1 6401   2.001   3.806   0.950
 1834SOL    HW2 6402   2.107   3.778   0.829
 1835SOL     OW 6403   0.103   4.589   1.516
 1835SOL    HW1 6404   0.177   4.523   1.503
 1835SOL    HW2 6405   0.081   4.595   1.614
 1836SOL     OW 6406   5.302   2.202   1.494
 1836SOL    HW1 6407   5.293   2.112   1.537
 1836SOL    HW2 6408   5.260   2.199   1.403
 1837SOL     OW 6409   0.803   0.096   4.925
 1837SOL    HW1 6410   0.881   0.142   4.969
 1837SOL    HW2 6411   0.829   0.002   4.901
 1838SOL     OW 6412   6.749   1.339   5.774
 1838SOL    HW1 6413   6.843   1.367   5.793
 1838SOL    HW2 6414   6.718   1.382   5.689
 1839SOL     OW 6415   0.360   1.550   5.391
 1839SOL    HW1 6416   0.303   1.525   5.313
 1839SOL    HW2 6417   0.316   1.521   5.475
 1840SOL     OW 6418   3.892   0.274   1.452
 1840SOL    HW1 6419   3.797   0.251   1.472
 1840SOL    HW2 6420   3.918   0.235   1.364
 1841SOL     OW 6421   2.407   1.250   3.615
 1841SOL    HW1 6422   2.429   1.241   3.518
 1841SOL    HW2 6423   2.454   1.179   3.667
 1842SOL     OW 6424   1.266   5.612   0.338
 1842SOL    HW1 6425   1.332   5.626   0.265
 1842SOL    HW2 6426   1.254   5.513   0.353
 1843SOL     OW 6427   6.281   1.300   4.376
 1843SOL    HW1 6428   6.282   1.202   4.398
 1843SOL    HW2 6429   6.321   1.351   4.452
 1844SOL     OW 6430   3.353   6.372   5.221
 1844SOL    HW1 6431   3.357   6.291   5.279
 1844SOL    HW2 6432   3.326   6.451   5.277
 1845SOL     OW 6433   3.332   6.717   5.050
 1845SOL    HW1 6434   3.331   6.773   5.133
 1845SOL    HW2 6435   3.240   6.716   5.010
 1846SOL     OW 6436   3.595   1.164   1.968
 1846SOL    HW1 6437   3.647   1.234   1.919
 1846SOL    HW2 6438   3.648   1.133   2.047
 1847SOL     OW 6439   1.214   0.733   6.506
 1847SOL    HW1 6440   1.172   0.646   6.480
 1847SOL    HW2 6441   1.288   0.755   6.443
 1848SOL     OW 6442   2.109   6.037   3.406
 1848SOL    HW1 6443   2.095   6.076   3.497
 1848SOL    HW2 6444   2.189   6.080   3.363
 1849SOL     OW 6445   4.014   2.772   1.744
 1849SOL    HW1 6446   4.101   2.780   1.695
 1849SOL    HW2 6447   3.975   2.682   1.725
 1850SOL     OW 6448   0.160   2.382   2.672
 1850SOL    HW1 6449   0.085   2.324   2.639
 1850SOL    HW2 6450   0.227   2.394   2.599
 1851SOL     OW 6451   0.718   3.192   6.619
 1851SOL    HW1 6452   0.802   3.247   6.618
 1851SOL    HW2 6453   0.712   3.142   6.705
 1852SOL     OW 6454   6.597   4.454   2.469
 1852SOL    HW1 6455   6.527   4.487   2.533
 1852SOL    HW2 6456   6.680   4.508   2.481
 1853SOL     OW 6457   0.701   2.333   3.488
 1853SOL    HW1 6458   0.658   2.397   3.423
 1853SOL    HW2 6459   0.797   2.321   3.463
 1854SOL     OW 6460   2.305   5.540   3.012
 1854SOL    HW1 6461   2.302   5.631   3.052
 1854SOL    HW2 6462   2.270   5.473   3.078
 1855SOL     OW 6463   5.192   4.079   5.344
 1855SOL    HW1 6464   5.114   4.024   5.313
 1855SOL    HW2 6465   5.221   4.048   5.434
 1856SOL     OW 6466   5.195   3.956   5.972
 1856SOL    HW1 6467   5.141   3.885   5.926
 1856SOL    HW2 6468   5.162   4.046   5.943
 1857SOL     OW 6469   4.197   2.226   6.657
 1857SOL    HW1 6470   4.119   2.163   6.663
 1857SOL    HW2 6471   4.166   2.320   6.669
 1858SOL     OW 6472   5.358   3.403   3.063
 1858SOL    HW1 6473   5.289   3.458   3.109
 1858SOL    HW2 6474   5.447   3.449   3.069
 1859SOL     OW 6475   4.928   1.804   3.990
 1859SOL    HW1 6476   4.837   1.840   4.014
 1859SOL    HW2 6477   4.921   1.706   3.974
 1860SOL     OW 6478   0.412   0.823   5.164
 1860SOL    HW1 6479   0.453   0.789   5.249
 1860SOL    HW2 6480   0.316   0.797   5.161
 1861SOL     OW 6481   6.505   6.706   2.053
 1861SOL    HW1 6482   6.559   6.716   1.970
 1861SOL    HW2 6483   6.409   6.692   2.029
 1862SOL     OW 6484   2.886   0.335   6.508
 1862SOL    HW1 6485   2.937   0.268   6.561
 1862SOL    HW2 6486   2.873   0.301   6.415
 1863SOL     OW 6487   0.476   2.418   3.336
 1863SOL    HW1 6488   0.440   2.497   3.384
 1863SOL    HW2 6489   0.529   2.448   3.257
 1864SOL     OW 6490   1.807   6.413   4.917
 1864SOL    HW1 6491   1.770   6.374   5.002
 1864SOL    HW2 6492   1.791   6.511   4.915
 1865SOL     OW 6493   4.006   7.014   0.215
 1865SOL    HW1 6494   3.918   6.967   0.204
 1865SOL    HW2 6495   4.052   7.018   0.126
 1866SOL     OW 6496   6.160   5.027   3.585
 1866SOL    HW1 6497   6.100   4.974   3.525
 1866SOL    HW2 6498   6.249   4.983   3.591
 1867SOL     OW 6499   1.032   3.820   0.201
 1867SOL    HW1 6500   1.009   3.748   0.267
 1867SOL    HW2 6501   0.975   3.900   0.219
 1868SOL     OW 6502   4.788   3.811   6.695
 1868SOL    HW1 6503   4.776   3.834   6.599
 1868SOL    HW2 6504   4.706   3.767   6.730
 1869SOL     OW 6505   0.136   3.389   4.712
 1869SOL    HW1 6506   0.120   3.470   4.768
 1869SOL    HW2 6507   0.219   3.343   4.741
 1870SOL     OW 6508   1.641   3.073   5.122
 1870SOL    HW1 6509   1.637   2.988   5.174
 1870SOL    HW2 6510   1.565   3.076   5.057
 1871SOL     OW 6511   0.441   0.715   6.362
 1871SOL    HW1 6512   0.523   0.671   6.326
 1871SOL    HW2 6513   0.423   0.683   6.454
 1872SOL     OW 6514   4.528   2.092   0.367
 1872SOL    HW1 6515   4.445   2.086   0.311
 1872SOL    HW2 6516   4.606   2.060   0.313
 1873SOL     OW 6517   6.237   1.382   5.832
 1873SOL    HW1 6518   6.300   1.307   5.854
 1873SOL    HW2 6519   6.193   1.414   5.915
 1874SOL     OW 6520   2.228   1.091   6.995
 1874SOL    HW1 6521   2.202   1.122   6.903
 1874SOL    HW2 6522   2.297   1.019   6.987
 1875SOL     OW 6523   6.820   1.116   1.094
 1875SOL    HW1 6524   6.824   1.031   1.041
 1875SOL    HW2 6525   6.877   1.108   1.176
 1876SOL     OW 6526   3.580   6.406   5.919
 1876SOL    HW1 6527   3.675   6.377   5.907
 1876SOL    HW2 6528   3.528   6.332   5.962
 1877SOL     OW 6529   0.333   1.650   3.610
 1877SOL    HW1 6530   0.415   1.687   3.566
 1877SOL    HW2 6531   0.306   1.565   3.564
 1878SOL     OW 6532   6.800   2.807   4.262
 1878SOL    HW1 6533   6.767   2.814   4.168
 1878SOL    HW2 6534   6.872   2.874   4.278
 1879SOL     OW 6535   1.959   5.540   3.490
 1879SOL    HW1 6536   1.964   5.607   3.415
 1879SOL    HW2 6537   1.883   5.564   3.550
 1880SOL     OW 6538   0.228   1.850   3.787
 1880SOL    HW1 6539   0.138   1.883   3.759
 1880SOL    HW2 6540   0.259   1.779   3.724
 1881SOL     OW 6541   1.447   2.384   2.954
 1881SOL    HW1 6542   1.546   2.376   2.943
 1881SOL    HW2 6543   1.427   2.454   3.023
 1882SOL     OW 6544   0.975   4.044   6.545
 1882SOL    HW1 6545   0.956   3.996   6.460
 1882SOL    HW2 6546   0.893   4.093   6.575
 1883SOL     OW 6547   0.991   3.078   3.730
 1883SOL    HW1 6548   1.026   2.984   3.734
 1883SOL    HW2 6549   1.061   3.140   3.766
 1884SOL     OW 6550   6.178   2.761   0.190
 1884SOL    HW1 6551   6.127   2.715   0.118
 1884SOL    HW2 6552   6.152   2.723   0.279
 1885SOL     OW 6553   0.073   2.328   6.797
 1885SOL    HW1 6554   0.034   2.311   6.888
 1885SOL    HW2 6555   0.173   2.334   6.805
 1886SOL     OW 6556   2.088   1.204   1.312
 1886SOL    HW1 6557   2.001   1.176   1.270
 1886SOL    HW2 6558   2.079   1.295   1.352
 1887SOL     OW 6559   0.805   5.762   6.826
 1887SOL    HW1 6560   0.782   5.769   6.923
 1887SOL    HW2 6561   0.751   5.829   6.775
 1888SOL     OW 6562   2.772   2.308   6.665
 1888SOL    HW1 6563   2.866   2.334   6.685
 1888SOL    HW2 6564   2.754   2.217   6.704
 1889SOL     OW 6565   5.574   2.808   6.403
 1889SOL    HW1 6566   5.504   2.789   6.335
 1889SOL    HW2 6567   5.588   2.727   6.460
 1890SOL     OW 6568   1.494   5.808   5.355
 1890SOL    HW1 6569   1.426   5.811   5.282
 1890SOL    HW2 6570   1.478   5.884   5.419
 1891SOL     OW 6571   5.873   2.488   3.653
 1891SOL    HW1 6572   5.884   2.394   3.685
 1891SOL    HW2 6573   5.791   2.495   3.597
 1892SOL     OW 6574   3.890   0.794   0.495
 1892SOL    HW1 6575   3.828   0.725   0.530
 1892SOL    HW2 6576   3.959   0.815   0.565
 1893SOL     OW 6577   3.160   2.343   6.572
 1893SOL    HW1 6578   3.086   2.342   6.506
 1893SOL    HW2 6579   3.235   2.399   6.536
 1894SOL     OW 6580   3.484   3.513   3.001
 1894SOL    HW1 6581   3.559   3.448   2.983
 1894SOL    HW2 6582   3.406   3.463   3.039
 1895SOL     OW 6583   5.476   0.841   2.760
 1895SOL    HW1 6584   5.496   0.912   2.829
 1895SOL    HW2 6585   5.498   0.877   2.669
 1896SOL     OW 6586   0.747   0.701   2.732
 1896SOL    HW1 6587   0.776   0.659   2.647
 1896SOL    HW2 6588   0.678   0.644   2.776
 1897SOL     OW 6589   0.766   4.923   2.392
 1897SOL    HW1 6590   0.756   4.861   2.315
 1897SOL    HW2 6591   0.781   4.870   2.476
 1898SOL     OW 6592   3.498   4.884   2.337
 1898SOL    HW1 6593   3.431   4.822   2.377
 1898SOL    HW2 6594   3.585   4.875   2.386
 1899SOL     OW 6595   0.913   1.888   2.548
 1899SOL    HW1 6596   0.904   1.986   2.528
 1899SOL    HW2 6597   0.946   1.840   2.467
 1900SOL     OW 6598   1.337   0.247   5.666
 1900SOL    HW1 6599   1.309   0.187   5.741
 1900SOL    HW2 6600   1.346   0.341   5.700
 1901SOL     OW 6601   1.920   1.126   1.680
 1901SOL    HW1 6602   1.906   1.157   1.774
 1901SOL    HW2 6603   1.832   1.126   1.631
 1902SOL     OW 6604   1.973   2.377   5.028
 1902SOL    HW1 6605   1.982   2.430   5.112
 1902SOL    HW2 6606   1.877   2.353   5.014
 1903SOL     OW 6607   5.993   2.995   3.461
 1903SOL    HW1 6608   6.093   2.994   3.469
 1903SOL    HW2 6609   5.968   3.029   3.370
 1904SOL     OW 6610   6.022   6.629   4.815
 1904SOL    HW1 6611   6.009   6.619   4.717
 1904SOL    HW2 6612   5.949   6.580   4.863
 1905SOL     OW 6613   1.891   0.943   3.979
 1905SOL    HW1 6614   1.845   0.989   4.055
 1905SOL    HW2 6615   1.840   0.861   3.954
 1906SOL     OW 6616   2.637   0.108   5.183
 1906SOL    HW1 6617   2.661   0.147   5.094
 1906SOL    HW2 6618   2.649   0.176   5.254
 1907SOL     OW 6619   3.351   6.995   3.116
 1907SOL    HW1 6620   3.345   6.944   3.030
 1907SOL    HW2 6621   3.278   0.042   3.118
 1908SOL     OW 6622   4.058   0.379   4.972
 1908SOL    HW1 6623   3.978   0.359   5.029
 1908SOL    HW2 6624   4.027   0.410   4.882
 1909SOL     OW 6625   1.044   4.117   2.491
 1909SOL    HW1 6626   1.123   4.146   2.545
 1909SOL    HW2 6627   1.067   4.033   2.442
 1910SOL     OW 6628   0.211   2.766   6.475
 1910SOL    HW1 6629   0.149   2.794   6.402
 1910SOL    HW2 6630   0.161   2.716   6.545
 1911SOL     OW 6631   5.712   3.538   4.937
 1911SOL    HW1 6632   5.806   3.505   4.927
 1911SOL    HW2 6633   5.705   3.629   4.897
 1912SOL     OW 6634   2.789   0.052   0.867
 1912SOL    HW1 6635   2.730   0.091   0.796
 1912SOL    HW2 6636   2.873   0.106   0.874
 1913SOL     OW 6637   1.126   5.713   5.028
 1913SOL    HW1 6638   1.076   5.720   4.942
 1913SOL    HW2 6639   1.065   5.683   5.101
 1914SOL     OW 6640   3.668   2.916   6.365
 1914SOL    HW1 6641   3.607   2.965   6.302
 1914SOL    HW2 6642   3.643   2.939   6.459
 1915SOL     OW 6643   3.443   2.002   5.352
 1915SOL    HW1 6644   3.406   2.017   5.261
 1915SOL    HW2 6645   3.540   1.977   5.345
 1916SOL     OW 6646   3.105   5.712   1.192
 1916SOL    HW1 6647   3.167   5.789   1.179
 1916SOL    HW2 6648   3.155   5.635   1.232
 1917SOL     OW 6649   2.964   3.291   4.990
 1917SOL    HW1 6650   3.013   3.362   5.040
 1917SOL    HW2 6651   2.972   3.204   5.039
 1918SOL     OW 6652   1.017   1.499   6.325
 1918SOL    HW1 6653   1.055   1.428   6.266
 1918SOL    HW2 6654   0.921   1.479   6.344
 1919SOL     OW 6655   2.494   0.326   1.379
 1919SOL    HW1 6656   2.479   0.272   1.461
 1919SOL    HW2 6657   2.411   0.379   1.358
 1920SOL     OW 6658   1.989   4.784   2.490
 1920SOL    HW1 6659   1.905   4.831   2.464
 1920SOL    HW2 6660   2.067   4.846   2.478
 1921SOL     OW 6661   1.433   5.047   0.590
 1921SOL    HW1 6662   1.451   5.026   0.494
 1921SOL    HW2 6663   1.440   5.146   0.604
 1922SOL     OW 6664   2.665   4.363   0.601
 1922SOL    HW1 6665   2.672   4.420   0.519
 1922SOL    HW2 6666   2.718   4.279   0.588
 1923SOL     OW 6667   3.170   0.762   5.802
 1923SOL    HW1 6668   3.169   0.711   5.716
 1923SOL    HW2 6669   3.198   0.701   5.876
 1924SOL     OW 6670   4.718   5.234   1.635
 1924SOL    HW1 6671   4.647   5.170   1.607
 1924SOL    HW2 6672   4.788   5.186   1.688
 1925SOL     OW 6673   1.444   4.043   0.286
 1925SOL    HW1 6674   1.542   4.062   0.284
 1925SOL    HW2 6675   1.428   3.956   0.333
 1926SOL     OW 6676   1.851   6.316   2.882
 1926SOL    HW1 6677   1.826   6.399   2.931
 1926SOL    HW2 6678   1.850   6.238   2.945
 1927SOL     OW 6679   3.051   4.242   6.350
 1927SOL    HW1 6680   2.970   4.187   6.329
 1927SOL    HW2 6681   3.072   4.301   6.272
 1928SOL     OW 6682   6.394   4.492   5.916
 1928SOL    HW1 6683   6.355   4.534   5.834
 1928SOL    HW2 6684   6.366   4.545   5.996
 1929SOL     OW 6685   1.149   5.237   1.403
 1929SOL    HW1 6686   1.064   5.289   1.391
 1929SOL    HW2 6687   1.146   5.155   1.345
 1930SOL     OW 6688   3.708   3.923   6.860
 1930SOL    HW1 6689   3.623   3.975   6.854
 1930SOL    HW2 6690   3.692   3.829   6.828
 1931SOL     OW 6691   0.599   3.022   2.428
 1931SOL    HW1 6692   0.529   3.068   2.483
 1931SOL    HW2 6693   0.659   2.970   2.488
 1932SOL     OW 6694   4.873   3.471   3.473
 1932SOL    HW1 6695   4.891   3.432   3.564
 1932SOL    HW2 6696   4.873   3.398   3.405
 1933SOL     OW 6697   2.214   4.442   0.583
 1933SOL    HW1 6698   2.238   4.381   0.507
 1933SOL    HW2 6699   2.271   4.422   0.662
 1934SOL     OW 6700   0.643   0.404   5.373
 1934SOL    HW1 6701   0.721   0.463   5.352
 1934SOL    HW2 6702   0.641   0.327   5.309
 1935SOL     OW 6703   4.026   6.444   4.038
 1935SOL    HW1 6704   3.947   6.439   4.100
 1935SOL    HW2 6705   4.016   6.523   3.978
 1936SOL     OW 6706   6.195   3.726   3.830
 1936SOL    HW1 6707   6.203   3.791   3.754
 1936SOL    HW2 6708   6.256   3.648   3.813
 1937SOL     OW 6709   4.146   0.079   1.084
 1937SOL    HW1 6710   4.157   0.010   1.013
 1937SOL    HW2 6711   4.049   0.090   1.106
 1938SOL     OW 6712   2.077   1.523   1.299
 1938SOL    HW1 6713   2.160   1.541   1.246
 1938SOL    HW2 6714   2.077   1.581   1.381
 1939SOL     OW 6715   6.915   0.422   4.690
 1939SOL    HW1 6716   6.958   0.508   4.718
 1939SOL    HW2 6717   6.952   0.394   4.601
 1940SOL     OW 6718   5.028   4.851   0.643
 1940SOL    HW1 6719   5.095   4.790   0.600
 1940SOL    HW2 6720   5.070   4.898   0.721
 1941SOL     OW 6721   0.387   4.379   3.436
 1941SOL    HW1 6722   0.389   4.479   3.431
 1941SOL    HW2 6723   0.346   4.351   3.523
 1942SOL     OW 6724   5.529   0.809   1.188
 1942SOL    HW1 6725   5.625   0.826   1.207
 1942SOL    HW2 6726   5.475   0.823   1.271
 1943SOL     OW 6727   2.844   6.315   2.688
 1943SOL    HW1 6728   2.881   6.258   2.615
 1943SOL    HW2 6729   2.919   6.347   2.747
 1944SOL     OW 6730   6.325   2.366   0.195
 1944SOL    HW1 6731   6.400   2.330   0.250
 1944SOL    HW2 6732   6.361   2.407   0.111
 1945SOL     OW 6733   3.123   5.947   1.562
 1945SOL    HW1 6734   3.065   5.867   1.550
 1945SOL    HW2 6735   3.127   5.999   1.476
 1946SOL     OW 6736   6.393   6.927   1.583
 1946SOL    HW1 6737   6.427   6.927   1.677
 1946SOL    HW2 6738   6.470   6.937   1.520
 1947SOL     OW 6739   5.262   6.568   4.936
 1947SOL    HW1 6740   5.232   6.600   4.846
 1947SOL    HW2 6741   5.188   6.582   5.002
 1948SOL     OW 6742   5.188   5.466   4.154
 1948SOL    HW1 6743   5.209   5.441   4.059
 1948SOL    HW2 6744   5.260   5.432   4.214
 1949SOL     OW 6745   3.266   4.576   6.126
 1949SOL    HW1 6746   3.257   4.676   6.128
 1949SOL    HW2 6747   3.361   4.552   6.106
 1950SOL     OW 6748   3.803   4.320   6.985
 1950SOL    HW1 6749   3.715   4.279   7.009
 1950SOL    HW2 6750   3.788   4.401   6.928
 1951SOL     OW 6751   6.188   3.159   6.811
 1951SOL    HW1 6752   6.130   3.102   6.869
 1951SOL    HW2 6753   6.211   3.244   6.860
 1952SOL     OW 6754   4.942   2.720   0.421
 1952SOL    HW1 6755   4.945   2.705   0.322
 1952SOL    HW2 6756   5.029   2.693   0.461
 1953SOL     OW 6757   6.543   1.536   6.041
 1953SOL    HW1 6758   6.511   1.539   5.947
 1953SOL    HW2 6759   6.496   1.606   6.095
 1954SOL     OW 6760   5.624   0.510   3.492
 1954SOL    HW1 6761   5.634   0.414   3.465
 1954SOL    HW2 6762   5.529   0.537   3.484
 1955SOL     OW 6763   0.737   1.894   3.130
 1955SOL    HW1 6764   0.826   1.900   3.085
 1955SOL    HW2 6765   0.667   1.932   3.070
 1956SOL     OW 6766   5.236   6.639   2.887
 1956SOL    HW1 6767   5.145   6.680   2.878
 1956SOL    HW2 6768   5.302   6.710   2.912
 1957SOL     OW 6769   5.966   4.681   4.056
 1957SOL    HW1 6770   5.869   4.665   4.068
 1957SOL    HW2 6771   5.997   4.751   4.120
 1958SOL     OW 6772   4.733   2.391   2.403
 1958SOL    HW1 6773   4.832   2.405   2.399
 1958SOL    HW2 6774   4.712   2.321   2.472
 1959SOL     OW 6775   0.688   0.939   5.363
 1959SOL    HW1 6776   0.618   0.880   5.323
 1959SOL    HW2 6777   0.724   1.001   5.293
 1960SOL     OW 6778   6.919   4.568   2.178
 1960SOL    HW1 6779   6.925   4.508   2.098
 1960SOL    HW2 6780   6.927   4.663   2.150
 1961SOL     OW 6781   6.027   4.210   4.036
 1961SOL    HW1 6782   6.029   4.235   3.939
 1961SOL    HW2 6783   5.989   4.118   4.046
 1962SOL     OW 6784   1.334   6.463   4.027
 1962SOL    HW1 6785   1.246   6.511   4.028
 1962SOL    HW2 6786   1.356   6.431   4.119
 1963SOL     OW 6787   0.674   1.957   1.330
 1963SOL    HW1 6788   0.707   1.952   1.424
 1963SOL    HW2 6789   0.592   1.902   1.320
 1964SOL     OW 6790   4.344   4.684   0.848
 1964SOL    HW1 6791   4.433   4.716   0.882
 1964SOL    HW2 6792   4.293   4.641   0.922
 1965SOL     OW 6793   1.482   2.997   4.896
 1965SOL    HW1 6794   1.407   2.934   4.916
 1965SOL    HW2 6795   1.531   2.966   4.815
 1966SOL     OW 6796   6.660   6.497   0.770
 1966SOL    HW1 6797   6.691   6.507   0.676
 1966SOL    HW2 6798   6.604   6.415   0.778
 1967SOL     OW 6799   5.311   2.437   5.818
 1967SOL    HW1 6800   5.219   2.475   5.821
 1967SOL    HW2 6801   5.331   2.404   5.726
 1968SOL     OW 6802   1.980   6.889   6.267
 1968SOL    HW1 6803   1.908   6.941   6.220
 1968SOL    HW2 6804   1.940   6.844   6.347
 1969SOL     OW 6805   0.786   1.494   1.806
 1969SOL    HW1 6806   0.799   1.395   1.801
 1969SOL    HW2 6807   0.692   1.514   1.834
 1970SOL     OW 6808   2.637   6.400   6.091
 1970SOL    HW1 6809   2.673   6.486   6.054
 1970SOL    HW2 6810   2.646   6.328   6.023
 1971SOL     OW 6811   0.173   0.438   5.295
 1971SOL    HW1 6812   0.242   0.412   5.227
 1971SOL    HW2 6813   0.094   0.378   5.286
 1972SOL     OW 6814   5.542   2.136   2.057
 1972SOL    HW1 6815   5.554   2.073   1.981
 1972SOL    HW2 6816   5.480   2.210   2.030
 1973SOL     OW 6817   3.455   2.681   6.947
 1973SOL    HW1 6818   3.503   2.648   6.867
 1973SOL    HW2 6819   3.419   2.773   6.929
 1974SOL     OW 6820   6.118   6.672   5.150
 1974SOL    HW1 6821   6.060   6.724   5.212
 1974SOL    HW2 6822   6.141   6.728   5.071
 1975SOL     OW 6823   2.187   1.423   3.718
 1975SOL    HW1 6824   2.271   1.374   3.699
 1975SOL    HW2 6825   2.195   1.470   3.806
 1976SOL     OW 6826   0.325   6.843   0.461
 1976SOL    HW1 6827   0.227   6.862   0.467
 1976SOL    HW2 6828   0.373   6.888   0.536
 1977SOL     OW 6829   1.060   2.809   4.898
 1977SOL    HW1 6830   1.107   2.848   4.977
 1977SOL    HW2 6831   0.969   2.850   4.890
 1978SOL     OW 6832   1.967   6.611   2.831
 1978SOL    HW1 6833   1.912   6.692   2.809
 1978SOL    HW2 6834   1.991   6.563   2.747
 1979SOL     OW 6835   6.049   4.274   6.149
 1979SOL    HW1 6836   6.132   4.279   6.204
 1979SOL    HW2 6837   6.013   4.181   6.150
 1980SOL     OW 6838   3.362   6.972   4.806
 1980SOL    HW1 6839   3.298   6.982   4.881
 1980SOL    HW2 6840   3.386   0.040   4.770
 1981SOL     OW 6841   6.961   2.314   2.442
 1981SOL    HW1 6842   0.019   2.256   2.426
 1981SOL    HW2 6843   6.901   2.270   2.509
 1982SOL     OW 6844   0.083   4.216   4.965
 1982SOL    HW1 6845   0.178   4.232   4.939
 1982SOL    HW2 6846   0.029   4.298   4.945
 1983SOL     OW 6847   1.101   1.226   2.749
 1983SOL    HW1 6848   1.142   1.139   2.723
 1983SOL    HW2 6849   1.106   1.290   2.672
 1984SOL     OW 6850   5.395   1.558   5.064
 1984SOL    HW1 6851   5.348   1.560   5.153
 1984SOL    HW2 6852   5.388   1.648   5.021
 1985SOL     OW 6853   1.346   6.289   1.955
 1985SOL    HW1 6854   1.308   6.256   1.868
 1985SOL    HW2 6855   1.441   6.261   1.962
 1986SOL     OW 6856   1.955   1.757   6.944
 1986SOL    HW1 6857   1.924   1.819   7.017
 1986SOL    HW2 6858   2.016   1.688   6.983
 1987SOL     OW 6859   1.928   2.544   2.546
 1987SOL    HW1 6860   1.899   2.451   2.521
 1987SOL    HW2 6861   1.964   2.591   2.465
 1988SOL     OW 6862   6.294   4.145   0.739
 1988SOL    HW1 6863   6.265   4.168   0.832
 1988SOL    HW2 6864   6.337   4.224   0.697
 1989SOL     OW 6865   2.103   5.329   5.239
 1989SOL    HW1 6866   2.070   5.404   5.296
 1989SOL    HW2 6867   2.138   5.366   5.153
 1990SOL     OW 6868   3.841   6.068   0.311
 1990SOL    HW1 6869   3.870   6.157   0.344
 1990SOL    HW2 6870   3.797   6.077   0.222
 1991SOL     OW 6871   3.436   5.272   6.882
 1991SOL    HW1 6872   3.527   5.310   6.863
 1991SOL    HW2 6873   3.445   5.196   6.947
 1992SOL     OW 6874   0.756   0.678   0.263
 1992SOL    HW1 6875   0.722   0.634   0.346
 1992SOL    HW2 6876   0.851   0.706   0.277
 1993SOL     OW 6877   3.577   2.620   5.356
 1993SOL    HW1 6878   3.587   2.520   5.354
 1993SOL    HW2 6879   3.522   2.646   5.435
 1994SOL     OW 6880   0.802   1.606   0.492
 1994SOL    HW1 6881   0.759   1.516   0.496
 1994SOL    HW2 6882   0.898   1.599   0.517
 1995SOL     OW 6883   5.191   2.327   3.706
 1995SOL    HW1 6884   5.097   2.358   3.721
 1995SOL    HW2 6885   5.208   2.321   3.608
 1996SOL     OW 6886   1.744   3.698   0.727
 1996SOL    HW1 6887   1.822   3.752   0.693
 1996SOL    HW2 6888   1.662   3.724   0.676
 1997SOL     OW 6889   3.522   1.058   4.549
 1997SOL    HW1 6890   3.560   1.150   4.558
 1997SOL    HW2 6891   3.535   1.008   4.634
 1998SOL     OW 6892   2.334   4.240   6.844
 1998SOL    HW1 6893   2.359   4.321   6.896
 1998SOL    HW2 6894   2.241   4.251   6.808
 1999SOL     OW 6895   2.464   6.495   6.812
 1999SOL    HW1 6896   2.387   6.521   6.870
 1999SOL    HW2 6897   2.519   6.426   6.859
 2000SOL     OW 6898   4.337   2.286   5.234
 2000SOL    HW1 6899   4.396   2.335   5.298
 2000SOL    HW2 6900   4.258   2.344   5.212
 2001SOL     OW 6901   3.593   0.748   1.677
 2001SOL    HW1 6902   3.649   0.688   1.734
 2001SOL    HW2 6903   3.638   0.762   1.589
 2002SOL     OW 6904   0.128   5.014   6.598
 2002SOL    HW1 6905   0.140   4.919   6.569
 2002SOL    HW2 6906   0.210   5.066   6.577
 2003SOL     OW 6907   6.203   5.635   2.659
 2003SOL    HW1 6908   6.295   5.663   2.687
 2003SOL    HW2 6909   6.137   5.664   2.728
 2004SOL     OW 6910   5.043   1.539   5.244
 2004SOL    HW1 6911   5.135   1.571   5.267
 2004SOL    HW2 6912   4.975   1.607   5.272
 2005SOL     OW 6913   0.426   5.175   0.254
 2005SOL    HW1 6914   0.422   5.272   0.231
 2005SOL    HW2 6915   0.339   5.146   0.294
 2006SOL     OW 6916   5.463   6.696   3.813
 2006SOL    HW1 6917   5.413   6.703   3.727
 2006SOL    HW2 6918   5.406   6.733   3.887
 2007SOL     OW 6919   4.874   4.738   0.921
 2007SOL    HW1 6920   4.884   4.711   1.017
 2007SOL    HW2 6921   4.907   4.664   0.862
 2008SOL     OW 6922   2.434   4.803   3.929
 2008SOL    HW1 6923   2.480   4.862   3.995
 2008SOL    HW2 6924   2.340   4.786   3.959
 2009SOL     OW 6925   5.715   0.862   2.337
 2009SOL    HW1 6926   5.663   0.827   2.260
 2009SOL    HW2 6927   5.776   0.791   2.371
 2010SOL     OW 6928   1.937   2.014   1.205
 2010SOL    HW1 6929   1.913   1.920   1.232
 2010SOL    HW2 6930   1.854   2.063   1.178
 2011SOL     OW 6931   6.605   6.193   4.682
 2011SOL    HW1 6932   6.544   6.114   4.673
 2011SOL    HW2 6933   6.687   6.179   4.627
 2012SOL     OW 6934   1.411   3.987   2.372
 2012SOL    HW1 6935   1.429   4.086   2.370
 2012SOL    HW2 6936   1.488   3.941   2.416
 2013SOL     OW 6937   6.439   2.387   3.233
 2013SOL    HW1 6938   6.416   2.404   3.329
 2013SOL    HW2 6939   6.357   2.402   3.177
 2014SOL     OW 6940   2.549   5.438   3.754
 2014SOL    HW1 6941   2.573   5.454   3.658
 2014SOL    HW2 6942   2.491   5.357   3.760
 2015SOL     OW 6943   1.943   0.776   0.122
 2015SOL    HW1 6944   1.891   0.784   0.207
 2015SOL    HW2 6945   1.895   0.715   0.059
 2016SOL     OW 6946   1.414   6.230   5.867
 2016SOL    HW1 6947   1.332   6.284   5.852
 2016SOL    HW2 6948   1.391   6.132   5.861
 2017SOL     OW 6949   3.545   6.686   4.649
 2017SOL    HW1 6950   3.581   6.624   4.580
 2017SOL    HW2 6951   3.579   6.779   4.631
 2018SOL     OW 6952   5.436   0.818   5.894
 2018SOL    HW1 6953   5.431   0.719   5.898
 2018SOL    HW2 6954   5.362   0.858   5.949
 2019SOL     OW 6955   5.364   2.991   6.467
 2019SOL    HW1 6956   5.297   2.960   6.534
 2019SOL    HW2 6957   5.439   2.926   6.460
 2020SOL     OW 6958   1.412   6.103   5.529
 2020SOL    HW1 6959   1.464   6.129   5.610
 2020SOL    HW2 6960   1.425   6.173   5.458
 2021SOL     OW 6961   0.373   5.972   4.456
 2021SOL    HW1 6962   0.455   5.960   4.511
 2021SOL    HW2 6963   0.388   6.047   4.391
 2022SOL     OW 6964   1.769   3.549   3.412
 2022SOL    HW1 6965   1.803   3.480   3.476
 2022SOL    HW2 6966   1.761   3.637   3.460
 2023SOL     OW 6967   6.557   0.975   6.753
 2023SOL    HW1 6968   6.579   0.913   6.828
 2023SOL    HW2 6969   6.470   1.020   6.771
 2024SOL     OW 6970   0.228   6.639   3.670
 2024SOL    HW1 6971   0.142   6.634   3.620
 2024SOL    HW2 6972   0.304   6.648   3.606
 2025SOL     OW 6973   2.871   1.619   3.001
 2025SOL    HW1 6974   2.876   1.707   2.954
 2025SOL    HW2 6975   2.944   1.614   3.069
 2026SOL     OW 6976   0.060   2.881   5.450
 2026SOL    HW1 6977   0.123   2.817   5.494
 2026SOL    HW2 6978   0.096   2.974   5.457
 2027SOL     OW 6979   1.157   6.840   0.103
 2027SOL    HW1 6980   1.063   6.807   0.089
 2027SOL    HW2 6981   1.154   6.926   0.153
 2028SOL     OW 6982   3.157   6.400   4.978
 2028SOL    HW1 6983   3.217   6.447   5.042
 2028SOL    HW2 6984   3.099   6.335   5.028
 2029SOL     OW 6985   6.719   1.078   0.760
 2029SOL    HW1 6986   6.702   1.029   0.846
 2029SOL    HW2 6987   6.786   1.150   0.776
 2030SOL     OW 6988   2.768   0.904   3.176
 2030SOL    HW1 6989   2.726   0.988   3.211
 2030SOL    HW2 6990   2.727   0.880   3.088
 2031SOL     OW 6991   6.318   6.113   1.261
 2031SOL    HW1 6992   6.358   6.117   1.353
 2031SOL    HW2 6993   6.382   6.150   1.195
 2032SOL     OW 6994   4.703   0.331   2.195
 2032SOL    HW1 6995   4.750   0.251   2.160
 2032SOL    HW2 6996   4.769   0.395   2.235
 2033SOL     OW 6997   3.173   3.882   5.899
 2033SOL    HW1 6998   3.139   3.872   5.993
 2033SOL    HW2 6999   3.267   3.916   5.902
 2034SOL     OW 7000   2.631   5.704   5.605
 2034SOL    HW1 7001   2.593   5.770   5.541
 2034SOL    HW2 7002   2.635   5.614   5.562
 2035SOL     OW 7003   6.836   6.518   3.774
 2035SOL    HW1 7004   6.893   6.472   3.842
 2035SOL    HW2 7005   6.864   6.490   3.683
 2036SOL     OW 7006   1.298   4.242   2.605
 2036SOL    HW1 7007   1.345   4.207   2.686
 2036SOL    HW2 7008   1.243   4.322   2.630
 2037SOL     OW 7009   6.884   3.156   5.568
 2037SOL    HW1 7010   6.882   3.231   5.633
 2037SOL    HW2 7011   6.966   3.162   5.511
 2038SOL     OW 7012   1.719   2.867   0.067
 2038SOL    HW1 7013   1.689   2.860   0.162
 2038SOL    HW2 7014   1.674   2.945   0.023
 2039SOL     OW 7015   0.231   5.278   4.144
 2039SOL    HW1 7016   0.276   5.269   4.233
 2039SOL    HW2 7017   0.236   5.373   4.113
 2040SOL     OW 7018   3.430   3.515   5.613
 2040SOL    HW1 7019   3.420   3.614   5.606
 2040SOL    HW2 7020   3.477   3.480   5.532
 2041SOL     OW 7021   0.723   6.103   5.775
 2041SOL    HW1 7022   0.721   6.134   5.680
 2041SOL    HW2 7023   0.644   6.141   5.823
 2042SOL     OW 7024   4.937   6.204   0.131
 2042SOL    HW1 7025   4.847   6.247   0.141
 2042SOL    HW2 7026   4.926   6.113   0.090
 2043SOL     OW 7027   6.701   3.651   3.344
 2043SOL    HW1 7028   6.673   3.648   3.249
 2043SOL    HW2 7029   6.658   3.729   3.389
 2044SOL     OW 7030   6.396   6.917   1.863
 2044SOL    HW1 7031   6.341   6.838   1.889
 2044SOL    HW2 7032   6.488   6.907   1.899
 2045SOL     OW 7033   1.562   5.069   3.957
 2045SOL    HW1 7034   1.483   5.015   3.927
 2045SOL    HW2 7035   1.627   5.010   4.004
 2046SOL     OW 7036   6.728   2.073   3.729
 2046SOL    HW1 7037   6.760   2.138   3.660
 2046SOL    HW2 7038   6.663   2.119   3.789
 2047SOL     OW 7039   6.926   2.705   6.805
 2047SOL    HW1 7040   6.828   2.686   6.797
 2047SOL    HW2 7041   6.946   2.797   6.771
 2048SOL     OW 7042   1.498   6.584   6.270
 2048SOL    HW1 7043   1.580   6.637   6.249
 2048SOL    HW2 7044   1.450   6.563   6.185
 2049SOL     OW 7045   6.730   1.622   4.740
 2049SOL    HW1 7046   6.683   1.676   4.670
 2049SOL    HW2 7047   6.783   1.682   4.800
 2050SOL     OW 7048   6.441   2.341   3.755
 2050SOL    HW1 7049   6.364   2.293   3.797
 2050SOL    HW2 7050   6.509   2.365   3.825
 2051SOL     OW 7051   1.209   5.672   6.920
 2051SOL    HW1 7052   1.176   5.632   7.006
 2051SOL    HW2 7053   1.170   5.764   6.910
 2052SOL     OW 7054   1.321   3.484   1.239
 2052SOL    HW1 7055   1.384   3.553   1.276
 2052SOL    HW2 7056   1.358   3.449   1.152
 2053SOL     OW 7057   6.255   6.328   4.015
 2053SOL    HW1 7058   6.209   6.326   3.926
 2053SOL    HW2 7059   6.190   6.305   4.087
 2054SOL     OW 7060   3.409   4.043   3.174
 2054SOL    HW1 7061   3.473   4.051   3.251
 2054SOL    HW2 7062   3.455   4.070   3.090
 2055SOL     OW 7063   6.001   3.897   3.994
 2055SOL    HW1 7064   5.924   3.932   3.942
 2055SOL    HW2 7065   6.036   3.814   3.951
 2056SOL     OW 7066   4.090   5.762   2.478
 2056SOL    HW1 7067   3.998   5.723   2.484
 2056SOL    HW2 7068   4.112   5.808   2.564
 2057SOL     OW 7069   5.282   4.646   5.834
 2057SOL    HW1 7070   5.202   4.701   5.859
 2057SOL    HW2 7071   5.251   4.557   5.800
 2058SOL     OW 7072   0.585   1.276   3.279
 2058SOL    HW1 7073   0.589   1.179   3.256
 2058SOL    HW2 7074   0.654   1.326   3.227
 2059SOL     OW 7075   1.604   6.012   6.664
 2059SOL    HW1 7076   1.653   6.085   6.615
 2059SOL    HW2 7077   1.527   6.052   6.714
 2060SOL     OW 7078   0.521   4.528   1.599
 2060SOL    HW1 7079   0.589   4.590   1.560
 2060SOL    HW2 7080   0.492   4.562   1.689
 2061SOL     OW 7081   1.285   1.863   2.670
 2061SOL    HW1 7082   1.261   1.862   2.573
 2061SOL    HW2 7083   1.208   1.831   2.724
 2062SOL     OW 7084   6.158   5.556   4.754
 2062SOL    HW1 7085   6.156   5.466   4.711
 2062SOL    HW2 7086   6.172   5.546   4.852
 2063SOL     OW 7087   1.715   6.709   6.244
 2063SOL    HW1 7088   1.742   6.719   6.148
 2063SOL    HW2 7089   1.695   6.799   6.282
 2064SOL     OW 7090   0.582   2.638   5.631
 2064SOL    HW1 7091   0.601   2.732   5.603
 2064SOL    HW2 7092   0.496   2.635   5.682
 2065SOL     OW 7093   6.271   2.446   5.574
 2065SOL    HW1 7094   6.294   2.522   5.513
 2065SOL    HW2 7095   6.189   2.399   5.541
 2066SOL     OW 7096   0.868   4.570   4.235
 2066SOL    HW1 7097   0.810   4.651   4.241
 2066SOL    HW2 7098   0.867   4.520   4.321
 2067SOL     OW 7099   6.386   5.658   1.253
 2067SOL    HW1 7100   6.388   5.696   1.345
 2067SOL    HW2 7101   6.434   5.570   1.252
 2068SOL     OW 7102   2.395   0.036   4.307
 2068SOL    HW1 7103   2.399   0.046   4.406
 2068SOL    HW2 7104   2.380   0.125   4.265
 2069SOL     OW 7105   6.639   1.800   3.718
 2069SOL    HW1 7106   6.577   1.807   3.796
 2069SOL    HW2 7107   6.681   1.889   3.701
 2070SOL     OW 7108   0.862   0.999   1.336
 2070SOL    HW1 7109   0.819   1.066   1.397
 2070SOL    HW2 7110   0.956   0.983   1.363
 2071SOL     OW 7111   6.341   0.420   5.872
 2071SOL    HW1 7112   6.402   0.407   5.793
 2071SOL    HW2 7113   6.341   0.337   5.928
 2072SOL     OW 7114   4.553   5.766   4.107
 2072SOL    HW1 7115   4.629   5.701   4.115
 2072SOL    HW2 7116   4.535   5.784   4.011
 2073SOL     OW 7117   4.653   6.959   5.181
 2073SOL    HW1 7118   4.614   6.995   5.265
 2073SOL    HW2 7119   4.587   6.971   5.106
 2074SOL     OW 7120   1.932   2.590   6.554
 2074SOL    HW1 7121   1.864   2.534   6.601
 2074SOL    HW2 7122   1.950   2.673   6.607
 2075SOL     OW 7123   0.028   2.486   3.159
 2075SOL    HW1 7124   0.102   2.472   3.093
 2075SOL    HW2 7125   0.065   2.522   3.244
 2076SOL     OW 7126   5.951   0.208   6.148
 2076SOL    HW1 7127   5.968   0.136   6.217
 2076SOL    HW2 7128   5.924   0.165   6.062
 2077SOL     OW 7129   5.740   1.900   3.277
 2077SOL    HW1 7130   5.832   1.937   3.288
 2077SOL    HW2 7131   5.673   1.964   3.314
 2078SOL     OW 7132   1.400   5.937   5.851
 2078SOL    HW1 7133   1.384   5.851   5.900
 2078SOL    HW2 7134   1.492   5.937   5.812
 2079SOL     OW 7135   5.732   1.775   3.029
 2079SOL    HW1 7136   5.717   1.813   3.120
 2079SOL    HW2 7137   5.656   1.714   3.006
 2080SOL     OW 7138   1.871   0.161   5.022
 2080SOL    HW1 7139   1.953   0.159   5.080
 2080SOL    HW2 7140   1.891   0.116   4.935
 2081SOL     OW 7141   1.043   5.915   4.533
 2081SOL    HW1 7142   1.034   6.010   4.563
 2081SOL    HW2 7143   0.958   5.886   4.488
 2082SOL     OW 7144   0.595   6.663   3.282
 2082SOL    HW1 7145   0.536   6.658   3.202
 2082SOL    HW2 7146   0.681   6.707   3.258
 2083SOL     OW 7147   0.390   4.726   5.845
 2083SOL    HW1 7148   0.359   4.803   5.901
 2083SOL    HW2 7149   0.377   4.747   5.748
 2084SOL     OW 7150   0.687   4.543   3.317
 2084SOL    HW1 7151   0.715   4.483   3.391
 2084SOL    HW2 7152   0.732   4.514   3.232
 2085SOL     OW 7153   4.637   1.115   0.306
 2085SOL    HW1 7154   4.566   1.046   0.311
 2085SOL    HW2 7155   4.675   1.117   0.214
 2086SOL     OW 7156   3.589   6.730   6.493
 2086SOL    HW1 7157   3.502   6.774   6.470
 2086SOL    HW2 7158   3.660   6.764   6.431
 2087SOL     OW 7159   4.844   0.730   1.316
 2087SOL    HW1 7160   4.839   0.795   1.240
 2087SOL    HW2 7161   4.897   0.770   1.391
 2088SOL     OW 7162   1.354   5.575   6.730
 2088SOL    HW1 7163   1.356   5.629   6.646
 2088SOL    HW2 7164   1.310   5.628   6.802
 2089SOL     OW 7165   5.061   3.156   5.765
 2089SOL    HW1 7166   4.990   3.088   5.784
 2089SOL    HW2 7167   5.094   3.145   5.672
 2090SOL     OW 7168   4.373   3.685   5.874
 2090SOL    HW1 7169   4.409   3.642   5.791
 2090SOL    HW2 7170   4.278   3.710   5.860
 2091SOL     OW 7171   0.365   5.110   0.765
 2091SOL    HW1 7172   0.437   5.138   0.702
 2091SOL    HW2 7173   0.326   5.190   0.810
 2092SOL     OW 7174   5.523   3.905   0.032
 2092SOL    HW1 7175   5.488   3.907   6.960
 2092SOL    HW2 7176   5.496   3.819   0.076
 2093SOL     OW 7177   2.582   2.151   1.093
 2093SOL    HW1 7178   2.584   2.232   1.152
 2093SOL    HW2 7179   2.649   2.084   1.126
 2094SOL     OW 7180   5.726   1.444   2.693
 2094SOL    HW1 7181   5.627   1.458   2.684
 2094SOL    HW2 7182   5.770   1.530   2.717
 2095SOL     OW 7183   6.528   0.140   5.341
 2095SOL    HW1 7184   6.554   0.189   5.258
 2095SOL    HW2 7185   6.523   0.042   5.322
 2096SOL     OW 7186   4.804   4.046   2.823
 2096SOL    HW1 7187   4.731   4.069   2.758
 2096SOL    HW2 7188   4.832   3.951   2.809
 2097SOL     OW 7189   2.765   3.560   6.246
 2097SOL    HW1 7190   2.733   3.518   6.332
 2097SOL    HW2 7191   2.855   3.600   6.260
 2098SOL     OW 7192   4.299   6.331   1.818
 2098SOL    HW1 7193   4.313   6.424   1.781
 2098SOL    HW2 7194   4.258   6.273   1.748
 2099SOL     OW 7195   3.653   2.045   6.402
 2099SOL    HW1 7196   3.671   2.129   6.453
 2099SOL    HW2 7197   3.612   2.068   6.313
 2100SOL     OW 7198   4.728   2.031   0.153
 2100SOL    HW1 7199   4.708   2.071   0.063
 2100SOL    HW2 7200   4.746   1.933   0.143
 2101SOL     OW 7201   0.621   6.642   1.028
 2101SOL    HW1 7202   0.645   6.658   0.932
 2101SOL    HW2 7203   0.623   6.544   1.047
 2102SOL     OW 7204   5.188   4.431   2.503
 2102SOL    HW1 7205   5.198   4.390   2.412
 2102SOL    HW2 7206   5.102   4.400   2.544
 2103SOL     OW 7207   3.419   3.938   6.829
 2103SOL    HW1 7208   3.397   3.843   6.855
 2103SOL    HW2 7209   3.425   3.945   6.729
 2104SOL     OW 7210   1.343   4.393   1.941
 2104SOL    HW1 7211   1.411   4.343   1.887
 2104SOL    HW2 7212   1.305   4.332   2.011
 2105SOL     OW 7213   5.291   4.668   6.096
 2105SOL    HW1 7214   5.301   4.577   6.136
 2105SOL    HW2 7215   5.300   4.663   5.997
 2106SOL     OW 7216   5.528   3.244   0.743
 2106SOL    HW1 7217   5.611   3.295   0.722
 2106SOL    HW2 7218   5.541   3.193   0.828
 2107SOL     OW 7219   6.475   2.200   4.937
 2107SOL    HW1 7220   6.501   2.190   4.841
 2107SOL    HW2 7221   6.535   2.143   4.994
 2108SOL     OW 7222   6.016   5.214   5.221
 2108SOL    HW1 7223   5.980   5.280   5.155
 2108SOL    HW2 7224   5.940   5.170   5.269
 2109SOL     OW 7225   4.317   5.697   2.315
 2109SOL    HW1 7226   4.352   5.773   2.260
 2109SOL    HW2 7227   4.231   5.723   2.358
 2110SOL     OW 7228   2.669   0.755   0.468
 2110SOL    HW1 7229   2.734   0.687   0.502
 2110SOL    HW2 7230   2.602   0.710   0.409
 2111SOL     OW 7231   2.099   3.346   0.378
 2111SOL    HW1 7232   2.148   3.340   0.465
 2111SOL    HW2 7233   2.015   3.398   0.391
 2112SOL     OW 7234   5.149   2.430   0.805
 2112SOL    HW1 7235   5.197   2.517   0.809
 2112SOL    HW2 7236   5.216   2.356   0.796
 2113SOL     OW 7237   2.826   1.108   4.058
 2113SOL    HW1 7238   2.872   1.068   3.978
 2113SOL    HW2 7239   2.894   1.142   4.122
 2114SOL     OW 7240   2.457   1.952   6.665
 2114SOL    HW1 7241   2.405   1.877   6.623
 2114SOL    HW2 7242   2.544   1.963   6.617
 2115SOL     OW 7243   0.580   4.366   2.929
 2115SOL    HW1 7244   0.667   4.318   2.935
 2115SOL    HW2 7245   0.558   4.383   2.833
 2116SOL     OW 7246   0.403   4.112   2.773
 2116SOL    HW1 7247   0.478   4.050   2.750
 2116SOL    HW2 7248   0.405   4.133   2.871
 2117SOL     OW 7249   6.753   4.434   1.701
 2117SOL    HW1 7250   6.655   4.456   1.692
 2117SOL    HW2 7251   6.802   4.465   1.620
 2118SOL     OW 7252   6.312   2.975   3.073
 2118SOL    HW1 7253   6.251   2.947   3.147
 2118SOL    HW2 7254   6.404   2.941   3.091
 2119SOL     OW 7255   1.398   0.464   1.419
 2119SOL    HW1 7256   1.422   0.382   1.366
 2119SOL    HW2 7257   1.349   0.528   1.360
 2120SOL     OW 7258   0.475   4.190   3.257
 2120SOL    HW1 7259   0.446   4.249   3.182
 2120SOL    HW2 7260   0.468   4.239   3.344
 2121SOL     OW 7261   1.322   3.011   5.793
 2121SOL    HW1 7262   1.331   2.920   5.834
 2121SOL    HW2 7263   1.412   3.052   5.782
 2122SOL     OW 7264   5.743   5.241   6.199
 2122SOL    HW1 7265   5.811   5.253   6.127
 2122SOL    HW2 7266   5.724   5.329   6.242
 2123SOL     OW 7267   6.663   5.270   2.102
 2123SOL    HW1 7268   6.650   5.354   2.050
 2123SOL    HW2 7269   6.607   5.273   2.185
 2124SOL     OW 7270   3.039   1.850   1.117
 2124SOL    HW1 7271   3.037   1.916   1.192
 2124SOL    HW2 7272   3.077   1.763   1.151
 2125SOL     OW 7273   1.972   6.584   2.218
 2125SOL    HW1 7274   1.935   6.553   2.305
 2125SOL    HW2 7275   1.898   6.593   2.151
 2126SOL     OW 7276   3.692   2.256   6.569
 2126SOL    HW1 7277   3.694   2.347   6.529
 2126SOL    HW2 7278   3.660   2.261   6.664
 2127SOL     OW 7279   1.316   1.888   5.911
 2127SOL    HW1 7280   1.280   1.966   5.961
 2127SOL    HW2 7281   1.255   1.809   5.921
 2128SOL     OW 7282   6.148   2.784   3.242
 2128SOL    HW1 7283   6.076   2.774   3.310
 2128SOL    HW2 7284   6.237   2.772   3.285
 2129SOL     OW 7285   5.044   3.654   5.139
 2129SOL    HW1 7286   5.040   3.717   5.216
 2129SOL    HW2 7287   4.962   3.665   5.082
 2130SOL     OW 7288   3.498   7.012   2.782
 2130SOL    HW1 7289   3.433   0.031   2.718
 2130SOL    HW2 7290   3.457   6.933   2.826
 2131SOL     OW 7291   4.549   1.713   1.017
 2131SOL    HW1 7292   4.526   1.625   0.975
 2131SOL    HW2 7293   4.647   1.715   1.038
 2132SOL     OW 7294   3.435   1.213   0.741
 2132SOL    HW1 7295   3.423   1.220   0.642
 2132SOL    HW2 7296   3.408   1.122   0.771
 2133SOL     OW 7297   3.454   2.780   1.214
 2133SOL    HW1 7298   3.543   2.758   1.174
 2133SOL    HW2 7299   3.466   2.815   1.306
 2134SOL     OW 7300   1.266   0.888   4.619
 2134SOL    HW1 7301   1.191   0.905   4.555
 2134SOL    HW2 7302   1.351   0.875   4.567
 2135SOL     OW 7303   1.578   2.336   4.456
 2135SOL    HW1 7304   1.481   2.320   4.436
 2135SOL    HW2 7305   1.590   2.351   4.554
 2136SOL     OW 7306   0.866   3.850   4.507
 2136SOL    HW1 7307   0.818   3.810   4.586
 2136SOL    HW2 7308   0.919   3.930   4.538
 2137SOL     OW 7309   0.229   5.928   4.014
 2137SOL    HW1 7310   0.293   5.852   4.002
 2137SOL    HW2 7311   0.271   5.999   4.070
 2138SOL     OW 7312   0.144   1.054   1.801
 2138SOL    HW1 7313   0.172   1.124   1.735
 2138SOL    HW2 7314   0.196   1.065   1.886
 2139SOL     OW 7315   3.417   0.840   2.953
 2139SOL    HW1 7316   3.351   0.807   3.020
 2139SOL    HW2 7317   3.387   0.814   2.861
 2140SOL     OW 7318   3.498   5.859   3.493
 2140SOL    HW1 7319   3.526   5.952   3.471
 2140SOL    HW2 7320   3.453   5.858   3.583
 2141SOL     OW 7321   6.495   4.666   1.486
 2141SOL    HW1 7322   6.583   4.639   1.447
 2141SOL    HW2 7323   6.427   4.674   1.413
 2142SOL     OW 7324   1.156   1.758   3.164
 2142SOL    HW1 7325   1.228   1.827   3.170
 2142SOL    HW2 7326   1.197   1.667   3.170
 2143SOL     OW 7327   2.980   4.537   1.421
 2143SOL    HW1 7328   2.959   4.635   1.422
 2143SOL    HW2 7329   2.900   4.485   1.451
 2144SOL     OW 7330   1.218   5.564   3.360
 2144SOL    HW1 7331   1.219   5.481   3.305
 2144SOL    HW2 7332   1.130   5.610   3.349
 2145SOL     OW 7333   3.960   6.117   4.312
 2145SOL    HW1 7334   3.922   6.084   4.398
 2145SOL    HW2 7335   3.895   6.102   4.238
 2146SOL     OW 7336   2.538   3.960   1.408
 2146SOL    HW1 7337   2.443   3.929   1.398
 2146SOL    HW2 7338   2.598   3.880   1.411
 2147SOL     OW 7339   0.478   1.200   6.629
 2147SOL    HW1 7340   0.437   1.229   6.715
 2147SOL    HW2 7341   0.554   1.137   6.648
 2148SOL     OW 7342   5.204   2.765   4.495
 2148SOL    HW1 7343   5.250   2.854   4.505
 2148SOL    HW2 7344   5.265   2.702   4.447
 2149SOL     OW 7345   3.763   1.528   1.402
 2149SOL    HW1 7346   3.777   1.438   1.362
 2149SOL    HW2 7347   3.770   1.522   1.502
 2150SOL     OW 7348   2.601   2.076   2.152
 2150SOL    HW1 7349   2.657   2.047   2.074
 2150SOL    HW2 7350   2.622   2.019   2.231
 2151SOL     OW 7351   1.725   1.070   4.152
 2151SOL    HW1 7352   1.754   1.166   4.154
 2151SOL    HW2 7353   1.634   1.062   4.193
 2152SOL     OW 7354   3.695   6.732   1.201
 2152SOL    HW1 7355   3.738   6.691   1.120
 2152SOL    HW2 7356   3.733   6.691   1.284
 2153SOL     OW 7357   3.805   0.870   3.143
 2153SOL    HW1 7358   3.842   0.857   3.051
 2153SOL    HW2 7359   3.872   0.918   3.199
 2154SOL     OW 7360   5.274   0.387   4.854
 2154SOL    HW1 7361   5.307   0.480   4.868
 2154SOL    HW2 7362   5.207   0.387   4.780
 2155SOL     OW 7363   1.929   6.052   0.273
 2155SOL    HW1 7364   1.852   5.989   0.263
 2155SOL    HW2 7365   1.976   6.061   0.185
 2156SOL     OW 7366   2.222   0.772   3.075
 2156SOL    HW1 7367   2.194   0.694   3.131
 2156SOL    HW2 7368   2.188   0.857   3.115
 2157SOL     OW 7369   5.764   0.875   3.379
 2157SOL    HW1 7370   5.736   0.866   3.474
 2157SOL    HW2 7371   5.816   0.795   3.351
 2158SOL     OW 7372   3.612   6.328   1.144
 2158SOL    HW1 7373   3.609   6.409   1.086
 2158SOL    HW2 7374   3.573   6.349   1.233
 2159SOL     OW 7375   2.295   6.326   5.317
 2159SOL    HW1 7376   2.319   6.378   5.398
 2159SOL    HW2 7377   2.349   6.359   5.239
 2160SOL     OW 7378   4.745   3.395   0.862
 2160SOL    HW1 7379   4.825   3.449   0.888
 2160SOL    HW2 7380   4.727   3.327   0.933
 2161SOL     OW 7381   5.153   4.122   3.233
 2161SOL    HW1 7382   5.242   4.158   3.263
 2161SOL    HW2 7383   5.095   4.198   3.203
 2162SOL     OW 7384   2.633   1.048   0.452
 2162SOL    HW1 7385   2.651   1.071   0.547
 2162SOL    HW2 7386   2.630   0.949   0.441
 2163SOL     OW 7387   6.953   4.207   6.271
 2163SOL    HW1 7388   6.889   4.168   6.205
 2163SOL    HW2 7389   6.903   4.238   6.352
 2164SOL     OW 7390   1.796   3.155   0.357
 2164SOL    HW1 7391   1.699   3.170   0.377
 2164SOL    HW2 7392   1.812   3.167   0.259
 2165SOL     OW 7393   1.028   1.742   2.766
 2165SOL    HW1 7394   0.996   1.791   2.684
 2165SOL    HW2 7395   0.953   1.688   2.803
 2166SOL     OW 7396   1.798   2.688   5.474
 2166SOL    HW1 7397   1.737   2.749   5.524
 2166SOL    HW2 7398   1.783   2.594   5.506
 2167SOL     OW 7399   1.383   1.016   3.522
 2167SOL    HW1 7400   1.450   1.001   3.449
 2167SOL    HW2 7401   1.304   1.065   3.486
 2168SOL     OW 7402   0.895   1.672   3.621
 2168SOL    HW1 7403   0.979   1.696   3.572
 2168SOL    HW2 7404   0.869   1.748   3.682
 2169SOL     OW 7405   5.543   2.140   5.515
 2169SOL    HW1 7406   5.555   2.086   5.598
 2169SOL    HW2 7407   5.628   2.141   5.464
 2170SOL     OW 7408   6.446   5.116   5.421
 2170SOL    HW1 7409   6.378   5.103   5.493
 2170SOL    HW2 7410   6.411   5.180   5.353
 2171SOL     OW 7411   6.590   3.579   1.800
 2171SOL    HW1 7412   6.574   3.633   1.883
 2171SOL    HW2 7413   6.624   3.639   1.727
 2172SOL     OW 7414   2.396   2.330   0.306
 2172SOL    HW1 7415   2.407   2.303   0.401
 2172SOL    HW2 7416   2.459   2.277   0.249
 2173SOL     OW 7417   4.332   0.420   5.230
 2173SOL    HW1 7418   4.284   0.469   5.156
 2173SOL    HW2 7419   4.340   0.323   5.205
 2174SOL     OW 7420   5.615   5.163   5.725
 2174SOL    HW1 7421   5.703   5.115   5.731
 2174SOL    HW2 7422   5.560   5.143   5.805
 2175SOL     OW 7423   2.889   1.959   3.985
 2175SOL    HW1 7424   2.835   1.900   4.044
 2175SOL    HW2 7425   2.908   2.045   4.033
 2176SOL     OW 7426   0.592   3.322   6.964
 2176SOL    HW1 7427   0.497   3.291   6.962
 2176SOL    HW2 7428   0.652   3.243   6.953
 2177SOL     OW 7429   6.745   1.148   3.617
 2177SOL    HW1 7430   6.687   1.225   3.645
 2177SOL    HW2 7431   6.836   1.183   3.593
 2178SOL     OW 7432   0.753   3.772   6.998
 2178SOL    HW1 7433   0.796   3.746   0.062
 2178SOL    HW2 7434   0.725   3.690   6.948
 2179SOL     OW 7435   1.315   5.421   4.861
 2179SOL    HW1 7436   1.306   5.460   4.769
 2179SOL    HW2 7437   1.370   5.337   4.856
 2180SOL     OW 7438   2.514   3.458   1.670
 2180SOL    HW1 7439   2.577   3.388   1.705
 2180SOL    HW2 7440   2.453   3.487   1.744
 2181SOL     OW 7441   5.104   4.646   5.442
 2181SOL    HW1 7442   5.066   4.553   5.446
 2181SOL    HW2 7443   5.064   4.694   5.364
 2182SOL     OW 7444   6.854   3.041   5.135
 2182SOL    HW1 7445   6.883   3.011   5.044
 2182SOL    HW2 7446   6.868   2.967   5.201
 2183SOL     OW 7447   3.567   3.539   6.072
 2183SOL    HW1 7448   3.469   3.555   6.060
 2183SOL    HW2 7449   3.594   3.460   6.018
 2184SOL     OW 7450   4.199   1.620   5.589
 2184SOL    HW1 7451   4.158   1.649   5.675
 2184SOL    HW2 7452   4.262   1.544   5.606
 2185SOL     OW 7453   1.457   1.854   1.036
 2185SOL    HW1 7454   1.449   1.857   1.136
 2185SOL    HW2 7455   1.550   1.878   1.010
 2186SOL     OW 7456   6.580   5.227   1.816
 2186SOL    HW1 7457   6.603   5.199   1.723
 2186SOL    HW2 7458   6.645   5.185   1.880
 2187SOL     OW 7459   0.083   1.700   2.207
 2187SOL    HW1 7460   0.171   1.736   2.176
 2187SOL    HW2 7461   0.027   1.775   2.243
 2188SOL     OW 7462   5.391   5.919   4.141
 2188SOL    HW1 7463   5.431   5.918   4.049
 2188SOL    HW2 7464   5.415   6.003   4.188
 2189SOL     OW 7465   1.787   6.440   6.867
 2189SOL    HW1 7466   1.828   6.466   6.955
 2189SOL    HW2 7467   1.838   6.364   6.828
 2190SOL     OW 7468   0.507   2.607   2.387
 2190SOL    HW1 7469   0.452   2.668   2.330
 2190SOL    HW2 7470   0.531   2.525   2.334
 2191SOL     OW 7471   2.650   1.778   6.291
 2191SOL    HW1 7472   2.615   1.863   6.252
 2191SOL    HW2 7473   2.742   1.760   6.255
 2192SOL     OW 7474   3.740   6.878   3.406
 2192SOL    HW1 7475   3.751   6.977   3.407
 2192SOL    HW2 7476   3.826   6.835   3.378
 2193SOL     OW 7477   6.677   5.743   5.997
 2193SOL    HW1 7478   6.701   5.648   5.980
 2193SOL    HW2 7479   6.587   5.748   6.041
 2194SOL     OW 7480   2.140   5.007   6.561
 2194SOL    HW1 7481   2.205   5.072   6.599
 2194SOL    HW2 7482   2.049   5.027   6.596
 2195SOL     OW 7483   7.003   6.741   3.540
 2195SOL    HW1 7484   6.993   6.646   3.512
 2195SOL    HW2 7485   6.915   6.788   3.533
 2196SOL     OW 7486   3.512   0.141   5.116
 2196SOL    HW1 7487   3.530   0.143   5.018
 2196SOL    HW2 7488   3.550   0.223   5.158
 2197SOL     OW 7489   3.680   3.400   1.405
 2197SOL    HW1 7490   3.620   3.380   1.483
 2197SOL    HW2 7491   3.769   3.429   1.438
 2198SOL     OW 7492   6.975   1.598   0.078
 2198SOL    HW1 7493   6.914   1.530   0.118
 2198SOL    HW2 7494   6.975   1.680   0.134
 2199SOL     OW 7495   4.619   0.884   2.906
 2199SOL    HW1 7496   4.587   0.824   2.832
 2199SOL    HW2 7497   4.719   0.879   2.911
 2200SOL     OW 7498   3.675   0.426   4.671
 2200SOL    HW1 7499   3.588   0.475   4.675
 2200SOL    HW2 7500   3.747   0.488   4.638
 2201SOL     OW 7501   6.361   2.667   2.832
 2201SOL    HW1 7502   6.437   2.703   2.778
 2201SOL    HW2 7503   6.278   2.719   2.812
 2202SOL     OW 7504   3.101   4.906   2.804
 2202SOL    HW1 7505   3.007   4.872   2.797
 2202SOL    HW2 7506   3.153   4.877   2.723
 2203SOL     OW 7507   2.466   2.949   1.175
 2203SOL    HW1 7508   2.390   2.901   1.219
 2203SOL    HW2 7509   2.433   3.035   1.135
 2204SOL     OW 7510   3.654   0.940   6.677
 2204SOL    HW1 7511   3.700   0.899   6.755
 2204SOL    HW2 7512   3.720   0.958   6.604
 2205SOL     OW 7513   1.783   0.005   6.156
 2205SOL    HW1 7514   1.787   0.097   6.197
 2205SOL    HW2 7515   1.749   0.012   6.062
 2206SOL     OW 7516   2.462   4.111   5.538
 2206SOL    HW1 7517   2.531   4.057   5.490
 2206SOL    HW2 7518   2.373   4.067   5.527
 2207SOL     OW 7519   1.998   3.706   6.757
 2207SOL    HW1 7520   1.909   3.690   6.799
 2207SOL    HW2 7521   2.035   3.793   6.789
 2208SOL     OW 7522   1.617   5.706   2.246
 2208SOL    HW1 7523   1.569   5.751   2.322
 2208SOL    HW2 7524   1.574   5.618   2.227
 2209SOL     OW 7525   0.886   5.586   5.819
 2209SOL    HW1 7526   0.807   5.621   5.767
 2209SOL    HW2 7527   0.970   5.610   5.771
 2210SOL     OW 7528   0.073   4.730   3.676
 2210SOL    HW1 7529   0.019   4.653   3.712
 2210SOL    HW2 7530   0.090   4.796   3.749
 2211SOL     OW 7531   5.217   1.184   0.151
 2211SOL    HW1 7532   5.309   1.189   0.190
 2211SOL    HW2 7533   5.169   1.270   0.166
 2212SOL     OW 7534   1.891   6.188   6.774
 2212SOL    HW1 7535   1.840   6.113   6.816
 2212SOL    HW2 7536   1.989   6.174   6.791
 2213SOL     OW 7537   3.849   2.739   5.370
 2213SOL    HW1 7538   3.912   2.666   5.342
 2213SOL    HW2 7539   3.759   2.723   5.329
 2214SOL     OW 7540   4.561   2.832   5.565
 2214SOL    HW1 7541   4.511   2.918   5.554
 2214SOL    HW2 7542   4.659   2.851   5.572
 2215SOL     OW 7543   6.496   1.614   6.868
 2215SOL    HW1 7544   6.404   1.608   6.830
 2215SOL    HW2 7545   6.494   1.664   6.955
 2216SOL     OW 7546   1.974   0.583   6.066
 2216SOL    HW1 7547   1.945   0.661   6.010
 2216SOL    HW2 7548   1.996   0.506   6.006
 2217SOL     OW 7549   3.722   0.405   1.184
 2217SOL    HW1 7550   3.775   0.485   1.212
 2217SOL    HW2 7551   3.645   0.391   1.247
 2218SOL     OW 7552   0.689   6.707   0.773
 2218SOL    HW1 7553   0.724   6.801   0.780
 2218SOL    HW2 7554   0.643   6.696   0.685
 2219SOL     OW 7555   0.315   2.766   2.282
 2219SOL    HW1 7556   0.294   2.854   2.324
 2219SOL    HW2 7557   0.327   2.778   2.183
 2220SOL     OW 7558   0.798   0.838   4.814
 2220SOL    HW1 7559   0.699   0.832   4.804
 2220SOL    HW2 7560   0.836   0.746   4.827
 2221SOL     OW 7561   6.595   0.739   5.700
 2221SOL    HW1 7562   6.576   0.669   5.632
 2221SOL    HW2 7563   6.521   0.741   5.767
 2222SOL     OW 7564   3.914   0.531   0.704
 2222SOL    HW1 7565   3.992   0.527   0.642
 2222SOL    HW2 7566   3.830   0.517   0.653
 2223SOL     OW 7567   6.143   0.052   4.098
 2223SOL    HW1 7568   6.145   0.037   3.999
 2223SOL    HW2 7569   6.228   0.095   4.126
 2224SOL     OW 7570   1.705   4.438   1.682
 2224SOL    HW1 7571   1.649   4.380   1.742
 2224SOL    HW2 7572   1.646   4.498   1.629
 2225SOL     OW 7573   6.273   5.633   2.969
 2225SOL    HW1 7574   6.211   5.554   2.966
 2225SOL    HW2 7575   6.232   5.709   2.919
 2226SOL     OW 7576   3.917   4.937   0.450
 2226SOL    HW1 7577   3.915   4.846   0.491
 2226SOL    HW2 7578   3.892   5.005   0.518
 2227SOL     OW 7579   5.288   3.572   0.217
 2227SOL    HW1 7580   5.245   3.484   0.238
 2227SOL    HW2 7581   5.234   3.619   0.147
 2228SOL     OW 7582   2.862   5.443   1.294
 2228SOL    HW1 7583   2.853   5.345   1.277
 2228SOL    HW2 7584   2.883   5.490   1.208
 2229SOL     OW 7585   4.473   1.502   4.529
 2229SOL    HW1 7586   4.536   1.514   4.606
 2229SOL    HW2 7587   4.518   1.448   4.458
 2230SOL     OW 7588   6.581   5.398   5.650
 2230SOL    HW1 7589   6.527   5.407   5.566
 2230SOL    HW2 7590   6.678   5.390   5.626
 2231SOL     OW 7591   1.001   0.785   1.190
 2231SOL    HW1 7592   0.956   0.873   1.204
 2231SOL    HW2 7593   1.037   0.781   1.097
 2232SOL     OW 7594   1.804   2.301   3.996
 2232SOL    HW1 7595   1.899   2.332   3.992
 2232SOL    HW2 7596   1.802   2.204   4.019
 2233SOL     OW 7597   2.329   4.435   1.310
 2233SOL    HW1 7598   2.422   4.459   1.285
 2233SOL    HW2 7599   2.281   4.400   1.230
 2234SOL     OW 7600   4.723   2.146   1.911
 2234SOL    HW1 7601   4.625   2.149   1.934
 2234SOL    HW2 7602   4.765   2.233   1.935
 2235SOL     OW 7603   1.811   0.429   1.268
 2235SOL    HW1 7604   1.857   0.342   1.252
 2235SOL    HW2 7605   1.826   0.457   1.363
 2236SOL     OW 7606   0.703   4.118   6.420
 2236SOL    HW1 7607   0.689   4.215   6.401
 2236SOL    HW2 7608   0.700   4.102   6.519
 2237SOL     OW 7609   5.757   4.333   4.515
 2237SOL    HW1 7610   5.803   4.244   4.507
 2237SOL    HW2 7611   5.795   4.396   4.447
 2238SOL     OW 7612   5.568   5.588   1.750
 2238SOL    HW1 7613   5.646   5.596   1.688
 2238SOL    HW2 7614   5.492   5.643   1.714
 2239SOL     OW 7615   3.727   5.222   3.362
 2239SOL    HW1 7616   3.742   5.163   3.442
 2239SOL    HW2 7617   3.793   5.296   3.362
 2240SOL     OW 7618   5.614   5.797   3.757
 2240SOL    HW1 7619   5.672   5.764   3.682
 2240SOL    HW2 7620   5.604   5.726   3.826
 2241SOL     OW 7621   0.123   0.015   2.156
 2241SOL    HW1 7622   0.202   0.075   2.148
 2241SOL    HW2 7623   0.056   0.055   2.219
 2242SOL     OW 7624   4.920   2.263   2.942
 2242SOL    HW1 7625   4.996   2.198   2.935
 2242SOL    HW2 7626   4.936   2.324   3.019
 2243SOL     OW 7627   2.775   6.488   5.217
 2243SOL    HW1 7628   2.828   6.542   5.283
 2243SOL    HW2 7629   2.700   6.442   5.265
 2244SOL     OW 7630   2.955   0.313   2.845
 2244SOL    HW1 7631   2.960   0.220   2.810
 2244SOL    HW2 7632   2.860   0.335   2.868
 2245SOL     OW 7633   0.439   1.793   2.152
 2245SOL    HW1 7634   0.498   1.737   2.209
 2245SOL    HW2 7635   0.440   1.888   2.185
 2246SOL     OW 7636   1.364   1.028   5.523
 2246SOL    HW1 7637   1.396   1.118   5.493
 2246SOL    HW2 7638   1.292   0.996   5.461
 2247SOL     OW 7639   2.723   2.850   5.737
 2247SOL    HW1 7640   2.640   2.833   5.683
 2247SOL    HW2 7641   2.724   2.946   5.766
 2248SOL     OW 7642   3.648   3.973   6.282
 2248SOL    HW1 7643   3.722   4.038   6.298
 2248SOL    HW2 7644   3.567   4.023   6.250
 2249SOL     OW 7645   6.339   6.143   2.515
 2249SOL    HW1 7646   6.279   6.079   2.465
 2249SOL    HW2 7647   6.397   6.192   2.450
 2250SOL     OW 7648   4.738   3.841   0.965
 2250SOL    HW1 7649   4.644   3.861   0.993
 2250SOL    HW2 7650   4.739   3.756   0.913
 2251SOL     OW 7651   5.148   1.470   0.228
 2251SOL    HW1 7652   5.242   1.486   0.197
 2251SOL    HW2 7653   5.085   1.526   0.175
 2252SOL     OW 7654   6.352   1.943   3.038
 2252SOL    HW1 7655   6.311   1.997   2.964
 2252SOL    HW2 7656   6.337   1.846   3.020
 2253SOL     OW 7657   0.674   3.545   6.832
 2253SOL    HW1 7658   0.771   3.531   6.847
 2253SOL    HW2 7659   0.622   3.472   6.876
 2254SOL     OW 7660   2.322   3.457   5.613
 2254SOL    HW1 7661   2.326   3.556   5.595
 2254SOL    HW2 7662   2.386   3.410   5.553
 2255SOL     OW 7663   4.707   2.632   0.131
 2255SOL    HW1 7664   4.678   2.543   0.096
 2255SOL    HW2 7665   4.795   2.623   0.177
 2256SOL     OW 7666   4.031   6.549   1.261
 2256SOL    HW1 7667   4.116   6.600   1.248
 2256SOL    HW2 7668   3.973   6.598   1.326
 2257SOL     OW 7669   0.012   2.381   3.704
 2257SOL    HW1 7670   0.027   2.321   3.782
 2257SOL    HW2 7671   6.969   2.453   3.730
 2258SOL     OW 7672   1.136   5.287   5.660
 2258SOL    HW1 7673   1.181   5.201   5.635
 2258SOL    HW2 7674   1.164   5.314   5.752
 2259SOL     OW 7675   4.842   4.457   6.554
 2259SOL    HW1 7676   4.877   4.423   6.641
 2259SOL    HW2 7677   4.797   4.545   6.568
 2260SOL     OW 7678   5.958   4.545   3.157
 2260SOL    HW1 7679   5.859   4.557   3.148
 2260SOL    HW2 7680   5.990   4.478   3.090
 2261SOL     OW 7681   6.554   6.783   1.071
 2261SOL    HW1 7682   6.601   6.695   1.073
 2261SOL    HW2 7683   6.493   6.791   1.149
 2262SOL     OW 7684   5.113   2.260   2.513
 2262SOL    HW1 7685   5.054   2.337   2.540
 2262SOL    HW2 7686   5.056   2.188   2.474
 2263SOL     OW 7687   2.656   6.155   5.967
 2263SOL    HW1 7688   2.692   6.152   5.874
 2263SOL    HW2 7689   2.717   6.104   6.028
 2264SOL     OW 7690   3.453   3.129   1.231
 2264SOL    HW1 7691   3.479   3.081   1.315
 2264SOL    HW2 7692   3.531   3.133   1.169
 2265SOL     OW 7693   0.328   0.289   3.788
 2265SOL    HW1 7694   0.279   0.360   3.840
 2265SOL    HW2 7695   0.402   0.332   3.736
 2266SOL     OW 7696   6.140   1.805   1.299
 2266SOL    HW1 7697   6.056   1.764   1.263
 2266SOL    HW2 7698   6.135   1.904   1.291
 2267SOL     OW 7699   4.865   2.455   5.070
 2267SOL    HW1 7700   4.810   2.520   5.123
 2267SOL    HW2 7701   4.833   2.362   5.089
 2268SOL     OW 7702   6.070   3.960   6.415
 2268SOL    HW1 7703   6.146   3.999   6.362
 2268SOL    HW2 7704   6.106   3.913   6.495
 2269SOL     OW 7705   5.739   5.816   4.819
 2269SOL    HW1 7706   5.705   5.902   4.781
 2269SOL    HW2 7707   5.798   5.771   4.752
 2270SOL     OW 7708   2.881   2.674   6.486
 2270SOL    HW1 7709   2.848   2.713   6.400
 2270SOL    HW2 7710   2.961   2.725   6.517
 2271SOL     OW 7711   6.224   3.969   0.272
 2271SOL    HW1 7712   6.323   3.978   0.277
 2271SOL    HW2 7713   6.191   4.013   0.188
 2272SOL     OW 7714   5.647   1.511   5.185
 2272SOL    HW1 7715   5.657   1.412   5.183
 2272SOL    HW2 7716   5.565   1.538   5.135
 2273SOL     OW 7717   1.389   0.943   2.013
 2273SOL    HW1 7718   1.422   0.855   2.047
 2273SOL    HW2 7719   1.442   0.969   1.932
 2274SOL     OW 7720   1.976   2.397   6.093
 2274SOL    HW1 7721   1.919   2.477   6.076
 2274SOL    HW2 7722   1.985   2.383   6.192
 2275SOL     OW 7723   6.036   0.484   4.624
 2275SOL    HW1 7724   6.116   0.444   4.580
 2275SOL    HW2 7725   5.982   0.412   4.669
 2276SOL     OW 7726   3.190   4.904   1.058
 2276SOL    HW1 7727   3.111   4.922   1.000
 2276SOL    HW2 7728   3.215   4.808   1.052
 2277SOL     OW 7729   3.712   3.770   4.621
 2277SOL    HW1 7730   3.705   3.767   4.521
 2277SOL    HW2 7731   3.632   3.815   4.659
 2278SOL     OW 7732   6.147   5.991   4.043
 2278SOL    HW1 7733   6.195   6.044   4.114
 2278SOL    HW2 7734   6.166   5.894   4.056
 2279SOL     OW 7735   4.624   5.464   4.262
 2279SOL    HW1 7736   4.582   5.555   4.261
 2279SOL    HW2 7737   4.694   5.462   4.334
 2280SOL     OW 7738   0.032   6.619   4.886
 2280SOL    HW1 7739   0.011   6.674   4.805
 2280SOL    HW2 7740   0.013   6.673   4.968
 2281SOL     OW 7741   3.343   0.848   1.673
 2281SOL    HW1 7742   3.355   0.933   1.723
 2281SOL    HW2 7743   3.431   0.800   1.667
 2282SOL     OW 7744   5.763   0.127   5.181
 2282SOL    HW1 7745   5.755   0.028   5.166
 2282SOL    HW2 7746   5.857   0.148   5.207
 2283SOL     OW 7747   6.494   4.516   1.720
 2283SOL    HW1 7748   6.486   4.572   1.637
 2283SOL    HW2 7749   6.422   4.447   1.720
 2284SOL     OW 7750   2.665   1.563   0.331
 2284SOL    HW1 7751   2.641   1.571   0.234
 2284SOL    HW2 7752   2.611   1.629   0.384
 2285SOL     OW 7753   1.406   2.754   0.375
 2285SOL    HW1 7754   1.346   2.795   0.444
 2285SOL    HW2 7755   1.498   2.791   0.385
 2286SOL     OW 7756   0.334   0.045   4.527
 2286SOL    HW1 7757   0.423   0.050   4.481
 2286SOL    HW2 7758   0.266   0.095   4.473
 2287SOL     OW 7759   2.209   2.835   2.064
 2287SOL    HW1 7760   2.228   2.887   1.980
 2287SOL    HW2 7761   2.174   2.745   2.039
 2288SOL     OW 7762   6.812   4.664   4.502
 2288SOL    HW1 7763   6.804   4.582   4.445
 2288SOL    HW2 7764   6.909   4.683   4.518
 2289SOL     OW 7765   6.201   4.586   2.889
 2289SOL    HW1 7766   6.146   4.668   2.907
 2289SOL    HW2 7767   6.153   4.506   2.923
 2290SOL     OW 7768   1.858   3.722   2.054
 2290SOL    HW1 7769   1.888   3.633   2.020
 2290SOL    HW2 7770   1.863   3.790   1.980
 2291SOL     OW 7771   2.049   1.902   0.465
 2291SOL    HW1 7772   2.148   1.894   0.473
 2291SOL    HW2 7773   2.006   1.817   0.495
 2292SOL     OW 7774   5.835   2.232   3.436
 2292SOL    HW1 7775   5.746   2.249   3.478
 2292SOL    HW2 7776   5.872   2.318   3.400
 2293SOL     OW 7777   6.634   6.938   1.447
 2293SOL    HW1 7778   6.691   6.868   1.406
 2293SOL    HW2 7779   6.660   0.006   1.412
 2294SOL     OW 7780   3.219   1.348   6.322
 2294SOL    HW1 7781   3.182   1.270   6.271
 2294SOL    HW2 7782   3.168   1.360   6.407
 2295SOL     OW 7783   0.518   1.614   2.889
 2295SOL    HW1 7784   0.566   1.567   2.963
 2295SOL    HW2 7785   0.436   1.561   2.864
 2296SOL     OW 7786   3.638   5.468   2.447
 2296SOL    HW1 7787   3.632   5.373   2.478
 2296SOL    HW2 7788   3.586   5.526   2.510
 2297SOL     OW 7789   4.880   4.730   5.629
 2297SOL    HW1 7790   4.871   4.638   5.592
 2297SOL    HW2 7791   4.930   4.787   5.564
 2298SOL     OW 7792   3.825   3.565   2.489
 2298SOL    HW1 7793   3.799   3.477   2.528
 2298SOL    HW2 7794   3.772   3.582   2.406
 2299SOL     OW 7795   4.730   4.564   5.326
 2299SOL    HW1 7796   4.634   4.540   5.341
 2299SOL    HW2 7797   4.787   4.518   5.393
 2300SOL     OW 7798   2.752   5.956   3.283
 2300SOL    HW1 7799   2.664   5.908   3.283
 2300SOL    HW2 7800   2.798   5.941   3.195
 2301SOL     OW 7801   3.909   3.052   3.381
 2301SOL    HW1 7802   3.918   3.150   3.397
 2301SOL    HW2 7803   3.913   3.003   3.468
 2302SOL     OW 7804   4.128   0.565   1.172
 2302SOL    HW1 7805   4.043   0.606   1.206
 2302SOL    HW2 7806   4.115   0.534   1.078
 2303SOL     OW 7807   2.831   3.128   0.853
 2303SOL    HW1 7808   2.893   3.084   0.787
 2303SOL    HW2 7809   2.737   3.100   0.834
 2304SOL     OW 7810   5.634   6.466   4.595
 2304SOL    HW1 7811   5.578   6.407   4.653
 2304SOL    HW2 7812   5.588   6.554   4.583
 2305SOL     OW 7813   2.304   0.103   3.125
 2305SOL    HW1 7814   2.328   0.032   3.190
 2305SOL    HW2 7815   2.221   0.078   3.076
 2306SOL     OW 7816   2.291   5.184   1.763
 2306SOL    HW1 7817   2.363   5.137   1.815
 2306SOL    HW2 7818   2.324   5.201   1.670
 2307SOL     OW 7819   0.572   2.850   4.648
 2307SOL    HW1 7820   0.487   2.799   4.660
 2307SOL    HW2 7821   0.600   2.847   4.552
 2308SOL     OW 7822   2.891   4.693   1.003
 2308SOL    HW1 7823   2.900   4.760   0.929
 2308SOL    HW2 7824   2.971   4.633   1.003
 2309SOL     OW 7825   1.900   0.892   5.332
 2309SOL    HW1 7826   1.825   0.868   5.270
 2309SOL    HW2 7827   1.906   0.991   5.339
 2310SOL     OW 7828   5.522   5.376   1.332
 2310SOL    HW1 7829   5.620   5.386   1.319
 2310SOL    HW2 7830   5.501   5.369   1.429
 2311SOL     OW 7831   2.110   6.838   1.104
 2311SOL    HW1 7832   2.184   6.890   1.061
 2311SOL    HW2 7833   2.119   6.741   1.082
 2312SOL     OW 7834   4.971   5.598   3.045
 2312SOL    HW1 7835   4.953   5.529   2.976
 2312SOL    HW2 7836   4.886   5.622   3.092
 2313SOL     OW 7837   4.638   5.986   2.316
 2313SOL    HW1 7838   4.728   6.014   2.283
 2313SOL    HW2 7839   4.576   5.978   2.238
 2314SOL     OW 7840   5.091   6.015   3.220
 2314SOL    HW1 7841   5.115   6.068   3.301
 2314SOL    HW2 7842   5.019   5.949   3.243
 2315SOL     OW 7843   5.258   3.122   6.246
 2315SOL    HW1 7844   5.168   3.084   6.265
 2315SOL    HW2 7845   5.315   3.117   6.329
 2316SOL     OW 7846   4.054   1.680   3.939
 2316SOL    HW1 7847   4.134   1.715   3.890
 2316SOL    HW2 7848   3.984   1.652   3.873
 2317SOL     OW 7849   0.725   6.003   3.154
 2317SOL    HW1 7850   0.676   6.089   3.165
 2317SOL    HW2 7851   0.671   5.940   3.099
 2318SOL     OW 7852   0.665   2.672   3.464
 2318SOL    HW1 7853   0.567   2.689   3.464
 2318SOL    HW2 7854   0.706   2.713   3.546
 2319SOL     OW 7855   1.628   5.171   3.677
 2319SOL    HW1 7856   1.567   5.131   3.745
 2319SOL    HW2 7857   1.692   5.233   3.722
 2320SOL     OW 7858   1.007   2.317   3.869
 2320SOL    HW1 7859   0.955   2.238   3.835
 2320SOL    HW2 7860   0.944   2.385   3.907
 2321SOL     OW 7861   3.811   0.552   5.394
 2321SOL    HW1 7862   3.779   0.647   5.394
 2321SOL    HW2 7863   3.906   0.548   5.361
 2322SOL     OW 7864   2.442   1.523   5.068
 2322SOL    HW1 7865   2.537   1.497   5.085
 2322SOL    HW2 7866   2.425   1.612   5.111
 2323SOL     OW 7867   2.993   4.818   2.005
 2323SOL    HW1 7868   3.070   4.811   1.941
 2323SOL    HW2 7869   2.937   4.735   1.998
 2324SOL     OW 7870   0.223   6.429   2.542
 2324SOL    HW1 7871   0.249   6.497   2.473
 2324SOL    HW2 7872   0.272   6.446   2.627
 2325SOL     OW 7873   0.384   4.601   1.225
 2325SOL    HW1 7874   0.472   4.611   1.178
 2325SOL    HW2 7875   0.355   4.506   1.223
 2326SOL     OW 7876   3.464   4.689   5.599
 2326SOL    HW1 7877   3.553   4.730   5.579
 2326SOL    HW2 7878   3.442   4.621   5.530
 2327SOL     OW 7879   5.908   3.341   4.596
 2327SOL    HW1 7880   5.977   3.272   4.620
 2327SOL    HW2 7881   5.829   3.295   4.556
 2328SOL     OW 7882   3.966   1.831   3.343
 2328SOL    HW1 7883   4.017   1.819   3.428
 2328SOL    HW2 7884   4.029   1.852   3.269
 2329SOL     OW 7885   1.803   4.999   5.123
 2329SOL    HW1 7886   1.896   4.977   5.094
 2329SOL    HW2 7887   1.804   5.084   5.176
 2330SOL     OW 7888   7.019   4.212   2.276
 2330SOL    HW1 7889   6.941   4.211   2.339
 2330SOL    HW2 7890   0.082   4.221   2.328
 2331SOL     OW 7891   6.613   4.246   0.044
 2331SOL    HW1 7892   6.666   4.163   0.028
 2331SOL    HW2 7893   6.675   4.321   0.068
 2332SOL     OW 7894   3.954   1.881   5.168
 2332SOL    HW1 7895   4.010   1.807   5.205
 2332SOL    HW2 7896   3.991   1.969   5.197
 2333SOL     OW 7897   0.012   4.806   2.821
 2333SOL    HW1 7898   6.987   4.880   2.773
 2333SOL    HW2 7899   0.105   4.797   2.785
 2334SOL     OW 7900   2.527   0.359   0.378
 2334SOL    HW1 7901   2.549   0.457   0.374
 2334SOL    HW2 7902   2.472   0.341   0.459
 2335SOL     OW 7903   5.736   1.125   3.292
 2335SOL    HW1 7904   5.737   1.031   3.325
 2335SOL    HW2 7905   5.746   1.188   3.369
 2336SOL     OW 7906   4.247   2.057   5.401
 2336SOL    HW1 7907   4.191   2.099   5.473
 2336SOL    HW2 7908   4.283   2.127   5.341
 2337SOL     OW 7909   4.695   1.271   3.553
 2337SOL    HW1 7910   4.748   1.308   3.628
 2337SOL    HW2 7911   4.672   1.176   3.572
 2338SOL     OW 7912   0.970   0.481   6.946
 2338SOL    HW1 7913   1.016   0.409   6.999
 2338SOL    HW2 7914   1.026   0.505   6.867
 2339SOL     OW 7915   3.854   3.235   4.780
 2339SOL    HW1 7916   3.794   3.293   4.835
 2339SOL    HW2 7917   3.807   3.149   4.758
 2340SOL     OW 7918   5.130   6.180   6.182
 2340SOL    HW1 7919   5.151   6.180   6.280
 2340SOL    HW2 7920   5.083   6.265   6.158
 2341SOL     OW 7921   4.953   3.631   0.946
 2341SOL    HW1 7922   5.029   3.601   0.888
 2341SOL    HW2 7923   4.960   3.729   0.963
 2342SOL     OW 7924   0.680   5.826   5.821
 2342SOL    HW1 7925   0.600   5.789   5.774
 2342SOL    HW2 7926   0.679   5.926   5.814
 2343SOL     OW 7927   1.809   6.456   1.428
 2343SOL    HW1 7928   1.817   6.394   1.505
 2343SOL    HW2 7929   1.883   6.523   1.431
 2344SOL     OW 7930   1.469   1.394   1.466
 2344SOL    HW1 7931   1.497   1.390   1.370
 2344SOL    HW2 7932   1.450   1.489   1.491
 2345SOL     OW 7933   2.215   5.692   5.277
 2345SOL    HW1 7934   2.242   5.627   5.206
 2345SOL    HW2 7935   2.215   5.785   5.239
 2346SOL     OW 7936   4.912   3.352   4.785
 2346SOL    HW1 7937   4.952   3.326   4.873
 2346SOL    HW2 7938   4.868   3.272   4.744
 2347SOL     OW 7939   2.080   4.073   1.518
 2347SOL    HW1 7940   2.160   4.113   1.472
 2347SOL    HW2 7941   1.999   4.126   1.494
 2348SOL     OW 7942   3.397   5.861   3.177
 2348SOL    HW1 7943   3.324   5.850   3.245
 2348SOL    HW2 7944   3.378   5.801   3.098
 2349SOL     OW 7945   0.568   6.074   0.001
 2349SOL    HW1 7946   0.514   6.018   6.961
 2349SOL    HW2 7947   0.614   6.146   6.971
 2350SOL     OW 7948   4.678   0.045   6.121
 2350SOL    HW1 7949   4.726   0.036   6.034
 2350SOL    HW2 7950   4.708   6.994   6.183
 2351SOL     OW 7951   3.483   4.920   2.767
 2351SOL    HW1 7952   3.417   4.944   2.695
 2351SOL    HW2 7953   3.434   4.902   2.852
 2352SOL     OW 7954   0.249   4.607   2.184
 2352SOL    HW1 7955   0.233   4.678   2.116
 2352SOL    HW2 7956   0.333   4.627   2.234
 2353SOL     OW 7957   2.867   4.851   4.388
 2353SOL    HW1 7958   2.881   4.884   4.481
 2353SOL    HW2 7959   2.800   4.777   4.389
 2354SOL     OW 7960   3.200   2.448   5.973
 2354SOL    HW1 7961   3.254   2.396   5.907
 2354SOL    HW2 7962   3.260   2.513   6.021
 2355SOL     OW 7963   0.538   5.229   0.563
 2355SOL    HW1 7964   0.534   5.329   0.565
 2355SOL    HW2 7965   0.546   5.198   0.469
 2356SOL     OW 7966   2.525   3.946   0.900
 2356SOL    HW1 7967   2.509   4.018   0.832
 2356SOL    HW2 7968   2.512   3.857   0.858
 2357SOL     OW 7969   3.500   5.300   3.983
 2357SOL    HW1 7970   3.569   5.355   4.030
 2357SOL    HW2 7971   3.497   5.209   4.024
 2358SOL     OW 7972   2.760   5.552   4.702
 2358SOL    HW1 7973   2.710   5.474   4.666
 2358SOL    HW2 7974   2.767   5.623   4.632
 2359SOL     OW 7975   1.452   1.324   5.677
 2359SOL    HW1 7976   1.489   1.366   5.593
 2359SOL    HW2 7977   1.497   1.365   5.756
 2360SOL     OW 7978   4.781   6.084   5.238
 2360SOL    HW1 7979   4.750   6.079   5.333
 2360SOL    HW2 7980   4.880   6.099   5.237
 2361SOL     OW 7981   2.619   0.267   4.272
 2361SOL    HW1 7982   2.521   0.271   4.252
 2361SOL    HW2 7983   2.670   0.289   4.189
 2362SOL     OW 7984   4.328   6.896   5.316
 2362SOL    HW1 7985   4.241   6.847   5.321
 2362SOL    HW2 7986   4.314   6.986   5.275
 2363SOL     OW 7987   4.950   2.169   5.594
 2363SOL    HW1 7988   4.936   2.190   5.498
 2363SOL    HW2 7989   4.921   2.246   5.650
 2364SOL     OW 7990   6.041   1.803   2.445
 2364SOL    HW1 7991   6.065   1.786   2.541
 2364SOL    HW2 7992   6.053   1.719   2.392
 2365SOL     OW 7993   5.673   4.056   5.119
 2365SOL    HW1 7994   5.649   3.974   5.171
 2365SOL    HW2 7995   5.768   4.081   5.138
 2366SOL     OW 7996   1.071   4.186   5.718
 2366SOL    HW1 7997   1.160   4.170   5.676
 2366SOL    HW2 7998   1.020   4.101   5.721
 2367SOL     OW 7999   1.742   4.054   6.599
 2367SOL    HW1 8000   1.709   4.143   6.566
 2367SOL    HW2 8001   1.719   3.983   6.534
 2368SOL     OW 8002   5.180   1.532   4.711
 2368SOL    HW1 8003   5.149   1.590   4.636
 2368SOL    HW2 8004   5.119   1.544   4.790
 2369SOL     OW 8005   2.434   2.648   3.857
 2369SOL    HW1 8006   2.487   2.584   3.801
 2369SOL    HW2 8007   2.411   2.729   3.802
 2370SOL     OW 8008   4.190   4.219   6.909
 2370SOL    HW1 8009   4.189   4.319   6.913
 2370SOL    HW2 8010   4.099   4.184   6.932
 2371SOL     OW 8011   1.846   5.753   2.103
 2371SOL    HW1 8012   1.892   5.803   2.176
 2371SOL    HW2 8013   1.750   5.740   2.127
 2372SOL     OW 8014   0.554   2.029   0.162
 2372SOL    HW1 8015   0.597   2.075   0.239
 2372SOL    HW2 8016   0.607   1.949   0.137
 2373SOL     OW 8017   6.222   1.339   6.607
 2373SOL    HW1 8018   6.232   1.361   6.510
 2373SOL    HW2 8019   6.312   1.331   6.649
 2374SOL     OW 8020   6.170   5.795   3.645
 2374SOL    HW1 8021   6.098   5.829   3.706
 2374SOL    HW2 8022   6.256   5.788   3.696
 2375SOL     OW 8023   1.037   6.561   4.749
 2375SOL    HW1 8024   1.087   6.503   4.813
 2375SOL    HW2 8025   1.006   6.506   4.671
 2376SOL     OW 8026   5.924   2.718   3.398
 2376SOL    HW1 8027   5.837   2.679   3.425
 2376SOL    HW2 8028   5.963   2.771   3.474
 2377SOL     OW 8029   3.294   3.340   4.297
 2377SOL    HW1 8030   3.381   3.291   4.303
 2377SOL    HW2 8031   3.274   3.362   4.202
 2378SOL     OW 8032   4.926   2.089   6.776
 2378SOL    HW1 8033   4.961   2.119   6.687
 2378SOL    HW2 8034   4.974   2.137   6.849
 2379SOL     OW 8035   6.913   2.587   0.032
 2379SOL    HW1 8036   6.913   2.487   0.030
 2379SOL    HW2 8037   6.885   2.622   6.964
 2380SOL     OW 8038   6.866   0.786   5.736
 2380SOL    HW1 8039   6.767   0.773   5.728
 2380SOL    HW2 8040   6.891   0.874   5.696
 2381SOL     OW 8041   1.839   4.196   4.551
 2381SOL    HW1 8042   1.806   4.106   4.523
 2381SOL    HW2 8043   1.915   4.186   4.614
 2382SOL     OW 8044   2.083   5.471   2.585
 2382SOL    HW1 8045   2.064   5.530   2.664
 2382SOL    HW2 8046   2.080   5.526   2.501
 2383SOL     OW 8047   5.811   6.391   6.757
 2383SOL    HW1 8048   5.792   6.324   6.685
 2383SOL    HW2 8049   5.726   6.420   6.800
 2384SOL     OW 8050   1.401   1.646   2.004
 2384SOL    HW1 8051   1.474   1.641   1.936
 2384SOL    HW2 8052   1.439   1.631   2.095
 2385SOL     OW 8053   6.808   0.020   1.144
 2385SOL    HW1 8054   6.904   0.047   1.152
 2385SOL    HW2 8055   6.762   0.080   1.077
 2386SOL     OW 8056   3.642   4.966   4.650
 2386SOL    HW1 8057   3.655   4.897   4.722
 2386SOL    HW2 8058   3.725   5.021   4.642
 2387SOL     OW 8059   6.418   2.840   4.714
 2387SOL    HW1 8060   6.347   2.885   4.767
 2387SOL    HW2 8061   6.500   2.898   4.710
 2388SOL     OW 8062   1.594   1.851   5.868
 2388SOL    HW1 8063   1.630   1.761   5.840
 2388SOL    HW2 8064   1.494   1.850   5.860
 2389SOL     OW 8065   4.799   4.448   4.152
 2389SOL    HW1 8066   4.730   4.419   4.218
 2389SOL    HW2 8067   4.775   4.539   4.117
 2390SOL     OW 8068   3.942   4.025   4.462
 2390SOL    HW1 8069   4.005   4.084   4.512
 2390SOL    HW2 8070   3.994   3.961   4.406
 2391SOL     OW 8071   3.154   4.668   5.846
 2391SOL    HW1 8072   3.193   4.759   5.839
 2391SOL    HW2 8073   3.226   4.601   5.864
 2392SOL     OW 8074   2.843   5.027   6.178
 2392SOL    HW1 8075   2.862   4.968   6.256
 2392SOL    HW2 8076   2.866   5.121   6.201
 2393SOL     OW 8077   3.736   5.293   1.445
 2393SOL    HW1 8078   3.783   5.380   1.429
 2393SOL    HW2 8079   3.798   5.218   1.421
 2394SOL     OW 8080   1.385   3.745   4.209
 2394SOL    HW1 8081   1.453   3.676   4.185
 2394SOL    HW2 8082   1.384   3.758   4.308
 2395SOL     OW 8083   0.076   2.578   6.635
 2395SOL    HW1 8084   0.006   2.609   6.699
 2395SOL    HW2 8085   0.144   2.524   6.683
 2396SOL     OW 8086   5.713   6.364   0.725
 2396SOL    HW1 8087   5.770   6.446   0.713
 2396SOL    HW2 8088   5.616   6.391   0.726
 2397SOL     OW 8089   6.509   5.142   0.212
 2397SOL    HW1 8090   6.603   5.108   0.216
 2397SOL    HW2 8091   6.509   5.242   0.209
 2398SOL     OW 8092   2.445   5.188   4.843
 2398SOL    HW1 8093   2.350   5.169   4.819
 2398SOL    HW2 8094   2.466   5.144   4.931
 2399SOL     OW 8095   4.275   1.895   2.655
 2399SOL    HW1 8096   4.259   1.814   2.599
 2399SOL    HW2 8097   4.372   1.919   2.653
 2400SOL     OW 8098   3.450   3.627   0.395
 2400SOL    HW1 8099   3.538   3.599   0.356
 2400SOL    HW2 8100   3.428   3.569   0.473
 2401SOL     OW 8101   3.443   0.527   5.366
 2401SOL    HW1 8102   3.514   0.530   5.295
 2401SOL    HW2 8103   3.470   0.583   5.443
 2402SOL     OW 8104   0.215   2.400   4.480
 2402SOL    HW1 8105   0.179   2.472   4.420
 2402SOL    HW2 8106   0.270   2.336   4.426
 2403SOL     OW 8107   3.335   3.155   0.827
 2403SOL    HW1 8108   3.267   3.191   0.763
 2403SOL    HW2 8109   3.352   3.059   0.807
 2404SOL     OW 8110   5.447   1.536   2.243
 2404SOL    HW1 8111   5.420   1.465   2.308
 2404SOL    HW2 8112   5.405   1.518   2.154
 2405SOL     OW 8113   3.777   3.728   5.073
 2405SOL    HW1 8114   3.806   3.659   5.007
 2405SOL    HW2 8115   3.825   3.814   5.055
 2406SOL     OW 8116   2.151   1.049   3.187
 2406SOL    HW1 8117   2.144   1.086   3.095
 2406SOL    HW2 8118   2.117   1.116   3.253
 2407SOL     OW 8119   4.716   2.064   2.884
 2407SOL    HW1 8120   4.793   2.127   2.877
 2407SOL    HW2 8121   4.724   2.010   2.967
 2408SOL     OW 8122   3.544   5.213   2.563
 2408SOL    HW1 8123   3.517   5.122   2.595
 2408SOL    HW2 8124   3.513   5.226   2.469
 2409SOL     OW 8125   1.952   2.524   1.849
 2409SOL    HW1 8126   1.976   2.613   1.811
 2409SOL    HW2 8127   1.975   2.452   1.784
 2410SOL     OW 8128   6.468   3.136   5.538
 2410SOL    HW1 8129   6.502   3.109   5.628
 2410SOL    HW2 8130   6.545   3.158   5.478
 2411SOL     OW 8131   3.367   4.497   5.414
 2411SOL    HW1 8132   3.281   4.538   5.381
 2411SOL    HW2 8133   3.368   4.400   5.391
 2412SOL     OW 8134   2.764   3.534   0.251
 2412SOL    HW1 8135   2.760   3.483   0.337
 2412SOL    HW2 8136   2.738   3.473   0.176
 2413SOL     OW 8137   6.550   3.291   6.550
 2413SOL    HW1 8138   6.550   3.308   6.649
 2413SOL    HW2 8139   6.573   3.376   6.502
 2414SOL     OW 8140   5.510   3.557   2.786
 2414SOL    HW1 8141   5.501   3.530   2.882
 2414SOL    HW2 8142   5.502   3.476   2.728
 2415SOL     OW 8143   1.949   0.187   1.269
 2415SOL    HW1 8144   1.875   0.126   1.239
 2415SOL    HW2 8145   2.030   0.171   1.212
 2416SOL     OW 8146   2.224   1.146   4.748
 2416SOL    HW1 8147   2.171   1.154   4.664
 2416SOL    HW2 8148   2.280   1.228   4.760
 2417SOL     OW 8149   5.124   2.191   6.992
 2417SOL    HW1 8150   5.143   2.114   0.031
 2417SOL    HW2 8151   5.210   2.228   6.957
 2418SOL     OW 8152   3.255   3.689   4.793
 2418SOL    HW1 8153   3.298   3.708   4.705
 2418SOL    HW2 8154   3.313   3.725   4.867
 2419SOL     OW 8155   0.530   6.987   4.906
 2419SOL    HW1 8156   0.613   0.019   4.894
 2419SOL    HW2 8157   0.545   6.895   4.870
 2420SOL     OW 8158   4.062   6.869   2.485
 2420SOL    HW1 8159   4.102   6.786   2.446
 2420SOL    HW2 8160   4.112   6.894   2.568
 2421SOL     OW 8161   3.137   1.000   4.494
 2421SOL    HW1 8162   3.071   1.011   4.568
 2421SOL    HW2 8163   3.204   0.930   4.518
 2422SOL     OW 8164   4.871   0.566   0.795
 2422SOL    HW1 8165   4.867   0.662   0.822
 2422SOL    HW2 8166   4.940   0.554   0.724
 2423SOL     OW 8167   1.572   6.129   2.500
 2423SOL    HW1 8168   1.667   6.124   2.469
 2423SOL    HW2 8169   1.564   6.196   2.574
 2424SOL     OW 8170   5.228   5.840   6.497
 2424SOL    HW1 8171   5.274   5.778   6.433
 2424SOL    HW2 8172   5.283   5.848   6.580
 2425SOL     OW 8173   6.394   6.741   4.672
 2425SOL    HW1 8174   6.348   6.828   4.687
 2425SOL    HW2 8175   6.493   6.755   4.674
 2426SOL     OW 8176   1.196   5.281   4.464
 2426SOL    HW1 8177   1.170   5.206   4.524
 2426SOL    HW2 8178   1.115   5.317   4.418
 2427SOL     OW 8179   5.809   6.070   6.830
 2427SOL    HW1 8180   5.847   6.163   6.822
 2427SOL    HW2 8181   5.761   6.047   6.745
 2428SOL     OW 8182   1.094   0.460   4.339
 2428SOL    HW1 8183   1.047   0.538   4.381
 2428SOL    HW2 8184   1.116   0.393   4.410
 2429SOL     OW 8185   6.198   5.111   3.221
 2429SOL    HW1 8186   6.203   5.137   3.125
 2429SOL    HW2 8187   6.105   5.082   3.244
 2430SOL     OW 8188   5.524   2.626   0.833
 2430SOL    HW1 8189   5.550   2.693   0.763
 2430SOL    HW2 8190   5.567   2.538   0.812
 2431SOL     OW 8191   4.162   0.536   1.718
 2431SOL    HW1 8192   4.219   0.454   1.715
 2431SOL    HW2 8193   4.180   0.586   1.803
 2432SOL     OW 8194   4.541   6.344   2.897
 2432SOL    HW1 8195   4.511   6.435   2.927
 2432SOL    HW2 8196   4.463   6.295   2.858
 2433SOL     OW 8197   2.190   0.447   0.136
 2433SOL    HW1 8198   2.092   0.463   0.121
 2433SOL    HW2 8199   2.202   0.363   0.190
 2434SOL     OW 8200   4.509   1.273   3.241
 2434SOL    HW1 8201   4.581   1.318   3.294
 2434SOL    HW2 8202   4.543   1.185   3.207
 2435SOL     OW 8203   4.656   4.977   0.218
 2435SOL    HW1 8204   4.750   4.944   0.224
 2435SOL    HW2 8205   4.606   4.952   0.301
 2436SOL     OW 8206   1.815   6.849   1.156
 2436SOL    HW1 8207   1.909   6.823   1.133
 2436SOL    HW2 8208   1.810   6.948   1.169
 2437SOL     OW 8209   4.916   5.649   1.228
 2437SOL    HW1 8210   4.981   5.677   1.157
 2437SOL    HW2 8211   4.896   5.727   1.286
 2438SOL     OW 8212   4.077   0.774   4.875
 2438SOL    HW1 8213   4.131   0.854   4.900
 2438SOL    HW2 8214   4.021   0.795   4.794
 2439SOL     OW 8215   0.878   4.059   0.215
 2439SOL    HW1 8216   0.888   4.114   0.132
 2439SOL    HW2 8217   0.785   4.068   0.250
 2440SOL     OW 8218   3.672   6.407   5.243
 2440SOL    HW1 8219   3.590   6.375   5.194
 2440SOL    HW2 8220   3.689   6.502   5.220
 2441SOL     OW 8221   5.775   0.917   0.326
 2441SOL    HW1 8222   5.766   0.868   0.412
 2441SOL    HW2 8223   5.819   0.859   0.258
 2442SOL     OW 8224   5.887   5.476   3.528
 2442SOL    HW1 8225   5.879   5.378   3.508
 2442SOL    HW2 8226   5.981   5.505   3.515
 2443SOL     OW 8227   3.058   0.528   6.555
 2443SOL    HW1 8228   3.026   0.621   6.539
 2443SOL    HW2 8229   2.981   0.464   6.547
 2444SOL     OW 8230   3.550   4.236   0.065
 2444SOL    HW1 8231   3.618   4.232   0.138
 2444SOL    HW2 8232   3.514   4.145   0.047
 2445SOL     OW 8233   6.737   1.115   2.145
 2445SOL    HW1 8234   6.795   1.034   2.133
 2445SOL    HW2 8235   6.644   1.093   2.117
 2446SOL     OW 8236   0.379   2.727   4.070
 2446SOL    HW1 8237   0.469   2.698   4.102
 2446SOL    HW2 8238   0.377   2.827   4.064
 2447SOL     OW 8239   2.545   1.279   0.783
 2447SOL    HW1 8240   2.639   1.251   0.764
 2447SOL    HW2 8241   2.536   1.307   0.878
 2448SOL     OW 8242   6.708   1.155   4.122
 2448SOL    HW1 8243   6.693   1.097   4.203
 2448SOL    HW2 8244   6.709   1.097   4.040
 2449SOL     OW 8245   0.071   3.887   2.912
 2449SOL    HW1 8246   0.114   3.900   2.823
 2449SOL    HW2 8247   0.142   3.875   2.982
 2450SOL     OW 8248   3.109   5.584   5.925
 2450SOL    HW1 8249   3.027   5.572   5.869
 2450SOL    HW2 8250   3.189   5.593   5.866
 2451SOL     OW 8251   1.477   6.921   3.543
 2451SOL    HW1 8252   1.477   6.822   3.535
 2451SOL    HW2 8253   1.532   6.961   3.470
 2452SOL     OW 8254   2.953   2.036   3.311
 2452SOL    HW1 8255   2.980   1.952   3.359
 2452SOL    HW2 8256   3.029   2.101   3.312
 2453SOL     OW 8257   6.633   3.518   0.666
 2453SOL    HW1 8258   6.711   3.455   0.667
 2453SOL    HW2 8259   6.629   3.565   0.578
 2454SOL     OW 8260   3.756   0.450   6.306
 2454SOL    HW1 8261   3.724   0.496   6.389
 2454SOL    HW2 8262   3.851   0.423   6.317
 2455SOL     OW 8263   4.113   0.488   0.909
 2455SOL    HW1 8264   4.051   0.503   0.832
 2455SOL    HW2 8265   4.206   0.473   0.874
 2456SOL     OW 8266   5.931   2.155   0.135
 2456SOL    HW1 8267   5.971   2.230   0.081
 2456SOL    HW2 8268   5.929   2.182   0.232
 2457SOL     OW 8269   6.571   0.328   6.308
 2457SOL    HW1 8270   6.497   0.341   6.242
 2457SOL    HW2 8271   6.595   0.417   6.349
 2458SOL     OW 8272   2.102   6.095   3.684
 2458SOL    HW1 8273   2.103   5.996   3.696
 2458SOL    HW2 8274   2.008   6.128   3.680
 2459SOL     OW 8275   2.381   6.227   6.064
 2459SOL    HW1 8276   2.475   6.194   6.057
 2459SOL    HW2 8277   2.344   6.206   6.154
 2460SOL     OW 8278   1.762   1.413   1.512
 2460SOL    HW1 8279   1.665   1.434   1.506
 2460SOL    HW2 8280   1.786   1.346   1.442
 2461SOL     OW 8281   4.619   1.055   3.125
 2461SOL    HW1 8282   4.660   0.971   3.159
 2461SOL    HW2 8283   4.553   1.033   3.053
 2462SOL     OW 8284   1.573   5.533   6.895
 2462SOL    HW1 8285   1.530   5.565   6.810
 2462SOL    HW2 8286   1.653   5.477   6.872
 2463SOL     OW 8287   6.214   1.812   6.015
 2463SOL    HW1 8288   6.187   1.742   5.949
 2463SOL    HW2 8289   6.307   1.794   6.047
 2464SOL     OW 8290   2.081   3.875   2.531
 2464SOL    HW1 8291   2.114   3.830   2.448
 2464SOL    HW2 8292   2.042   3.964   2.507
 2465SOL     OW 8293   0.862   0.154   0.687
 2465SOL    HW1 8294   0.863   0.190   0.593
 2465SOL    HW2 8295   0.952   0.118   0.710
 2466SOL     OW 8296   2.317   1.562   3.115
 2466SOL    HW1 8297   2.356   1.581   3.205
 2466SOL    HW2 8298   2.291   1.648   3.071
 2467SOL     OW 8299   4.913   1.187   5.440
 2467SOL    HW1 8300   4.915   1.207   5.538
 2467SOL    HW2 8301   4.834   1.130   5.420
 2468SOL     OW 8302   4.583   6.561   1.699
 2468SOL    HW1 8303   4.642   6.615   1.759
 2468SOL    HW2 8304   4.487   6.576   1.725
 2469SOL     OW 8305   4.027   4.008   5.681
 2469SOL    HW1 8306   4.033   3.987   5.584
 2469SOL    HW2 8307   4.088   3.947   5.732
 2470SOL     OW 8308   3.833   4.176   6.258
 2470SOL    HW1 8309   3.895   4.229   6.202
 2470SOL    HW2 8310   3.825   4.218   6.349
 2471SOL     OW 8311   2.630   6.124   0.710
 2471SOL    HW1 8312   2.671   6.064   0.641
 2471SOL    HW2 8313   2.610   6.072   0.793
 2472SOL     OW 8314   4.848   2.218   4.255
 2472SOL    HW1 8315   4.844   2.241   4.352
 2472SOL    HW2 8316   4.796   2.285   4.202
 2473SOL     OW 8317   2.097   3.826   5.074
 2473SOL    HW1 8318   2.026   3.893   5.054
 2473SOL    HW2 8319   2.187   3.867   5.059
 2474SOL     OW 8320   0.337   6.008   0.861
 2474SOL    HW1 8321   0.369   5.933   0.919
 2474SOL    HW2 8322   0.241   5.994   0.838
 2475SOL     OW 8323   4.647   0.910   2.460
 2475SOL    HW1 8324   4.735   0.929   2.417
 2475SOL    HW2 8325   4.597   0.995   2.474
 2476SOL     OW 8326   6.806   1.507   2.951
 2476SOL    HW1 8327   6.717   1.542   2.979
 2476SOL    HW2 8328   6.854   1.578   2.899
 2477SOL     OW 8329   4.652   1.268   2.072
 2477SOL    HW1 8330   4.629   1.180   2.113
 2477SOL    HW2 8331   4.606   1.278   1.984
 2478SOL     OW 8332   6.349   1.307   2.186
 2478SOL    HW1 8333   6.414   1.263   2.124
 2478SOL    HW2 8334   6.279   1.354   2.133
 2479SOL     OW 8335   1.475   4.180   1.526
 2479SOL    HW1 8336   1.572   4.203   1.534
 2479SOL    HW2 8337   1.454   4.160   1.430
 2480SOL     OW 8338   4.994   4.402   0.684
 2480SOL    HW1 8339   5.077   4.447   0.718
 2480SOL    HW2 8340   4.970   4.440   0.595
 2481SOL     OW 8341   2.248   0.775   0.400
 2481SOL    HW1 8342   2.324   0.719   0.368
 2481SOL    HW2 8343   2.262   0.870   0.371
 2482SOL     OW 8344   4.919   3.876   5.627
 2482SOL    HW1 8345   4.991   3.836   5.683
 2482SOL    HW2 8346   4.832   3.874   5.677
 2483SOL     OW 8347   1.824   1.909   0.106
 2483SOL    HW1 8348   1.774   1.963   0.039
 2483SOL    HW2 8349   1.856   1.968   0.180
 2484SOL     OW 8350   3.363   0.586   0.071
 2484SOL    HW1 8351   3.388   0.551   7.002
 2484SOL    HW2 8352   3.278   0.637   0.065
 2485SOL     OW 8353   5.903   4.079   1.022
 2485SOL    HW1 8354   5.896   3.990   0.978
 2485SOL    HW2 8355   5.903   4.068   1.121
 2486SOL     OW 8356   1.942   4.797   4.222
 2486SOL    HW1 8357   1.959   4.700   4.205
 2486SOL    HW2 8358   1.983   4.823   4.309
 2487SOL     OW 8359   4.049   5.886   0.234
 2487SOL    HW1 8360   4.046   5.984   0.255
 2487SOL    HW2 8361   3.957   5.847   0.242
 2488SOL     OW 8362   2.104   4.168   2.511
 2488SOL    HW1 8363   2.197   4.194   2.538
 2488SOL    HW2 8364   2.039   4.196   2.581
 2489SOL     OW 8365   1.252   5.493   2.539
 2489SOL    HW1 8366   1.169   5.510   2.486
 2489SOL    HW2 8367   1.330   5.483   2.477
 2490SOL     OW 8368   6.530   4.939   1.507
 2490SOL    HW1 8369   6.519   4.968   1.412
 2490SOL    HW2 8370   6.521   4.840   1.513
 2491SOL     OW 8371   2.979   5.454   1.011
 2491SOL    HW1 8372   3.065   5.503   1.003
 2491SOL    HW2 8373   2.916   5.484   0.939
 2492SOL     OW 8374   3.944   2.191   1.004
 2492SOL    HW1 8375   3.949   2.118   1.073
 2492SOL    HW2 8376   3.943   2.280   1.050
 2493SOL     OW 8377   6.163   0.860   2.231
 2493SOL    HW1 8378   6.257   0.868   2.195
 2493SOL    HW2 8379   6.109   0.804   2.168
 2494SOL     OW 8380   5.638   3.614   2.044
 2494SOL    HW1 8381   5.621   3.524   2.003
 2494SOL    HW2 8382   5.734   3.638   2.033
 2495SOL     OW 8383   5.274   0.047   4.371
 2495SOL    HW1 8384   5.373   0.065   4.377
 2495SOL    HW2 8385   5.229   0.078   4.455
 2496SOL     OW 8386   0.332   3.884   5.576
 2496SOL    HW1 8387   0.289   3.819   5.513
 2496SOL    HW2 8388   0.398   3.940   5.526
 2497SOL     OW 8389   0.407   0.375   1.032
 2497SOL    HW1 8390   0.435   0.296   1.087
 2497SOL    HW2 8391   0.460   0.455   1.059
 2498SOL     OW 8392   3.241   1.156   4.790
 2498SOL    HW1 8393   3.240   1.189   4.696
 2498SOL    HW2 8394   3.335   1.134   4.816
 2499SOL     OW 8395   5.657   2.170   4.748
 2499SOL    HW1 8396   5.672   2.082   4.703
 2499SOL    HW2 8397   5.559   2.191   4.748
 2500SOL     OW 8398   4.428   3.038   0.137
 2500SOL    HW1 8399   4.451   2.945   0.108
 2500SOL    HW2 8400   4.332   3.043   0.163
 2501SOL     OW 8401   5.667   5.203   7.008
 2501SOL    HW1 8402   5.574   5.173   0.006
 2501SOL    HW2 8403   5.732   5.136   0.022
 2502SOL     OW 8404   1.832   5.456   2.948
 2502SOL    HW1 8405   1.877   5.367   2.953
 2502SOL    HW2 8406   1.880   5.522   3.005
 2503SOL     OW 8407   3.504   5.287   4.552
 2503SOL    HW1 8408   3.509   5.244   4.642
 2503SOL    HW2 8409   3.417   5.336   4.544
 2504SOL     OW 8410   3.106   5.108   4.465
 2504SOL    HW1 8411   3.042   5.156   4.525
 2504SOL    HW2 8412   3.194   5.100   4.511
 2505SOL     OW 8413   0.909   5.854   3.862
 2505SOL    HW1 8414   0.864   5.860   3.773
 2505SOL    HW2 8415   0.981   5.923   3.867
 2506SOL     OW 8416   6.294   3.421   5.792
 2506SOL    HW1 8417   6.327   3.455   5.705
 2506SOL    HW2 8418   6.342   3.336   5.816
 2507SOL     OW 8419   0.838   4.617   0.924
 2507SOL    HW1 8420   0.885   4.529   0.917
 2507SOL    HW2 8421   0.784   4.632   0.842
 2508SOL     OW 8422   2.604   1.507   1.988
 2508SOL    HW1 8423   2.651   1.566   2.054
 2508SOL    HW2 8424   2.571   1.562   1.912
 2509SOL     OW 8425   6.621   2.477   2.345
 2509SOL    HW1 8426   6.551   2.479   2.416
 2509SOL    HW2 8427   6.585   2.431   2.264
 2510SOL     OW 8428   3.219   4.255   1.405
 2510SOL    HW1 8429   3.219   4.271   1.306
 2510SOL    HW2 8430   3.291   4.190   1.428
 2511SOL     OW 8431   2.767   1.308   3.828
 2511SOL    HW1 8432   2.791   1.215   3.800
 2511SOL    HW2 8433   2.702   1.347   3.763
 2512SOL     OW 8434   4.853   4.656   5.099
 2512SOL    HW1 8435   4.822   4.600   5.176
 2512SOL    HW2 8436   4.886   4.744   5.133
 2513SOL     OW 8437   1.270   3.627   4.563
 2513SOL    HW1 8438   1.292   3.583   4.650
 2513SOL    HW2 8439   1.350   3.677   4.529
 2514SOL     OW 8440   6.285   3.134   3.859
 2514SOL    HW1 8441   6.223   3.203   3.822
 2514SOL    HW2 8442   6.308   3.158   3.954
 2515SOL     OW 8443   1.592   6.226   0.548
 2515SOL    HW1 8444   1.643   6.176   0.618
 2515SOL    HW2 8445   1.502   6.184   0.536
 2516SOL     OW 8446   6.153   0.680   3.202
 2516SOL    HW1 8447   6.195   0.722   3.121
 2516SOL    HW2 8448   6.224   0.646   3.263
 2517SOL     OW 8449   0.416   5.235   5.842
 2517SOL    HW1 8450   0.353   5.231   5.764
 2517SOL    HW2 8451   0.509   5.219   5.809
 2518SOL     OW 8452   1.154   3.857   6.988
 2518SOL    HW1 8453   1.249   3.845   7.018
 2518SOL    HW2 8454   1.093   3.848   0.045
 2519SOL     OW 8455   5.489   6.461   4.056
 2519SOL    HW1 8456   5.558   6.390   4.069
 2519SOL    HW2 8457   5.484   6.484   3.958
 2520SOL     OW 8458   1.857   2.501   6.926
 2520SOL    HW1 8459   1.943   2.552   6.926
 2520SOL    HW2 8460   1.856   2.437   7.003
 2521SOL     OW 8461   0.921   6.951   5.426
 2521SOL    HW1 8462   0.950   6.921   5.335
 2521SOL    HW2 8463   0.832   6.912   5.448
 2522SOL     OW 8464   0.372   3.513   5.755
 2522SOL    HW1 8465   0.312   3.496   5.833
 2522SOL    HW2 8466   0.381   3.612   5.740
 2523SOL     OW 8467   0.427   3.059   2.229
 2523SOL    HW1 8468   0.521   3.047   2.261
 2523SOL    HW2 8469   0.426   3.060   2.129
 2524SOL     OW 8470   0.707   5.807   5.425
 2524SOL    HW1 8471   0.662   5.718   5.422
 2524SOL    HW2 8472   0.691   5.850   5.514
 2525SOL     OW 8473   1.304   2.251   4.436
 2525SOL    HW1 8474   1.234   2.322   4.448
 2525SOL    HW2 8475   1.269   2.179   4.376
 2526SOL     OW 8476   1.451   4.484   5.296
 2526SOL    HW1 8477   1.463   4.496   5.394
 2526SOL    HW2 8478   1.439   4.573   5.253
 2527SOL     OW 8479   5.422   5.868   4.887
 2527SOL    HW1 8480   5.516   5.847   4.914
 2527SOL    HW2 8481   5.400   5.820   4.802
 2528SOL     OW 8482   5.660   4.799   1.397
 2528SOL    HW1 8483   5.714   4.851   1.463
 2528SOL    HW2 8484   5.606   4.730   1.445
 2529SOL     OW 8485   6.980   6.674   6.751
 2529SOL    HW1 8486   7.019   6.765   6.738
 2529SOL    HW2 8487   6.898   6.665   6.695
 2530SOL     OW 8488   2.039   0.111   4.588
 2530SOL    HW1 8489   2.032   0.092   4.491
 2530SOL    HW2 8490   1.966   0.175   4.615
 2531SOL     OW 8491   4.598   5.949   4.305
 2531SOL    HW1 8492   4.613   6.021   4.237
 2531SOL    HW2 8493   4.571   5.865   4.259
 2532SOL     OW 8494   0.695   6.211   0.485
 2532SOL    HW1 8495   0.735   6.303   0.490
 2532SOL    HW2 8496   0.595   6.219   0.485
 2533SOL     OW 8497   2.864   6.961   2.942
 2533SOL    HW1 8498   2.905   6.994   2.858
 2533SOL    HW2 8499   2.783   7.015   2.964
 2534SOL     OW 8500   3.404   1.175   2.952
 2534SOL    HW1 8501   3.376   1.081   2.931
 2534SOL    HW2 8502   3.329   1.237   2.931
 2535SOL     OW 8503   3.394   2.671   6.019
 2535SOL    HW1 8504   3.453   2.665   5.939
 2535SOL    HW2 8505   3.450   2.681   6.101
 2536SOL     OW 8506   6.695   1.962   4.326
 2536SOL    HW1 8507   6.755   1.987   4.250
 2536SOL    HW2 8508   6.745   1.907   4.393
 2537SOL     OW 8509   4.599   6.727   6.729
 2537SOL    HW1 8510   4.699   6.722   6.737
 2537SOL    HW2 8511   4.560   6.761   6.815
 2538SOL     OW 8512   1.426   4.550   4.465
 2538SOL    HW1 8513   1.437   4.567   4.367
 2538SOL    HW2 8514   1.495   4.485   4.496
 2539SOL     OW 8515   5.419   0.801   6.337
 2539SOL    HW1 8516   5.349   0.823   6.406
 2539SOL    HW2 8517   5.409   0.864   6.260
 2540SOL     OW 8518   3.849   1.077   2.325
 2540SOL    HW1 8519   3.879   1.111   2.236
 2540SOL    HW2 8520   3.855   1.151   2.392
 2541SOL     OW 8521   1.943   6.681   5.480
 2541SOL    HW1 8522   1.928   6.587   5.448
 2541SOL    HW2 8523   1.912   6.688   5.575
 2542SOL     OW 8524   4.355   1.544   6.197
 2542SOL    HW1 8525   4.320   1.584   6.281
 2542SOL    HW2 8526   4.419   1.608   6.154
 2543SOL     OW 8527   2.146   2.047   2.745
 2543SOL    HW1 8528   2.073   2.109   2.773
 2543SOL    HW2 8529   2.220   2.049   2.812
 2544SOL     OW 8530   0.085   5.389   1.410
 2544SOL    HW1 8531   0.036   5.377   1.496
 2544SOL    HW2 8532   0.062   5.315   1.347
 2545SOL     OW 8533   2.232   0.675   1.563
 2545SOL    HW1 8534   2.254   0.745   1.495
 2545SOL    HW2 8535   2.166   0.712   1.629
 2546SOL     OW 8536   0.381   2.253   1.639
 2546SOL    HW1 8537   0.458   2.245   1.702
 2546SOL    HW2 8538   0.357   2.163   1.603
 2547SOL     OW 8539   5.940   3.742   0.012
 2547SOL    HW1 8540   5.846   3.724   7.006
 2547SOL    HW2 8541   5.939   3.788   0.101
 2548SOL     OW 8542   2.780   6.629   5.966
 2548SOL    HW1 8543   2.879   6.615   5.954
 2548SOL    HW2 8544   2.762   6.726   5.980
 2549SOL     OW 8545   1.649   0.742   1.437
 2549SOL    HW1 8546   1.727   0.804   1.441
 2549SOL    HW2 8547   1.645   0.700   1.347
 2550SOL     OW 8548   6.806   0.504   6.425
 2550SOL    HW1 8549   6.782   0.595   6.461
 2550SOL    HW2 8550   6.837   0.514   6.330
 2551SOL     OW 8551   3.347   5.523   0.277
 2551SOL    HW1 8552   3.320   5.569   0.192
 2551SOL    HW2 8553   3.325   5.425   0.269
 2552SOL     OW 8554   1.591   5.680   6.191
 2552SOL    HW1 8555   1.662   5.653   6.126
 2552SOL    HW2 8556   1.617   5.649   6.283
 2553SOL     OW 8557   3.825   3.350   6.844
 2553SOL    HW1 8558   3.860   3.436   6.808
 2553SOL    HW2 8559   3.853   3.275   6.784
 2554SOL     OW 8560   1.785   6.206   6.541
 2554SOL    HW1 8561   1.758   6.299   6.518
 2554SOL    HW2 8562   1.836   6.207   6.627
 2555SOL     OW 8563   6.326   6.380   6.770
 2555SOL    HW1 8564   6.366   6.353   6.682
 2555SOL    HW2 8565   6.230   6.352   6.774
 2556SOL     OW 8566   4.355   5.184   0.098
 2556SOL    HW1 8567   4.407   5.156   0.178
 2556SOL    HW2 8568   4.338   5.105   0.039
 2557SOL     OW 8569   2.958   2.442   6.357
 2557SOL    HW1 8570   2.905   2.512   6.405
 2557SOL    HW2 8571   2.942   2.448   6.259
 2558SOL     OW 8572   4.313   3.355   5.690
 2558SOL    HW1 8573   4.237   3.321   5.746
 2558SOL    HW2 8574   4.286   3.439   5.644
 2559SOL     OW 8575   6.446   3.325   4.586
 2559SOL    HW1 8576   6.360   3.277   4.575
 2559SOL    HW2 8577   6.511   3.267   4.636
 2560SOL     OW 8578   5.780   3.470   3.996
 2560SOL    HW1 8579   5.692   3.424   3.998
 2560SOL    HW2 8580   5.834   3.435   3.919
 2561SOL     OW 8581   3.233   0.277   3.838
 2561SOL    HW1 8582   3.212   0.223   3.757
 2561SOL    HW2 8583   3.247   0.373   3.811
 2562SOL     OW 8584   1.468   5.860   2.452
 2562SOL    HW1 8585   1.432   5.842   2.543
 2562SOL    HW2 8586   1.496   5.956   2.446
 2563SOL     OW 8587   4.368   2.079   6.802
 2563SOL    HW1 8588   4.299   2.151   6.801
 2563SOL    HW2 8589   4.364   2.030   6.890
 2564SOL     OW 8590   1.235   0.103   6.065
 2564SOL    HW1 8591   1.309   0.067   6.121
 2564SOL    HW2 8592   1.241   0.064   5.973
 2565SOL     OW 8593   6.845   0.971   0.536
 2565SOL    HW1 8594   6.937   0.935   0.552
 2565SOL    HW2 8595   6.803   0.994   0.624
 2566SOL     OW 8596   1.677   0.063   1.242
 2566SOL    HW1 8597   1.619   0.144   1.239
 2566SOL    HW2 8598   1.623   7.005   1.269
 2567SOL     OW 8599   1.109   1.245   1.832
 2567SOL    HW1 8600   1.159   1.171   1.878
 2567SOL    HW2 8601   1.164   1.279   1.756
 2568SOL     OW 8602   3.867   6.781   6.993
 2568SOL    HW1 8603   3.840   6.791   0.067
 2568SOL    HW2 8604   3.792   6.738   6.942
 2569SOL     OW 8605   2.970   0.885   1.932
 2569SOL    HW1 8606   2.907   0.960   1.950
 2569SOL    HW2 8607   2.988   0.880   1.833
 2570SOL     OW 8608   6.228   0.653   6.624
 2570SOL    HW1 8609   6.146   0.710   6.632
 2570SOL    HW2 8610   6.261   0.628   6.715
 2571SOL     OW 8611   2.141   3.973   5.489
 2571SOL    HW1 8612   2.150   4.039   5.414
 2571SOL    HW2 8613   2.094   3.891   5.457
 2572SOL     OW 8614   2.229   5.918   0.763
 2572SOL    HW1 8615   2.246   5.856   0.686
 2572SOL    HW2 8616   2.280   6.003   0.749
 2573SOL     OW 8617   6.361   1.905   1.690
 2573SOL    HW1 8618   6.299   1.827   1.679
 2573SOL    HW2 8619   6.310   1.990   1.677
 2574SOL     OW 8620   6.243   3.209   0.406
 2574SOL    HW1 8621   6.291   3.242   0.488
 2574SOL    HW2 8622   6.237   3.283   0.339
 2575SOL     OW 8623   4.383   5.378   6.953
 2575SOL    HW1 8624   4.354   5.307   7.018
 2575SOL    HW2 8625   4.465   5.346   6.904
 2576SOL     OW 8626   4.185   6.969   4.419
 2576SOL    HW1 8627   4.160   6.878   4.453
 2576SOL    HW2 8628   4.105   7.011   4.377
 2577SOL     OW 8629   3.717   6.517   1.966
 2577SOL    HW1 8630   3.806   6.487   1.931
 2577SOL    HW2 8631   3.731   6.594   2.029
 2578SOL     OW 8632   4.751   1.979   4.127
 2578SOL    HW1 8633   4.813   2.038   4.179
 2578SOL    HW2 8634   4.701   2.034   4.060
 2579SOL     OW 8635   1.292   6.733   2.924
 2579SOL    HW1 8636   1.235   6.656   2.895
 2579SOL    HW2 8637   1.326   6.782   2.844
 2580SOL     OW 8638   2.837   2.993   6.784
 2580SOL    HW1 8639   2.879   3.063   6.726
 2580SOL    HW2 8640   2.760   2.951   6.736
 2581SOL     OW 8641   6.984   4.158   1.188
 2581SOL    HW1 8642   6.969   4.182   1.092
 2581SOL    HW2 8643   6.979   4.059   1.198
 2582SOL     OW 8644   0.842   4.133   1.969
 2582SOL    HW1 8645   0.807   4.195   1.899
 2582SOL    HW2 8646   0.814   4.039   1.947
 2583SOL     OW 8647   0.556   1.443   1.473
 2583SOL    HW1 8648   0.643   1.451   1.424
 2583SOL    HW2 8649   0.534   1.531   1.516
 2584SOL     OW 8650   4.130   5.360   0.443
 2584SOL    HW1 8651   4.133   5.460   0.450
 2584SOL    HW2 8652   4.034   5.330   0.445
 2585SOL     OW 8653   4.683   2.515   0.927
 2585SOL    HW1 8654   4.662   2.574   0.849
 2585SOL    HW2 8655   4.779   2.488   0.924
 2586SOL     OW 8656   3.244   1.868   3.487
 2586SOL    HW1 8657   3.201   1.782   3.461
 2586SOL    HW2 8658   3.199   1.905   3.569
 2587SOL     OW 8659   0.568   0.425   3.691
 2587SOL    HW1 8660   0.638   0.488   3.723
 2587SOL    HW2 8661   0.610   0.352   3.636
 2588SOL     OW 8662   4.808   0.587   6.750
 2588SOL    HW1 8663   4.792   0.611   6.654
 2588SOL    HW2 8664   4.728   0.614   6.805
 2589SOL     OW 8665   6.950   6.099   6.891
 2589SOL    HW1 8666   6.945   6.107   6.991
 2589SOL    HW2 8667   6.939   6.003   6.865
 2590SOL     OW 8668   3.123   6.429   1.523
 2590SOL    HW1 8669   3.178   6.513   1.524
 2590SOL    HW2 8670   3.160   6.366   1.456
 2591SOL     OW 8671   0.215   5.855   2.311
 2591SOL    HW1 8672   0.136   5.806   2.347
 2591SOL    HW2 8673   0.251   5.806   2.232
 2592SOL     OW 8674   3.708   6.524   0.963
 2592SOL    HW1 8675   3.671   6.448   0.909
 2592SOL    HW2 8676   3.806   6.531   0.949
 2593SOL     OW 8677   2.870   5.817   0.704
 2593SOL    HW1 8678   2.902   5.754   0.632
 2593SOL    HW2 8679   2.770   5.815   0.707
 2594SOL     OW 8680   0.380   5.533   6.270
 2594SOL    HW1 8681   0.439   5.614   6.267
 2594SOL    HW2 8682   0.429   5.454   6.233
 2595SOL     OW 8683   6.424   1.836   4.195
 2595SOL    HW1 8684   6.458   1.762   4.137
 2595SOL    HW2 8685   6.500   1.895   4.222
 2596SOL     OW 8686   3.924   1.953   1.627
 2596SOL    HW1 8687   3.952   2.047   1.644
 2596SOL    HW2 8688   3.826   1.944   1.642
 2597SOL     OW 8689   1.547   4.024   5.722
 2597SOL    HW1 8690   1.519   3.971   5.642
 2597SOL    HW2 8691   1.640   3.996   5.748
 2598SOL     OW 8692   5.994   1.291   4.321
 2598SOL    HW1 8693   6.092   1.313   4.322
 2598SOL    HW2 8694   5.941   1.374   4.338
 2599SOL     OW 8695   2.258   0.011   0.986
 2599SOL    HW1 8696   2.190   0.026   0.914
 2599SOL    HW2 8697   2.230   0.059   1.069
 2600SOL     OW 8698   4.919   3.304   3.996
 2600SOL    HW1 8699   4.904   3.397   4.032
 2600SOL    HW2 8700   5.008   3.271   4.026
 2601SOL     OW 8701   1.762   1.977   0.698
 2601SOL    HW1 8702   1.718   2.051   0.647
 2601SOL    HW2 8703   1.769   1.896   0.639
 2602SOL     OW 8704   7.019   4.105   4.289
 2602SOL    HW1 8705   6.960   4.090   4.210
 2602SOL    HW2 8706   6.965   4.100   4.372
 2603SOL     OW 8707   2.510   1.616   1.754
 2603SOL    HW1 8708   2.413   1.591   1.757
 2603SOL    HW2 8709   2.519   1.716   1.751
 2604SOL     OW 8710   4.796   1.191   2.993
 2604SOL    HW1 8711   4.731   1.138   3.049
 2604SOL    HW2 8712   4.766   1.286   2.988
 2605SOL     OW 8713   1.875   4.231   2.643
 2605SOL    HW1 8714   1.881   4.287   2.726
 2605SOL    HW2 8715   1.805   4.268   2.582
 2606SOL     OW 8716   6.422   4.308   1.547
 2606SOL    HW1 8717   6.373   4.320   1.461
 2606SOL    HW2 8718   6.509   4.261   1.529
 2607SOL     OW 8719   0.518   0.820   0.244
 2607SOL    HW1 8720   0.441   0.796   0.302
 2607SOL    HW2 8721   0.601   0.775   0.278
 2608SOL     OW 8722   4.771   4.813   1.597
 2608SOL    HW1 8723   4.718   4.893   1.570
 2608SOL    HW2 8724   4.710   4.736   1.614
 2609SOL     OW 8725   6.727   1.872   1.401
 2609SOL    HW1 8726   6.770   1.787   1.369
 2609SOL    HW2 8727   6.699   1.861   1.496
 2610SOL     OW 8728   0.501   4.944   4.393
 2610SOL    HW1 8729   0.504   5.007   4.315
 2610SOL    HW2 8730   0.588   4.947   4.441
 2611SOL     OW 8731   4.470   6.104   1.188
 2611SOL    HW1 8732   4.550   6.160   1.166
 2611SOL    HW2 8733   4.426   6.140   1.270
 2612SOL     OW 8734   0.026   6.945   6.217
 2612SOL    HW1 8735   0.031   6.859   6.268
 2612SOL    HW2 8736   0.113   6.962   6.171
 2613SOL     OW 8737   2.801   6.646   6.609
 2613SOL    HW1 8738   2.726   6.684   6.662
 2613SOL    HW2 8739   2.776   6.556   6.573
 2614SOL     OW 8740   6.995   1.090   5.969
 2614SOL    HW1 8741   6.953   1.085   6.060
 2614SOL    HW2 8742   0.042   1.019   5.960
 2615SOL     OW 8743   6.994   2.203   3.285
 2615SOL    HW1 8744   6.943   2.163   3.209
 2615SOL    HW2 8745   7.019   2.297   3.263
 2616SOL     OW 8746   3.720   3.238   5.362
 2616SOL    HW1 8747   3.748   3.195   5.447
 2616SOL    HW2 8748   3.801   3.263   5.309
 2617SOL     OW 8749   3.622   6.305   0.572
 2617SOL    HW1 8750   3.709   6.259   0.557
 2617SOL    HW2 8751   3.562   6.288   0.494
 2618SOL     OW 8752   6.946   0.568   4.268
 2618SOL    HW1 8753   6.890   0.649   4.285
 2618SOL    HW2 8754   6.908   0.518   4.190
 2619SOL     OW 8755   4.403   1.738   3.463
 2619SOL    HW1 8756   4.388   1.641   3.442
 2619SOL    HW2 8757   4.327   1.772   3.518
 2620SOL     OW 8758   0.066   0.351   3.296
 2620SOL    HW1 8759   0.154   0.350   3.343
 2620SOL    HW2 8760   0.041   0.446   3.275
 2621SOL     OW 8761   1.289   5.784   3.117
 2621SOL    HW1 8762   1.209   5.727   3.138
 2621SOL    HW2 8763   1.283   5.817   3.023
 2622SOL     OW 8764   1.971   3.206   5.540
 2622SOL    HW1 8765   1.964   3.142   5.463
 2622SOL    HW2 8766   1.972   3.299   5.505
 2623SOL     OW 8767   1.870   1.145   5.422
 2623SOL    HW1 8768   1.903   1.171   5.513
 2623SOL    HW2 8769   1.914   1.203   5.353
 2624SOL     OW 8770   6.713   1.723   5.884
 2624SOL    HW1 8771   6.719   1.645   5.946
 2624SOL    HW2 8772   6.644   1.787   5.917
 2625SOL     OW 8773   2.174   2.757   5.269
 2625SOL    HW1 8774   2.161   2.848   5.230
 2625SOL    HW2 8775   2.271   2.732   5.266
 2626SOL     OW 8776   0.445   0.333   5.625
 2626SOL    HW1 8777   0.534   0.316   5.582
 2626SOL    HW2 8778   0.417   0.252   5.676
 2627SOL     OW 8779   1.549   0.820   5.456
 2627SOL    HW1 8780   1.483   0.888   5.487
 2627SOL    HW2 8781   1.502   0.733   5.439
 2628SOL     OW 8782   1.781   4.676   5.613
 2628SOL    HW1 8783   1.843   4.738   5.564
 2628SOL    HW2 8784   1.826   4.643   5.696
 2629SOL     OW 8785   3.111   3.145   1.558
 2629SOL    HW1 8786   3.193   3.098   1.591
 2629SOL    HW2 8787   3.036   3.130   1.622
 2630SOL     OW 8788   3.194   2.115   2.299
 2630SOL    HW1 8789   3.228   2.103   2.392
 2630SOL    HW2 8790   3.107   2.164   2.301
 2631SOL     OW 8791   5.446   1.075   5.550
 2631SOL    HW1 8792   5.481   1.078   5.644
 2631SOL    HW2 8793   5.499   1.009   5.497
 2632SOL     OW 8794   4.413   3.036   6.461
 2632SOL    HW1 8795   4.343   2.970   6.490
 2632SOL    HW2 8796   4.501   3.012   6.502
 2633SOL     OW 8797   0.365   1.290   4.468
 2633SOL    HW1 8798   0.379   1.389   4.460
 2633SOL    HW2 8799   0.451   1.247   4.495
 2634SOL     OW 8800   0.873   4.836   3.299
 2634SOL    HW1 8801   0.837   4.880   3.381
 2634SOL    HW2 8802   0.922   4.753   3.323
 2635SOL     OW 8803   6.911   5.654   5.134
 2635SOL    HW1 8804   6.965   5.577   5.102
 2635SOL    HW2 8805   6.853   5.688   5.061
 2636SOL     OW 8806   4.560   0.850   5.263
 2636SOL    HW1 8807   4.551   0.875   5.167
 2636SOL    HW2 8808   4.474   0.814   5.297
 2637SOL     OW 8809   5.164   1.950   3.789
 2637SOL    HW1 8810   5.126   1.901   3.710
 2637SOL    HW2 8811   5.248   1.905   3.819
 2638SOL     OW 8812   6.636   7.007   3.810
 2638SOL    HW1 8813   6.696   6.930   3.829
 2638SOL    HW2 8814   6.617   7.012   3.712
 2639SOL     OW 8815   0.078   5.923   0.824
 2639SOL    HW1 8816   7.011   5.968   0.818
 2639SOL    HW2 8817   0.079   5.843   0.764
 2640SOL     OW 8818   0.695   6.069   5.034
 2640SOL    HW1 8819   0.712   5.970   5.030
 2640SOL    HW2 8820   0.658   6.092   5.125
 2641SOL     OW 8821   4.953   3.181   2.831
 2641SOL    HW1 8822   4.948   3.133   2.743
 2641SOL    HW2 8823   5.048   3.202   2.852
 2642SOL     OW 8824   4.699   6.552   4.067
 2642SOL    HW1 8825   4.782   6.522   4.021
 2642SOL    HW2 8826   4.696   6.513   4.159
 2643SOL     OW 8827   0.502   4.055   3.646
 2643SOL    HW1 8828   0.490   3.958   3.663
 2643SOL    HW2 8829   0.417   4.094   3.610
 2644SOL     OW 8830   5.584   6.498   5.505
 2644SOL    HW1 8831   5.582   6.424   5.437
 2644SOL    HW2 8832   5.622   6.463   5.591
 2645SOL     OW 8833   4.308   5.728   4.237
 2645SOL    HW1 8834   4.388   5.740   4.177
 2645SOL    HW2 8835   4.277   5.817   4.269
 2646SOL     OW 8836   6.095   0.802   6.908
 2646SOL    HW1 8837   6.171   0.738   6.898
 2646SOL    HW2 8838   6.038   0.798   6.826
 2647SOL     OW 8839   6.346   6.973   2.154
 2647SOL    HW1 8840   6.380   6.963   2.247
 2647SOL    HW2 8841   6.321   6.883   2.117
 2648SOL     OW 8842   0.443   0.305   4.284
 2648SOL    HW1 8843   0.508   0.378   4.303
 2648SOL    HW2 8844   0.452   0.276   4.188
 2649SOL     OW 8845   5.675   2.732   6.862
 2649SOL    HW1 8846   5.716   2.641   6.868
 2649SOL    HW2 8847   5.688   2.780   6.949
 2650SOL     OW 8848   1.216   4.218   4.356
 2650SOL    HW1 8849   1.291   4.239   4.293
 2650SOL    HW2 8850   1.147   4.164   4.309
 2651SOL     OW 8851   0.746   1.107   0.718
 2651SOL    HW1 8852   0.732   1.104   0.817
 2651SOL    HW2 8853   0.833   1.064   0.696
 2652SOL     OW 8854   4.088   3.231   4.365
 2652SOL    HW1 8855   4.109   3.283   4.282
 2652SOL    HW2 8856   4.056   3.294   4.436
 2653SOL     OW 8857   5.099   6.715   5.151
 2653SOL    HW1 8858   5.025   6.771   5.190
 2653SOL    HW2 8859   5.185   6.765   5.159
 2654SOL     OW 8860   4.114   6.082   2.342
 2654SOL    HW1 8861   4.093   6.085   2.439
 2654SOL    HW2 8862   4.059   6.010   2.299
 2655SOL     OW 8863   4.192   5.969   4.296
 2655SOL    HW1 8864   4.275   6.020   4.315
 2655SOL    HW2 8865   4.118   6.032   4.272
 2656SOL     OW 8866   3.991   4.883   4.970
 2656SOL    HW1 8867   4.067   4.929   5.016
 2656SOL    HW2 8868   4.024   4.842   4.885
 2657SOL     OW 8869   0.923   3.999   6.046
 2657SOL    HW1 8870   0.974   3.954   5.974
 2657SOL    HW2 8871   0.934   3.949   6.132
 2658SOL     OW 8872   4.877   4.388   0.921
 2658SOL    HW1 8873   4.933   4.372   0.840
 2658SOL    HW2 8874   4.932   4.433   0.991
 2659SOL     OW 8875   5.230   3.115   4.307
 2659SOL    HW1 8876   5.191   3.025   4.325
 2659SOL    HW2 8877   5.320   3.122   4.350
 2660SOL     OW 8878   1.850   0.044   1.689
 2660SOL    HW1 8879   1.868   6.995   1.757
 2660SOL    HW2 8880   1.901   0.127   1.712
 2661SOL     OW 8881   2.557   0.074   1.055
 2661SOL    HW1 8882   2.477   0.024   1.020
 2661SOL    HW2 8883   2.623   0.086   0.982
 2662SOL     OW 8884   5.207   6.312   4.645
 2662SOL    HW1 8885   5.152   6.291   4.564
 2662SOL    HW2 8886   5.212   6.411   4.657
 2663SOL     OW 8887   2.745   3.967   6.799
 2663SOL    HW1 8888   2.841   3.964   6.827
 2663SOL    HW2 8889   2.695   3.893   6.845
 2664SOL     OW 8890   4.464   3.854   5.434
 2664SOL    HW1 8891   4.466   3.907   5.519
 2664SOL    HW2 8892   4.557   3.828   5.408
 2665SOL     OW 8893   2.435   2.765   5.235
 2665SOL    HW1 8894   2.517   2.743   5.288
 2665SOL    HW2 8895   2.434   2.862   5.214
 2666SOL     OW 8896   5.539   4.968   1.230
 2666SOL    HW1 8897   5.575   4.924   1.312
 2666SOL    HW2 8898   5.610   5.024   1.188
 2667SOL     OW 8899   0.409   6.098   3.837
 2667SOL    HW1 8900   0.495   6.126   3.795
 2667SOL    HW2 8901   0.401   5.999   3.835
 2668SOL     OW 8902   0.292   3.148   4.862
 2668SOL    HW1 8903   0.384   3.122   4.833
 2668SOL    HW2 8904   0.228   3.072   4.844
 2669SOL     OW 8905   2.761   4.667   5.353
 2669SOL    HW1 8906   2.805   4.626   5.273
 2669SOL    HW2 8907   2.790   4.617   5.435
 2670SOL     OW 8908   6.063   3.309   6.298
 2670SOL    HW1 8909   5.963   3.314   6.297
 2670SOL    HW2 8910   6.096   3.321   6.392
 2671SOL     OW 8911   4.341   5.572   5.959
 2671SOL    HW1 8912   4.406   5.648   5.953
 2671SOL    HW2 8913   4.378   5.501   6.018
 2672SOL     OW 8914   1.819   4.952   0.627
 2672SOL    HW1 8915   1.917   4.935   0.617
 2672SOL    HW2 8916   1.789   4.924   0.718
 2673SOL     OW 8917   5.767   1.031   2.761
 2673SOL    HW1 8918   5.669   1.048   2.772
 2673SOL    HW2 8919   5.817   1.117   2.770
 2674SOL     OW 8920   1.172   4.263   3.606
 2674SOL    HW1 8921   1.180   4.278   3.704
 2674SOL    HW2 8922   1.099   4.321   3.569
 2675SOL     OW 8923   6.262   4.937   3.903
 2675SOL    HW1 8924   6.172   4.979   3.906
 2675SOL    HW2 8925   6.268   4.865   3.972
 2676SOL     OW 8926   3.704   2.714   1.071
 2676SOL    HW1 8927   3.786   2.769   1.082
 2676SOL    HW2 8928   3.693   2.689   0.975
 2677SOL     OW 8929   2.831   3.622   0.604
 2677SOL    HW1 8930   2.915   3.621   0.658
 2677SOL    HW2 8931   2.824   3.537   0.551
 2678SOL     OW 8932   0.213   2.897   1.520
 2678SOL    HW1 8933   0.233   2.908   1.423
 2678SOL    HW2 8934   0.151   2.819   1.533
 2679SOL     OW 8935   2.979   4.217   0.830
 2679SOL    HW1 8936   3.029   4.259   0.905
 2679SOL    HW2 8937   3.033   4.222   0.746
 2680SOL     OW 8938   1.278   1.928   0.367
 2680SOL    HW1 8939   1.299   1.939   0.270
 2680SOL    HW2 8940   1.179   1.936   0.381
 2681SOL     OW 8941   1.197   3.033   4.008
 2681SOL    HW1 8942   1.216   2.936   3.991
 2681SOL    HW2 8943   1.195   3.050   4.106
 2682SOL     OW 8944   4.682   4.243   2.547
 2682SOL    HW1 8945   4.631   4.171   2.500
 2682SOL    HW2 8946   4.712   4.311   2.480
 2683SOL     OW 8947   2.635   4.924   1.434
 2683SOL    HW1 8948   2.669   4.885   1.349
 2683SOL    HW2 8949   2.633   4.854   1.505
 2684SOL     OW 8950   4.319   5.449   2.102
 2684SOL    HW1 8951   4.319   5.384   2.178
 2684SOL    HW2 8952   4.410   5.488   2.092
 2685SOL     OW 8953   5.999   6.582   6.686
 2685SOL    HW1 8954   6.063   6.635   6.742
 2685SOL    HW2 8955   5.913   6.571   6.735
 2686SOL     OW 8956   1.783   2.308   5.918
 2686SOL    HW1 8957   1.836   2.320   6.002
 2686SOL    HW2 8958   1.719   2.384   5.908
 2687SOL     OW 8959   5.015   4.881   1.702
 2687SOL    HW1 8960   5.049   4.814   1.768
 2687SOL    HW2 8961   4.918   4.864   1.683
 2688SOL     OW 8962   3.622   3.723   0.044
 2688SOL    HW1 8963   3.662   3.701   6.977
 2688SOL    HW2 8964   3.523   3.730   0.035
 2689SOL     OW 8965   1.383   3.685   3.496
 2689SOL    HW1 8966   1.299   3.656   3.542
 2689SOL    HW2 8967   1.414   3.611   3.436
 2690SOL     OW 8968   3.888   2.984   4.228
 2690SOL    HW1 8969   3.889   2.975   4.328
 2690SOL    HW2 8970   3.956   3.051   4.200
 2691SOL     OW 8971   1.690   5.496   2.664
 2691SOL    HW1 8972   1.742   5.538   2.739
 2691SOL    HW2 8973   1.742   5.420   2.626
 2692SOL     OW 8974   3.493   5.272   2.884
 2692SOL    HW1 8975   3.543   5.232   2.961
 2692SOL    HW2 8976   3.399   5.237   2.884
 2693SOL     OW 8977   1.845   5.264   3.392
 2693SOL    HW1 8978   1.772   5.284   3.326
 2693SOL    HW2 8979   1.883   5.350   3.425
 2694SOL     OW 8980   3.607   5.614   2.966
 2694SOL    HW1 8981   3.531   5.626   3.030
 2694SOL    HW2 8982   3.607   5.688   2.899
 2695SOL     OW 8983   5.991   0.175   2.567
 2695SOL    HW1 8984   5.987   0.275   2.562
 2695SOL    HW2 8985   6.050   0.140   2.495
 2696SOL     OW 8986   3.939   2.978   5.229
 2696SOL    HW1 8987   4.034   2.985   5.258
 2696SOL    HW2 8988   3.904   2.887   5.253
 2697SOL     OW 8989   3.174   1.569   2.752
 2697SOL    HW1 8990   3.197   1.625   2.673
 2697SOL    HW2 8991   3.231   1.594   2.830
 2698SOL     OW 8992   2.150   6.375   0.254
 2698SOL    HW1 8993   2.152   6.350   0.350
 2698SOL    HW2 8994   2.120   6.296   0.200
 2699SOL     OW 8995   2.461   6.803   0.594
 2699SOL    HW1 8996   2.492   6.895   0.618
 2699SOL    HW2 8997   2.377   6.809   0.540
 2700SOL     OW 8998   2.459   3.568   0.077
 2700SOL    HW1 8999   2.418   3.564   0.168
 2700SOL    HW2 9000   2.532   3.500   0.071
 2701SOL     OW 9001   5.592   1.551   5.793
 2701SOL    HW1 9002   5.609   1.647   5.814
 2701SOL    HW2 9003   5.615   1.495   5.872
 2702SOL     OW 9004   0.392   2.650   3.478
 2702SOL    HW1 9005   0.349   2.737   3.457
 2702SOL    HW2 9006   0.331   2.595   3.535
 2703SOL     OW 9007   1.018   0.049   1.287
 2703SOL    HW1 9008   0.972   0.123   1.236
 2703SOL    HW2 9009   0.993   6.983   1.246
 2704SOL     OW 9010   6.991   5.630   1.459
 2704SOL    HW1 9011   6.916   5.620   1.524
 2704SOL    HW2 9012   6.998   5.549   1.402
 2705SOL     OW 9013   0.106   5.541   4.441
 2705SOL    HW1 9014   0.015   5.564   4.405
 2705SOL    HW2 9015   0.139   5.616   4.497
 2706SOL     OW 9016   6.773   5.638   1.839
 2706SOL    HW1 9017   6.842   5.609   1.906
 2706SOL    HW2 9018   6.715   5.709   1.880
 2707SOL     OW 9019   3.719   0.162   4.112
 2707SOL    HW1 9020   3.805   0.206   4.086
 2707SOL    HW2 9021   3.688   0.102   4.038
 2708SOL     OW 9022   0.450   2.433   0.056
 2708SOL    HW1 9023   0.433   2.491   0.137
 2708SOL    HW2 9024   0.548   2.431   0.037
 2709SOL     OW 9025   5.434   0.425   7.003
 2709SOL    HW1 9026   5.410   0.511   0.027
 2709SOL    HW2 9027   5.444   0.353   0.049
 2710SOL     OW 9028   0.706   4.236   3.837
 2710SOL    HW1 9029   0.663   4.162   3.785
 2710SOL    HW2 9030   0.635   4.298   3.872
 2711SOL     OW 9031   2.782   0.218   3.452
 2711SOL    HW1 9032   2.815   0.125   3.438
 2711SOL    HW2 9033   2.771   0.263   3.363
 2712SOL     OW 9034   3.088   4.287   1.067
 2712SOL    HW1 9035   3.031   4.369   1.068
 2712SOL    HW2 9036   3.033   4.208   1.094
 2713SOL     OW 9037   2.488   2.602   4.601
 2713SOL    HW1 9038   2.586   2.608   4.616
 2713SOL    HW2 9039   2.445   2.545   4.671
 2714SOL     OW 9040   3.697   2.605   0.277
 2714SOL    HW1 9041   3.744   2.633   0.361
 2714SOL    HW2 9042   3.764   2.568   0.213
 2715SOL     OW 9043   4.927   1.549   0.912
 2715SOL    HW1 9044   4.884   1.559   0.823
 2715SOL    HW2 9045   5.006   1.489   0.905
 2716SOL     OW 9046   5.087   3.900   2.096
 2716SOL    HW1 9047   5.063   3.931   2.004
 2716SOL    HW2 9048   5.089   3.978   2.158
 2717SOL     OW 9049   0.858   6.532   2.449
 2717SOL    HW1 9050   0.877   6.440   2.414
 2717SOL    HW2 9051   0.785   6.528   2.517
 2718SOL     OW 9052   1.548   2.043   4.852
 2718SOL    HW1 9053   1.593   1.955   4.836
 2718SOL    HW2 9054   1.510   2.077   4.766
 2719SOL     OW 9055   0.354   5.136   1.581
 2719SOL    HW1 9056   0.267   5.099   1.616
 2719SOL    HW2 9057   0.388   5.077   1.508
 2720SOL     OW 9058   2.164   5.790   1.900
 2720SOL    HW1 9059   2.263   5.778   1.888
 2720SOL    HW2 9060   2.124   5.705   1.935
 2721SOL     OW 9061   2.992   0.073   3.169
 2721SOL    HW1 9062   3.016   0.032   3.257
 2721SOL    HW2 9063   2.951   0.003   3.110
 2722SOL     OW 9064   6.653   5.627   0.869
 2722SOL    HW1 9065   6.631   5.685   0.791
 2722SOL    HW2 9066   6.681   5.684   0.946
 2723SOL     OW 9067   0.651   0.165   6.772
 2723SOL    HW1 9068   0.724   0.116   6.726
 2723SOL    HW2 9069   0.564   0.147   6.727
 2724SOL     OW 9070   1.634   6.612   6.678
 2724SOL    HW1 9071   1.706   6.555   6.716
 2724SOL    HW2 9072   1.584   6.657   6.752
 2725SOL     OW 9073   5.266   4.957   4.522
 2725SOL    HW1 9074   5.281   4.890   4.595
 2725SOL    HW2 9075   5.308   4.924   4.438
 2726SOL     OW 9076   0.094   2.661   0.779
 2726SOL    HW1 9077   0.009   2.616   0.806
 2726SOL    HW2 9078   0.171   2.597   0.791
 2727SOL     OW 9079   0.569   5.265   3.072
 2727SOL    HW1 9080   0.600   5.351   3.030
 2727SOL    HW2 9081   0.469   5.268   3.082
 2728SOL     OW 9082   4.883   6.882   5.272
 2728SOL    HW1 9083   4.872   6.802   5.331
 2728SOL    HW2 9084   4.795   6.903   5.228
 2729SOL     OW 9085   6.865   6.066   0.813
 2729SOL    HW1 9086   6.780   6.040   0.768
 2729SOL    HW2 9087   6.845   6.122   0.893
 2730SOL     OW 9088   1.831   5.840   1.617
 2730SOL    HW1 9089   1.867   5.881   1.700
 2730SOL    HW2 9090   1.813   5.743   1.631
 2731SOL     OW 9091   3.509   4.088   2.904
 2731SOL    HW1 9092   3.603   4.117   2.922
 2731SOL    HW2 9093   3.486   4.105   2.808
 2732SOL     OW 9094   5.542   2.009   1.799
 2732SOL    HW1 9095   5.467   1.944   1.812
 2732SOL    HW2 9096   5.504   2.100   1.782
 2733SOL     OW 9097   6.635   1.412   4.400
 2733SOL    HW1 9098   6.677   1.500   4.380
 2733SOL    HW2 9099   6.543   1.426   4.436
 2734SOL     OW 9100   2.944   6.245   1.038
 2734SOL    HW1 9101   2.885   6.164   1.038
 2734SOL    HW2 9102   2.930   6.296   1.123
 2735SOL     OW 9103   1.225   3.311   2.065
 2735SOL    HW1 9104   1.147   3.253   2.090
 2735SOL    HW2 9105   1.254   3.364   2.145
 2736SOL     OW 9106   5.698   6.884   5.074
 2736SOL    HW1 9107   5.747   6.884   4.986
 2736SOL    HW2 9108   5.637   6.805   5.078
 2737SOL     OW 9109   3.297   3.485   6.008
 2737SOL    HW1 9110   3.226   3.469   6.076
 2737SOL    HW2 9111   3.260   3.471   5.916
 2738SOL     OW 9112   4.926   6.310   1.832
 2738SOL    HW1 9113   4.861   6.297   1.907
 2738SOL    HW2 9114   4.955   6.406   1.828
 2739SOL     OW 9115   0.723   4.772   1.618
 2739SOL    HW1 9116   0.696   4.741   1.709
 2739SOL    HW2 9117   0.708   4.871   1.611
 2740SOL     OW 9118   0.228   3.801   2.442
 2740SOL    HW1 9119   0.278   3.729   2.395
 2740SOL    HW2 9120   0.218   3.880   2.381
 2741SOL     OW 9121   6.161   0.761   5.042
 2741SOL    HW1 9122   6.141   0.707   4.961
 2741SOL    HW2 9123   6.082   0.820   5.062
 2742SOL     OW 9124   1.899   5.416   6.925
 2742SOL    HW1 9125   1.983   5.377   6.887
 2742SOL    HW2 9126   1.918   5.457   7.014
 2743SOL     OW 9127   6.246   4.661   2.213
 2743SOL    HW1 9128   6.307   4.665   2.133
 2743SOL    HW2 9129   6.214   4.567   2.225
 2744SOL     OW 9130   5.200   2.194   6.284
 2744SOL    HW1 9131   5.104   2.183   6.256
 2744SOL    HW2 9132   5.258   2.134   6.229
 2745SOL     OW 9133   6.879   0.277   6.186
 2745SOL    HW1 9134   6.828   0.361   6.165
 2745SOL    HW2 9135   6.826   0.222   6.250
 2746SOL     OW 9136   2.846   1.444   4.127
 2746SOL    HW1 9137   2.777   1.381   4.094
 2746SOL    HW2 9138   2.913   1.463   4.055
 2747SOL     OW 9139   6.436   3.686   6.727
 2747SOL    HW1 9140   6.508   3.739   6.682
 2747SOL    HW2 9141   6.406   3.733   6.809
 2748SOL     OW 9142   4.933   1.430   1.464
 2748SOL    HW1 9143   4.855   1.432   1.401
 2748SOL    HW2 9144   4.983   1.516   1.458
 2749SOL     OW 9145   6.968   4.811   2.099
 2749SOL    HW1 9146   6.975   4.885   2.166
 2749SOL    HW2 9147   0.031   4.804   2.047
 2750SOL     OW 9148   0.714   5.081   1.008
 2750SOL    HW1 9149   0.723   5.124   0.918
 2750SOL    HW2 9150   0.801   5.089   1.057
 2751SOL     OW 9151   1.125   4.966   1.227
 2751SOL    HW1 9152   1.218   4.932   1.216
 2751SOL    HW2 9153   1.066   4.925   1.158
 2752SOL     OW 9154   4.140   5.770   5.835
 2752SOL    HW1 9155   4.181   5.706   5.900
 2752SOL    HW2 9156   4.048   5.738   5.810
 2753SOL     OW 9157   0.376   6.351   5.421
 2753SOL    HW1 9158   0.414   6.266   5.457
 2753SOL    HW2 9159   0.388   6.353   5.321
 2754SOL     OW 9160   0.565   0.453   2.097
 2754SOL    HW1 9161   0.554   0.408   2.186
 2754SOL    HW2 9162   0.610   0.391   2.033
 2755SOL     OW 9163   2.136   6.968   2.616
 2755SOL    HW1 9164   2.197   6.901   2.574
 2755SOL    HW2 9165   2.042   6.951   2.586
 2756SOL     OW 9166   5.933   4.754   6.991
 2756SOL    HW1 9167   5.924   4.657   7.013
 2756SOL    HW2 9168   5.920   4.768   6.893
 2757SOL     OW 9169   2.653   0.171   6.970
 2757SOL    HW1 9170   2.591   0.161   0.026
 2757SOL    HW2 9171   2.746   0.187   7.004
 2758SOL     OW 9172   3.822   6.407   4.209
 2758SOL    HW1 9173   3.837   6.386   4.305
 2758SOL    HW2 9174   3.729   6.382   4.183
 2759SOL     OW 9175   5.649   6.245   5.369
 2759SOL    HW1 9176   5.661   6.221   5.272
 2759SOL    HW2 9177   5.722   6.205   5.423
 2760SOL     OW 9178   1.011   5.791   2.164
 2760SOL    HW1 9179   0.913   5.798   2.184
 2760SOL    HW2 9180   1.033   5.847   2.084
 2761SOL     OW 9181   2.322   5.202   5.362
 2761SOL    HW1 9182   2.293   5.124   5.418
 2761SOL    HW2 9183   2.242   5.244   5.320
 2762SOL     OW 9184   2.080   0.700   5.327
 2762SOL    HW1 9185   2.033   0.783   5.357
 2762SOL    HW2 9186   2.163   0.724   5.277
 2763SOL     OW 9187   4.685   2.130   3.899
 2763SOL    HW1 9188   4.644   2.046   3.863
 2763SOL    HW2 9189   4.659   2.207   3.841
 2764SOL     OW 9190   6.613   0.960   1.424
 2764SOL    HW1 9191   6.640   1.003   1.510
 2764SOL    HW2 9192   6.594   1.030   1.356
 2765SOL     OW 9193   6.638   6.921   0.428
 2765SOL    HW1 9194   6.654   6.845   0.365
 2765SOL    HW2 9195   6.569   6.894   0.496
 2766SOL     OW 9196   5.193   2.696   0.524
 2766SOL    HW1 9197   5.152   2.726   0.610
 2766SOL    HW2 9198   5.288   2.729   0.519
 2767SOL     OW 9199   6.752   5.251   6.999
 2767SOL    HW1 9200   6.689   5.248   6.922
 2767SOL    HW2 9201   6.739   5.169   0.034
 2768SOL     OW 9202   4.391   0.600   1.230
 2768SOL    HW1 9203   4.421   0.541   1.305
 2768SOL    HW2 9204   4.294   0.585   1.212
 2769SOL     OW 9205   1.748   4.806   5.302
 2769SOL    HW1 9206   1.716   4.720   5.263
 2769SOL    HW2 9207   1.753   4.875   5.230
 2770SOL     OW 9208   4.007   5.655   6.074
 2770SOL    HW1 9209   4.056   5.739   6.098
 2770SOL    HW2 9210   3.919   5.679   6.031
 2771SOL     OW 9211   6.089   0.817   3.605
 2771SOL    HW1 9212   6.149   0.894   3.627
 2771SOL    HW2 9213   6.135   0.731   3.629
 2772SOL     OW 9214   3.706   2.188   0.573
 2772SOL    HW1 9215   3.618   2.235   0.564
 2772SOL    HW2 9216   3.726   2.174   0.670
 2773SOL     OW 9217   6.471   2.065   4.453
 2773SOL    HW1 9218   6.506   2.095   4.542
 2773SOL    HW2 9219   6.547   2.029   4.398
 2774SOL     OW 9220   5.240   2.563   2.941
 2774SOL    HW1 9221   5.275   2.652   2.972
 2774SOL    HW2 9222   5.306   2.521   2.879
 2775SOL     OW 9223   6.876   4.729   5.671
 2775SOL    HW1 9224   6.805   4.665   5.703
 2775SOL    HW2 9225   6.946   4.739   5.742
 2776SOL     OW 9226   4.643   4.858   5.780
 2776SOL    HW1 9227   4.740   4.850   5.755
 2776SOL    HW2 9228   4.599   4.769   5.772
 2777SOL     OW 9229   2.864   1.683   1.470
 2777SOL    HW1 9230   2.947   1.627   1.476
 2777SOL    HW2 9231   2.881   1.771   1.514
 2778SOL     OW 9232   1.860   0.020   5.452
 2778SOL    HW1 9233   1.813   6.991   5.380
 2778SOL    HW2 9234   1.909   0.097   5.413
 2779SOL     OW 9235   4.987   6.568   1.829
 2779SOL    HW1 9236   4.974   6.642   1.763
 2779SOL    HW2 9237   5.047   6.600   1.902
 2780SOL     OW 9238   0.312   6.743   0.195
 2780SOL    HW1 9239   0.306   6.778   0.288
 2780SOL    HW2 9240   0.272   6.652   0.191
 2781SOL     OW 9241   5.519   6.747   1.916
 2781SOL    HW1 9242   5.533   6.672   1.981
 2781SOL    HW2 9243   5.549   6.833   1.958
 2782SOL     OW 9244   4.970   1.861   5.821
 2782SOL    HW1 9245   4.950   1.894   5.913
 2782SOL    HW2 9246   4.906   1.901   5.756
 2783SOL     OW 9247   5.340   4.058   2.885
 2783SOL    HW1 9248   5.415   4.058   2.819
 2783SOL    HW2 9249   5.253   4.056   2.835
 2784SOL     OW 9250   3.194   1.366   2.368
 2784SOL    HW1 9251   3.173   1.339   2.274
 2784SOL    HW2 9252   3.228   1.286   2.418
 2785SOL     OW 9253   5.355   2.519   1.054
 2785SOL    HW1 9254   5.281   2.494   0.991
 2785SOL    HW2 9255   5.434   2.551   1.002
 2786SOL     OW 9256   5.092   6.938   2.660
 2786SOL    HW1 9257   5.131   6.985   2.581
 2786SOL    HW2 9258   5.000   6.905   2.638
 2787SOL     OW 9259   5.319   0.543   6.316
 2787SOL    HW1 9260   5.329   0.507   6.409
 2787SOL    HW2 9261   5.363   0.632   6.310
 2788SOL     OW 9262   2.023   5.514   5.852
 2788SOL    HW1 9263   2.082   5.587   5.888
 2788SOL    HW2 9264   1.959   5.553   5.785
 2789SOL     OW 9265   1.936   2.289   3.745
 2789SOL    HW1 9266   1.993   2.235   3.806
 2789SOL    HW2 9267   1.842   2.289   3.778
 2790SOL     OW 9268   3.718   5.783   2.175
 2790SOL    HW1 9269   3.620   5.803   2.174
 2790SOL    HW2 9270   3.767   5.860   2.216
 2791SOL     OW 9271   0.390   2.667   2.866
 2791SOL    HW1 9272   0.407   2.702   2.958
 2791SOL    HW2 9273   0.371   2.569   2.871
 2792SOL     OW 9274   1.391   6.803   4.149
 2792SOL    HW1 9275   1.439   6.786   4.063
 2792SOL    HW2 9276   1.457   6.810   4.224
 2793SOL     OW 9277   5.738   4.135   1.707
 2793SOL    HW1 9278   5.823   4.090   1.682
 2793SOL    HW2 9279   5.728   4.137   1.806
 2794SOL     OW 9280   0.302   2.233   6.565
 2794SOL    HW1 9281   0.389   2.275   6.541
 2794SOL    HW2 9282   0.235   2.305   6.585
 2795SOL     OW 9283   0.835   2.924   1.035
 2795SOL    HW1 9284   0.862   2.901   1.129
 2795SOL    HW2 9285   0.764   2.861   1.004
 2796SOL     OW 9286   0.241   6.453   3.436
 2796SOL    HW1 9287   0.250   6.387   3.511
 2796SOL    HW2 9288   0.306   6.528   3.450
 2797SOL     OW 9289   4.795   5.500   4.777
 2797SOL    HW1 9290   4.787   5.416   4.724
 2797SOL    HW2 9291   4.706   5.544   4.785
 2798SOL     OW 9292   0.493   5.391   2.001
 2798SOL    HW1 9293   0.548   5.308   2.011
 2798SOL    HW2 9294   0.417   5.373   1.939
 2799SOL     OW 9295   6.188   5.592   6.202
 2799SOL    HW1 9296   6.143   5.667   6.154
 2799SOL    HW2 9297   6.181   5.606   6.301
 2800SOL     OW 9298   4.622   6.403   6.805
 2800SOL    HW1 9299   4.617   6.472   6.878
 2800SOL    HW2 9300   4.715   6.370   6.796
 2801SOL     OW 9301   6.920   5.871   6.094
 2801SOL    HW1 9302   6.989   5.804   6.066
 2801SOL    HW2 9303   6.831   5.846   6.055
 2802SOL     OW 9304   5.654   6.716   5.327
 2802SOL    HW1 9305   5.751   6.703   5.309
 2802SOL    HW2 9306   5.627   6.658   5.404
 2803SOL     OW 9307   4.123   5.884   6.178
 2803SOL    HW1 9308   4.108   5.921   6.086
 2803SOL    HW2 9309   4.158   5.956   6.237
 2804SOL     OW 9310   0.067   4.575   5.376
 2804SOL    HW1 9311   0.127   4.551   5.299
 2804SOL    HW2 9312   0.095   4.522   5.456
 2805SOL     OW 9313   5.907   3.579   2.329
 2805SOL    HW1 9314   5.895   3.656   2.265
 2805SOL    HW2 9315   6.004   3.566   2.347
 2806SOL     OW 9316   0.187   4.036   5.753
 2806SOL    HW1 9317   0.234   3.983   5.682
 2806SOL    HW2 9318   0.255   4.084   5.808
 2807SOL     OW 9319   3.544   6.607   3.935
 2807SOL    HW1 9320   3.613   6.617   3.863
 2807SOL    HW2 9321   3.463   6.561   3.898
 2808SOL     OW 9322   6.440   4.693   2.014
 2808SOL    HW1 9323   6.465   4.757   1.942
 2808SOL    HW2 9324   6.521   4.668   2.067
 2809SOL     OW 9325   5.677   2.646   1.097
 2809SOL    HW1 9326   5.709   2.574   1.036
 2809SOL    HW2 9327   5.669   2.609   1.190
 2810SOL     OW 9328   3.057   5.409   3.127
 2810SOL    HW1 9329   2.993   5.482   3.154
 2810SOL    HW2 9330   3.023   5.322   3.160
 2811SOL     OW 9331   1.631   2.112   3.749
 2811SOL    HW1 9332   1.565   2.039   3.734
 2811SOL    HW2 9333   1.670   2.103   3.841
 2812SOL     OW 9334   5.416   2.869   6.889
 2812SOL    HW1 9335   5.500   2.828   6.852
 2812SOL    HW2 9336   5.386   2.817   6.968
 2813SOL     OW 9337   0.783   0.556   6.635
 2813SOL    HW1 9338   0.696   0.506   6.626
 2813SOL    HW2 9339   0.858   0.490   6.640
 2814SOL     OW 9340   4.031   3.757   5.508
 2814SOL    HW1 9341   4.086   3.805   5.440
 2814SOL    HW2 9342   3.939   3.743   5.472
 2815SOL     OW 9343   6.477   6.302   6.568
 2815SOL    HW1 9344   6.409   6.289   6.496
 2815SOL    HW2 9345   6.564   6.331   6.528
 2816SOL     OW 9346   6.323   5.325   3.650
 2816SOL    HW1 9347   6.268   5.305   3.731
 2816SOL    HW2 9348   6.418   5.298   3.666
 2817SOL     OW 9349   2.960   6.891   1.698
 2817SOL    HW1 9350   2.879   6.840   1.728
 2817SOL    HW2 9351   2.957   6.903   1.599
 2818SOL     OW 9352   0.349   0.185   2.164
 2818SOL    HW1 9353   0.436   0.221   2.131
 2818SOL    HW2 9354   0.314   0.243   2.237
 2819SOL     OW 9355   1.929   0.550   2.149
 2819SOL    HW1 9356   1.976   0.568   2.235
 2819SOL    HW2 9357   1.901   0.636   2.107
 2820SOL     OW 9358   0.880   2.576   3.275
 2820SOL    HW1 9359   0.870   2.481   3.304
 2820SOL    HW2 9360   0.846   2.637   3.347
 2821SOL     OW 9361   3.646   3.987   5.991
 2821SOL    HW1 9362   3.710   3.936   5.933
 2821SOL    HW2 9363   3.678   3.984   6.086
 2822SOL     OW 9364   4.039   2.555   0.579
 2822SOL    HW1 9365   4.052   2.501   0.496
 2822SOL    HW2 9366   3.965   2.516   0.633
 2823SOL     OW 9367   4.872   0.842   0.797
 2823SOL    HW1 9368   4.872   0.857   0.895
 2823SOL    HW2 9369   4.920   0.918   0.752
 2824SOL     OW 9370   1.832   1.665   3.903
 2824SOL    HW1 9371   1.791   1.658   3.994
 2824SOL    HW2 9372   1.879   1.579   3.881
 2825SOL     OW 9373   4.867   6.766   6.735
 2825SOL    HW1 9374   4.872   6.754   6.834
 2825SOL    HW2 9375   4.927   6.700   6.690
 2826SOL     OW 9376   4.638   1.143   6.730
 2826SOL    HW1 9377   4.558   1.184   6.686
 2826SOL    HW2 9378   4.613   1.054   6.768
 2827SOL     OW 9379   1.127   1.584   6.569
 2827SOL    HW1 9380   1.094   1.559   6.478
 2827SOL    HW2 9381   1.053   1.571   6.636
 2828SOL     OW 9382   2.918   1.713   0.360
 2828SOL    HW1 9383   2.984   1.661   0.305
 2828SOL    HW2 9384   2.831   1.664   0.364
 2829SOL     OW 9385   2.918   3.590   4.566
 2829SOL    HW1 9386   2.999   3.575   4.511
 2829SOL    HW2 9387   2.905   3.689   4.580
 2830SOL     OW 9388   2.696   3.625   5.844
 2830SOL    HW1 9389   2.666   3.688   5.773
 2830SOL    HW2 9390   2.689   3.669   5.934
 2831SOL     OW 9391   1.252   4.350   3.213
 2831SOL    HW1 9392   1.253   4.402   3.127
 2831SOL    HW2 9393   1.344   4.351   3.253
 2832SOL     OW 9394   0.867   3.194   1.866
 2832SOL    HW1 9395   0.961   3.220   1.885
 2832SOL    HW2 9396   0.858   3.166   1.771
 2833SOL     OW 9397   2.767   1.685   2.186
 2833SOL    HW1 9398   2.842   1.750   2.198
 2833SOL    HW2 9399   2.783   1.604   2.243
 2834SOL     OW 9400   4.577   6.238   5.990
 2834SOL    HW1 9401   4.538   6.184   5.915
 2834SOL    HW2 9402   4.668   6.270   5.965
 2835SOL     OW 9403   0.527   6.057   1.282
 2835SOL    HW1 9404   0.442   6.034   1.235
 2835SOL    HW2 9405   0.511   6.135   1.343
 2836SOL     OW 9406   0.264   6.244   2.178
 2836SOL    HW1 9407   0.289   6.180   2.252
 2836SOL    HW2 9408   0.325   6.322   2.180
 2837SOL     OW 9409   4.568   4.645   2.274
 2837SOL    HW1 9410   4.536   4.648   2.179
 2837SOL    HW2 9411   4.641   4.712   2.286
 2838SOL     OW 9412   3.669   3.941   0.531
 2838SOL    HW1 9413   3.597   3.914   0.467
 2838SOL    HW2 9414   3.709   3.859   0.572
 2839SOL     OW 9415   6.426   2.059   2.703
 2839SOL    HW1 9416   6.441   2.077   2.606
 2839SOL    HW2 9417   6.328   2.050   2.721
 2840SOL     OW 9418   1.588   0.049   2.032
 2840SOL    HW1 9419   1.491   0.052   2.053
 2840SOL    HW2 9420   1.609   0.115   1.959
 2841SOL     OW 9421   0.282   1.473   6.354
 2841SOL    HW1 9422   0.209   1.427   6.304
 2841SOL    HW2 9423   0.246   1.553   6.400
 2842SOL     OW 9424   0.200   4.452   3.648
 2842SOL    HW1 9425   0.206   4.545   3.611
 2842SOL    HW2 9426   0.207   4.456   3.748
 2843SOL     OW 9427   2.179   1.971   3.149
 2843SOL    HW1 9428   2.226   1.948   3.235
 2843SOL    HW2 9429   2.244   1.965   3.073
 2844SOL     OW 9430   6.076   5.162   6.911
 2844SOL    HW1 9431   6.144   5.229   6.880
 2844SOL    HW2 9432   6.092   5.074   6.867
 2845SOL     OW 9433   5.423   3.292   2.228
 2845SOL    HW1 9434   5.341   3.337   2.193
 2845SOL    HW2 9435   5.400   3.201   2.261
 2846SOL     OW 9436   4.172   0.868   0.345
 2846SOL    HW1 9437   4.199   0.776   0.318
 2846SOL    HW2 9438   4.124   0.912   0.269
 2847SOL     OW 9439   5.504   3.959   3.291
 2847SOL    HW1 9440   5.480   4.056   3.291
 2847SOL    HW2 9441   5.538   3.934   3.200
 2848SOL     OW 9442   2.055   2.836   5.525
 2848SOL    HW1 9443   1.963   2.801   5.512
 2848SOL    HW2 9444   2.117   2.794   5.458
 2849SOL     OW 9445   4.757   0.133   0.874
 2849SOL    HW1 9446   4.850   0.168   0.863
 2849SOL    HW2 9447   4.707   0.143   0.788
 2850SOL     OW 9448   1.985   6.851   2.347
 2850SOL    HW1 9449   1.984   6.751   2.350
 2850SOL    HW2 9450   1.892   6.885   2.332
 2851SOL     OW 9451   6.045   1.985   5.645
 2851SOL    HW1 9452   5.981   1.940   5.582
 2851SOL    HW2 9453   6.025   1.955   5.739
 2852SOL     OW 9454   6.589   4.093   6.672
 2852SOL    HW1 9455   6.616   4.189   6.677
 2852SOL    HW2 9456   6.497   4.085   6.636
 2853SOL     OW 9457   1.924   1.710   6.409
 2853SOL    HW1 9458   1.857   1.777   6.375
 2853SOL    HW2 9459   1.941   1.727   6.506
 2854SOL     OW 9460   4.816   0.779   5.266
 2854SOL    HW1 9461   4.716   0.774   5.262
 2854SOL    HW2 9462   4.848   0.851   5.204
 2855SOL     OW 9463   2.227   2.211   6.141
 2855SOL    HW1 9464   2.159   2.278   6.169
 2855SOL    HW2 9465   2.317   2.254   6.136
 2856SOL     OW 9466   0.279   3.703   5.351
 2856SOL    HW1 9467   0.233   3.674   5.268
 2856SOL    HW2 9468   0.372   3.666   5.352
 2857SOL     OW 9469   2.031   2.972   1.826
 2857SOL    HW1 9470   2.057   3.034   1.899
 2857SOL    HW2 9471   1.956   3.011   1.773
 2858SOL     OW 9472   4.726   4.428   1.860
 2858SOL    HW1 9473   4.650   4.370   1.887
 2858SOL    HW2 9474   4.708   4.522   1.888
 2859SOL     OW 9475   5.026   0.738   6.774
 2859SOL    HW1 9476   5.091   0.700   6.709
 2859SOL    HW2 9477   4.941   0.685   6.771
 2860SOL     OW 9478   2.266   2.209   1.698
 2860SOL    HW1 9479   2.339   2.149   1.664
 2860SOL    HW2 9480   2.188   2.154   1.726
 2861SOL     OW 9481   3.384   5.061   5.717
 2861SOL    HW1 9482   3.480   5.084   5.732
 2861SOL    HW2 9483   3.359   4.982   5.772
 2862SOL     OW 9484   4.633   1.884   2.499
 2862SOL    HW1 9485   4.691   1.890   2.418
 2862SOL    HW2 9486   4.544   1.847   2.473
 2863SOL     OW 9487   4.694   1.787   6.593
 2863SOL    HW1 9488   4.722   1.795   6.689
 2863SOL    HW2 9489   4.663   1.694   6.574
 2864SOL     OW 9490   4.361   1.650   2.047
 2864SOL    HW1 9491   4.305   1.590   1.990
 2864SOL    HW2 9492   4.422   1.595   2.104
 2865SOL     OW 9493   4.260   6.463   5.591
 2865SOL    HW1 9494   4.197   6.517   5.536
 2865SOL    HW2 9495   4.209   6.396   5.644
 2866SOL     OW 9496   6.200   5.786   6.440
 2866SOL    HW1 9497   6.279   5.843   6.420
 2866SOL    HW2 9498   6.173   5.799   6.536
 2867SOL     OW 9499   6.609   6.349   3.029
 2867SOL    HW1 9500   6.638   6.349   2.934
 2867SOL    HW2 9501   6.580   6.257   3.055
 2868SOL     OW 9502   2.095   1.213   5.108
 2868SOL    HW1 9503   2.068   1.308   5.124
 2868SOL    HW2 9504   2.014   1.158   5.090
 2869SOL     OW 9505   0.047   0.764   3.393
 2869SOL    HW1 9506   7.010   0.838   3.426
 2869SOL    HW2 9507   7.014   0.682   3.378
 2870SOL     OW 9508   0.551   1.604   5.613
 2870SOL    HW1 9509   0.530   1.607   5.515
 2870SOL    HW2 9510   0.621   1.534   5.629
 2871SOL     OW 9511   6.979   1.544   6.835
 2871SOL    HW1 9512   6.988   1.586   6.925
 2871SOL    HW2 9513   6.973   1.444   6.845
 2872SOL     OW 9514   2.874   2.129   2.031
 2872SOL    HW1 9515   2.913   2.142   2.122
 2872SOL    HW2 9516   2.852   2.218   1.991
 2873SOL     OW 9517   0.032   5.828   2.939
 2873SOL    HW1 9518   0.090   5.909   2.943
 2873SOL    HW2 9519   6.972   5.848   2.887
 2874SOL     OW 9520   5.030   6.963   3.240
 2874SOL    HW1 9521   4.966   7.018   3.187
 2874SOL    HW2 9522   5.098   0.001   3.283
 2875SOL     OW 9523   5.178   0.295   1.920
 2875SOL    HW1 9524   5.210   0.261   2.008
 2875SOL    HW2 9525   5.252   0.344   1.874
 2876SOL     OW 9526   2.026   6.902   2.075
 2876SOL    HW1 9527   2.035   6.849   2.159
 2876SOL    HW2 9528   2.072   6.990   2.086
 2877SOL     OW 9529   2.318   1.729   5.557
 2877SOL    HW1 9530   2.413   1.758   5.570
 2877SOL    HW2 9531   2.257   1.807   5.569
 2878SOL     OW 9532   3.972   4.173   5.208
 2878SOL    HW1 9533   3.983   4.108   5.133
 2878SOL    HW2 9534   4.045   4.241   5.204
 2879SOL     OW 9535   5.146   4.766   0.031
 2879SOL    HW1 9536   5.185   4.736   6.966
 2879SOL    HW2 9537   5.116   4.861   0.023
 2880SOL     OW 9538   0.319   1.430   2.880
 2880SOL    HW1 9539   0.320   1.342   2.928
 2880SOL    HW2 9540   0.233   1.477   2.900
 2881SOL     OW 9541   4.183   6.016   6.417
 2881SOL    HW1 9542   4.083   6.017   6.410
 2881SOL    HW2 9543   4.212   6.078   6.490
 2882SOL     OW 9544   0.100   5.339   2.235
 2882SOL    HW1 9545   0.173   5.275   2.262
 2882SOL    HW2 9546   0.118   5.429   2.273
 2883SOL     OW 9547   5.929   0.586   3.801
 2883SOL    HW1 9548   6.013   0.545   3.836
 2883SOL    HW2 9549   5.918   0.560   3.705
 2884SOL     OW 9550   0.901   0.048   3.197
 2884SOL    HW1 9551   0.823   0.093   3.154
 2884SOL    HW2 9552   0.955   0.000   3.128
 2885SOL     OW 9553   1.702   3.808   3.885
 2885SOL    HW1 9554   1.648   3.867   3.945
 2885SOL    HW2 9555   1.792   3.849   3.871
 2886SOL     OW 9556   0.887   3.397   6.059
 2886SOL    HW1 9557   0.973   3.350   6.038
 2886SOL    HW2 9558   0.815   3.330   6.077
 2887SOL     OW 9559   0.749   0.972   5.872
 2887SOL    HW1 9560   0.744   1.029   5.953
 2887SOL    HW2 9561   0.658   0.964   5.830
 2888SOL     OW 9562   6.889   4.552   6.526
 2888SOL    HW1 9563   6.904   4.453   6.531
 2888SOL    HW2 9564   6.807   4.571   6.472
 2889SOL     OW 9565   2.515   6.277   2.221
 2889SOL    HW1 9566   2.503   6.323   2.308
 2889SOL    HW2 9567   2.605   6.233   2.218
 2890SOL     OW 9568   1.373   5.959   0.238
 2890SOL    HW1 9569   1.380   5.875   0.185
 2890SOL    HW2 9570   1.290   6.008   0.213
 2891SOL     OW 9571   0.894   4.395   3.128
 2891SOL    HW1 9572   0.924   4.321   3.069
 2891SOL    HW2 9573   0.941   4.479   3.103
 2892SOL     OW 9574   6.431   3.323   0.605
 2892SOL    HW1 9575   6.404   3.413   0.571
 2892SOL    HW2 9576   6.522   3.329   0.646
 2893SOL     OW 9577   0.006   5.516   3.951
 2893SOL    HW1 9578   6.945   5.562   3.983
 2893SOL    HW2 9579   7.003   5.449   3.881
 2894SOL     OW 9580   0.559   3.444   2.060
 2894SOL    HW1 9581   0.498   3.515   2.094
 2894SOL    HW2 9582   0.576   3.458   1.963
 2895SOL     OW 9583   5.182   1.994   5.700
 2895SOL    HW1 9584   5.108   2.015   5.636
 2895SOL    HW2 9585   5.143   1.957   5.784
 2896SOL     OW 9586   4.800   6.365   5.318
 2896SOL    HW1 9587   4.884   6.405   5.282
 2896SOL    HW2 9588   4.792   6.270   5.287
 2897SOL     OW 9589   3.780   4.823   3.036
 2897SOL    HW1 9590   3.748   4.872   2.955
 2897SOL    HW2 9591   3.707   4.817   3.103
 2898SOL     OW 9592   4.554   4.419   4.289
 2898SOL    HW1 9593   4.582   4.514   4.301
 2898SOL    HW2 9594   4.591   4.364   4.364
 2899SOL     OW 9595   0.716   2.174   0.335
 2899SOL    HW1 9596   0.812   2.147   0.327
 2899SOL    HW2 9597   0.710   2.273   0.347
 2900SOL     OW 9598   2.321   3.948   5.849
 2900SOL    HW1 9599   2.391   4.019   5.856
 2900SOL    HW2 9600   2.276   3.954   5.760
 2901SOL     OW 9601   2.596   4.568   3.105
 2901SOL    HW1 9602   2.672   4.631   3.090
 2901SOL    HW2 9603   2.574   4.565   3.203
 2902SOL     OW 9604   5.746   5.258   3.371
 2902SOL    HW1 9605   5.738   5.345   3.321
 2902SOL    HW2 9606   5.656   5.214   3.375
 2903SOL     OW 9607   3.530   0.224   0.397
 2903SOL    HW1 9608   3.511   0.236   0.494
 2903SOL    HW2 9609   3.596   0.293   0.367
 2904SOL     OW 9610   2.425   4.855   4.407
 2904SOL    HW1 9611   2.515   4.825   4.438
 2904SOL    HW2 9612   2.356   4.787   4.435
 2905SOL     OW 9613   1.154   2.571   5.052
 2905SOL    HW1 9614   1.247   2.606   5.052
 2905SOL    HW2 9615   1.100   2.621   4.985
 2906SOL     OW 9616   4.775   4.878   2.255
 2906SOL    HW1 9617   4.721   4.913   2.179
 2906SOL    HW2 9618   4.736   4.910   2.342
 2907SOL     OW 9619   1.027   0.861   3.195
 2907SOL    HW1 9620   0.971   0.944   3.204
 2907SOL    HW2 9621   1.098   0.861   3.266
 2908SOL     OW 9622   5.054   6.845   3.622
 2908SOL    HW1 9623   5.138   6.802   3.589
 2908SOL    HW2 9624   4.985   6.843   3.550
 2909SOL     OW 9625   1.793   5.590   4.258
 2909SOL    HW1 9626   1.776   5.527   4.333
 2909SOL    HW2 9627   1.756   5.552   4.173
 2910SOL     OW 9628   4.919   0.926   4.548
 2910SOL    HW1 9629   4.969   0.849   4.508
 2910SOL    HW2 9630   4.895   0.905   4.642
 2911SOL     OW 9631   0.970   5.543   3.635
 2911SOL    HW1 9632   0.952   5.495   3.549
 2911SOL    HW2 9633   0.884   5.563   3.681
 2912SOL     OW 9634   5.241   0.299   6.825
 2912SOL    HW1 9635   5.303   0.348   6.886
 2912SOL    HW2 9636   5.273   0.205   6.813
 2913SOL     OW 9637   3.352   4.947   1.703
 2913SOL    HW1 9638   3.292   5.024   1.682
 2913SOL    HW2 9639   3.424   4.978   1.765
 2914SOL     OW 9640   6.424   6.485   6.133
 2914SOL    HW1 9641   6.422   6.550   6.057
 2914SOL    HW2 9642   6.489   6.517   6.203
 2915SOL     OW 9643   3.651   2.048   3.944
 2915SOL    HW1 9644   3.606   2.063   4.032
 2915SOL    HW2 9645   3.750   2.049   3.956
 2916SOL     OW 9646   0.777   5.704   0.685
 2916SOL    HW1 9647   0.876   5.708   0.685
 2916SOL    HW2 9648   0.740   5.797   0.686
 2917SOL     OW 9649   2.570   0.800   3.380
 2917SOL    HW1 9650   2.655   0.805   3.432
 2917SOL    HW2 9651   2.528   0.710   3.395
 2918SOL     OW 9652   5.825   4.790   4.969
 2918SOL    HW1 9653   5.744   4.783   5.028
 2918SOL    HW2 9654   5.885   4.711   4.986
 2919SOL     OW 9655   5.408   0.623   2.575
 2919SOL    HW1 9656   5.396   0.658   2.482
 2919SOL    HW2 9657   5.419   0.700   2.639
 2920SOL     OW 9658   3.074   1.288   1.820
 2920SOL    HW1 9659   3.063   1.244   1.731
 2920SOL    HW2 9660   2.986   1.292   1.867
 2921SOL     OW 9661   0.767   0.187   4.653
 2921SOL    HW1 9662   0.705   0.139   4.590
 2921SOL    HW2 9663   0.762   0.144   4.743
 2922SOL     OW 9664   4.661   0.309   1.396
 2922SOL    HW1 9665   4.675   0.373   1.321
 2922SOL    HW2 9666   4.575   0.330   1.442
 2923SOL     OW 9667   6.374   4.940   2.504
 2923SOL    HW1 9668   6.463   4.965   2.539
 2923SOL    HW2 9669   6.369   4.841   2.492
 2924SOL     OW 9670   6.261   2.152   5.720
 2924SOL    HW1 9671   6.291   2.148   5.816
 2924SOL    HW2 9672   6.176   2.102   5.709
 2925SOL     OW 9673   4.711   1.274   2.620
 2925SOL    HW1 9674   4.682   1.269   2.524
 2925SOL    HW2 9675   4.660   1.205   2.673
 2926SOL     OW 9676   6.557   1.726   4.541
 2926SOL    HW1 9677   6.610   1.743   4.458
 2926SOL    HW2 9678   6.534   1.814   4.584
 2927SOL     OW 9679   1.747   4.081   1.573
 2927SOL    HW1 9680   1.792   4.129   1.498
 2927SOL    HW2 9681   1.803   4.002   1.600
 2928SOL     OW 9682   0.259   0.569   6.681
 2928SOL    HW1 9683   0.271   0.533   6.773
 2928SOL    HW2 9684   0.271   0.496   6.614
 2929SOL     OW 9685   1.295   2.144   6.971
 2929SOL    HW1 9686   1.210   2.130   0.001
 2929SOL    HW2 9687   1.275   2.195   6.887
 2930SOL     OW 9688   5.621   0.353   5.507
 2930SOL    HW1 9689   5.709   0.375   5.466
 2930SOL    HW2 9690   5.565   0.302   5.441
 2931SOL     OW 9691   5.627   4.572   6.897
 2931SOL    HW1 9692   5.671   4.647   6.849
 2931SOL    HW2 9693   5.690   4.533   6.965
 2932SOL     OW 9694   0.866   5.469   1.761
 2932SOL    HW1 9695   0.829   5.557   1.731
 2932SOL    HW2 9696   0.913   5.482   1.848
 2933SOL     OW 9697   0.647   5.465   2.909
 2933SOL    HW1 9698   0.636   5.393   2.841
 2933SOL    HW2 9699   0.663   5.552   2.862
 2934SOL     OW 9700   4.656   1.899   0.560
 2934SOL    HW1 9701   4.641   1.814   0.511
 2934SOL    HW2 9702   4.616   1.975   0.509
 2935SOL     OW 9703   0.001   3.004   6.810
 2935SOL    HW1 9704   6.996   3.089   6.765
 2935SOL    HW2 9705   0.002   3.017   6.909
 2936SOL     OW 9706   4.402   6.740   0.437
 2936SOL    HW1 9707   4.403   6.737   0.537
 2936SOL    HW2 9708   4.344   6.667   0.402
 2937SOL     OW 9709   5.141   4.486   1.097
 2937SOL    HW1 9710   5.172   4.566   1.046
 2937SOL    HW2 9711   5.067   4.512   1.160
 2938SOL     OW 9712   4.387   5.025   6.682
 2938SOL    HW1 9713   4.439   5.107   6.705
 2938SOL    HW2 9714   4.407   4.953   6.748
 2939SOL     OW 9715   2.029   0.469   2.872
 2939SOL    HW1 9716   2.061   0.417   2.951
 2939SOL    HW2 9717   1.930   0.478   2.875
 2940SOL     OW 9718   5.919   4.896   5.599
 2940SOL    HW1 9719   5.883   4.803   5.603
 2940SOL    HW2 9720   5.887   4.948   5.678
 2941SOL     OW 9721   2.051   2.098   4.264
 2941SOL    HW1 9722   2.146   2.119   4.289
 2941SOL    HW2 9723   1.994   2.179   4.282
 2942SOL     OW 9724   2.927   2.372   0.416
 2942SOL    HW1 9725   2.908   2.345   0.321
 2942SOL    HW2 9726   2.841   2.381   0.466
 2943SOL     OW 9727   4.951   4.494   3.258
 2943SOL    HW1 9728   4.883   4.453   3.198
 2943SOL    HW2 9729   4.951   4.445   3.346
 2944SOL     OW 9730   2.889   6.117   4.248
 2944SOL    HW1 9731   2.952   6.060   4.300
 2944SOL    HW2 9732   2.883   6.208   4.288
 2945SOL     OW 9733   3.008   3.954   3.399
 2945SOL    HW1 9734   3.080   4.015   3.430
 2945SOL    HW2 9735   2.980   3.894   3.474
 2946SOL     OW 9736   1.218   4.844   5.850
 2946SOL    HW1 9737   1.129   4.800   5.837
 2946SOL    HW2 9738   1.261   4.808   5.932
 2947SOL     OW 9739   0.418   3.639   1.069
 2947SOL    HW1 9740   0.447   3.546   1.047
 2947SOL    HW2 9741   0.493   3.702   1.052
 2948SOL     OW 9742   0.830   3.516   4.943
 2948SOL    HW1 9743   0.815   3.482   4.850
 2948SOL    HW2 9744   0.778   3.601   4.956
 2949SOL     OW 9745   2.764   5.644   0.389
 2949SOL    HW1 9746   2.738   5.697   0.308
 2949SOL    HW2 9747   2.864   5.636   0.393
 2950SOL     OW 9748   5.366   4.796   4.318
 2950SOL    HW1 9749   5.285   4.796   4.260
 2950SOL    HW2 9750   5.392   4.702   4.339
 2951SOL     OW 9751   5.418   1.133   1.459
 2951SOL    HW1 9752   5.330   1.086   1.464
 2951SOL    HW2 9753   5.417   1.213   1.518
 2952SOL     OW 9754   0.162   4.595   4.814
 2952SOL    HW1 9755   0.120   4.541   4.741
 2952SOL    HW2 9756   0.259   4.576   4.820
 2953SOL     OW 9757   4.885   3.348   2.552
 2953SOL    HW1 9758   4.841   3.393   2.629
 2953SOL    HW2 9759   4.877   3.406   2.470
 2954SOL     OW 9760   1.056   5.178   1.888
 2954SOL    HW1 9761   0.967   5.190   1.844
 2954SOL    HW2 9762   1.065   5.244   1.963
 2955SOL     OW 9763   0.791   3.663   2.131
 2955SOL    HW1 9764   0.706   3.711   2.150
 2955SOL    HW2 9765   0.794   3.578   2.183
 2956SOL     OW 9766   5.464   5.753   2.667
 2956SOL    HW1 9767   5.535   5.823   2.660
 2956SOL    HW2 9768   5.377   5.791   2.637
 2957SOL     OW 9769   5.945   4.153   2.169
 2957SOL    HW1 9770   5.973   4.070   2.121
 2957SOL    HW2 9771   5.853   4.142   2.206
 2958SOL     OW 9772   2.606   4.617   3.427
 2958SOL    HW1 9773   2.635   4.708   3.457
 2958SOL    HW2 9774   2.559   4.570   3.502
 2959SOL     OW 9775   5.059   3.695   0.447
 2959SOL    HW1 9776   5.143   3.670   0.494
 2959SOL    HW2 9777   4.988   3.718   0.514
 2960SOL     OW 9778   3.079   1.257   0.449
 2960SOL    HW1 9779   3.056   1.224   0.540
 2960SOL    HW2 9780   3.022   1.211   0.381
 2961SOL     OW 9781   5.147   3.526   2.815
 2961SOL    HW1 9782   5.226   3.489   2.866
 2961SOL    HW2 9783   5.137   3.623   2.836
 2962SOL     OW 9784   4.523   6.683   2.923
 2962SOL    HW1 9785   4.606   6.718   2.967
 2962SOL    HW2 9786   4.445   6.695   2.984
 2963SOL     OW 9787   1.882   1.182   6.073
 2963SOL    HW1 9788   1.878   1.244   6.152
 2963SOL    HW2 9789   1.895   1.234   5.990
 2964SOL     OW 9790   0.773   0.590   3.755
 2964SOL    HW1 9791   0.744   0.681   3.724
 2964SOL    HW2 9792   0.798   0.594   3.852
 2965SOL     OW 9793   0.182   0.893   4.360
 2965SOL    HW1 9794   0.176   0.852   4.269
 2965SOL    HW2 9795   0.152   0.989   4.355
 2966SOL     OW 9796   4.992   5.746   3.510
 2966SOL    HW1 9797   4.966   5.778   3.419
 2966SOL    HW2 9798   4.949   5.658   3.528
 2967SOL     OW 9799   6.812   0.994   4.957
 2967SOL    HW1 9800   6.713   1.011   4.957
 2967SOL    HW2 9801   6.859   1.070   4.913
 2968SOL     OW 9802   1.069   2.611   6.762
 2968SOL    HW1 9803   1.039   2.646   6.673
 2968SOL    HW2 9804   1.168   2.599   6.761
 2969SOL     OW 9805   5.159   1.857   4.185
 2969SOL    HW1 9806   5.222   1.921   4.141
 2969SOL    HW2 9807   5.094   1.823   4.117
 2970SOL     OW 9808   2.033   4.093   5.701
 2970SOL    HW1 9809   2.076   4.024   5.643
 2970SOL    HW2 9810   1.956   4.052   5.751
 2971SOL     OW 9811   4.774   4.330   0.262
 2971SOL    HW1 9812   4.826   4.299   0.342
 2971SOL    HW2 9813   4.794   4.270   0.185
 2972SOL     OW 9814   6.324   4.658   6.435
 2972SOL    HW1 9815   6.366   4.698   6.516
 2972SOL    HW2 9816   6.233   4.623   6.459
 2973SOL     OW 9817   5.341   6.344   2.272
 2973SOL    HW1 9818   5.353   6.338   2.173
 2973SOL    HW2 9819   5.385   6.427   2.306
 2974SOL     OW 9820   1.122   4.656   3.308
 2974SOL    HW1 9821   1.221   4.655   3.302
 2974SOL    HW2 9822   1.086   4.565   3.285
 2975SOL     OW 9823   5.551   3.554   4.166
 2975SOL    HW1 9824   5.526   3.537   4.261
 2975SOL    HW2 9825   5.485   3.508   4.106
 2976SOL     OW 9826   4.171   1.705   2.837
 2976SOL    HW1 9827   4.223   1.790   2.826
 2976SOL    HW2 9828   4.073   1.725   2.834
 2977SOL     OW 9829   2.251   6.537   2.414
 2977SOL    HW1 9830   2.270   6.552   2.317
 2977SOL    HW2 9831   2.310   6.464   2.448
 2978SOL     OW 9832   4.785   4.600   0.138
 2978SOL    HW1 9833   4.770   4.508   0.175
 2978SOL    HW2 9834   4.859   4.644   0.189
 2979SOL     OW 9835   3.225   0.703   4.283
 2979SOL    HW1 9836   3.317   0.680   4.253
 2979SOL    HW2 9837   3.229   0.740   4.376
 2980SOL     OW 9838   1.255   5.713   4.579
 2980SOL    HW1 9839   1.286   5.737   4.671
 2980SOL    HW2 9840   1.184   5.778   4.551
 2981SOL     OW 9841   2.749   1.191   5.508
 2981SOL    HW1 9842   2.820   1.245   5.554
 2981SOL    HW2 9843   2.686   1.154   5.577
 2982SOL     OW 9844   3.285   5.025   2.601
 2982SOL    HW1 9845   3.250   4.969   2.527
 2982SOL    HW2 9846   3.217   5.095   2.624
 2983SOL     OW 9847   0.759   1.175   2.644
 2983SOL    HW1 9848   0.705   1.241   2.697
 2983SOL    HW2 9849   0.762   1.088   2.694
 2984SOL     OW 9850   5.256   4.728   0.527
 2984SOL    HW1 9851   5.301   4.645   0.558
 2984SOL    HW2 9852   5.303   4.808   0.566
 2985SOL     OW 9853   1.654   3.209   5.388
 2985SOL    HW1 9854   1.679   3.176   5.297
 2985SOL    HW2 9855   1.734   3.210   5.447
 2986SOL     OW 9856   3.580   4.074   3.390
 2986SOL    HW1 9857   3.610   3.982   3.415
 2986SOL    HW2 9858   3.584   4.133   3.470
 2987SOL     OW 9859   0.426   1.481   4.049
 2987SOL    HW1 9860   0.366   1.528   4.113
 2987SOL    HW2 9861   0.438   1.386   4.079
 2988SOL     OW 9862   1.432   5.536   2.756
 2988SOL    HW1 9863   1.524   5.521   2.720
 2988SOL    HW2 9864   1.365   5.507   2.688
 2989SOL     OW 9865   5.741   6.039   5.854
 2989SOL    HW1 9866   5.693   5.961   5.894
 2989SOL    HW2 9867   5.703   6.124   5.891
 2990SOL     OW 9868   3.583   2.139   5.001
 2990SOL    HW1 9869   3.551   2.228   4.969
 2990SOL    HW2 9870   3.504   2.081   5.021
 2991SOL     OW 9871   6.709   4.264   5.070
 2991SOL    HW1 9872   6.702   4.362   5.088
 2991SOL    HW2 9873   6.670   4.213   5.146
 2992SOL     OW 9874   2.641   6.259   4.551
 2992SOL    HW1 9875   2.665   6.356   4.558
 2992SOL    HW2 9876   2.582   6.246   4.471
 2993SOL     OW 9877   0.392   4.929   1.207
 2993SOL    HW1 9878   0.374   4.921   1.109
 2993SOL    HW2 9879   0.317   4.888   1.259
 2994SOL     OW 9880   4.298   6.498   6.923
 2994SOL    HW1 9881   4.269   6.404   6.903
 2994SOL    HW2 9882   4.316   6.546   6.837
 2995SOL     OW 9883   2.873   1.539   5.903
 2995SOL    HW1 9884   2.807   1.522   5.829
 2995SOL    HW2 9885   2.861   1.631   5.938
 2996SOL     OW 9886   1.543   1.465   4.255
 2996SOL    HW1 9887   1.447   1.437   4.250
 2996SOL    HW2 9888   1.565   1.492   4.349
 2997SOL     OW 9889   5.872   0.187   3.064
 2997SOL    HW1 9890   5.950   0.175   3.002
 2997SOL    HW2 9891   5.825   0.273   3.043
 2998SOL     OW 9892   4.725   6.922   3.789
 2998SOL    HW1 9893   4.722   6.945   3.692
 2998SOL    HW2 9894   4.663   6.846   3.807
 2999SOL     OW 9895   2.203   5.473   5.054
 2999SOL    HW1 9896   2.145   5.532   4.998
 2999SOL    HW2 9897   2.294   5.466   5.013
 3000SOL     OW 9898   3.051   3.838   6.175
 3000SOL    HW1 9899   2.983   3.911   6.165
 3000SOL    HW2 9900   3.023   3.777   6.249
 3001SOL     OW 9901   6.764   0.503   6.151
 3001SOL    HW1 9902   6.670   0.527   6.126
 3001SOL    HW2 9903   6.825   0.578   6.125
 3002SOL     OW 9904   3.304   1.471   0.068
 3002SOL    HW1 9905   3.266   1.487   6.999
 3002SOL    HW2 9906   3.294   1.554   0.123
 3003SOL     OW 9907   1.725   6.726   0.577
 3003SOL    HW1 9908   1.787   6.691   0.648
 3003SOL    HW2 9909   1.739   6.674   0.493
 3004SOL     OW 9910   0.881   4.295   3.405
 3004SOL    HW1 9911   0.883   4.294   3.305
 3004SOL    HW2 9912   0.884   4.389   3.438
 3005SOL     OW 9913   2.037   1.913   0.777
 3005SOL    HW1 9914   2.058   1.988   0.839
 3005SOL    HW2 9915   1.938   1.903   0.767
 3006SOL     OW 9916   5.833   1.658   5.006
 3006SOL    HW1 9917   5.746   1.652   5.054
 3006SOL    HW2 9918   5.823   1.616   4.915
 3007SOL     OW 9919   5.356   4.173   0.899
 3007SOL    HW1 9920   5.434   4.166   0.963
 3007SOL    HW2 9921   5.298   4.093   0.910
 3008SOL     OW 9922   3.960   2.203   6.034
 3008SOL    HW1 9923   4.000   2.260   5.963
 3008SOL    HW2 9924   3.882   2.153   5.996
 3009SOL     OW 9925   6.632   1.975   2.865
 3009SOL    HW1 9926   6.561   2.020   2.811
 3009SOL    HW2 9927   6.657   2.034   2.942
 3010SOL     OW 9928   3.831   5.817   3.510
 3010SOL    HW1 9929   3.905   5.762   3.469
 3010SOL    HW2 9930   3.867   5.907   3.535
 3011SOL     OW 9931   5.828   1.134   2.385
 3011SOL    HW1 9932   5.870   1.176   2.305
 3011SOL    HW2 9933   5.789   1.045   2.360
 3012SOL     OW 9934   1.797   3.448   5.896
 3012SOL    HW1 9935   1.835   3.383   5.831
 3012SOL    HW2 9936   1.723   3.404   5.947
 3013SOL     OW 9937   5.243   5.348   3.913
 3013SOL    HW1 9938   5.322   5.288   3.930
 3013SOL    HW2 9939   5.182   5.304   3.847
 3014SOL     OW 9940   4.464   2.373   4.411
 3014SOL    HW1 9941   4.465   2.400   4.507
 3014SOL    HW2 9942   4.476   2.453   4.353
 3015SOL     OW 9943   3.339   2.118   0.417
 3015SOL    HW1 9944   3.317   2.102   0.513
 3015SOL    HW2 9945   3.414   2.057   0.389
 3016SOL     OW 9946   2.132   6.333   3.803
 3016SOL    HW1 9947   2.147   6.244   3.762
 3016SOL    HW2 9948   2.143   6.404   3.734
 3017SOL     OW 9949   6.419   4.686   2.407
 3017SOL    HW1 9950   6.507   4.697   2.361
 3017SOL    HW2 9951   6.346   4.695   2.340
 3018SOL     OW 9952   3.085   6.697   5.933
 3018SOL    HW1 9953   3.171   6.650   5.954
 3018SOL    HW2 9954   3.052   6.745   6.014
 3019SOL     OW 9955   1.055   6.744   0.502
 3019SOL    HW1 9956   0.996   6.824   0.513
 3019SOL    HW2 9957   1.023   6.689   0.425
 3020SOL     OW 9958   3.860   2.878   1.522
 3020SOL    HW1 9959   3.782   2.817   1.509
 3020SOL    HW2 9960   3.920   2.842   1.593
 3021SOL     OW 9961   2.685   0.366   5.952
 3021SOL    HW1 9962   2.634   0.282   5.934
 3021SOL    HW2 9963   2.648   0.411   6.033
 3022SOL     OW 9964   3.850   5.204   4.622
 3022SOL    HW1 9965   3.876   5.189   4.717
 3022SOL    HW2 9966   3.907   5.277   4.583
 3023SOL     OW 9967   4.023   6.441   2.906
 3023SOL    HW1 9968   4.068   6.529   2.917
 3023SOL    HW2 9969   3.975   6.438   2.819
 3024SOL     OW 9970   4.916   0.411   4.645
 3024SOL    HW1 9971   4.896   0.408   4.743
 3024SOL    HW2 9972   4.881   0.329   4.601
 3025SOL     OW 9973   3.211   0.020   0.441
 3025SOL    HW1 9974   3.274   7.003   0.374
 3025SOL    HW2 9975   3.244   0.110   0.471
 3026SOL     OW 9976   1.317   0.677   6.757
 3026SOL    HW1 9977   1.362   0.739   6.821
 3026SOL    HW2 9978   1.301   0.725   6.670
 3027SOL     OW 9979   4.058   1.060   2.987
 3027SOL    HW1 9980   4.107   1.147   2.984
 3027SOL    HW2 9981   3.959   1.077   2.985
 3028SOL     OW 9982   1.354   3.478   5.965
 3028SOL    HW1 9983   1.297   3.555   5.992
 3028SOL    HW2 9984   1.378   3.486   5.868
 3029SOL     OW 9985   0.302   2.825   5.278
 3029SOL    HW1 9986   0.236   2.813   5.352
 3029SOL    HW2 9987   0.310   2.740   5.226
 3030SOL     OW 9988   0.015   3.295   0.252
 3030SOL    HW1 9989   6.943   3.329   0.248
 3030SOL    HW2 9990   0.078   3.373   0.254
 3031SOL     OW 9991   0.375   4.048   1.154
 3031SOL    HW1 9992   0.327   3.960   1.155
 3031SOL    HW2 9993   0.471   4.035   1.177
 3032SOL     OW 9994   2.929   6.600   0.893
 3032SOL    HW1 9995   2.929   6.512   0.845
 3032SOL    HW2 9996   3.024   6.624   0.916
 3033SOL     OW 9997   6.177   2.051   1.156
 3033SOL    HW1 9998   6.198   2.100   1.240
 3033SOL    HW2 9999   6.187   2.112   1.077
 3034SOL     OW10000   1.875   5.793   2.664
 3034SOL    HW110001   1.961   5.836   2.691
 3034SOL    HW210002   1.799   5.855   2.684
 3035SOL     OW10003   0.383   2.957   6.611
 3035SOL    HW110004   0.306   2.907   6.572
 3035SOL    HW210005   0.355   3.051   6.630
 3036SOL     OW10006   2.051   2.038   6.575
 3036SOL    HW110007   2.070   2.127   6.616
 3036SOL    HW210008   2.116   2.020   6.501
 3037SOL     OW10009   6.158   5.859   5.868
 3037SOL    HW110010   6.231   5.793   5.888
 3037SOL    HW210011   6.162   5.934   5.934
 3038SOL     OW10012   5.130   6.041   5.919
 3038SOL    HW110013   5.122   6.068   6.015
 3038SOL    HW210014   5.079   5.956   5.904
 3039SOL     OW10015   6.774   3.182   0.345
 3039SOL    HW110016   6.846   3.122   0.311
 3039SOL    HW210017   6.688   3.131   0.351
 3040SOL     OW10018   3.765   3.878   5.757
 3040SOL    HW110019   3.847   3.932   5.739
 3040SOL    HW210020   3.687   3.920   5.710
 3041SOL     OW10021   2.144   3.095   4.601
 3041SOL    HW110022   2.171   3.109   4.506
 3041SOL    HW210023   2.045   3.080   4.606
 3042SOL     OW10024   5.088   5.598   1.907
 3042SOL    HW110025   5.144   5.676   1.879
 3042SOL    HW210026   5.088   5.529   1.835
 3043SOL     OW10027   2.208   3.956   1.869
 3043SOL    HW110028   2.233   4.051   1.850
 3043SOL    HW210029   2.277   3.895   1.831
 3044SOL     OW10030   3.718   4.787   5.545
 3044SOL    HW110031   3.736   4.690   5.555
 3044SOL    HW210032   3.789   4.839   5.592
 3045SOL     OW10033   4.589   0.194   3.200
 3045SOL    HW110034   4.619   0.264   3.264
 3045SOL    HW210035   4.547   0.238   3.121
 3046SOL     OW10036   2.145   0.901   5.999
 3046SOL    HW110037   2.068   0.899   6.063
 3046SOL    HW210038   2.110   0.912   5.906
 3047SOL     OW10039   5.619   0.287   1.754
 3047SOL    HW110040   5.668   0.370   1.726
 3047SOL    HW210041   5.600   0.231   1.674
 3048SOL     OW10042   3.911   2.509   1.713
 3048SOL    HW110043   3.827   2.479   1.758
 3048SOL    HW210044   3.956   2.430   1.671
 3049SOL     OW10045   1.531   0.041   2.655
 3049SOL    HW110046   1.524   0.069   2.560
 3049SOL    HW210047   1.553   0.120   2.712
 3050SOL     OW10048   3.392   1.073   1.813
 3050SOL    HW110049   3.373   1.146   1.748
 3050SOL    HW210050   3.475   1.095   1.865
 3051SOL     OW10051   1.539   4.996   6.092
 3051SOL    HW110052   1.617   4.991   6.029
 3051SOL    HW210053   1.573   5.011   6.185
 3052SOL     OW10054   4.925   5.868   1.990
 3052SOL    HW110055   5.014   5.826   2.006
 3052SOL    HW210056   4.929   5.925   1.908
 3053SOL     OW10057   6.960   2.498   0.543
 3053SOL    HW110058   7.017   2.528   0.619
 3053SOL    HW210059   6.998   2.533   0.457
 3054SOL     OW10060   6.680   2.523   0.873
 3054SOL    HW110061   6.702   2.613   0.910
 3054SOL    HW210062   6.583   2.520   0.849
 3055SOL     OW10063   5.110   0.602   5.233
 3055SOL    HW110064   5.130   0.682   5.290
 3055SOL    HW210065   5.175   0.529   5.254
 3056SOL     OW10066   6.756   0.195   5.503
 3056SOL    HW110067   6.716   0.267   5.560
 3056SOL    HW210068   6.684   0.151   5.450
 3057SOL     OW10069   4.363   6.117   2.862
 3057SOL    HW110070   4.340   6.084   2.953
 3057SOL    HW210071   4.428   6.054   2.819
 3058SOL     OW10072   6.720   4.990   1.267
 3058SOL    HW110073   6.777   4.941   1.333
 3058SOL    HW210074   6.691   4.927   1.195
 3059SOL     OW10075   2.597   2.374   4.196
 3059SOL    HW110076   2.683   2.358   4.245
 3059SOL    HW210077   2.542   2.441   4.246
 3060SOL     OW10078   1.417   5.421   0.072
 3060SOL    HW110079   1.480   5.448   7.021
 3060SOL    HW210080   1.468   5.384   0.149
 3061SOL     OW10081   0.173   6.762   5.293
 3061SOL    HW110082   0.082   6.734   5.263
 3061SOL    HW210083   0.221   6.806   5.217
 3062SOL     OW10084   2.107   0.380   0.502
 3062SOL    HW110085   2.076   0.354   0.410
 3062SOL    HW210086   2.122   0.297   0.556
 3063SOL     OW10087   2.603   4.684   1.549
 3063SOL    HW110088   2.656   4.685   1.634
 3063SOL    HW210089   2.515   4.640   1.567
 3064SOL     OW10090   4.858   4.015   1.670
 3064SOL    HW110091   4.781   4.077   1.685
 3064SOL    HW210092   4.862   3.989   1.574
 3065SOL     OW10093   1.769   1.222   0.322
 3065SOL    HW110094   1.844   1.163   0.349
 3065SOL    HW210095   1.798   1.281   0.247
 3066SOL     OW10096   4.467   5.076   0.939
 3066SOL    HW110097   4.512   4.992   0.909
 3066SOL    HW210098   4.526   5.154   0.918
 3067SOL     OW10099   3.544   1.363   5.523
 3067SOL    HW110100   3.494   1.384   5.607
 3067SOL    HW210101   3.493   1.397   5.444
 3068SOL     OW10102   6.345   0.338   0.588
 3068SOL    HW110103   6.263   0.349   0.644
 3068SOL    HW210104   6.352   0.415   0.525
 3069SOL     OW10105   7.015   5.816   1.744
 3069SOL    HW110106   0.004   5.721   1.772
 3069SOL    HW210107   6.919   5.841   1.748
 3070SOL     OW10108   2.748   1.407   6.760
 3070SOL    HW110109   2.712   1.423   6.668
 3070SOL    HW210110   2.713   1.320   6.795
 3071SOL     OW10111   6.317   5.991   3.434
 3071SOL    HW110112   6.260   5.911   3.450
 3071SOL    HW210113   6.413   5.966   3.442
 3072SOL     OW10114   2.751   6.116   6.652
 3072SOL    HW110115   2.670   6.086   6.702
 3072SOL    HW210116   2.833   6.098   6.706
 3073SOL     OW10117   5.779   2.676   4.709
 3073SOL    HW110118   5.715   2.619   4.759
 3073SOL    HW210119   5.744   2.770   4.705
 3074SOL     OW10120   6.002   3.708   0.685
 3074SOL    HW110121   5.945   3.664   0.615
 3074SOL    HW210122   6.098   3.700   0.658
 3075SOL     OW10123   2.511   5.634   1.550
 3075SOL    HW110124   2.589   5.572   1.552
 3075SOL    HW210125   2.429   5.584   1.524
 3076SOL     OW10126   6.482   0.344   3.958
 3076SOL    HW110127   6.558   0.295   4.000
 3076SOL    HW210128   6.516   0.426   3.913
 3077SOL     OW10129   5.351   4.817   1.120
 3077SOL    HW110130   5.331   4.766   1.204
 3077SOL    HW210131   5.423   4.884   1.137
 3078SOL     OW10132   0.299   2.421   2.912
 3078SOL    HW110133   0.246   2.400   2.831
 3078SOL    HW210134   0.301   2.341   2.972
 3079SOL     OW10135   2.642   2.372   2.742
 3079SOL    HW110136   2.563   2.433   2.743
 3079SOL    HW210137   2.672   2.358   2.647
 3080SOL     OW10138   4.972   5.211   2.382
 3080SOL    HW110139   4.931   5.170   2.300
 3080SOL    HW210140   4.962   5.311   2.377
 3081SOL     OW10141   0.595   2.762   5.343
 3081SOL    HW110142   0.685   2.752   5.386
 3081SOL    HW210143   0.525   2.729   5.406
 3082SOL     OW10144   2.874   5.970   3.819
 3082SOL    HW110145   2.883   5.916   3.736
 3082SOL    HW210146   2.810   5.926   3.881
 3083SOL     OW10147   2.948   6.471   3.871
 3083SOL    HW110148   2.998   6.488   3.955
 3083SOL    HW210149   2.925   6.374   3.865
 3084SOL     OW10150   6.465   3.638   4.286
 3084SOL    HW110151   6.380   3.668   4.243
 3084SOL    HW210152   6.482   3.692   4.368
 3085SOL     OW10153   6.027   4.340   0.390
 3085SOL    HW110154   6.081   4.395   0.453
 3085SOL    HW210155   5.970   4.276   0.441
 3086SOL     OW10156   4.610   1.638   1.341
 3086SOL    HW110157   4.616   1.711   1.273
 3086SOL    HW210158   4.527   1.584   1.324
 3087SOL     OW10159   1.623   5.642   4.001
 3087SOL    HW110160   1.576   5.554   4.000
 3087SOL    HW210161   1.584   5.702   3.932
 3088SOL     OW10162   2.245   4.704   4.698
 3088SOL    HW110163   2.171   4.761   4.733
 3088SOL    HW210164   2.207   4.619   4.661
 3089SOL     OW10165   1.801   3.145   5.771
 3089SOL    HW110166   1.879   3.154   5.710
 3089SOL    HW210167   1.826   3.087   5.849
 3090SOL     OW10168   2.344   2.446   1.820
 3090SOL    HW110169   2.322   2.350   1.806
 3090SOL    HW210170   2.437   2.464   1.788
 3091SOL     OW10171   1.692   6.811   1.612
 3091SOL    HW110172   1.704   6.906   1.641
 3091SOL    HW210173   1.707   6.750   1.689
 3092SOL     OW10174   4.741   1.549   0.653
 3092SOL    HW110175   4.705   1.460   0.683
 3092SOL    HW210176   4.667   1.616   0.650
 3093SOL     OW10177   5.071   6.601   6.679
 3093SOL    HW110178   5.122   6.684   6.700
 3093SOL    HW210179   5.125   6.521   6.704
 3094SOL     OW10180   2.106   6.997   4.178
 3094SOL    HW110181   2.174   0.019   4.237
 3094SOL    HW210182   2.118   6.898   4.183
 3095SOL     OW10183   2.429   5.055   5.084
 3095SOL    HW110184   2.413   5.094   5.175
 3095SOL    HW210185   2.415   4.956   5.087
 3096SOL     OW10186   1.059   5.672   5.393
 3096SOL    HW110187   1.048   5.771   5.402
 3096SOL    HW210188   1.074   5.633   5.484
 3097SOL     OW10189   5.561   2.320   0.263
 3097SOL    HW110190   5.472   2.363   0.274
 3097SOL    HW210191   5.567   2.239   0.322
 3098SOL     OW10192   2.087   2.740   1.706
 3098SOL    HW110193   2.045   2.736   1.615
 3098SOL    HW210194   2.062   2.825   1.751
 3099SOL     OW10195   1.128   0.148   3.665
 3099SOL    HW110196   1.151   0.114   3.756
 3099SOL    HW210197   1.143   0.075   3.598
 3100SOL     OW10198   0.075   5.714   3.345
 3100SOL    HW110199   0.157   5.763   3.314
 3100SOL    HW210200   0.098   5.619   3.366
 3101SOL     OW10201   5.736   6.323   0.087
 3101SOL    HW110202   5.725   6.422   0.075
 3101SOL    HW210203   5.730   6.301   0.184
 3102SOL     OW10204   6.665   5.329   2.694
 3102SOL    HW110205   6.600   5.360   2.763
 3102SOL    HW210206   6.653   5.231   2.679
 3103SOL     OW10207   4.429   0.703   2.309
 3103SOL    HW110208   4.378   0.788   2.304
 3103SOL    HW210209   4.501   0.703   2.240
 3104SOL     OW10210   5.014   1.276   5.211
 3104SOL    HW110211   4.969   1.240   5.292
 3104SOL    HW210212   5.035   1.372   5.224
 3105SOL     OW10213   5.665   4.394   0.905
 3105SOL    HW110214   5.604   4.473   0.906
 3105SOL    HW210215   5.636   4.329   0.976
 3106SOL     OW10216   5.039   0.884   3.814
 3106SOL    HW110217   5.072   0.873   3.720
 3106SOL    HW210218   5.100   0.835   3.877
 3107SOL     OW10219   4.564   1.688   5.029
 3107SOL    HW110220   4.560   1.595   4.994
 3107SOL    HW210221   4.530   1.751   4.960
 3108SOL     OW10222   1.739   6.129   4.182
 3108SOL    HW110223   1.676   6.051   4.185
 3108SOL    HW210224   1.816   6.107   4.122
 3109SOL     OW10225   5.449   6.274   3.742
 3109SOL    HW110226   5.524   6.339   3.756
 3109SOL    HW210227   5.438   6.257   3.644
 3110SOL     OW10228   1.022   2.835   2.780
 3110SOL    HW110229   0.942   2.859   2.835
 3110SOL    HW210230   1.100   2.890   2.810
 3111SOL     OW10231   0.256   5.037   3.270
 3111SOL    HW110232   0.288   4.961   3.327
 3111SOL    HW210233   0.206   5.000   3.191
 3112SOL     OW10234   3.960   3.142   6.632
 3112SOL    HW110235   4.054   3.148   6.665
 3112SOL    HW210236   3.929   3.231   6.599
 3113SOL     OW10237   2.644   5.192   3.487
 3113SOL    HW110238   2.623   5.290   3.494
 3113SOL    HW210239   2.743   5.179   3.498
 3114SOL     OW10240   4.174   2.273   0.792
 3114SOL    HW110241   4.199   2.370   0.796
 3114SOL    HW210242   4.091   2.258   0.845
 3115SOL     OW10243   3.485   4.257   6.193
 3115SOL    HW110244   3.427   4.243   6.112
 3115SOL    HW210245   3.431   4.243   6.276
 3116SOL     OW10246   6.983   3.032   0.084
 3116SOL    HW110247   0.036   2.969   0.106
 3116SOL    HW210248   7.000   3.120   0.127
 3117SOL     OW10249   4.458   3.584   5.340
 3117SOL    HW110250   4.533   3.575   5.275
 3117SOL    HW210251   4.461   3.675   5.381
 3118SOL     OW10252   0.893   5.367   2.255
 3118SOL    HW110253   0.878   5.430   2.179
 3118SOL    HW210254   0.850   5.279   2.234
 3119SOL     OW10255   2.654   3.396   6.485
 3119SOL    HW110256   2.615   3.447   6.562
 3119SOL    HW210257   2.583   3.378   6.417
 3120SOL     OW10258   3.783   0.432   5.055
 3120SOL    HW110259   3.832   0.518   5.044
 3120SOL    HW210260   3.766   0.392   4.965
 3121SOL     OW10261   0.575   0.782   3.663
 3121SOL    HW110262   0.527   0.804   3.579
 3121SOL    HW210263   0.577   0.863   3.722
 3122SOL     OW10264   4.530   5.849   6.419
 3122SOL    HW110265   4.539   5.932   6.365
 3122SOL    HW210266   4.537   5.769   6.359
 3123SOL     OW10267   2.007   1.491   3.168
 3123SOL    HW110268   2.097   1.528   3.192
 3123SOL    HW210269   1.993   1.498   3.069
 3124SOL     OW10270   5.402   0.168   4.625
 3124SOL    HW110271   5.493   0.128   4.630
 3124SOL    HW210272   5.378   0.209   4.713
 3125SOL     OW10273   0.861   2.572   4.874
 3125SOL    HW110274   0.875   2.533   4.965
 3125SOL    HW210275   0.810   2.657   4.882
 3126SOL     OW10276   5.491   4.193   5.595
 3126SOL    HW110277   5.546   4.255   5.540
 3126SOL    HW210278   5.509   4.209   5.692
 3127SOL     OW10279   0.969   3.367   5.441
 3127SOL    HW110280   1.064   3.393   5.458
 3127SOL    HW210281   0.945   3.389   5.347
 3128SOL     OW10282   2.549   0.593   6.198
 3128SOL    HW110283   2.565   0.560   6.291
 3128SOL    HW210284   2.464   0.646   6.195
 3129SOL     OW10285   6.714   3.668   6.818
 3129SOL    HW110286   6.616   3.662   6.797
 3129SOL    HW210287   6.744   3.581   6.857
 3130SOL     OW10288   1.871   4.208   1.379
 3130SOL    HW110289   1.817   4.287   1.409
 3130SOL    HW210290   1.883   4.212   1.280
 3131SOL     OW10291   0.471   3.150   1.968
 3131SOL    HW110292   0.537   3.221   1.993
 3131SOL    HW210293   0.452   3.156   1.870
 3132SOL     OW10294   3.697   5.844   6.218
 3132SOL    HW110295   3.602   5.815   6.208
 3132SOL    HW210296   3.713   5.928   6.167
 3133SOL     OW10297   3.021   1.315   3.537
 3133SOL    HW110298   3.064   1.238   3.489
 3133SOL    HW210299   3.090   1.383   3.559
 3134SOL     OW10300   4.653   4.230   1.665
 3134SOL    HW110301   4.572   4.233   1.724
 3134SOL    HW210302   4.720   4.298   1.696
 3135SOL     OW10303   4.661   1.550   4.713
 3135SOL    HW110304   4.735   1.488   4.687
 3135SOL    HW210305   4.622   1.521   4.801
 3136SOL     OW10306   5.437   0.584   1.937
 3136SOL    HW110307   5.396   0.553   1.851
 3136SOL    HW210308   5.366   0.585   2.009
 3137SOL     OW10309   6.611   0.857   2.340
 3137SOL    HW110310   6.674   0.932   2.359
 3137SOL    HW210311   6.614   0.791   2.416
 3138SOL     OW10312   6.278   4.661   3.575
 3138SOL    HW110313   6.306   4.756   3.560
 3138SOL    HW210314   6.238   4.625   3.491
 3139SOL     OW10315   4.517   6.204   0.831
 3139SOL    HW110316   4.586   6.152   0.880
 3139SOL    HW210317   4.552   6.295   0.810
 3140SOL     OW10318   6.436   0.026   0.095
 3140SOL    HW110319   6.358   6.998   0.055
 3140SOL    HW210320   6.513   6.985   0.107
 3141SOL     OW10321   0.401   0.141   6.664
 3141SOL    HW110322   0.311   0.141   6.706
 3141SOL    HW210323   0.424   0.048   6.633
 3142SOL     OW10324   3.845   0.008   2.051
 3142SOL    HW110325   3.882   0.024   2.143
 3142SOL    HW210326   3.800   6.941   2.048
 3143SOL     OW10327   6.678   2.219   6.907
 3143SOL    HW110328   6.768   2.175   6.904
 3143SOL    HW210329   6.627   2.196   6.824
 3144SOL     OW10330   3.637   3.876   1.558
 3144SOL    HW110331   3.712   3.940   1.541
 3144SOL    HW210332   3.616   3.827   1.474
 3145SOL     OW10333   2.076   6.336   1.315
 3145SOL    HW110334   2.079   6.294   1.224
 3145SOL    HW210335   1.981   6.344   1.345
 3146SOL     OW10336   1.703   0.518   3.709
 3146SOL    HW110337   1.754   0.433   3.717
 3146SOL    HW210338   1.637   0.526   3.784
 3147SOL     OW10339   3.401   6.110   1.642
 3147SOL    HW110340   3.491   6.134   1.606
 3147SOL    HW210341   3.337   6.100   1.565
 3148SOL     OW10342   5.714   5.913   4.283
 3148SOL    HW110343   5.758   5.995   4.319
 3148SOL    HW210344   5.639   5.887   4.344
 3149SOL     OW10345   2.757   1.277   5.243
 3149SOL    HW110346   2.824   1.291   5.316
 3149SOL    HW210347   2.666   1.267   5.282
 3150SOL     OW10348   5.828   5.196   3.928
 3150SOL    HW110349   5.781   5.282   3.907
 3150SOL    HW210350   5.868   5.158   3.845
 3151SOL     OW10351   6.469   1.425   5.422
 3151SOL    HW110352   6.533   1.351   5.405
 3151SOL    HW210353   6.388   1.389   5.469
 3152SOL     OW10354   1.030   5.533   0.573
 3152SOL    HW110355   1.061   5.511   0.665
 3152SOL    HW210356   1.107   5.528   0.509
 3153SOL     OW10357   6.218   4.715   0.746
 3153SOL    HW110358   6.162   4.798   0.746
 3153SOL    HW210359   6.158   4.635   0.733
 3154SOL     OW10360   6.770   1.703   6.537
 3154SOL    HW110361   6.784   1.801   6.520
 3154SOL    HW210362   6.858   1.656   6.530
 3155SOL     OW10363   6.571   4.541   0.428
 3155SOL    HW110364   6.595   4.448   0.454
 3155SOL    HW210365   6.588   4.603   0.505
 3156SOL     OW10366   3.299   2.959   3.451
 3156SOL    HW110367   3.231   2.893   3.484
 3156SOL    HW210368   3.391   2.921   3.461
 3157SOL     OW10369   2.813   2.100   4.967
 3157SOL    HW110370   2.728   2.068   4.924
 3157SOL    HW210371   2.871   2.021   4.988
 3158SOL     OW10372   3.779   1.210   3.448
 3158SOL    HW110373   3.793   1.191   3.351
 3158SOL    HW210374   3.703   1.275   3.459
 3159SOL     OW10375   6.226   2.147   0.050
 3159SOL    HW110376   6.246   2.234   0.096
 3159SOL    HW210377   6.230   2.073   0.117
 3160SOL     OW10378   0.253   6.076   5.484
 3160SOL    HW110379   0.236   6.075   5.583
 3160SOL    HW210380   0.205   6.154   5.443
 3161SOL     OW10381   1.963   2.767   3.495
 3161SOL    HW110382   1.973   2.689   3.557
 3161SOL    HW210383   1.900   2.743   3.421
 3162SOL     OW10384   1.258   6.594   2.327
 3162SOL    HW110385   1.256   6.580   2.228
 3162SOL    HW210386   1.332   6.656   2.351
 3163SOL     OW10387   4.881   2.717   6.191
 3163SOL    HW110388   4.784   2.733   6.173
 3163SOL    HW210389   4.935   2.746   6.111
 3164SOL     OW10390   3.972   5.038   1.190
 3164SOL    HW110391   3.872   5.025   1.194
 3164SOL    HW210392   3.999   5.056   1.095
 3165SOL     OW10393   0.373   6.330   1.219
 3165SOL    HW110394   0.469   6.355   1.212
 3165SOL    HW210395   0.329   6.341   1.130
 3166SOL     OW10396   4.459   1.609   4.116
 3166SOL    HW110397   4.477   1.625   4.019
 3166SOL    HW210398   4.369   1.645   4.140
 3167SOL     OW10399   6.648   4.590   0.724
 3167SOL    HW110400   6.724   4.576   0.787
 3167SOL    HW210401   6.567   4.621   0.775
 3168SOL     OW10402   4.505   2.532   6.502
 3168SOL    HW110403   4.601   2.505   6.508
 3168SOL    HW210404   4.475   2.571   6.589
 3169SOL     OW10405   2.074   3.562   4.266
 3169SOL    HW110406   2.119   3.530   4.349
 3169SOL    HW210407   2.071   3.488   4.199
 3170SOL     OW10408   4.382   6.815   1.626
 3170SOL    HW110409   4.469   6.836   1.581
 3170SOL    HW210410   4.306   6.839   1.565
 3171SOL     OW10411   0.230   0.779   1.764
 3171SOL    HW110412   0.215   0.859   1.822
 3171SOL    HW210413   0.151   0.767   1.703
 3172SOL     OW10414   6.732   5.508   0.438
 3172SOL    HW110415   6.689   5.575   0.499
 3172SOL    HW210416   6.778   5.438   0.493
 3173SOL     OW10417   3.057   2.187   0.552
 3173SOL    HW110418   3.000   2.244   0.494
 3173SOL    HW210419   3.048   2.091   0.524
 3174SOL     OW10420   2.595   2.204   0.165
 3174SOL    HW110421   2.637   2.261   0.093
 3174SOL    HW210422   2.647   2.214   0.250
 3175SOL     OW10423   6.839   0.659   1.191
 3175SOL    HW110424   6.761   0.664   1.254
 3175SOL    HW210425   6.810   0.618   1.105
 3176SOL     OW10426   1.577   3.808   5.028
 3176SOL    HW110427   1.567   3.907   5.025
 3176SOL    HW210428   1.674   3.784   5.029
 3177SOL     OW10429   4.867   3.809   4.262
 3177SOL    HW110430   4.835   3.903   4.252
 3177SOL    HW210431   4.891   3.793   4.358
 3178SOL     OW10432   6.499   2.234   0.929
 3178SOL    HW110433   6.413   2.184   0.940
 3178SOL    HW210434   6.481   2.325   0.891
 3179SOL     OW10435   1.034   3.084   2.130
 3179SOL    HW110436   0.946   3.047   2.158
 3179SOL    HW210437   1.102   3.010   2.125
 3180SOL     OW10438   4.269   1.259   0.303
 3180SOL    HW110439   4.315   1.239   0.217
 3180SOL    HW210440   4.336   1.267   0.376
 3181SOL     OW10441   6.890   1.394   3.184
 3181SOL    HW110442   6.867   1.442   3.099
 3181SOL    HW210443   6.826   1.420   3.256
 3182SOL     OW10444   3.220   0.418   5.605
 3182SOL    HW110445   3.318   0.437   5.614
 3182SOL    HW210446   3.172   0.502   5.579
 3183SOL     OW10447   4.062   4.105   1.715
 3183SOL    HW110448   4.020   4.041   1.779
 3183SOL    HW210449   4.158   4.081   1.702
 3184SOL     OW10450   0.836   2.551   2.949
 3184SOL    HW110451   0.902   2.591   3.013
 3184SOL    HW210452   0.800   2.622   2.889
 3185SOL     OW10453   5.840   5.845   0.210
 3185SOL    HW110454   5.746   5.879   0.217
 3185SOL    HW210455   5.868   5.846   0.114
 3186SOL     OW10456   3.803   1.373   1.952
 3186SOL    HW110457   3.780   1.365   2.048
 3186SOL    HW210458   3.762   1.455   1.913
 3187SOL     OW10459   4.527   4.421   6.942
 3187SOL    HW110460   4.525   4.507   6.993
 3187SOL    HW210461   4.504   4.345   7.004
 3188SOL     OW10462   2.131   0.376   4.288
 3188SOL    HW110463   2.063   0.448   4.304
 3188SOL    HW210464   2.174   0.352   4.375
 3189SOL     OW10465   1.657   1.143   1.577
 3189SOL    HW110466   1.583   1.098   1.526
 3189SOL    HW210467   1.659   1.240   1.554
 3190SOL     OW10468   6.798   6.546   0.490
 3190SOL    HW110469   6.837   6.614   0.552
 3190SOL    HW210470   6.811   6.577   0.395
 3191SOL     OW10471   5.382   6.739   0.996
 3191SOL    HW110472   5.380   6.834   0.967
 3191SOL    HW210473   5.470   6.698   0.968
 3192SOL     OW10474   0.019   2.477   2.041
 3192SOL    HW110475   6.949   2.455   2.074
 3192SOL    HW210476   0.014   2.498   1.943
 3193SOL     OW10477   3.461   1.578   6.741
 3193SOL    HW110478   3.530   1.513   6.710
 3193SOL    HW210479   3.446   1.648   6.671
 3194SOL     OW10480   1.271   2.479   6.390
 3194SOL    HW110481   1.310   2.567   6.418
 3194SOL    HW210482   1.242   2.485   6.295
 3195SOL     OW10483   2.687   2.405   3.466
 3195SOL    HW110484   2.671   2.432   3.371
 3195SOL    HW210485   2.747   2.325   3.469
 3196SOL     OW10486   0.686   1.692   6.312
 3196SOL    HW110487   0.649   1.603   6.285
 3196SOL    HW210488   0.769   1.680   6.365
 3197SOL     OW10489   2.251   6.449   3.367
 3197SOL    HW110490   2.194   6.452   3.449
 3197SOL    HW210491   2.282   6.355   3.352
 3198SOL     OW10492   5.703   2.628   5.291
 3198SOL    HW110493   5.697   2.680   5.376
 3198SOL    HW210494   5.618   2.577   5.276
 3199SOL     OW10495   4.738   2.679   2.500
 3199SOL    HW110496   4.779   2.746   2.437
 3199SOL    HW210497   4.689   2.610   2.447
 3200SOL     OW10498   6.379   3.054   2.123
 3200SOL    HW110499   6.292   3.078   2.165
 3200SOL    HW210500   6.394   2.955   2.132
 3201SOL     OW10501   5.610   4.588   4.578
 3201SOL    HW110502   5.640   4.502   4.617
 3201SOL    HW210503   5.660   4.664   4.619
 3202SOL     OW10504   6.869   4.817   1.443
 3202SOL    HW110505   6.947   4.784   1.391
 3202SOL    HW210506   6.891   4.819   1.540
 3203SOL     OW10507   6.275   2.486   6.791
 3203SOL    HW110508   6.288   2.553   6.719
 3203SOL    HW210509   6.363   2.470   6.838
 3204SOL     OW10510   4.703   6.236   2.029
 3204SOL    HW110511   4.765   6.178   2.083
 3204SOL    HW210512   4.609   6.202   2.038
 3205SOL     OW10513   6.773   3.600   6.067
 3205SOL    HW110514   6.774   3.658   5.986
 3205SOL    HW210515   6.866   3.574   6.090
 3206SOL     OW10516   0.717   6.551   5.818
 3206SOL    HW110517   0.740   6.525   5.724
 3206SOL    HW210518   0.800   6.549   5.874
 3207SOL     OW10519   0.895   0.617   5.460
 3207SOL    HW110520   0.965   0.625   5.389
 3207SOL    HW210521   0.913   0.535   5.515
 3208SOL     OW10522   5.455   6.883   5.788
 3208SOL    HW110523   5.398   6.804   5.810
 3208SOL    HW210524   5.409   6.940   5.720
 3209SOL     OW10525   4.181   5.811   3.009
 3209SOL    HW110526   4.212   5.906   3.012
 3209SOL    HW210527   4.095   5.802   3.059
 3210SOL     OW10528   0.958   4.472   1.357
 3210SOL    HW110529   0.868   4.509   1.334
 3210SOL    HW210530   0.958   4.440   1.452
 3211SOL     OW10531   1.547   3.912   1.158
 3211SOL    HW110532   1.492   3.978   1.210
 3211SOL    HW210533   1.615   3.961   1.103
 3212SOL     OW10534   2.932   0.755   1.060
 3212SOL    HW110535   3.010   0.789   1.008
 3212SOL    HW210536   2.964   0.689   1.128
 3213SOL     OW10537   0.824   5.842   1.923
 3213SOL    HW110538   0.765   5.771   1.884
 3213SOL    HW210539   0.876   5.887   1.850
 3214SOL     OW10540   4.817   5.583   0.788
 3214SOL    HW110541   4.790   5.647   0.859
 3214SOL    HW210542   4.787   5.617   0.699
 3215SOL     OW10543   6.798   2.731   0.975
 3215SOL    HW110544   6.742   2.783   1.041
 3215SOL    HW210545   6.793   2.775   0.886
 3216SOL     OW10546   5.825   5.038   0.914
 3216SOL    HW110547   5.857   4.974   0.984
 3216SOL    HW210548   5.838   5.132   0.947
 3217SOL     OW10549   0.020   6.277   2.639
 3217SOL    HW110550   0.089   6.324   2.585
 3217SOL    HW210551   0.050   6.183   2.656
 3218SOL     OW10552   4.189   0.872   3.477
 3218SOL    HW110553   4.153   0.908   3.563
 3218SOL    HW210554   4.154   0.780   3.462
 3219SOL     OW10555   0.274   1.633   3.286
 3219SOL    HW110556   0.226   1.566   3.229
 3219SOL    HW210557   0.216   1.714   3.296
 3220SOL     OW10558   6.263   6.178   5.860
 3220SOL    HW110559   6.314   6.194   5.775
 3220SOL    HW210560   6.319   6.125   5.923
 3221SOL     OW10561   3.542   0.572   1.384
 3221SOL    HW110562   3.488   0.517   1.447
 3221SOL    HW210563   3.583   0.649   1.434
 3222SOL     OW10564   4.457   1.845   2.245
 3222SOL    HW110565   4.420   1.842   2.152
 3222SOL    HW210566   4.483   1.940   2.266
 3223SOL     OW10567   1.874   5.176   6.647
 3223SOL    HW110568   1.795   5.182   6.709
 3223SOL    HW210569   1.851   5.222   6.561
 3224SOL     OW10570   4.432   3.728   0.151
 3224SOL    HW110571   4.383   3.659   0.097
 3224SOL    HW210572   4.521   3.747   0.109
 3225SOL     OW10573   4.649   3.829   6.384
 3225SOL    HW110574   4.688   3.811   6.294
 3225SOL    HW210575   4.638   3.928   6.397
 3226SOL     OW10576   2.333   1.380   4.341
 3226SOL    HW110577   2.302   1.397   4.247
 3226SOL    HW210578   2.259   1.340   4.395
 3227SOL     OW10579   4.012   2.406   0.359
 3227SOL    HW110580   4.015   2.315   0.402
 3227SOL    HW210581   3.962   2.400   0.272
 3228SOL     OW10582   6.377   4.256   2.635
 3228SOL    HW110583   6.402   4.351   2.617
 3228SOL    HW210584   6.342   4.214   2.551
 3229SOL     OW10585   4.254   0.694   5.616
 3229SOL    HW110586   4.329   0.676   5.551
 3229SOL    HW210587   4.255   0.624   5.687
 3230SOL     OW10588   1.827   3.155   4.406
 3230SOL    HW110589   1.784   3.199   4.486
 3230SOL    HW210590   1.788   3.193   4.323
 3231SOL     OW10591   2.501   1.001   1.692
 3231SOL    HW110592   2.532   0.987   1.786
 3231SOL    HW210593   2.544   0.933   1.632
 3232SOL     OW10594   4.604   5.434   5.349
 3232SOL    HW110595   4.617   5.359   5.284
 3232SOL    HW210596   4.635   5.519   5.308
 3233SOL     OW10597   0.819   2.896   1.897
 3233SOL    HW110598   0.788   2.987   1.870
 3233SOL    HW210599   0.870   2.901   1.983
 3234SOL     OW10600   0.133   1.940   0.007
 3234SOL    HW110601   0.038   1.952   0.035
 3234SOL    HW210602   0.152   1.843   7.016
 3235SOL     OW10603   5.426   0.824   1.551
 3235SOL    HW110604   5.513   0.858   1.588
 3235SOL    HW210605   5.352   0.849   1.613
 3236SOL     OW10606   0.835   3.631   1.076
 3236SOL    HW110607   0.933   3.651   1.075
 3236SOL    HW210608   0.821   3.533   1.063
 3237SOL     OW10609   5.279   1.418   4.298
 3237SOL    HW110610   5.191   1.378   4.271
 3237SOL    HW210611   5.343   1.411   4.222
 3238SOL     OW10612   0.133   4.964   0.774
 3238SOL    HW110613   0.230   4.981   0.755
 3238SOL    HW210614   0.087   5.051   0.792
 3239SOL     OW10615   6.506   1.486   1.547
 3239SOL    HW110616   6.463   1.396   1.542
 3239SOL    HW210617   6.437   1.557   1.537
 3240SOL     OW10618   1.184   0.423   5.931
 3240SOL    HW110619   1.141   0.346   5.977
 3240SOL    HW210620   1.156   0.424   5.835
 3241SOL     OW10621   4.370   1.798   5.450
 3241SOL    HW110622   4.317   1.868   5.402
 3241SOL    HW210623   4.307   1.735   5.496
 3242SOL     OW10624   3.380   4.386   0.281
 3242SOL    HW110625   3.382   4.328   0.200
 3242SOL    HW210626   3.468   4.381   0.328
 3243SOL     OW10627   5.025   4.698   0.275
 3243SOL    HW110628   5.087   4.735   0.345
 3243SOL    HW210629   5.066   4.710   0.185
 3244SOL     OW10630   5.126   5.632   6.977
 3244SOL    HW110631   5.151   5.728   6.978
 3244SOL    HW210632   5.069   5.611   0.035
 3245SOL     OW10633   4.928   2.999   5.083
 3245SOL    HW110634   4.876   2.921   5.049
 3245SOL    HW210635   4.871   3.052   5.146
 3246SOL     OW10636   5.304   0.388   2.507
 3246SOL    HW110637   5.279   0.332   2.586
 3246SOL    HW210638   5.357   0.467   2.538
 3247SOL     OW10639   5.736   4.722   2.453
 3247SOL    HW110640   5.754   4.765   2.541
 3247SOL    HW210641   5.650   4.671   2.457
 3248SOL     OW10642   6.508   3.562   0.907
 3248SOL    HW110643   6.567   3.556   0.827
 3248SOL    HW210644   6.507   3.473   0.954
 3249SOL     OW10645   3.574   3.006   4.335
 3249SOL    HW110646   3.668   2.980   4.358
 3249SOL    HW210647   3.551   3.092   4.379
 3250SOL     OW10648   6.064   6.404   2.294
 3250SOL    HW110649   6.015   6.485   2.261
 3250SOL    HW210650   6.098   6.422   2.387
 3251SOL     OW10651   3.244   0.919   2.624
 3251SOL    HW110652   3.269   0.829   2.658
 3251SOL    HW210653   3.166   0.954   2.676
 3252SOL     OW10654   2.631   1.972   2.409
 3252SOL    HW110655   2.722   2.014   2.418
 3252SOL    HW210656   2.584   1.976   2.497
 3253SOL     OW10657   5.584   2.966   1.927
 3253SOL    HW110658   5.486   2.958   1.911
 3253SOL    HW210659   5.601   3.038   1.995
 3254SOL     OW10660   4.968   5.283   5.131
 3254SOL    HW110661   4.923   5.363   5.093
 3254SOL    HW210662   4.930   5.200   5.089
 3255SOL     OW10663   5.340   5.289   0.651
 3255SOL    HW110664   5.433   5.306   0.682
 3255SOL    HW210665   5.294   5.376   0.634
 3256SOL     OW10666   4.190   0.604   0.224
 3256SOL    HW110667   4.117   0.616   0.158
 3256SOL    HW210668   4.272   0.570   0.178
 3257SOL     OW10669   1.416   1.675   1.498
 3257SOL    HW110670   1.369   1.715   1.419
 3257SOL    HW210671   1.507   1.714   1.506
 3258SOL     OW10672   4.223   4.654   1.853
 3258SOL    HW110673   4.211   4.671   1.950
 3258SOL    HW210674   4.134   4.660   1.807
 3259SOL     OW10675   4.369   5.290   3.666
 3259SOL    HW110676   4.416   5.264   3.582
 3259SOL    HW210677   4.436   5.309   3.737
 3260SOL     OW10678   1.712   1.926   0.982
 3260SOL    HW110679   1.800   1.880   0.992
 3260SOL    HW210680   1.705   1.965   0.890
 3261SOL     OW10681   5.009   6.688   0.754
 3261SOL    HW110682   4.998   6.597   0.714
 3261SOL    HW210683   4.940   6.750   0.716
 3262SOL     OW10684   3.329   2.145   2.570
 3262SOL    HW110685   3.378   2.227   2.601
 3262SOL    HW210686   3.394   2.069   2.565
 3263SOL     OW10687   2.781   1.156   3.569
 3263SOL    HW110688   2.855   1.223   3.581
 3263SOL    HW210689   2.813   1.066   3.599
 3264SOL     OW10690   1.487   4.481   0.976
 3264SOL    HW110691   1.429   4.524   0.908
 3264SOL    HW210692   1.492   4.383   0.959
 3265SOL     OW10693   4.805   1.196   6.260
 3265SOL    HW110694   4.751   1.272   6.297
 3265SOL    HW210695   4.798   1.195   6.160
 3266SOL     OW10696   0.584   3.263   0.508
 3266SOL    HW110697   0.671   3.227   0.540
 3266SOL    HW210698   0.509   3.216   0.556
 3267SOL     OW10699   3.292   1.269   0.264
 3267SOL    HW110700   3.218   1.287   0.329
 3267SOL    HW210701   3.292   1.340   0.194
 3268SOL     OW10702   1.056   4.172   0.393
 3268SOL    HW110703   1.110   4.245   0.350
 3268SOL    HW210704   0.995   4.131   0.325
 3269SOL     OW10705   4.209   4.936   2.773
 3269SOL    HW110706   4.172   4.999   2.841
 3269SOL    HW210707   4.299   4.903   2.803
 3270SOL     OW10708   0.806   4.366   4.762
 3270SOL    HW110709   0.730   4.324   4.813
 3270SOL    HW210710   0.882   4.301   4.755
 3271SOL     OW10711   5.685   3.530   2.479
 3271SOL    HW110712   5.612   3.596   2.461
 3271SOL    HW210713   5.767   3.554   2.427
 3272SOL     OW10714   3.169   4.239   6.648
 3272SOL    HW110715   3.199   4.268   6.557
 3272SOL    HW210716   3.070   4.246   6.654
 3273SOL     OW10717   0.748   6.129   1.580
 3273SOL    HW110718   0.803   6.212   1.578
 3273SOL    HW210719   0.655   6.152   1.609
 3274SOL     OW10720   4.667   1.512   1.758
 3274SOL    HW110721   4.761   1.479   1.764
 3274SOL    HW210722   4.622   1.470   1.680
 3275SOL     OW10723   0.136   1.160   6.611
 3275SOL    HW110724   0.143   1.069   6.652
 3275SOL    HW210725   0.222   1.182   6.564
 3276SOL     OW10726   3.194   5.913   0.082
 3276SOL    HW110727   3.288   5.948   0.083
 3276SOL    HW210728   3.140   5.963   0.149
 3277SOL     OW10729   4.799   6.826   0.637
 3277SOL    HW110730   4.738   6.768   0.583
 3277SOL    HW210731   4.789   6.921   0.607
 3278SOL     OW10732   0.449   1.117   6.170
 3278SOL    HW110733   0.379   1.173   6.126
 3278SOL    HW210734   0.423   1.101   6.265
 3279SOL     OW10735   5.666   1.296   0.779
 3279SOL    HW110736   5.740   1.320   0.841
 3279SOL    HW210737   5.697   1.225   0.715
 3280SOL     OW10738   3.855   5.085   4.890
 3280SOL    HW110739   3.763   5.096   4.926
 3280SOL    HW210740   3.894   4.998   4.924
 3281SOL     OW10741   2.037   5.045   1.838
 3281SOL    HW110742   1.965   5.107   1.807
 3281SOL    HW210743   2.123   5.069   1.794
 3282SOL     OW10744   0.969   4.942   5.576
 3282SOL    HW110745   1.001   4.994   5.655
 3282SOL    HW210746   0.869   4.938   5.577
 3283SOL     OW10747   4.266   1.072   0.952
 3283SOL    HW110748   4.179   1.060   0.904
 3283SOL    HW210749   4.280   1.169   0.972
 3284SOL     OW10750   6.256   5.323   6.802
 3284SOL    HW110751   6.345   5.305   6.844
 3284SOL    HW210752   6.268   5.337   6.704
 3285SOL     OW10753   4.768   2.875   3.775
 3285SOL    HW110754   4.803   2.968   3.766
 3285SOL    HW210755   4.750   2.855   3.872
 3286SOL     OW10756   4.159   3.439   2.372
 3286SOL    HW110757   4.108   3.353   2.377
 3286SOL    HW210758   4.254   3.421   2.347
 3287SOL     OW10759   1.078   6.748   6.700
 3287SOL    HW110760   1.148   6.729   6.770
 3287SOL    HW210761   1.042   6.840   6.714
 3288SOL     OW10762   0.566   5.748   6.296
 3288SOL    HW110763   0.577   5.801   6.212
 3288SOL    HW210764   0.512   5.801   6.362
 3289SOL     OW10765   2.937   6.591   5.445
 3289SOL    HW110766   2.915   6.687   5.465
 3289SOL    HW210767   2.968   6.546   5.529
 3290SOL     OW10768   0.443   6.883   1.768
 3290SOL    HW110769   0.478   6.945   1.838
 3290SOL    HW210770   0.433   6.791   1.806
 3291SOL     OW10771   1.335   5.946   1.064
 3291SOL    HW110772   1.277   6.001   1.125
 3291SOL    HW210773   1.344   5.992   0.976
 3292SOL     OW10774   0.539   0.667   1.132
 3292SOL    HW110775   0.524   0.639   1.227
 3292SOL    HW210776   0.613   0.734   1.128
 3293SOL     OW10777   0.609   3.649   3.363
 3293SOL    HW110778   0.575   3.684   3.276
 3293SOL    HW210779   0.670   3.717   3.404
 3294SOL     OW10780   7.004   1.596   5.969
 3294SOL    HW110781   6.979   1.658   5.895
 3294SOL    HW210782   6.966   1.629   6.055
 3295SOL     OW10783   1.542   3.207   1.792
 3295SOL    HW110784   1.535   3.208   1.892
 3295SOL    HW210785   1.478   3.274   1.754
 3296SOL     OW10786   1.666   6.384   2.158
 3296SOL    HW110787   1.746   6.343   2.202
 3296SOL    HW210788   1.588   6.379   2.221
 3297SOL     OW10789   3.170   0.619   4.803
 3297SOL    HW110790   3.096   0.615   4.870
 3297SOL    HW210791   3.247   0.671   4.841
 3298SOL     OW10792   5.810   1.856   4.634
 3298SOL    HW110793   5.808   1.759   4.610
 3298SOL    HW210794   5.888   1.874   4.695
 3299SOL     OW10795   2.639   5.787   3.913
 3299SOL    HW110796   2.629   5.772   4.011
 3299SOL    HW210797   2.556   5.757   3.866
 3300SOL     OW10798   0.528   0.894   5.762
 3300SOL    HW110799   0.577   0.830   5.702
 3300SOL    HW210800   0.430   0.890   5.743
 3301SOL     OW10801   2.152   3.112   3.669
 3301SOL    HW110802   2.161   3.072   3.579
 3301SOL    HW210803   2.154   3.212   3.662
 3302SOL     OW10804   0.699   5.225   5.783
 3302SOL    HW110805   0.748   5.229   5.696
 3302SOL    HW210806   0.756   5.264   5.855
 3303SOL     OW10807   3.387   3.131   2.117
 3303SOL    HW110808   3.325   3.058   2.147
 3303SOL    HW210809   3.467   3.133   2.176
 3304SOL     OW10810   1.383   5.511   4.205
 3304SOL    HW110811   1.448   5.466   4.144
 3304SOL    HW210812   1.290   5.488   4.178
 3305SOL     OW10813   1.980   1.238   3.307
 3305SOL    HW110814   1.974   1.328   3.263
 3305SOL    HW210815   1.958   1.247   3.404
 3306SOL     OW10816   2.058   5.617   4.854
 3306SOL    HW110817   1.964   5.586   4.846
 3306SOL    HW210818   2.059   5.715   4.877
 3307SOL     OW10819   6.869   5.779   0.025
 3307SOL    HW110820   6.844   5.790   6.951
 3307SOL    HW210821   6.817   5.844   0.081
 3308SOL     OW10822   4.251   5.951   6.857
 3308SOL    HW110823   4.279   5.913   6.769
 3308SOL    HW210824   4.214   5.878   6.915
 3309SOL     OW10825   7.018   5.707   2.422
 3309SOL    HW110826   6.920   5.687   2.420
 3309SOL    HW210827   0.038   5.659   2.498
 3310SOL     OW10828   0.425   4.194   5.191
 3310SOL    HW110829   0.408   4.138   5.272
 3310SOL    HW210830   0.349   4.184   5.126
 3311SOL     OW10831   2.283   3.805   1.468
 3311SOL    HW110832   2.208   3.825   1.405
 3311SOL    HW210833   2.297   3.707   1.474
 3312SOL     OW10834   4.051   4.253   5.827
 3312SOL    HW110835   4.062   4.159   5.793
 3312SOL    HW210836   4.078   4.317   5.755
 3313SOL     OW10837   0.707   5.193   3.278
 3313SOL    HW110838   0.642   5.159   3.346
 3313SOL    HW210839   0.656   5.226   3.198
 3314SOL     OW10840   2.573   1.585   3.973
 3314SOL    HW110841   2.627   1.585   3.889
 3314SOL    HW210842   2.584   1.497   4.020
 3315SOL     OW10843   5.983   2.986   4.534
 3315SOL    HW110844   5.902   2.936   4.502
 3315SOL    HW210845   6.062   2.926   4.533
 3316SOL     OW10846   4.556   1.823   6.168
 3316SOL    HW110847   4.629   1.832   6.236
 3316SOL    HW210848   4.597   1.806   6.078
 3317SOL     OW10849   4.681   3.514   1.696
 3317SOL    HW110850   4.740   3.476   1.624
 3317SOL    HW210851   4.736   3.570   1.758
 3318SOL     OW10852   3.231   0.382   0.201
 3318SOL    HW110853   3.305   0.436   0.163
 3318SOL    HW210854   3.216   0.300   0.145
 3319SOL     OW10855   6.217   0.368   3.994
 3319SOL    HW110856   6.316   0.365   3.990
 3319SOL    HW210857   6.188   0.426   4.070
 3320SOL     OW10858   6.012   1.229   5.511
 3320SOL    HW110859   5.918   1.245   5.480
 3320SOL    HW210860   6.011   1.179   5.597
 3321SOL     OW10861   3.756   2.112   0.824
 3321SOL    HW110862   3.818   2.162   0.885
 3321SOL    HW210863   3.676   2.082   0.876
 3322SOL     OW10864   5.522   3.368   1.146
 3322SOL    HW110865   5.488   3.430   1.076
 3322SOL    HW210866   5.454   3.359   1.219
 3323SOL     OW10867   3.151   3.432   6.592
 3323SOL    HW110868   3.113   3.514   6.635
 3323SOL    HW210869   3.108   3.418   6.502
 3324SOL     OW10870   1.430   3.926   6.474
 3324SOL    HW110871   1.355   3.863   6.494
 3324SOL    HW210872   1.398   4.020   6.483
 3325SOL     OW10873   1.980   3.148   6.411
 3325SOL    HW110874   2.018   3.109   6.327
 3325SOL    HW210875   2.052   3.196   6.461
 3326SOL     OW10876   5.298   1.954   2.444
 3326SOL    HW110877   5.352   1.872   2.463
 3326SOL    HW210878   5.211   1.949   2.494
 3327SOL     OW10879   3.320   5.756   1.895
 3327SOL    HW110880   3.276   5.846   1.903
 3327SOL    HW210881   3.345   5.740   1.800
 3328SOL     OW10882   4.374   1.915   1.307
 3328SOL    HW110883   4.327   1.881   1.388
 3328SOL    HW210884   4.367   2.015   1.303
 3329SOL     OW10885   5.433   0.536   5.100
 3329SOL    HW110886   5.487   0.596   5.160
 3329SOL    HW210887   5.444   0.566   5.005
 3330SOL     OW10888   6.372   5.758   1.488
 3330SOL    HW110889   6.399   5.727   1.579
 3330SOL    HW210890   6.289   5.815   1.495
 3331SOL     OW10891   1.131   3.945   1.304
 3331SOL    HW110892   1.134   3.897   1.391
 3331SOL    HW210893   1.202   4.015   1.302
 3332SOL     OW10894   6.873   4.626   0.388
 3332SOL    HW110895   6.807   4.551   0.381
 3332SOL    HW210896   6.887   4.649   0.485
 3333SOL     OW10897   2.902   4.300   6.684
 3333SOL    HW110898   2.946   4.385   6.712
 3333SOL    HW210899   2.811   4.294   6.725
 3334SOL     OW10900   2.318   4.150   1.402
 3334SOL    HW110901   2.335   4.247   1.385
 3334SOL    HW210902   2.405   4.101   1.402
 3335SOL     OW10903   4.741   0.205   5.622
 3335SOL    HW110904   4.758   0.113   5.585
 3335SOL    HW210905   4.642   0.220   5.627
 3336SOL     OW10906   2.127   6.446   4.425
 3336SOL    HW110907   2.050   6.474   4.368
 3336SOL    HW210908   2.150   6.350   4.405
 3337SOL     OW10909   3.089   4.010   1.544
 3337SOL    HW110910   3.029   4.030   1.621
 3337SOL    HW210911   3.126   4.095   1.507
 3338SOL     OW10912   6.397   2.776   2.107
 3338SOL    HW110913   6.473   2.754   2.168
 3338SOL    HW210914   6.329   2.703   2.111
 3339SOL     OW10915   0.944   6.897   6.400
 3339SOL    HW110916   1.043   6.904   6.412
 3339SOL    HW210917   0.924   6.881   6.303
 3340SOL     OW10918   3.594   2.105   3.202
 3340SOL    HW110919   3.687   2.068   3.197
 3340SOL    HW210920   3.577   2.141   3.294
 3341SOL     OW10921   1.213   3.947   4.148
 3341SOL    HW110922   1.257   4.005   4.079
 3341SOL    HW210923   1.279   3.879   4.180
 3342SOL     OW10924   1.169   6.681   3.819
 3342SOL    HW110925   1.083   6.665   3.771
 3342SOL    HW210926   1.245   6.645   3.764
 3343SOL     OW10927   5.158   3.674   7.006
 3343SOL    HW110928   5.201   3.765   7.004
 3343SOL    HW210929   5.091   3.668   6.931
 3344SOL     OW10930   5.406   3.738   3.408
 3344SOL    HW110931   5.443   3.656   3.363
 3344SOL    HW210932   5.451   3.819   3.371
 3345SOL     OW10933   1.128   3.291   6.013
 3345SOL    HW110934   1.108   3.227   5.938
 3345SOL    HW210935   1.199   3.355   5.984
 3346SOL     OW10936   0.854   0.907   0.125
 3346SOL    HW110937   0.780   0.845   0.098
 3346SOL    HW210938   0.933   0.893   0.066
 3347SOL     OW10939   1.405   2.693   5.115
 3347SOL    HW110940   1.467   2.623   5.081
 3347SOL    HW210941   1.451   2.782   5.114
 3348SOL     OW10942   4.124   3.497   4.126
 3348SOL    HW110943   4.064   3.458   4.055
 3348SOL    HW210944   4.160   3.585   4.095
 3349SOL     OW10945   1.965   4.985   3.116
 3349SOL    HW110946   1.934   4.904   3.066
 3349SOL    HW210947   2.030   4.958   3.186
 3350SOL     OW10948   6.847   2.057   5.916
 3350SOL    HW110949   6.775   2.041   5.983
 3350SOL    HW210950   6.807   2.062   5.824
 3351SOL     OW10951   4.854   0.754   2.993
 3351SOL    HW110952   4.853   0.699   2.910
 3351SOL    HW210953   4.938   0.809   2.996
 3352SOL     OW10954   6.660   3.312   1.131
 3352SOL    HW110955   6.570   3.269   1.135
 3352SOL    HW210956   6.708   3.279   1.049
 3353SOL     OW10957   2.821   5.827   1.262
 3353SOL    HW110958   2.910   5.788   1.238
 3353SOL    HW210959   2.814   5.835   1.362
 3354SOL     OW10960   4.415   2.609   5.627
 3354SOL    HW110961   4.469   2.688   5.596
 3354SOL    HW210962   4.375   2.629   5.716
 3355SOL     OW10963   1.774   1.910   6.324
 3355SOL    HW110964   1.696   1.909   6.261
 3355SOL    HW210965   1.767   1.991   6.383
 3356SOL     OW10966   0.644   5.495   6.037
 3356SOL    HW110967   0.721   5.439   6.008
 3356SOL    HW210968   0.674   5.589   6.050
 3357SOL     OW10969   2.119   3.548   1.734
 3357SOL    HW110970   2.052   3.538   1.807
 3357SOL    HW210971   2.211   3.532   1.770
 3358SOL     OW10972   4.468   1.414   1.584
 3358SOL    HW110973   4.403   1.342   1.561
 3358SOL    HW210974   4.428   1.504   1.564
 3359SOL     OW10975   1.011   6.287   2.953
 3359SOL    HW110976   0.931   6.277   2.894
 3359SOL    HW210977   1.069   6.360   2.919
 3360SOL     OW10978   1.609   0.861   0.257
 3360SOL    HW110979   1.647   0.828   0.170
 3360SOL    HW210980   1.663   0.823   0.332
 3361SOL     OW10981   6.927   5.096   4.575
 3361SOL    HW110982   6.884   5.031   4.513
 3361SOL    HW210983   6.973   5.167   4.522
 3362SOL     OW10984   3.394   1.608   2.930
 3362SOL    HW110985   3.425   1.701   2.951
 3362SOL    HW210986   3.465   1.543   2.956
 3363SOL     OW10987   0.077   1.420   2.332
 3363SOL    HW110988   0.059   1.518   2.322
 3363SOL    HW210989   0.173   1.402   2.312
 3364SOL     OW10990   1.793   4.946   3.604
 3364SOL    HW110991   1.734   5.022   3.633
 3364SOL    HW210992   1.888   4.975   3.606
 3365SOL     OW10993   0.703   2.361   4.820
 3365SOL    HW110994   0.614   2.367   4.775
 3365SOL    HW210995   0.740   2.453   4.833
 3366SOL     OW10996   5.600   5.169   4.196
 3366SOL    HW110997   5.637   5.085   4.236
 3366SOL    HW210998   5.546   5.146   4.115
 3367SOL     OW10999   3.849   2.935   2.652
 3367SOL    HW111000   3.759   2.929   2.694
 3367SOL    HW211001   3.919   2.935   2.724
 3368SOL     OW11002   0.346   5.900   6.920
 3368SOL    HW111003   0.279   5.960   6.877
 3368SOL    HW211004   0.342   5.809   6.878
 3369SOL     OW11005   3.689   1.704   0.763
 3369SOL    HW111006   3.651   1.619   0.801
 3369SOL    HW211007   3.615   1.762   0.730
 3370SOL     OW11008   6.941   6.261   1.054
 3370SOL    HW111009   6.933   6.356   1.023
 3370SOL    HW211010   6.992   6.259   1.140
 3371SOL     OW11011   2.096   3.118   1.517
 3371SOL    HW111012   2.137   3.147   1.603
 3371SOL    HW211013   2.011   3.068   1.536
 3372SOL     OW11014   6.673   2.163   0.175
 3372SOL    HW111015   6.662   2.180   0.077
 3372SOL    HW211016   6.660   2.065   0.193
 3373SOL     OW11017   0.904   1.453   3.778
 3373SOL    HW111018   0.884   1.535   3.724
 3373SOL    HW211019   0.860   1.460   3.867
 3374SOL     OW11020   1.468   6.789   4.542
 3374SOL    HW111021   1.370   6.773   4.531
 3374SOL    HW211022   1.506   6.721   4.604
 3375SOL     OW11023   0.216   4.718   0.243
 3375SOL    HW111024   0.245   4.692   0.151
 3375SOL    HW211025   0.161   4.801   0.238
 3376SOL     OW11026   3.827   3.060   4.489
 3376SOL    HW111027   3.899   3.129   4.498
 3376SOL    HW211028   3.771   3.060   4.571
 3377SOL     OW11029   6.400   5.842   6.100
 3377SOL    HW111030   6.376   5.939   6.097
 3377SOL    HW211031   6.402   5.811   6.195
 3378SOL     OW11032   1.108   0.076   0.736
 3378SOL    HW111033   1.150   0.075   0.826
 3378SOL    HW211034   1.178   0.096   0.667
 3379SOL     OW11035   1.369   1.812   5.447
 3379SOL    HW111036   1.282   1.792   5.493
 3379SOL    HW211037   1.357   1.807   5.348
 3380SOL     OW11038   6.087   6.292   4.256
 3380SOL    HW111039   6.128   6.250   4.336
 3380SOL    HW211040   5.995   6.325   4.279
 3381SOL     OW11041   0.883   3.099   1.576
 3381SOL    HW111042   0.934   3.017   1.549
 3381SOL    HW211043   0.811   3.118   1.510
 3382SOL     OW11044   0.465   3.030   0.005
 3382SOL    HW111045   0.415   3.089   0.069
 3382SOL    HW211046   0.400   2.975   6.974
 3383SOL     OW11047   3.899   5.721   1.589
 3383SOL    HW111048   3.885   5.820   1.601
 3383SOL    HW211049   3.921   5.680   1.677
 3384SOL     OW11050   2.494   3.498   0.497
 3384SOL    HW111051   2.520   3.468   0.588
 3384SOL    HW211052   2.530   3.590   0.480
 3385SOL     OW11053   6.636   3.094   4.959
 3385SOL    HW111054   6.540   3.110   4.981
 3385SOL    HW211055   6.686   3.071   5.042
 3386SOL     OW11056   5.218   4.316   0.459
 3386SOL    HW111057   5.292   4.317   0.526
 3386SOL    HW211058   5.168   4.403   0.464
 3387SOL     OW11059   3.574   1.032   3.116
 3387SOL    HW111060   3.660   0.985   3.138
 3387SOL    HW211061   3.524   0.978   3.048
 3388SOL     OW11062   5.132   3.309   2.613
 3388SOL    HW111063   5.145   3.379   2.683
 3388SOL    HW211064   5.034   3.298   2.594
 3389SOL     OW11065   5.823   5.976   6.204
 3389SOL    HW111066   5.782   5.904   6.148
 3389SOL    HW211067   5.827   6.061   6.152
 3390SOL     OW11068   5.942   6.797   6.473
 3390SOL    HW111069   5.845   6.818   6.460
 3390SOL    HW211070   5.951   6.709   6.520
 3391SOL     OW11071   4.697   2.049   4.548
 3391SOL    HW111072   4.702   2.044   4.448
 3391SOL    HW211073   4.731   2.138   4.579
 3392SOL     OW11074   2.921   0.026   3.633
 3392SOL    HW111075   2.927   0.069   3.723
 3392SOL    HW211076   2.827   7.017   3.617
 3393SOL     OW11077   6.393   5.874   1.085
 3393SOL    HW111078   6.419   5.793   1.138
 3393SOL    HW211079   6.325   5.926   1.136
 3394SOL     OW11080   5.275   3.515   1.220
 3394SOL    HW111081   5.253   3.605   1.257
 3394SOL    HW211082   5.193   3.456   1.226
 3395SOL     OW11083   5.403   3.015   3.911
 3395SOL    HW111084   5.414   2.923   3.949
 3395SOL    HW211085   5.423   3.013   3.813
 3396SOL     OW11086   5.306   1.098   3.646
 3396SOL    HW111087   5.259   1.172   3.598
 3396SOL    HW211088   5.282   1.099   3.743
 3397SOL     OW11089   3.338   6.121   6.258
 3397SOL    HW111090   3.264   6.063   6.291
 3397SOL    HW211091   3.412   6.122   6.324
 3398SOL     OW11092   0.679   0.199   5.207
 3398SOL    HW111093   0.691   0.194   5.108
 3398SOL    HW211094   0.614   0.130   5.237
 3399SOL     OW11095   5.422   4.878   3.524
 3399SOL    HW111096   5.463   4.826   3.598
 3399SOL    HW211097   5.327   4.901   3.547
 3400SOL     OW11098   5.251   3.337   6.686
 3400SOL    HW111099   5.204   3.419   6.652
 3400SOL    HW211100   5.313   3.363   6.760
 3401SOL     OW11101   7.014   3.469   6.658
 3401SOL    HW111102   6.957   3.522   6.596
 3401SOL    HW211103   0.088   3.489   6.640
 3402SOL     OW11104   4.298   5.385   6.462
 3402SOL    HW111105   4.379   5.417   6.511
 3402SOL    HW211106   4.222   5.449   6.478
 3403SOL     OW11107   3.717   5.739   6.458
 3403SOL    HW111108   3.719   5.786   6.370
 3403SOL    HW211109   3.624   5.705   6.475
 3404SOL     OW11110   5.371   2.273   0.790
 3404SOL    HW111111   5.375   2.198   0.856
 3404SOL    HW211112   5.464   2.304   0.769
 3405SOL     OW11113   6.789   4.068   6.096
 3405SOL    HW111114   6.727   4.034   6.167
 3405SOL    HW211115   6.805   3.995   6.029
 3406SOL     OW11116   0.730   3.250   2.104
 3406SOL    HW111117   0.681   3.337   2.100
 3406SOL    HW211118   0.789   3.240   2.024
 3407SOL     OW11119   1.230   4.130   6.458
 3407SOL    HW111120   1.247   4.122   6.360
 3407SOL    HW211121   1.132   4.140   6.474
 3408SOL     OW11122   5.325   3.404   4.717
 3408SOL    HW111123   5.280   3.461   4.786
 3408SOL    HW211124   5.322   3.450   4.628
 3409SOL     OW11125   3.722   6.054   6.994
 3409SOL    HW111126   3.748   6.129   6.934
 3409SOL    HW211127   3.734   5.967   6.946
 3410SOL     OW11128   6.767   6.896   1.693
 3410SOL    HW111129   6.816   6.922   1.609
 3410SOL    HW211130   6.718   6.975   1.729
 3411SOL     OW11131   0.238   2.792   1.260
 3411SOL    HW111132   0.322   2.777   1.208
 3411SOL    HW211133   0.159   2.771   1.204
 3412SOL     OW11134   4.976   3.058   1.200
 3412SOL    HW111135   4.949   3.111   1.281
 3412SOL    HW211136   4.902   2.996   1.175
 3413SOL     OW11137   6.186   1.682   0.788
 3413SOL    HW111138   6.101   1.642   0.754
 3413SOL    HW211139   6.243   1.611   0.828
 3414SOL     OW11140   3.401   1.935   6.008
 3414SOL    HW111141   3.379   1.841   6.031
 3414SOL    HW211142   3.367   1.955   5.916
 3415SOL     OW11143   2.139   3.149   4.319
 3415SOL    HW111144   2.180   3.223   4.266
 3415SOL    HW211145   2.050   3.179   4.355
 3416SOL     OW11146   5.860   6.588   0.676
 3416SOL    HW111147   5.909   6.607   0.761
 3416SOL    HW211148   5.828   6.674   0.636
 3417SOL     OW11149   0.374   5.667   3.346
 3417SOL    HW111150   0.416   5.758   3.344
 3417SOL    HW211151   0.346   5.644   3.439
 3418SOL     OW11152   2.870   5.730   3.424
 3418SOL    HW111153   2.931   5.765   3.495
 3418SOL    HW211154   2.821   5.806   3.381
 3419SOL     OW11155   2.951   5.802   5.927
 3419SOL    HW111156   3.032   5.744   5.927
 3419SOL    HW211157   2.869   5.745   5.931
 3420SOL     OW11158   5.844   2.742   3.094
 3420SOL    HW111159   5.922   2.757   3.155
 3420SOL    HW211160   5.869   2.675   3.025
 3421SOL     OW11161   4.893   1.814   4.369
 3421SOL    HW111162   4.809   1.762   4.357
 3421SOL    HW211163   4.959   1.788   4.299
 3422SOL     OW11164   2.763   0.248   0.355
 3422SOL    HW111165   2.752   0.150   0.337
 3422SOL    HW211166   2.673   0.289   0.369
 3423SOL     OW11167   0.061   4.760   6.473
 3423SOL    HW111168   0.026   4.681   6.524
 3423SOL    HW211169   0.064   4.737   6.376
 3424SOL     OW11170   2.088   6.458   0.874
 3424SOL    HW111171   2.135   6.507   0.948
 3424SOL    HW211172   2.155   6.429   0.805
 3425SOL     OW11173   5.028   4.792   2.171
 3425SOL    HW111174   4.946   4.842   2.199
 3425SOL    HW211175   5.046   4.809   2.074
 3426SOL     OW11176   4.250   2.540   0.772
 3426SOL    HW111177   4.192   2.565   0.694
 3426SOL    HW211178   4.346   2.560   0.750
 3427SOL     OW11179   0.806   1.588   0.943
 3427SOL    HW111180   0.899   1.596   0.907
 3427SOL    HW211181   0.740   1.598   0.868
 3428SOL     OW11182   2.425   5.022   0.089
 3428SOL    HW111183   2.520   5.014   0.061
 3428SOL    HW211184   2.411   4.977   0.177
 3429SOL     OW11185   0.219   1.989   0.969
 3429SOL    HW111186   0.173   2.073   0.997
 3429SOL    HW211187   0.195   1.915   1.034
 3430SOL     OW11188   1.571   6.613   5.878
 3430SOL    HW111189   1.653   6.641   5.928
 3430SOL    HW211190   1.599   6.558   5.799
 3431SOL     OW11191   1.285   6.584   1.600
 3431SOL    HW111192   1.360   6.519   1.585
 3431SOL    HW211193   1.320   6.677   1.594
 3432SOL     OW11194   1.700   3.491   5.402
 3432SOL    HW111195   1.636   3.414   5.396
 3432SOL    HW211196   1.752   3.498   5.316
 3433SOL     OW11197   1.636   0.009   5.067
 3433SOL    HW111198   1.705   0.066   5.020
 3433SOL    HW211199   1.683   6.957   5.116
 3434SOL     OW11200   4.307   1.015   2.250
 3434SOL    HW111201   4.285   1.101   2.203
 3434SOL    HW211202   4.223   0.972   2.283
 3435SOL     OW11203   1.642   0.869   1.133
 3435SOL    HW111204   1.725   0.893   1.183
 3435SOL    HW211205   1.622   0.772   1.146
 3436SOL     OW11206   4.048   6.147   0.111
 3436SOL    HW111207   3.965   6.112   0.068
 3436SOL    HW211208   4.052   6.246   0.101
 3437SOL     OW11209   2.740   0.063   5.618
 3437SOL    HW111210   2.776   0.148   5.580
 3437SOL    HW211211   2.648   0.079   5.654
 3438SOL     OW11212   1.125   2.908   0.907
 3438SOL    HW111213   1.031   2.876   0.908
 3438SOL    HW211214   1.127   3.007   0.921
 3439SOL     OW11215   2.564   6.049   4.714
 3439SOL    HW111216   2.596   6.120   4.652
 3439SOL    HW211217   2.563   5.961   4.667
 3440SOL     OW11218   2.863   3.301   2.038
 3440SOL    HW111219   2.875   3.389   2.083
 3440SOL    HW211220   2.952   3.269   2.004
 3441SOL     OW11221   6.517   5.784   6.377
 3441SOL    HW111222   6.550   5.877   6.357
 3441SOL    HW211223   6.582   5.739   6.439
 3442SOL     OW11224   2.160   4.317   1.648
 3442SOL    HW111225   2.076   4.359   1.615
 3442SOL    HW211226   2.158   4.219   1.630
 3443SOL     OW11227   3.425   6.221   2.181
 3443SOL    HW111228   3.334   6.246   2.212
 3443SOL    HW211229   3.486   6.212   2.260
 3444SOL     OW11230   4.998   5.303   0.043
 3444SOL    HW111231   4.966   5.309   6.970
 3444SOL    HW211232   4.920   5.300   0.105
 3445SOL     OW11233   6.013   4.989   2.924
 3445SOL    HW111234   6.034   4.924   2.997
 3445SOL    HW211235   6.061   5.075   2.942
 3446SOL     OW11236   5.989   1.017   1.609
 3446SOL    HW111237   5.923   1.088   1.585
 3446SOL    HW211238   6.014   1.025   1.705
 3447SOL     OW11239   4.689   5.714   1.008
 3447SOL    HW111240   4.719   5.678   1.096
 3447SOL    HW211241   4.604   5.669   0.980
 3448SOL     OW11242   4.036   0.421   6.324
 3448SOL    HW111243   4.060   0.418   6.227
 3448SOL    HW211244   4.107   0.469   6.375
 3449SOL     OW11245   6.149   5.343   4.589
 3449SOL    HW111246   6.108   5.315   4.502
 3449SOL    HW211247   6.248   5.342   4.581
 3450SOL     OW11248   0.599   2.138   6.936
 3450SOL    HW111249   0.511   2.135   6.888
 3450SOL    HW211250   0.590   2.094   0.003
 3451SOL     OW11251   2.621   6.323   6.988
 3451SOL    HW111252   2.713   6.360   6.984
 3451SOL    HW211253   2.623   6.235   0.014
 3452SOL     OW11254   5.505   0.807   6.892
 3452SOL    HW111255   5.446   0.847   6.963
 3452SOL    HW211256   5.557   0.880   6.847
 3453SOL     OW11257   6.170   6.083   6.662
 3453SOL    HW111258   6.130   6.146   6.729
 3453SOL    HW211259   6.169   5.990   6.698
 3454SOL     OW11260   1.109   3.104   5.010
 3454SOL    HW111261   1.127   3.182   4.950
 3454SOL    HW211262   1.011   3.097   5.027
 3455SOL     OW11263   2.521   2.001   4.472
 3455SOL    HW111264   2.475   2.078   4.428
 3455SOL    HW211265   2.494   1.916   4.428
 3456SOL     OW11266   5.511   5.323   1.595
 3456SOL    HW111267   5.595   5.324   1.649
 3456SOL    HW211268   5.433   5.346   1.653
 3457SOL     OW11269   2.912   5.656   3.162
 3457SOL    HW111270   2.919   5.741   3.110
 3457SOL    HW211271   2.887   5.677   3.256
 3458SOL     OW11272   4.725   0.854   1.919
 3458SOL    HW111273   4.641   0.890   1.880
 3458SOL    HW211274   4.781   0.813   1.847
 3459SOL     OW11275   4.953   2.620   2.857
 3459SOL    HW111276   4.942   2.564   2.775
 3459SOL    HW211277   5.050   2.620   2.884
 3460SOL     OW11278   2.454   2.121   6.909
 3460SOL    HW111279   2.492   2.090   6.822
 3460SOL    HW211280   2.510   2.086   6.984
 3461SOL     OW11281   4.588   4.107   6.355
 3461SOL    HW111282   4.583   4.137   6.451
 3461SOL    HW211283   4.659   4.159   6.308
 3462SOL     OW11284   0.419   3.418   4.671
 3462SOL    HW111285   0.456   3.332   4.634
 3462SOL    HW211286   0.397   3.480   4.596
 3463SOL     OW11287   1.029   4.283   2.089
 3463SOL    HW111288   1.065   4.350   2.024
 3463SOL    HW211289   0.950   4.237   2.050
 3464SOL     OW11290   6.960   4.817   5.417
 3464SOL    HW111291   6.923   4.820   5.509
 3464SOL    HW211292   7.001   4.728   5.400
 3465SOL     OW11293   1.583   2.021   2.446
 3465SOL    HW111294   1.595   2.113   2.482
 3465SOL    HW211295   1.588   1.955   2.522
 3466SOL     OW11296   6.320   5.341   6.535
 3466SOL    HW111297   6.344   5.432   6.568
 3466SOL    HW211298   6.395   5.305   6.480
 3467SOL     OW11299   1.891   3.035   6.874
 3467SOL    HW111300   1.986   3.027   6.905
 3467SOL    HW211301   1.836   3.080   6.945
 3468SOL     OW11302   4.310   6.700   3.112
 3468SOL    HW111303   4.249   6.720   3.036
 3468SOL    HW211304   4.293   6.607   3.146
 3469SOL     OW11305   5.223   0.140   3.294
 3469SOL    HW111306   5.290   0.093   3.236
 3469SOL    HW211307   5.226   0.238   3.275
 3470SOL     OW11308   5.952   3.837   0.924
 3470SOL    HW111309   5.943   3.787   0.838
 3470SOL    HW211310   6.029   3.800   0.977
 3471SOL     OW11311   3.742   5.031   4.118
 3471SOL    HW111312   3.763   5.118   4.074
 3471SOL    HW211313   3.653   4.998   4.088
 3472SOL     OW11314   2.288   0.792   2.367
 3472SOL    HW111315   2.226   0.867   2.346
 3472SOL    HW211316   2.377   0.810   2.327
 3473SOL     OW11317   0.309   2.479   0.825
 3473SOL    HW111318   0.385   2.506   0.766
 3473SOL    HW211319   0.342   2.416   0.895
 3474SOL     OW11320   2.304   4.813   1.688
 3474SOL    HW111321   2.373   4.845   1.753
 3474SOL    HW211322   2.334   4.727   1.646
 3475SOL     OW11323   1.250   5.436   5.160
 3475SOL    HW111324   1.282   5.450   5.066
 3475SOL    HW211325   1.151   5.444   5.163
 3476SOL     OW11326   3.453   2.116   2.939
 3476SOL    HW111327   3.357   2.141   2.950
 3476SOL    HW211328   3.498   2.119   3.029
 3477SOL     OW11329   3.310   5.148   0.560
 3477SOL    HW111330   3.256   5.142   0.644
 3477SOL    HW211331   3.391   5.091   0.569
 3478SOL     OW11332   2.154   6.018   4.559
 3478SOL    HW111333   2.195   5.926   4.559
 3478SOL    HW211334   2.186   6.068   4.640
 3479SOL     OW11335   1.722   0.662   2.654
 3479SOL    HW111336   1.754   0.750   2.620
 3479SOL    HW211337   1.644   0.676   2.716
 3480SOL     OW11338   0.105   0.057   5.246
 3480SOL    HW111339   0.104   0.045   5.345
 3480SOL    HW211340   0.187   0.106   5.218
 3481SOL     OW11341   5.359   0.165   0.146
 3481SOL    HW111342   5.329   0.085   0.093
 3481SOL    HW211343   5.301   0.174   0.227
 3482SOL     OW11344   5.905   1.613   1.338
 3482SOL    HW111345   5.873   1.617   1.433
 3482SOL    HW211346   5.827   1.623   1.276
 3483SOL     OW11347   4.800   1.113   1.638
 3483SOL    HW111348   4.711   1.085   1.673
 3483SOL    HW211349   4.792   1.134   1.540
 3484SOL     OW11350   2.860   3.566   1.371
 3484SOL    HW111351   2.859   3.490   1.437
 3484SOL    HW211352   2.831   3.532   1.282
 3485SOL     OW11353   1.368   0.210   4.200
 3485SOL    HW111354   1.431   0.146   4.246
 3485SOL    HW211355   1.340   0.170   4.112
 3486SOL     OW11356   2.929   1.436   2.355
 3486SOL    HW111357   2.851   1.454   2.414
 3486SOL    HW211358   3.013   1.433   2.409
 3487SOL     OW11359   5.884   2.712   5.520
 3487SOL    HW111360   5.975   2.723   5.559
 3487SOL    HW211361   5.837   2.636   5.564
 3488SOL     OW11362   6.014   2.370   4.207
 3488SOL    HW111363   5.935   2.309   4.202
 3488SOL    HW211364   6.087   2.327   4.259
 3489SOL     OW11365   3.024   6.938   0.629
 3489SOL    HW111366   3.099   6.961   0.567
 3489SOL    HW211367   2.975   7.021   0.655
 3490SOL     OW11368   4.164   4.816   6.791
 3490SOL    HW111369   4.083   4.781   6.839
 3490SOL    HW211370   4.155   4.800   6.693
 3491SOL     OW11371   6.167   2.439   5.257
 3491SOL    HW111372   6.133   2.348   5.282
 3491SOL    HW211373   6.215   2.434   5.169
 3492SOL     OW11374   0.980   5.852   1.183
 3492SOL    HW111375   0.954   5.756   1.195
 3492SOL    HW211376   1.076   5.864   1.211
 3493SOL     OW11377   6.159   4.977   6.745
 3493SOL    HW111378   6.240   5.000   6.691
 3493SOL    HW211379   6.087   4.941   6.685
 3494SOL     OW11380   3.917   0.813   1.697
 3494SOL    HW111381   3.902   0.763   1.612
 3494SOL    HW211382   3.848   0.885   1.706
 3495SOL     OW11383   4.568   5.121   2.210
 3495SOL    HW111384   4.502   5.152   2.142
 3495SOL    HW211385   4.524   5.114   2.299
 3496SOL     OW11386   0.077   3.952   0.907
 3496SOL    HW111387   0.107   3.916   0.996
 3496SOL    HW211388   0.019   3.884   0.861
 3497SOL     OW11389   3.802   6.859   3.834
 3497SOL    HW111390   3.708   6.892   3.832
 3497SOL    HW211391   3.862   6.925   3.788
 3498SOL     OW11392   1.919   2.881   0.703
 3498SOL    HW111393   1.909   2.953   0.635
 3498SOL    HW211394   2.015   2.874   0.730
 3499SOL     OW11395   4.594   2.623   4.339
 3499SOL    HW111396   4.670   2.604   4.277
 3499SOL    HW211397   4.624   2.611   4.433
 3500SOL     OW11398   1.115   4.017   5.014
 3500SOL    HW111399   1.199   4.068   5.031
 3500SOL    HW211400   1.120   3.972   4.925
 3501SOL     OW11401   1.540   5.357   4.010
 3501SOL    HW111402   1.477   5.389   3.938
 3501SOL    HW211403   1.570   5.264   3.989
 3502SOL     OW11404   6.530   2.296   2.123
 3502SOL    HW111405   6.439   2.330   2.147
 3502SOL    HW211406   6.524   2.198   2.101
 3503SOL     OW11407   6.424   5.845   5.029
 3503SOL    HW111408   6.366   5.827   5.108
 3503SOL    HW211409   6.377   5.818   4.946
 3504SOL     OW11410   2.300   1.564   1.133
 3504SOL    HW111411   2.247   1.646   1.113
 3504SOL    HW211412   2.394   1.574   1.099
 3505SOL     OW11413   5.527   4.913   4.719
 3505SOL    HW111414   5.509   4.898   4.817
 3505SOL    HW211415   5.490   5.002   4.692
 3506SOL     OW11416   4.885   6.701   5.484
 3506SOL    HW111417   4.947   6.720   5.560
 3506SOL    HW211418   4.794   6.680   5.520
 3507SOL     OW11419   2.490   0.661   0.284
 3507SOL    HW111420   2.511   0.750   0.243
 3507SOL    HW211421   2.500   0.589   0.215
 3508SOL     OW11422   2.871   2.634   5.990
 3508SOL    HW111423   2.945   2.671   5.934
 3508SOL    HW211424   2.893   2.540   6.017
 3509SOL     OW11425   5.473   0.165   6.487
 3509SOL    HW111426   5.557   0.136   6.534
 3509SOL    HW211427   5.492   0.177   6.390
 3510SOL     OW11428   1.987   2.461   1.391
 3510SOL    HW111429   2.018   2.397   1.321
 3510SOL    HW211430   2.052   2.460   1.468
 3511SOL     OW11431   2.122   4.685   0.272
 3511SOL    HW111432   2.055   4.758   0.280
 3511SOL    HW211433   2.177   4.680   0.355
 3512SOL     OW11434   6.833   4.138   0.916
 3512SOL    HW111435   6.879   4.080   0.849
 3512SOL    HW211436   6.814   4.086   0.999
 3513SOL     OW11437   6.250   4.105   0.000
 3513SOL    HW111438   6.171   4.063   6.978
 3513SOL    HW211439   6.219   4.179   0.060
 3514SOL     OW11440   0.002   1.257   2.090
 3514SOL    HW111441   6.938   1.206   2.094
 3514SOL    HW211442   0.020   1.300   2.179
 3515SOL     OW11443   4.768   6.166   3.191
 3515SOL    HW111444   4.773   6.182   3.289
 3515SOL    HW211445   4.817   6.082   3.168
 3516SOL     OW11446   4.522   6.931   0.819
 3516SOL    HW111447   4.472   7.011   0.852
 3516SOL    HW211448   4.618   6.938   0.845
 3517SOL     OW11449   1.130   2.257   0.586
 3517SOL    HW111450   1.093   2.220   0.671
 3517SOL    HW211451   1.230   2.258   0.591
 3518SOL     OW11452   5.718   4.000   4.656
 3518SOL    HW111453   5.717   4.075   4.723
 3518SOL    HW211454   5.801   4.006   4.601
 3519SOL     OW11455   1.718   0.826   6.705
 3519SOL    HW111456   1.664   0.856   6.784
 3519SOL    HW211457   1.660   0.774   6.643
 3520SOL     OW11458   3.036   4.535   6.781
 3520SOL    HW111459   3.038   4.582   6.870
 3520SOL    HW211460   3.129   4.532   6.744
 3521SOL     OW11461   5.478   3.092   0.996
 3521SOL    HW111462   5.558   3.041   1.028
 3521SOL    HW211463   5.414   3.104   1.071
 3522SOL     OW11464   5.074   5.218   1.995
 3522SOL    HW111465   5.146   5.249   2.057
 3522SOL    HW211466   4.985   5.232   2.038
 3523SOL     OW11467   2.540   4.761   5.731
 3523SOL    HW111468   2.477   4.824   5.777
 3523SOL    HW211469   2.570   4.691   5.795
 3524SOL     OW11470   2.807   1.211   0.991
 3524SOL    HW111471   2.890   1.162   1.019
 3524SOL    HW211472   2.808   1.303   1.030
 3525SOL     OW11473   0.392   4.239   2.200
 3525SOL    HW111474   0.397   4.335   2.174
 3525SOL    HW211475   0.480   4.195   2.181
 3526SOL     OW11476   2.400   5.872   3.578
 3526SOL    HW111477   2.436   5.966   3.572
 3526SOL    HW211478   2.435   5.829   3.661
 3527SOL     OW11479   6.218   3.850   6.094
 3527SOL    HW111480   6.152   3.775   6.088
 3527SOL    HW211481   6.211   3.907   6.012
 3528SOL     OW11482   1.186   5.144   3.556
 3528SOL    HW111483   1.270   5.189   3.526
 3528SOL    HW211484   1.173   5.059   3.503
 3529SOL     OW11485   5.059   0.341   5.463
 3529SOL    HW111486   5.139   0.365   5.407
 3529SOL    HW211487   5.015   0.260   5.426
 3530SOL     OW11488   2.370   4.323   3.047
 3530SOL    HW111489   2.353   4.325   3.146
 3530SOL    HW211490   2.430   4.399   3.022
 3531SOL     OW11491   4.901   4.597   1.192
 3531SOL    HW111492   4.819   4.539   1.190
 3531SOL    HW211493   4.916   4.629   1.286
 3532SOL     OW11494   2.228   0.213   0.287
 3532SOL    HW111495   2.235   0.185   0.383
 3532SOL    HW211496   2.219   0.132   0.229
 3533SOL     OW11497   1.158   2.146   2.573
 3533SOL    HW111498   1.242   2.189   2.606
 3533SOL    HW211499   1.174   2.048   2.560
 3534SOL     OW11500   6.552   1.047   4.998
 3534SOL    HW111501   6.503   1.076   4.916
 3534SOL    HW211502   6.486   1.026   5.070
 3535SOL     OW11503   6.560   5.718   0.284
 3535SOL    HW111504   6.593   5.727   0.378
 3535SOL    HW211505   6.462   5.697   0.285
 3536SOL     OW11506   2.353   2.721   3.487
 3536SOL    HW111507   2.341   2.758   3.579
 3536SOL    HW211508   2.451   2.716   3.466
 3537SOL     OW11509   2.705   5.004   0.068
 3537SOL    HW111510   2.763   4.924   0.076
 3537SOL    HW211511   2.733   5.073   0.135
 3538SOL     OW11512   3.128   0.352   4.526
 3538SOL    HW111513   3.093   0.413   4.455
 3538SOL    HW211514   3.054   0.327   4.588
 3539SOL     OW11515   6.097   3.313   6.568
 3539SOL    HW111516   6.123   3.339   6.661
 3539SOL    HW211517   6.095   3.213   6.560
 3540SOL     OW11518   1.952   1.371   5.275
 3540SOL    HW111519   2.032   1.430   5.264
 3540SOL    HW211520   1.870   1.420   5.244
 3541SOL     OW11521   3.128   2.757   6.611
 3541SOL    HW111522   3.096   2.701   6.688
 3541SOL    HW211523   3.201   2.817   6.642
 3542SOL     OW11524   0.218   3.300   1.444
 3542SOL    HW111525   0.217   3.294   1.344
 3542SOL    HW211526   0.255   3.389   1.471
 3543SOL     OW11527   1.406   3.571   5.409
 3543SOL    HW111528   1.457   3.647   5.451
 3543SOL    HW211529   1.427   3.567   5.312
 3544SOL     OW11530   1.873   4.681   6.396
 3544SOL    HW111531   1.817   4.657   6.316
 3544SOL    HW211532   1.961   4.716   6.365
 3545SOL     OW11533   3.520   5.374   6.468
 3545SOL    HW111534   3.466   5.314   6.527
 3545SOL    HW211535   3.524   5.336   6.376
 3546SOL     OW11536   6.779   4.843   3.367
 3546SOL    HW111537   6.817   4.759   3.404
 3546SOL    HW211538   6.852   4.909   3.351
 3547SOL     OW11539   6.616   4.047   4.191
 3547SOL    HW111540   6.613   3.965   4.248
 3547SOL    HW211541   6.620   4.128   4.249
 3548SOL     OW11542   5.502   0.187   6.198
 3548SOL    HW111543   5.519   0.285   6.185
 3548SOL    HW211544   5.479   0.146   6.109
 3549SOL     OW11545   1.485   4.647   6.304
 3549SOL    HW111546   1.504   4.549   6.312
 3549SOL    HW211547   1.502   4.692   6.391
 3550SOL     OW11548   6.375   2.435   5.032
 3550SOL    HW111549   6.414   2.350   4.995
 3550SOL    HW211550   6.383   2.507   4.964
 3551SOL     OW11551   3.991   1.290   3.867
 3551SOL    HW111552   4.063   1.334   3.922
 3551SOL    HW211553   3.920   1.254   3.928
 3552SOL     OW11554   6.244   6.708   2.003
 3552SOL    HW111555   6.148   6.737   2.008
 3552SOL    HW211556   6.248   6.609   1.989
 3553SOL     OW11557   3.539   5.739   0.226
 3553SOL    HW111558   3.541   5.649   0.270
 3553SOL    HW211559   3.474   5.738   0.150
 3554SOL     OW11560   3.978   2.889   0.651
 3554SOL    HW111561   4.020   2.979   0.660
 3554SOL    HW211562   4.024   2.838   0.578
 3555SOL     OW11563   0.491   3.290   3.898
 3555SOL    HW111564   0.591   3.290   3.896
 3555SOL    HW211565   0.459   3.359   3.963
 3556SOL     OW11566   3.950   0.879   4.208
 3556SOL    HW111567   3.872   0.882   4.146
 3556SOL    HW211568   3.958   0.788   4.248
 3557SOL     OW11569   1.605   0.096   4.298
 3557SOL    HW111570   1.688   0.045   4.320
 3557SOL    HW211571   1.552   0.111   4.381
 3558SOL     OW11572   1.838   4.859   1.786
 3558SOL    HW111573   1.920   4.907   1.818
 3558SOL    HW211574   1.764   4.875   1.851
 3559SOL     OW11575   1.268   6.137   5.084
 3559SOL    HW111576   1.268   6.152   4.985
 3559SOL    HW211577   1.181   6.167   5.122
 3560SOL     OW11578   2.140   5.006   2.456
 3560SOL    HW111579   2.079   5.061   2.400
 3560SOL    HW211580   2.226   5.054   2.470
 3561SOL     OW11581   5.055   4.343   5.380
 3561SOL    HW111582   5.143   4.294   5.379
 3561SOL    HW211583   4.993   4.301   5.314
 3562SOL     OW11584   2.766   1.421   3.349
 3562SOL    HW111585   2.785   1.419   3.251
 3562SOL    HW211586   2.810   1.343   3.393
 3563SOL     OW11587   6.696   1.857   6.826
 3563SOL    HW111588   6.653   1.905   6.750
 3563SOL    HW211589   6.658   1.765   6.835
 3564SOL     OW11590   0.596   4.560   2.625
 3564SOL    HW111591   0.622   4.464   2.613
 3564SOL    HW211592   0.635   4.595   2.711
 3565SOL     OW11593   3.323   6.029   4.154
 3565SOL    HW111594   3.396   6.014   4.220
 3565SOL    HW211595   3.313   6.127   4.136
 3566SOL     OW11596   6.492   2.269   6.492
 3566SOL    HW111597   6.549   2.351   6.489
 3566SOL    HW211598   6.406   2.287   6.444
 3567SOL     OW11599   0.713   2.449   0.259
 3567SOL    HW111600   0.767   2.531   0.274
 3567SOL    HW211601   0.737   2.409   0.170
 3568SOL     OW11602   5.271   4.347   4.794
 3568SOL    HW111603   5.332   4.320   4.719
 3568SOL    HW211604   5.283   4.445   4.813
 3569SOL     OW11605   2.913   2.916   6.267
 3569SOL    HW111606   2.871   2.866   6.192
 3569SOL    HW211607   2.890   3.013   6.261
 3570SOL     OW11608   5.424   0.443   6.548
 3570SOL    HW111609   5.421   0.345   6.526
 3570SOL    HW211610   5.493   0.458   6.619
 3571SOL     OW11611   0.688   5.510   6.446
 3571SOL    HW111612   0.772   5.534   6.495
 3571SOL    HW211613   0.653   5.592   6.400
 3572SOL     OW11614   5.709   4.298   3.090
 3572SOL    HW111615   5.635   4.274   3.027
 3572SOL    HW211616   5.796   4.298   3.041
 3573SOL     OW11617   0.632   4.603   3.827
 3573SOL    HW111618   0.630   4.600   3.927
 3573SOL    HW211619   0.696   4.534   3.793
 3574SOL     OW11620   0.481   4.270   0.784
 3574SOL    HW111621   0.396   4.251   0.833
 3574SOL    HW211622   0.482   4.366   0.755
 3575SOL     OW11623   5.178   4.591   2.950
 3575SOL    HW111624   5.268   4.588   2.906
 3575SOL    HW211625   5.188   4.621   3.045
 3576SOL     OW11626   1.179   1.753   5.618
 3576SOL    HW111627   1.200   1.709   5.705
 3576SOL    HW211628   1.084   1.784   5.618
 3577SOL     OW11629   1.137   3.045   6.181
 3577SOL    HW111630   1.140   3.133   6.135
 3577SOL    HW211631   1.135   2.972   6.112
 3578SOL     OW11632   2.818   2.463   0.699
 3578SOL    HW111633   2.842   2.431   0.791
 3578SOL    HW211634   2.746   2.405   0.661
 3579SOL     OW11635   5.822   3.684   5.247
 3579SOL    HW111636   5.922   3.687   5.249
 3579SOL    HW211637   5.791   3.589   5.261
 3580SOL     OW11638   6.000   2.958   1.526
 3580SOL    HW111639   5.924   2.961   1.591
 3580SOL    HW211640   6.021   2.862   1.505
 3581SOL     OW11641   0.670   6.137   3.708
 3581SOL    HW111642   0.718   6.049   3.702
 3581SOL    HW211643   0.737   6.211   3.713
 3582SOL     OW11644   0.793   2.159   5.520
 3582SOL    HW111645   0.766   2.250   5.550
 3582SOL    HW211646   0.893   2.151   5.522
 3583SOL     OW11647   1.332   3.398   6.323
 3583SOL    HW111648   1.414   3.455   6.326
 3583SOL    HW211649   1.259   3.446   6.276
 3584SOL     OW11650   5.859   5.282   6.532
 3584SOL    HW111651   5.875   5.338   6.451
 3584SOL    HW211652   5.944   5.277   6.585
 3585SOL     OW11653   4.487   6.703   5.274
 3585SOL    HW111654   4.427   6.782   5.287
 3585SOL    HW211655   4.561   6.727   5.212
 3586SOL     OW11656   0.522   2.325   5.291
 3586SOL    HW111657   0.485   2.399   5.235
 3586SOL    HW211658   0.598   2.281   5.243
 3587SOL     OW11659   3.202   5.264   6.783
 3587SOL    HW111660   3.294   5.265   6.824
 3587SOL    HW211661   3.135   5.288   6.852
 3588SOL     OW11662   0.852   2.719   5.412
 3588SOL    HW111663   0.950   2.729   5.395
 3588SOL    HW211664   0.833   2.734   5.509
 3589SOL     OW11665   3.756   2.071   4.813
 3589SOL    HW111666   3.682   2.094   4.876
 3589SOL    HW211667   3.727   2.091   4.719
 3590SOL     OW11668   1.551   2.789   6.650
 3590SOL    HW111669   1.606   2.740   6.717
 3590SOL    HW211670   1.519   2.875   6.688
 3591SOL     OW11671   5.019   3.461   6.633
 3591SOL    HW111672   5.008   3.560   6.634
 3591SOL    HW211673   4.987   3.425   6.546
 3592SOL     OW11674   6.467   4.146   1.834
 3592SOL    HW111675   6.450   4.200   1.752
 3592SOL    HW211676   6.548   4.181   1.881
 3593SOL     OW11677   1.685   5.936   4.750
 3593SOL    HW111678   1.720   6.028   4.770
 3593SOL    HW211679   1.683   5.882   4.834
 3594SOL     OW11680   4.695   0.414   3.336
 3594SOL    HW111681   4.701   0.458   3.246
 3594SOL    HW211682   4.628   0.463   3.392
 3595SOL     OW11683   2.331   5.879   0.111
 3595SOL    HW111684   2.383   5.959   0.081
 3595SOL    HW211685   2.290   5.834   0.031
 3596SOL     OW11686   6.924   2.021   3.104
 3596SOL    HW111687   6.887   1.930   3.122
 3596SOL    HW211688   6.988   2.016   3.026
 3597SOL     OW11689   2.056   1.220   4.189
 3597SOL    HW111690   2.104   1.132   4.194
 3597SOL    HW211691   2.123   1.294   4.181
 3598SOL     OW11692   1.145   5.843   6.244
 3598SOL    HW111693   1.230   5.808   6.284
 3598SOL    HW211694   1.162   5.873   6.150
 3599SOL     OW11695   0.674   2.148   5.823
 3599SOL    HW111696   0.718   2.235   5.800
 3599SOL    HW211697   0.692   2.082   5.750
 3600SOL     OW11698   0.556   3.880   0.301
 3600SOL    HW111699   0.625   3.841   0.362
 3600SOL    HW211700   0.541   3.976   0.326
 3601SOL     OW11701   5.567   4.645   6.301
 3601SOL    HW111702   5.509   4.712   6.347
 3601SOL    HW211703   5.591   4.679   6.210
 3602SOL     OW11704   1.492   2.830   1.134
 3602SOL    HW111705   1.483   2.805   1.038
 3602SOL    HW211706   1.511   2.928   1.142
 3603SOL     OW11707   3.589   6.992   3.636
 3603SOL    HW111708   3.516   0.013   3.582
 3603SOL    HW211709   3.640   6.929   3.578
 3604SOL     OW11710   6.922   4.528   2.774
 3604SOL    HW111711   7.002   4.585   2.790
 3604SOL    HW211712   6.943   4.434   2.801
 3605SOL     OW11713   5.937   4.135   5.176
 3605SOL    HW111714   5.959   4.174   5.087
 3605SOL    HW211715   5.986   4.186   5.247
 3606SOL     OW11716   6.946   6.550   5.883
 3606SOL    HW111717   6.913   6.582   5.794
 3606SOL    HW211718   6.903   6.462   5.905
 3607SOL     OW11719   5.478   6.061   1.210
 3607SOL    HW111720   5.566   6.039   1.252
 3607SOL    HW211721   5.488   6.064   1.110
 3608SOL     OW11722   5.839   1.426   3.526
 3608SOL    HW111723   5.766   1.361   3.548
 3608SOL    HW211724   5.801   1.502   3.474
 3609SOL     OW11725   0.869   0.235   4.320
 3609SOL    HW111726   0.884   0.180   4.402
 3609SOL    HW211727   0.950   0.227   4.260
 3610SOL     OW11728   1.642   0.001   5.927
 3610SOL    HW111729   1.693   6.998   5.845
 3610SOL    HW211730   1.595   0.088   5.913
 3611SOL     OW11731   4.971   5.809   5.897
 3611SOL    HW111732   4.953   5.840   5.804
 3611SOL    HW211733   4.994   5.712   5.896
 3612SOL     OW11734   6.316   0.348   6.869
 3612SOL    HW111735   6.409   0.322   6.844
 3612SOL    HW211736   6.251   0.284   6.828
 3613SOL     OW11737   4.602   5.412   1.817
 3613SOL    HW111738   4.631   5.503   1.847
 3613SOL    HW211739   4.657   5.384   1.738
 3614SOL     OW11740   4.038   3.449   1.746
 3614SOL    HW111741   4.102   3.491   1.811
 3614SOL    HW211742   3.959   3.509   1.735
 3615SOL     OW11743   4.731   5.227   0.200
 3615SOL    HW111744   4.658   5.272   0.251
 3615SOL    HW211745   4.720   5.128   0.205
 3616SOL     OW11746   1.009   2.757   6.531
 3616SOL    HW111747   1.078   2.828   6.544
 3616SOL    HW211748   0.972   2.763   6.439
 3617SOL     OW11749   3.877   1.848   6.488
 3617SOL    HW111750   3.945   1.907   6.533
 3617SOL    HW211751   3.797   1.903   6.464
 3618SOL     OW11752   2.328   2.043   5.796
 3618SOL    HW111753   2.242   2.075   5.835
 3618SOL    HW211754   2.311   1.966   5.734
 3619SOL     OW11755   5.581   2.583   4.521
 3619SOL    HW111756   5.653   2.651   4.507
 3619SOL    HW211757   5.507   2.598   4.455
 3620SOL     OW11758   6.088   6.225   6.081
 3620SOL    HW111759   6.081   6.131   6.113
 3620SOL    HW211760   6.151   6.229   6.004
 3621SOL     OW11761   3.495   3.148   5.211
 3621SOL    HW111762   3.582   3.158   5.260
 3621SOL    HW211763   3.476   3.051   5.196
 3622SOL     OW11764   1.752   1.328   4.815
 3622SOL    HW111765   1.834   1.385   4.827
 3622SOL    HW211766   1.780   1.235   4.788
 3623SOL     OW11767   5.917   5.739   4.168
 3623SOL    HW111768   5.830   5.778   4.196
 3623SOL    HW211769   5.919   5.730   4.068
 3624SOL     OW11770   1.895   6.316   1.651
 3624SOL    HW111771   1.885   6.309   1.750
 3624SOL    HW211772   1.985   6.284   1.624
 3625SOL     OW11773   6.162   3.315   0.096
 3625SOL    HW111774   6.154   3.219   0.123
 3625SOL    HW211775   6.072   3.351   0.071
 3626SOL     OW11776   0.772   3.159   6.198
 3626SOL    HW111777   0.859   3.156   6.246
 3626SOL    HW211778   0.697   3.151   6.263
 3627SOL     OW11779   3.677   2.901   3.326
 3627SOL    HW111780   3.631   2.888   3.414
 3627SOL    HW211781   3.772   2.927   3.341
 3628SOL     OW11782   1.301   1.369   1.676
 3628SOL    HW111783   1.304   1.459   1.720
 3628SOL    HW211784   1.367   1.367   1.601
 3629SOL     OW11785   6.819   2.080   5.254
 3629SOL    HW111786   6.864   2.145   5.194
 3629SOL    HW211787   6.879   2.059   5.332
 3630SOL     OW11788   5.285   2.716   4.105
 3630SOL    HW111789   5.341   2.722   4.022
 3630SOL    HW211790   5.189   2.730   4.080
 3631SOL     OW11791   1.898   6.880   3.657
 3631SOL    HW111792   1.881   6.978   3.668
 3631SOL    HW211793   1.994   6.864   3.638
 3632SOL     OW11794   5.073   5.982   1.432
 3632SOL    HW111795   4.983   5.938   1.436
 3632SOL    HW211796   5.062   6.078   1.405
 3633SOL     OW11797   3.974   1.702   5.414
 3633SOL    HW111798   4.038   1.678   5.487
 3633SOL    HW211799   3.904   1.764   5.449
 3634SOL     OW11800   1.046   5.065   4.578
 3634SOL    HW111801   1.014   5.001   4.508
 3634SOL    HW211802   0.984   5.061   4.657
 3635SOL     OW11803   3.135   0.047   6.096
 3635SOL    HW111804   3.104   0.063   6.002
 3635SOL    HW211805   3.109   6.976   6.123
 3636SOL     OW11806   0.259   5.406   0.572
 3636SOL    HW111807   0.350   5.446   0.560
 3636SOL    HW211808   0.211   5.453   0.646
 3637SOL     OW11809   6.410   1.604   1.904
 3637SOL    HW111810   6.330   1.664   1.909
 3637SOL    HW211811   6.493   1.658   1.922
 3638SOL     OW11812   0.317   4.090   3.918
 3638SOL    HW111813   0.335   3.995   3.942
 3638SOL    HW211814   0.397   4.129   3.872
 3639SOL     OW11815   3.463   3.888   0.382
 3639SOL    HW111816   3.456   3.788   0.388
 3639SOL    HW211817   3.436   3.918   0.291
 3640SOL     OW11818   3.746   1.079   0.504
 3640SOL    HW111819   3.803   1.137   0.562
 3640SOL    HW211820   3.799   1.000   0.474
 3641SOL     OW11821   5.202   3.238   3.266
 3641SOL    HW111822   5.264   3.191   3.204
 3641SOL    HW211823   5.255   3.283   3.338
 3642SOL     OW11824   5.191   1.194   6.825
 3642SOL    HW111825   5.227   1.164   6.737
 3642SOL    HW211826   5.138   1.278   6.813
 3643SOL     OW11827   2.775   6.032   5.085
 3643SOL    HW111828   2.828   6.071   5.160
 3643SOL    HW211829   2.738   5.944   5.113
 3644SOL     OW11830   6.686   1.111   1.663
 3644SOL    HW111831   6.754   1.043   1.688
 3644SOL    HW211832   6.706   1.197   1.709
 3645SOL     OW11833   0.399   2.917   3.319
 3645SOL    HW111834   0.398   2.934   3.220
 3645SOL    HW211835   0.326   2.970   3.362
 3646SOL     OW11836   0.672   4.025   6.667
 3646SOL    HW111837   0.657   3.926   6.671
 3646SOL    HW211838   0.691   4.059   6.760
 3647SOL     OW11839   2.542   4.860   6.296
 3647SOL    HW111840   2.501   4.793   6.357
 3647SOL    HW211841   2.623   4.899   6.338
 3648SOL     OW11842   3.973   4.879   1.855
 3648SOL    HW111843   3.936   4.923   1.937
 3648SOL    HW211844   3.898   4.849   1.796
 3649SOL     OW11845   4.557   2.542   1.569
 3649SOL    HW111846   4.548   2.611   1.498
 3649SOL    HW211847   4.654   2.524   1.586
 3650SOL     OW11848   6.984   5.637   0.980
 3650SOL    HW111849   6.898   5.646   0.930
 3650SOL    HW211850   6.976   5.682   1.069
 3651SOL     OW11851   0.277   6.454   4.755
 3651SOL    HW111852   0.189   6.410   4.739
 3651SOL    HW211853   0.274   6.504   4.841
 3652SOL     OW11854   5.817   6.453   3.504
 3652SOL    HW111855   5.915   6.458   3.521
 3652SOL    HW211856   5.796   6.368   3.455
 3653SOL     OW11857   0.567   0.821   4.202
 3653SOL    HW111858   0.503   0.765   4.253
 3653SOL    HW211859   0.523   0.854   4.118
 3654SOL     OW11860   2.511   4.119   0.669
 3654SOL    HW111861   2.502   4.074   0.580
 3654SOL    HW211862   2.563   4.203   0.659
 3655SOL     OW11863   1.297   6.301   4.297
 3655SOL    HW111864   1.211   6.294   4.247
 3655SOL    HW211865   1.326   6.209   4.325
 3656SOL     OW11866   0.787   4.330   1.748
 3656SOL    HW111867   0.823   4.264   1.682
 3656SOL    HW211868   0.826   4.420   1.730
 3657SOL     OW11869   5.203   5.272   5.511
 3657SOL    HW111870   5.133   5.330   5.552
 3657SOL    HW211871   5.188   5.266   5.412
 3658SOL     OW11872   1.633   5.004   5.463
 3658SOL    HW111873   1.662   5.084   5.410
 3658SOL    HW211874   1.678   4.922   5.426
 3659SOL     OW11875   1.446   3.606   5.143
 3659SOL    HW111876   1.496   3.687   5.110
 3659SOL    HW211877   1.355   3.604   5.102
 3660SOL     OW11878   6.084   6.329   3.788
 3660SOL    HW111879   6.038   6.392   3.725
 3660SOL    HW211880   6.025   6.312   3.867
 3661SOL     OW11881   5.710   1.231   5.525
 3661SOL    HW111882   5.673   1.183   5.605
 3661SOL    HW211883   5.677   1.325   5.525
 3662SOL     OW11884   3.944   6.728   4.039
 3662SOL    HW111885   3.898   6.772   3.962
 3662SOL    HW211886   3.987   6.797   4.097
 3663SOL     OW11887   2.214   1.592   0.486
 3663SOL    HW111888   2.300   1.643   0.474
 3663SOL    HW211889   2.235   1.500   0.518
 3664SOL     OW11890   5.056   2.852   1.627
 3664SOL    HW111891   5.065   2.763   1.672
 3664SOL    HW211892   5.088   2.845   1.533
 3665SOL     OW11893   1.700   6.261   5.584
 3665SOL    HW111894   1.742   6.329   5.643
 3665SOL    HW211895   1.743   6.172   5.599
 3666SOL     OW11896   1.066   3.916   2.897
 3666SOL    HW111897   1.166   3.917   2.892
 3666SOL    HW211898   1.036   3.826   2.928
 3667SOL     OW11899   0.904   0.927   2.485
 3667SOL    HW111900   0.817   0.975   2.478
 3667SOL    HW211901   0.943   0.941   2.576
 3668SOL     OW11902   1.431   0.902   1.438
 3668SOL    HW111903   1.503   0.832   1.438
 3668SOL    HW211904   1.406   0.923   1.533
 3669SOL     OW11905   4.618   0.804   3.279
 3669SOL    HW111906   4.556   0.856   3.338
 3669SOL    HW211907   4.713   0.820   3.307
 3670SOL     OW11908   1.991   5.065   6.902
 3670SOL    HW111909   2.039   5.142   6.942
 3670SOL    HW211910   1.945   5.094   6.818
 3671SOL     OW11911   6.605   1.016   4.342
 3671SOL    HW111912   6.507   1.019   4.319
 3671SOL    HW211913   6.621   1.072   4.424
 3672SOL     OW11914   5.633   1.631   1.293
 3672SOL    HW111915   5.573   1.552   1.285
 3672SOL    HW211916   5.617   1.693   1.216
 3673SOL     OW11917   4.502   6.058   6.649
 3673SOL    HW111918   4.535   6.091   6.737
 3673SOL    HW211919   4.480   5.960   6.656
 3674SOL     OW11920   0.999   6.095   5.485
 3674SOL    HW111921   1.053   6.171   5.522
 3674SOL    HW211922   1.031   6.009   5.523
 3675SOL     OW11923   2.158   3.118   3.967
 3675SOL    HW111924   2.168   3.164   3.879
 3675SOL    HW211925   2.187   3.023   3.959
 3676SOL     OW11926   5.052   4.146   2.815
 3676SOL    HW111927   4.958   4.110   2.822
 3676SOL    HW211928   5.074   4.197   2.898
 3677SOL     OW11929   1.994   5.795   3.392
 3677SOL    HW111930   2.070   5.859   3.380
 3677SOL    HW211931   1.927   5.835   3.454
 3678SOL     OW11932   0.818   2.377   5.098
 3678SOL    HW111933   0.749   2.443   5.130
 3678SOL    HW211934   0.786   2.284   5.115
 3679SOL     OW11935   1.130   0.554   3.267
 3679SOL    HW111936   1.214   0.594   3.304
 3679SOL    HW211937   1.052   0.613   3.290
 3680SOL     OW11938   5.653   2.944   4.081
 3680SOL    HW111939   5.737   2.991   4.110
 3680SOL    HW211940   5.590   3.009   4.040
 3681SOL     OW11941   0.908   0.077   7.011
 3681SOL    HW111942   0.820   0.123   7.015
 3681SOL    HW211943   0.909   0.002   0.055
 3682SOL     OW11944   5.239   1.815   0.551
 3682SOL    HW111945   5.152   1.778   0.521
 3682SOL    HW211946   5.234   1.915   0.553
 3683SOL     OW11947   6.321   0.273   3.057
 3683SOL    HW111948   6.280   0.196   3.105
 3683SOL    HW211949   6.255   0.348   3.051
 3684SOL     OW11950   1.768   5.172   0.441
 3684SOL    HW111951   1.786   5.107   0.515
 3684SOL    HW211952   1.851   5.185   0.387
 3685SOL     OW11953   0.391   6.339   0.201
 3685SOL    HW111954   0.331   6.368   0.127
 3685SOL    HW211955   0.417   6.244   0.187
 3686SOL     OW11956   5.310   5.582   3.741
 3686SOL    HW111957   5.372   5.552   3.669
 3686SOL    HW211958   5.317   5.520   3.819
 3687SOL     OW11959   3.608   6.009   4.948
 3687SOL    HW111960   3.539   5.991   4.878
 3687SOL    HW211961   3.649   6.099   4.933
 3688SOL     OW11962   6.872   4.066   6.679
 3688SOL    HW111963   6.776   4.096   6.685
 3688SOL    HW211964   6.874   3.971   6.647
 3689SOL     OW11965   2.270   0.129   6.034
 3689SOL    HW111966   2.225   0.131   6.123
 3689SOL    HW211967   2.253   0.040   5.991
 3690SOL     OW11968   4.360   5.935   0.326
 3690SOL    HW111969   4.318   5.913   0.238
 3690SOL    HW211970   4.340   5.861   0.392
 3691SOL     OW11971   2.896   1.783   6.727
 3691SOL    HW111972   2.872   1.716   6.798
 3691SOL    HW211973   2.984   1.758   6.687
 3692SOL     OW11974   6.623   5.534   5.222
 3692SOL    HW111975   6.691   5.465   5.247
 3692SOL    HW211976   6.665   5.605   5.166
 3693SOL     OW11977   2.145   3.861   3.177
 3693SOL    HW111978   2.152   3.860   3.078
 3693SOL    HW211979   2.202   3.935   3.214
 3694SOL     OW11980   1.540   6.155   3.146
 3694SOL    HW111981   1.593   6.237   3.122
 3694SOL    HW211982   1.443   6.178   3.152
 3695SOL     OW11983   6.490   3.160   1.522
 3695SOL    HW111984   6.407   3.106   1.536
 3695SOL    HW211985   6.490   3.237   1.585
 3696SOL     OW11986   3.517   5.882   5.377
 3696SOL    HW111987   3.535   5.793   5.336
 3696SOL    HW211988   3.448   5.872   5.449
 3697SOL     OW11989   0.424   6.686   3.032
 3697SOL    HW111990   0.432   6.785   3.040
 3697SOL    HW211991   0.329   6.659   3.048
 3698SOL     OW11992   2.448   0.600   4.061
 3698SOL    HW111993   2.359   0.559   4.040
 3698SOL    HW211994   2.475   0.572   4.153
 3699SOL     OW11995   1.244   2.224   3.506
 3699SOL    HW111996   1.262   2.313   3.548
 3699SOL    HW211997   1.312   2.206   3.435
 3700SOL     OW11998   0.771   6.017   4.742
 3700SOL    HW111999   0.745   6.046   4.834
 3700SOL    HW212000   0.853   6.066   4.713
 3701SOL     OW12001   1.615   0.301   3.519
 3701SOL    HW112002   1.659   0.261   3.600
 3701SOL    HW212003   1.517   0.278   3.520
 3702SOL     OW12004   6.162   6.461   3.185
 3702SOL    HW112005   6.215   6.405   3.249
 3702SOL    HW212006   6.138   6.548   3.229
 3703SOL     OW12007   5.805   1.653   5.375
 3703SOL    HW112008   5.904   1.642   5.366
 3703SOL    HW212009   5.760   1.599   5.304
 3704SOL     OW12010   3.929   1.906   1.326
 3704SOL    HW112011   3.831   1.890   1.331
 3704SOL    HW212012   3.950   1.998   1.360
 3705SOL     OW12013   3.979   4.868   4.107
 3705SOL    HW112014   3.879   4.868   4.107
 3705SOL    HW212015   4.013   4.867   4.201
 3706SOL     OW12016   1.731   3.492   6.853
 3706SOL    HW112017   1.815   3.448   6.883
 3706SOL    HW212018   1.744   3.591   6.852
 3707SOL     OW12019   5.405   4.551   4.405
 3707SOL    HW112020   5.391   4.453   4.418
 3707SOL    HW212021   5.474   4.583   4.470
 3708SOL     OW12022   0.067   0.644   6.509
 3708SOL    HW112023   0.061   0.577   6.435
 3708SOL    HW212024   0.151   0.628   6.561
 3709SOL     OW12025   3.173   0.602   0.798
 3709SOL    HW112026   3.273   0.598   0.803
 3709SOL    HW212027   3.145   0.616   0.703
 3710SOL     OW12028   6.005   5.513   5.626
 3710SOL    HW112029   5.971   5.607   5.622
 3710SOL    HW212030   5.992   5.469   5.537
 3711SOL     OW12031   0.832   6.829   4.415
 3711SOL    HW112032   0.892   6.898   4.456
 3711SOL    HW212033   0.818   6.851   4.318
 3712SOL     OW12034   6.998   5.448   6.928
 3712SOL    HW112035   6.946   5.446   7.013
 3712SOL    HW212036   7.010   5.355   6.894
 3713SOL     OW12037   1.230   6.370   6.087
 3713SOL    HW112038   1.240   6.305   6.163
 3713SOL    HW212039   1.172   6.330   6.016
 3714SOL     OW12040   5.108   6.690   5.621
 3714SOL    HW112041   5.113   6.786   5.648
 3714SOL    HW212042   5.192   6.665   5.572
 3715SOL     OW12043   0.433   4.178   2.483
 3715SOL    HW112044   0.363   4.143   2.545
 3715SOL    HW212045   0.391   4.206   2.397
 3716SOL     OW12046   6.442   0.097   4.934
 3716SOL    HW112047   6.403   0.062   5.019
 3716SOL    HW212048   6.420   0.035   4.859
 3717SOL     OW12049   6.213   6.568   6.923
 3717SOL    HW112050   6.246   6.487   6.876
 3717SOL    HW212051   6.243   6.650   6.874
 3718SOL     OW12052   1.727   0.663   7.001
 3718SOL    HW112053   1.640   0.620   6.977
 3718SOL    HW212054   1.722   0.761   6.980
 3719SOL     OW12055   5.291   4.418   1.528
 3719SOL    HW112056   5.193   4.437   1.533
 3719SOL    HW212057   5.306   4.334   1.476
 3720SOL     OW12058   6.096   2.527   6.461
 3720SOL    HW112059   6.123   2.434   6.440
 3720SOL    HW212060   6.068   2.574   6.377
 3721SOL     OW12061   6.181   4.495   1.699
 3721SOL    HW112062   6.141   4.480   1.789
 3721SOL    HW212063   6.187   4.407   1.650
 3722SOL     OW12064   6.419   6.005   0.843
 3722SOL    HW112065   6.469   5.941   0.903
 3722SOL    HW212066   6.321   5.994   0.858
 3723SOL     OW12067   6.152   5.220   1.753
 3723SOL    HW112068   6.186   5.171   1.673
 3723SOL    HW212069   6.119   5.154   1.821
 3724SOL     OW12070   1.866   4.502   4.500
 3724SOL    HW112071   1.796   4.572   4.489
 3724SOL    HW212072   1.828   4.422   4.546
 3725SOL     OW12073   6.186   5.526   0.670
 3725SOL    HW112074   6.268   5.497   0.621
 3725SOL    HW212075   6.110   5.467   0.645
 3726SOL     OW12076   5.632   3.870   0.503
 3726SOL    HW112077   5.612   3.939   0.573
 3726SOL    HW212078   5.615   3.779   0.541
 3727SOL     OW12079   0.041   1.957   4.961
 3727SOL    HW112080   0.020   2.046   4.920
 3727SOL    HW212081   0.141   1.947   4.969
 3728SOL     OW12082   1.587   3.720   6.595
 3728SOL    HW112083   1.655   3.766   6.538
 3728SOL    HW212084   1.585   3.623   6.571
 3729SOL     OW12085   0.746   2.438   3.818
 3729SOL    HW112086   0.708   2.439   3.725
 3729SOL    HW212087   0.671   2.436   3.885
 3730SOL     OW12088   2.104   5.307   6.266
 3730SOL    HW112089   2.159   5.324   6.184
 3730SOL    HW212090   2.018   5.262   6.240
 3731SOL     OW12091   6.867   1.994   0.935
 3731SOL    HW112092   6.826   2.053   1.005
 3731SOL    HW212093   6.883   1.903   0.973
 3732SOL     OW12094   3.037   1.490   0.280
 3732SOL    HW112095   3.024   1.410   0.339
 3732SOL    HW212096   3.068   1.460   0.190
 3733SOL     OW12097   1.425   3.690   2.587
 3733SOL    HW112098   1.453   3.773   2.541
 3733SOL    HW212099   1.502   3.626   2.592
 3734SOL     OW12100   4.890   0.551   2.130
 3734SOL    HW112101   4.955   0.595   2.069
 3734SOL    HW212102   4.932   0.535   2.219
 3735SOL     OW12103   1.991   1.084   3.762
 3735SOL    HW112104   2.035   1.009   3.712
 3735SOL    HW212105   1.931   1.046   3.832
 3736SOL     OW12106   0.203   2.218   1.340
 3736SOL    HW112107   0.139   2.194   1.267
 3736SOL    HW212108   0.225   2.316   1.333
 3737SOL     OW12109   4.910   1.005   3.561
 3737SOL    HW112110   4.938   1.003   3.656
 3737SOL    HW212111   4.984   0.971   3.503
 3738SOL     OW12112   0.194   0.154   2.774
 3738SOL    HW112113   0.174   0.119   2.865
 3738SOL    HW212114   0.222   0.250   2.781
 3739SOL     OW12115   2.578   4.518   1.313
 3739SOL    HW112116   2.589   4.550   1.218
 3739SOL    HW212117   2.606   4.591   1.375
 3740SOL     OW12118   5.469   0.998   0.738
 3740SOL    HW112119   5.462   1.078   0.798
 3740SOL    HW212120   5.442   1.024   0.645
 3741SOL     OW12121   5.343   2.743   0.100
 3741SOL    HW112122   5.414   2.710   0.162
 3741SOL    HW212123   5.269   2.785   0.152
 3742SOL     OW12124   2.398   1.762   6.909
 3742SOL    HW112125   2.343   1.755   6.992
 3742SOL    HW212126   2.379   1.848   6.863
 3743SOL     OW12127   5.568   3.636   0.600
 3743SOL    HW112128   5.576   3.608   0.696
 3743SOL    HW212129   5.472   3.635   0.573
 3744SOL     OW12130   1.472   6.317   2.324
 3744SOL    HW112131   1.374   6.320   2.344
 3744SOL    HW212132   1.512   6.236   2.368
 3745SOL     OW12133   4.161   4.902   1.609
 3745SOL    HW112134   4.166   4.818   1.556
 3745SOL    HW212135   4.122   4.975   1.552
 3746SOL     OW12136   5.308   0.863   3.026
 3746SOL    HW112137   5.393   0.878   3.075
 3746SOL    HW212138   5.310   0.773   2.981
 3747SOL     OW12139   2.710   6.675   4.989
 3747SOL    HW112140   2.691   6.587   5.032
 3747SOL    HW212141   2.753   6.661   4.900
 3748SOL     OW12142   5.148   1.117   1.157
 3748SOL    HW112143   5.095   1.201   1.163
 3748SOL    HW212144   5.196   1.113   1.069
 3749SOL     OW12145   1.642   5.527   3.464
 3749SOL    HW112146   1.549   5.496   3.484
 3749SOL    HW212147   1.673   5.588   3.537
 3750SOL     OW12148   0.697   4.179   0.935
 3750SOL    HW112149   0.776   4.227   0.897
 3750SOL    HW212150   0.623   4.179   0.868
 3751SOL     OW12151   7.007   3.220   1.561
 3751SOL    HW112152   0.073   3.220   1.514
 3751SOL    HW212153   6.933   3.216   1.493
 3752SOL     OW12154   5.001   0.521   0.552
 3752SOL    HW112155   5.058   0.601   0.569
 3752SOL    HW212156   5.057   0.438   0.561
 3753SOL     OW12157   6.113   6.849   4.938
 3753SOL    HW112158   6.056   6.925   4.907
 3753SOL    HW212159   6.081   6.764   4.896
 3754SOL     OW12160   2.960   0.894   1.351
 3754SOL    HW112161   2.947   0.802   1.388
 3754SOL    HW212162   3.047   0.931   1.384
 3755SOL     OW12163   4.912   4.798   4.419
 3755SOL    HW112164   4.980   4.727   4.400
 3755SOL    HW212165   4.914   4.820   4.517
 3756SOL     OW12166   3.023   4.870   6.578
 3756SOL    HW112167   3.040   4.961   6.540
 3756SOL    HW212168   3.109   4.830   6.609
 3757SOL     OW12169   5.369   6.117   0.261
 3757SOL    HW112170   5.278   6.115   0.303
 3757SOL    HW212171   5.362   6.153   0.168
 3758SOL     OW12172   2.618   1.451   4.751
 3758SOL    HW112173   2.665   1.501   4.679
 3758SOL    HW212174   2.620   1.505   4.836
 3759SOL     OW12175   4.119   0.082   6.663
 3759SOL    HW112176   4.051   0.015   6.693
 3759SOL    HW212177   4.074   0.170   6.645
 3760SOL     OW12178   2.003   1.450   4.837
 3760SOL    HW112179   1.998   1.546   4.810
 3760SOL    HW212180   2.098   1.426   4.856
 3761SOL     OW12181   1.081   1.362   5.136
 3761SOL    HW112182   1.097   1.423   5.059
 3761SOL    HW212183   1.158   1.298   5.145
 3762SOL     OW12184   1.824   4.735   1.113
 3762SOL    HW112185   1.914   4.703   1.083
 3762SOL    HW212186   1.815   4.724   1.212
 3763SOL     OW12187   6.721   4.029   1.159
 3763SOL    HW112188   6.628   3.994   1.150
 3763SOL    HW212189   6.781   3.955   1.189
 3764SOL     OW12190   1.631   0.316   2.256
 3764SOL    HW112191   1.683   0.285   2.176
 3764SOL    HW212192   1.694   0.353   2.324
 3765SOL     OW12193   5.035   1.681   1.476
 3765SOL    HW112194   5.040   1.717   1.383
 3765SOL    HW212195   4.967   1.731   1.528
 3766SOL     OW12196   2.663   1.628   4.515
 3766SOL    HW112197   2.753   1.665   4.493
 3766SOL    HW212198   2.593   1.677   4.462
 3767SOL     OW12199   1.951   4.530   6.783
 3767SOL    HW112200   1.901   4.570   6.859
 3767SOL    HW212201   2.036   4.581   6.768
 3768SOL     OW12202   0.785   6.553   4.379
 3768SOL    HW112203   0.777   6.652   4.394
 3768SOL    HW212204   0.864   6.535   4.321
 3769SOL     OW12205   6.098   5.759   4.384
 3769SOL    HW112206   6.068   5.795   4.473
 3769SOL    HW212207   6.018   5.738   4.329
 3770SOL     OW12208   1.387   0.730   6.302
 3770SOL    HW112209   1.323   0.673   6.250
 3770SOL    HW212210   1.440   0.786   6.239
 3771SOL     OW12211   5.479   2.945   0.256
 3771SOL    HW112212   5.476   2.891   0.340
 3771SOL    HW212213   5.429   3.030   0.269
 3772SOL     OW12214   0.379   1.059   0.348
 3772SOL    HW112215   0.295   1.113   0.346
 3772SOL    HW212216   0.380   0.997   0.270
 3773SOL     OW12217   5.774   3.473   5.574
 3773SOL    HW112218   5.749   3.392   5.522
 3773SOL    HW212219   5.693   3.507   5.623
 3774SOL     OW12220   6.020   5.796   1.318
 3774SOL    HW112221   5.965   5.851   1.255
 3774SOL    HW212222   6.065   5.723   1.266
 3775SOL     OW12223   4.571   5.037   2.784
 3775SOL    HW112224   4.535   4.950   2.750
 3775SOL    HW212225   4.507   5.110   2.761
 3776SOL     OW12226   4.556   2.018   6.577
 3776SOL    HW112227   4.598   1.928   6.588
 3776SOL    HW212228   4.497   2.037   6.655
 3777SOL     OW12229   3.475   5.614   3.339
 3777SOL    HW112230   3.479   5.700   3.390
 3777SOL    HW212231   3.390   5.610   3.287
 3778SOL     OW12232   2.927   5.060   2.495
 3778SOL    HW112233   2.863   5.084   2.567
 3778SOL    HW212234   2.893   4.981   2.444
 3779SOL     OW12235   1.010   4.699   0.461
 3779SOL    HW112236   0.981   4.758   0.536
 3779SOL    HW212237   0.934   4.687   0.397
 3780SOL     OW12238   5.738   5.129   4.606
 3780SOL    HW112239   5.638   5.123   4.608
 3780SOL    HW212240   5.772   5.091   4.521
 3781SOL     OW12241   0.298   6.301   4.443
 3781SOL    HW112242   0.278   6.374   4.509
 3781SOL    HW212243   0.214   6.275   4.395
 3782SOL     OW12244   2.354   6.882   2.918
 3782SOL    HW112245   2.370   6.977   2.891
 3782SOL    HW212246   2.265   6.874   2.963
 3783SOL     OW12247   5.727   5.293   3.665
 3783SOL    HW112248   5.748   5.378   3.618
 3783SOL    HW212249   5.691   5.226   3.599
 3784SOL     OW12250   4.708   2.404   3.105
 3784SOL    HW112251   4.685   2.309   3.083
 3784SOL    HW212252   4.662   2.465   3.040
 3785SOL     OW12253   2.088   3.636   5.659
 3785SOL    HW112254   2.116   3.642   5.755
 3785SOL    HW212255   1.989   3.621   5.654
 3786SOL     OW12256   2.391   5.164   3.142
 3786SOL    HW112257   2.482   5.203   3.156
 3786SOL    HW212258   2.333   5.186   3.221
 3787SOL     OW12259   6.141   1.486   3.167
 3787SOL    HW112260   6.132   1.449   3.074
 3787SOL    HW212261   6.077   1.561   3.180
 3788SOL     OW12262   0.107   4.852   4.753
 3788SOL    HW112263   0.136   4.757   4.764
 3788SOL    HW212264   0.044   4.859   4.676
 3789SOL     OW12265   0.346   2.685   4.665
 3789SOL    HW112266   0.304   2.600   4.633
 3789SOL    HW212267   0.317   2.702   4.760
 3790SOL     OW12268   1.472   4.016   5.996
 3790SOL    HW112269   1.466   4.032   5.898
 3790SOL    HW212270   1.503   4.099   6.042
 3791SOL     OW12271   4.605   1.397   6.293
 3791SOL    HW112272   4.629   1.432   6.202
 3791SOL    HW212273   4.520   1.345   6.287
 3792SOL     OW12274   1.374   2.259   4.057
 3792SOL    HW112275   1.438   2.204   4.110
 3792SOL    HW212276   1.416   2.288   3.972
 3793SOL     OW12277   4.863   6.059   2.182
 3793SOL    HW112278   4.890   5.990   2.114
 3793SOL    HW212279   4.945   6.106   2.215
 3794SOL     OW12280   2.146   2.820   1.041
 3794SOL    HW112281   2.195   2.774   1.115
 3794SOL    HW212282   2.064   2.768   1.017
 3795SOL     OW12283   4.325   6.035   0.971
 3795SOL    HW112284   4.363   6.095   0.900
 3795SOL    HW212285   4.333   6.080   1.060
 3796SOL     OW12286   3.318   2.071   2.046
 3796SOL    HW112287   3.248   2.102   1.982
 3796SOL    HW212288   3.278   2.062   2.137
 3797SOL     OW12289   0.315   3.606   2.300
 3797SOL    HW112290   0.335   3.511   2.324
 3797SOL    HW212291   0.380   3.637   2.230
 3798SOL     OW12292   2.637   5.268   3.210
 3798SOL    HW112293   2.688   5.239   3.291
 3798SOL    HW212294   2.656   5.365   3.192
 3799SOL     OW12295   6.340   2.444   3.531
 3799SOL    HW112296   6.242   2.423   3.542
 3799SOL    HW212297   6.390   2.409   3.610
 3800SOL     OW12298   5.800   2.820   4.408
 3800SOL    HW112299   5.709   2.831   4.368
 3800SOL    HW212300   5.859   2.771   4.343
 3801SOL     OW12301   5.936   6.735   2.021
 3801SOL    HW112302   5.896   6.646   1.997
 3801SOL    HW212303   5.935   6.745   2.121
 3802SOL     OW12304   1.538   2.120   1.549
 3802SOL    HW112305   1.569   2.165   1.632
 3802SOL    HW212306   1.530   2.187   1.475
 3803SOL     OW12307   4.101   3.163   2.350
 3803SOL    HW112308   4.079   3.190   2.257
 3803SOL    HW212309   4.124   3.065   2.352
 3804SOL     OW12310   4.776   1.265   4.094
 3804SOL    HW112311   4.785   1.314   4.181
 3804SOL    HW212312   4.857   1.209   4.078
 3805SOL     OW12313   2.299   2.748   1.290
 3805SOL    HW112314   2.278   2.800   1.373
 3805SOL    HW212315   2.322   2.654   1.315
 3806SOL     OW12316   3.741   3.621   5.770
 3806SOL    HW112317   3.764   3.717   5.755
 3806SOL    HW212318   3.643   3.612   5.788
 3807SOL     OW12319   1.649   6.029   2.787
 3807SOL    HW112320   1.672   6.124   2.763
 3807SOL    HW212321   1.550   6.019   2.791
 3808SOL     OW12322   4.706   1.278   0.671
 3808SOL    HW112323   4.773   1.244   0.737
 3808SOL    HW212324   4.615   1.246   0.697
 3809SOL     OW12325   5.684   2.526   1.784
 3809SOL    HW112326   5.684   2.580   1.868
 3809SOL    HW212327   5.599   2.541   1.734
 3810SOL     OW12328   4.591   2.354   3.639
 3810SOL    HW112329   4.594   2.443   3.684
 3810SOL    HW212330   4.554   2.364   3.547
 3811SOL     OW12331   0.974   5.362   4.821
 3811SOL    HW112332   1.062   5.404   4.801
 3811SOL    HW212333   0.968   5.345   4.920
 3812SOL     OW12334   4.656   5.298   5.108
 3812SOL    HW112335   4.567   5.322   5.070
 3812SOL    HW212336   4.705   5.238   5.044
 3813SOL     OW12337   4.139   3.206   0.374
 3813SOL    HW112338   4.047   3.239   0.352
 3813SOL    HW212339   4.170   3.146   0.300
 3814SOL     OW12340   0.023   6.735   6.405
 3814SOL    HW112341   0.073   6.661   6.359
 3814SOL    HW212342   0.068   6.756   6.492
 3815SOL     OW12343   4.029   2.489   0.932
 3815SOL    HW112344   4.102   2.546   0.894
 3815SOL    HW212345   3.963   2.467   0.860
 3816SOL     OW12346   0.932   5.767   6.562
 3816SOL    HW112347   0.885   5.760   6.650
 3816SOL    HW212348   0.864   5.765   6.488
 3817SOL     OW12349   4.868   3.501   2.759
 3817SOL    HW112350   4.962   3.524   2.785
 3817SOL    HW212351   4.818   3.468   2.839
 3818SOL     OW12352   6.255   0.988   6.741
 3818SOL    HW112353   6.207   0.936   6.812
 3818SOL    HW212354   6.285   1.075   6.778
 3819SOL     OW12355   4.966   5.477   1.647
 3819SOL    HW112356   5.060   5.446   1.665
 3819SOL    HW212357   4.931   5.430   1.565
 3820SOL     OW12358   5.279   6.814   3.988
 3820SOL    HW112359   5.193   6.828   3.939
 3820SOL    HW212360   5.260   6.772   4.077
 3821SOL     OW12361   2.519   1.402   1.031
 3821SOL    HW112362   2.552   1.384   1.124
 3821SOL    HW212363   2.421   1.418   1.033
 3822SOL     OW12364   2.394   0.292   1.085
 3822SOL    HW112365   2.432   0.383   1.105
 3822SOL    HW212366   2.459   0.222   1.114
 3823SOL     OW12367   3.343   3.804   5.627
 3823SOL    HW112368   3.356   3.819   5.529
 3823SOL    HW212369   3.406   3.862   5.679
 3824SOL     OW12370   0.011   3.171   0.568
 3824SOL    HW112371   0.044   3.237   0.500
 3824SOL    HW212372   0.069   3.090   0.566
 3825SOL     OW12373   0.495   5.574   0.897
 3825SOL    HW112374   0.566   5.528   0.950
 3825SOL    HW212375   0.476   5.663   0.938
 3826SOL     OW12376   1.137   2.987   6.659
 3826SOL    HW112377   1.124   3.065   6.597
 3826SOL    HW212378   1.231   2.986   6.693
 3827SOL     OW12379   1.496   1.318   1.916
 3827SOL    HW112380   1.511   1.219   1.907
 3827SOL    HW212381   1.566   1.367   1.864
 3828SOL     OW12382   3.206   3.651   2.372
 3828SOL    HW112383   3.301   3.681   2.379
 3828SOL    HW212384   3.147   3.732   2.360
 3829SOL     OW12385   1.570   5.075   2.852
 3829SOL    HW112386   1.617   5.073   2.940
 3829SOL    HW212387   1.637   5.070   2.778
 3830SOL     OW12388   0.809   1.380   5.301
 3830SOL    HW112389   0.841   1.337   5.385
 3830SOL    HW212390   0.887   1.407   5.245
 3831SOL     OW12391   4.580   2.583   2.257
 3831SOL    HW112392   4.621   2.498   2.290
 3831SOL    HW212393   4.651   2.649   2.234
 3832SOL     OW12394   5.842   0.784   2.672
 3832SOL    HW112395   5.821   0.880   2.691
 3832SOL    HW212396   5.887   0.776   2.583
 3833SOL     OW12397   0.376   6.557   6.057
 3833SOL    HW112398   0.456   6.502   6.083
 3833SOL    HW212399   0.341   6.605   6.137
 3834SOL     OW12400   4.256   4.391   1.468
 3834SOL    HW112401   4.167   4.359   1.502
 3834SOL    HW212402   4.320   4.399   1.545
 3835SOL     OW12403   3.890   5.808   4.777
 3835SOL    HW112404   3.804   5.767   4.808
 3835SOL    HW212405   3.966   5.763   4.824
 3836SOL     OW12406   1.527   3.771   6.070
 3836SOL    HW112407   1.622   3.739   6.065
 3836SOL    HW212408   1.522   3.865   6.037
 3837SOL     OW12409   4.352   4.869   6.147
 3837SOL    HW112410   4.368   4.890   6.244
 3837SOL    HW212411   4.381   4.947   6.092
 3838SOL     OW12412   0.559   3.971   4.626
 3838SOL    HW112413   0.611   3.886   4.637
 3838SOL    HW212414   0.618   4.041   4.587
 3839SOL     OW12415   5.154   0.725   4.011
 3839SOL    HW112416   5.245   0.691   4.036
 3839SOL    HW212417   5.089   0.649   4.013
 3840SOL     OW12418   2.583   0.904   6.130
 3840SOL    HW112419   2.553   0.928   6.223
 3840SOL    HW212420   2.542   0.816   6.104
 3841SOL     OW12421   7.001   3.004   4.249
 3841SOL    HW112422   6.921   3.064   4.250
 3841SOL    HW212423   0.055   3.051   4.204
 3842SOL     OW12424   2.236   3.095   1.090
 3842SOL    HW112425   2.206   3.000   1.095
 3842SOL    HW212426   2.236   3.125   0.994
 3843SOL     OW12427   5.876   4.681   2.242
 3843SOL    HW112428   5.884   4.581   2.244
 3843SOL    HW212429   5.819   4.712   2.318
 3844SOL     OW12430   0.408   2.892   6.167
 3844SOL    HW112431   0.463   2.924   6.090
 3844SOL    HW212432   0.465   2.835   6.227
 3845SOL     OW12433   3.115   3.653   5.437
 3845SOL    HW112434   3.088   3.749   5.436
 3845SOL    HW212435   3.035   3.596   5.455
 3846SOL     OW12436   0.543   5.433   3.488
 3846SOL    HW112437   0.560   5.449   3.390
 3846SOL    HW212438   0.598   5.355   3.519
 3847SOL     OW12439   5.669   1.152   4.769
 3847SOL    HW112440   5.649   1.247   4.744
 3847SOL    HW212441   5.748   1.150   4.831
 3848SOL     OW12442   4.488   5.467   2.860
 3848SOL    HW112443   4.470   5.388   2.802
 3848SOL    HW212444   4.571   5.451   2.913
 3849SOL     OW12445   1.556   1.087   5.731
 3849SOL    HW112446   1.517   1.042   5.651
 3849SOL    HW212447   1.539   1.185   5.726
 3850SOL     OW12448   2.181   3.463   0.947
 3850SOL    HW112449   2.082   3.470   0.930
 3850SOL    HW212450   2.201   3.497   1.040
 3851SOL     OW12451   0.807   4.579   2.117
 3851SOL    HW112452   0.783   4.508   2.183
 3851SOL    HW212453   0.885   4.549   2.062
 3852SOL     OW12454   4.457   6.692   4.260
 3852SOL    HW112455   4.485   6.666   4.168
 3852SOL    HW212456   4.402   6.619   4.300
 3853SOL     OW12457   1.153   4.088   3.287
 3853SOL    HW112458   1.105   4.176   3.289
 3853SOL    HW212459   1.251   4.103   3.298
 3854SOL     OW12460   1.976   3.212   2.298
 3854SOL    HW112461   1.937   3.193   2.208
 3854SOL    HW212462   1.951   3.139   2.362
 3855SOL     OW12463   5.437   6.846   6.548
 3855SOL    HW112464   5.452   6.941   6.521
 3855SOL    HW212465   5.417   6.791   6.467
 3856SOL     OW12466   0.172   0.903   5.923
 3856SOL    HW112467   0.132   0.816   5.892
 3856SOL    HW212468   0.247   0.884   5.985
 3857SOL     OW12469   0.303   6.087   0.122
 3857SOL    HW112470   0.203   6.082   0.132
 3857SOL    HW212471   0.329   6.049   0.034
 3858SOL     OW12472   1.646   0.379   5.366
 3858SOL    HW112473   1.743   0.404   5.359
 3858SOL    HW212474   1.619   0.326   5.286
 3859SOL     OW12475   6.270   1.561   2.676
 3859SOL    HW112476   6.226   1.505   2.606
 3859SOL    HW212477   6.351   1.514   2.712
 3860SOL     OW12478   2.937   0.401   5.772
 3860SOL    HW112479   2.875   0.374   5.846
 3860SOL    HW212480   3.026   0.424   5.811
 3861SOL     OW12481   4.888   4.760   3.215
 3861SOL    HW112482   4.909   4.765   3.117
 3861SOL    HW212483   4.902   4.666   3.247
 3862SOL     OW12484   1.347   6.962   5.393
 3862SOL    HW112485   1.374   6.879   5.345
 3862SOL    HW212486   1.428   7.007   5.431
 3863SOL     OW12487   4.662   2.886   6.595
 3863SOL    HW112488   4.733   2.855   6.532
 3863SOL    HW212489   4.699   2.960   6.652
 3864SOL     OW12490   2.533   0.384   5.614
 3864SOL    HW112491   2.477   0.334   5.680
 3864SOL    HW212492   2.567   0.468   5.655
 3865SOL     OW12493   3.566   7.005   6.896
 3865SOL    HW112494   3.510   6.933   6.936
 3865SOL    HW212495   3.640   0.007   6.960
 3866SOL     OW12496   3.946   1.029   1.415
 3866SOL    HW112497   4.002   1.004   1.336
 3866SOL    HW212498   4.004   1.034   1.496
 3867SOL     OW12499   1.437   4.142   3.509
 3867SOL    HW112500   1.444   4.091   3.423
 3867SOL    HW212501   1.343   4.172   3.523
 3868SOL     OW12502   3.544   6.777   0.193
 3868SOL    HW112503   3.644   6.781   0.201
 3868SOL    HW212504   3.505   6.866   0.215
 3869SOL     OW12505   6.208   4.302   5.201
 3869SOL    HW112506   6.297   4.300   5.246
 3869SOL    HW212507   6.221   4.292   5.102
 3870SOL     OW12508   4.567   5.254   6.780
 3870SOL    HW112509   4.579   5.165   6.823
 3870SOL    HW212510   4.648   5.311   6.796
 3871SOL     OW12511   3.422   0.348   2.654
 3871SOL    HW112512   3.452   0.409   2.581
 3871SOL    HW212513   3.500   0.298   2.690
 3872SOL     OW12514   3.833   3.375   3.110
 3872SOL    HW112515   3.922   3.381   3.155
 3872SOL    HW212516   3.845   3.391   3.011
 3873SOL     OW12517   5.954   3.125   2.243
 3873SOL    HW112518   5.860   3.111   2.273
 3873SOL    HW212519   5.970   3.222   2.225
 3874SOL     OW12520   3.796   5.832   6.868
 3874SOL    HW112521   3.748   5.755   6.909
 3874SOL    HW212522   3.895   5.816   6.872
 3875SOL     OW12523   1.610   2.733   1.564
 3875SOL    HW112524   1.580   2.771   1.651
 3875SOL    HW212525   1.543   2.756   1.493
 3876SOL     OW12526   4.537   4.965   0.476
 3876SOL    HW112527   4.490   4.879   0.498
 3876SOL    HW212528   4.474   5.041   0.487
 3877SOL     OW12529   6.837   2.800   0.394
 3877SOL    HW112530   6.792   2.833   0.311
 3877SOL    HW212531   6.908   2.734   0.370
 3878SOL     OW12532   3.118   6.727   4.308
 3878SOL    HW112533   3.196   6.789   4.302
 3878SOL    HW212534   3.034   6.779   4.320
 3879SOL     OW12535   4.717   6.219   1.156
 3879SOL    HW112536   4.794   6.275   1.127
 3879SOL    HW212537   4.729   6.125   1.125
 3880SOL     OW12538   6.524   4.918   3.711
 3880SOL    HW112539   6.599   4.971   3.750
 3880SOL    HW212540   6.462   4.889   3.784
 3881SOL     OW12541   1.068   4.428   1.087
 3881SOL    HW112542   1.114   4.515   1.071
 3881SOL    HW212543   1.026   4.428   1.178
 3882SOL     OW12544   0.986   1.787   5.355
 3882SOL    HW112545   0.892   1.764   5.376
 3882SOL    HW212546   1.045   1.709   5.373
 3883SOL     OW12547   4.361   0.946   3.883
 3883SOL    HW112548   4.366   0.847   3.871
 3883SOL    HW212549   4.268   0.973   3.907
 3884SOL     OW12550   0.978   5.255   3.155
 3884SOL    HW112551   0.967   5.313   3.074
 3884SOL    HW212552   0.891   5.211   3.177
 3885SOL     OW12553   6.154   0.648   2.612
 3885SOL    HW112554   6.184   0.707   2.687
 3885SOL    HW212555   6.232   0.626   2.554
 3886SOL     OW12556   6.506   5.848   4.644
 3886SOL    HW112557   6.435   5.862   4.713
 3886SOL    HW212558   6.559   5.767   4.667
 3887SOL     OW12559   6.908   1.061   6.212
 3887SOL    HW112560   6.930   0.968   6.241
 3887SOL    HW212561   6.947   1.127   6.277
 3888SOL     OW12562   0.856   0.096   6.558
 3888SOL    HW112563   0.823   0.069   6.467
 3888SOL    HW212564   0.915   0.176   6.550
 3889SOL     OW12565   6.654   3.743   5.834
 3889SOL    HW112566   6.626   3.822   5.779
 3889SOL    HW212567   6.575   3.704   5.880
 3890SOL     OW12568   5.671   5.556   2.516
 3890SOL    HW112569   5.596   5.598   2.568
 3890SOL    HW212570   5.727   5.500   2.577
 3891SOL     OW12571   5.700   4.652   4.055
 3891SOL    HW112572   5.675   4.711   3.978
 3891SOL    HW212573   5.627   4.587   4.074
 3892SOL     OW12574   0.109   2.326   1.668
 3892SOL    HW112575   0.204   2.295   1.660
 3892SOL    HW212576   0.068   2.332   1.577
 3893SOL     OW12577   3.239   5.457   0.750
 3893SOL    HW112578   3.210   5.547   0.782
 3893SOL    HW212579   3.318   5.467   0.689
 3894SOL     OW12580   2.969   2.182   0.823
 3894SOL    HW112581   2.996   2.171   0.727
 3894SOL    HW212582   2.870   2.177   0.830
 3895SOL     OW12583   1.769   0.407   5.104
 3895SOL    HW112584   1.672   0.405   5.079
 3895SOL    HW212585   1.802   0.313   5.112
 3896SOL     OW12586   0.632   1.632   6.710
 3896SOL    HW112587   0.621   1.543   6.665
 3896SOL    HW212588   0.584   1.702   6.658
 3897SOL     OW12589   3.416   6.435   1.987
 3897SOL    HW112590   3.395   6.371   2.061
 3897SOL    HW212591   3.509   6.418   1.954
 3898SOL     OW12592   3.650   3.477   3.956
 3898SOL    HW112593   3.597   3.399   3.988
 3898SOL    HW212594   3.682   3.530   4.034
 3899SOL     OW12595   5.068   1.164   4.522
 3899SOL    HW112596   5.020   1.077   4.537
 3899SOL    HW212597   5.098   1.168   4.427
 3900SOL     OW12598   5.052   2.482   4.253
 3900SOL    HW112599   5.129   2.542   4.272
 3900SOL    HW212600   5.085   2.398   4.209
 3901SOL     OW12601   3.057   6.263   5.412
 3901SOL    HW112602   2.972   6.211   5.398
 3901SOL    HW212603   3.086   6.303   5.325
 3902SOL     OW12604   6.076   3.663   1.445
 3902SOL    HW112605   6.106   3.637   1.537
 3902SOL    HW212606   6.005   3.599   1.414
 3903SOL     OW12607   5.042   4.606   6.784
 3903SOL    HW112608   5.140   4.624   6.776
 3903SOL    HW212609   4.991   4.692   6.779
 3904SOL     OW12610   2.402   6.433   5.537
 3904SOL    HW112611   2.454   6.412   5.620
 3904SOL    HW212612   2.427   6.524   5.505
 3905SOL     OW12613   5.878   6.934   5.752
 3905SOL    HW112614   5.973   6.905   5.748
 3905SOL    HW212615   5.869   7.015   5.810
 3906SOL     OW12616   2.240   5.503   5.654
 3906SOL    HW112617   2.237   5.599   5.681
 3906SOL    HW212618   2.317   5.458   5.700
 3907SOL     OW12619   6.732   6.915   4.846
 3907SOL    HW112620   6.741   7.009   4.878
 3907SOL    HW212621   6.685   6.861   4.915
 3908SOL     OW12622   1.425   0.972   6.797
 3908SOL    HW112623   1.432   0.993   6.699
 3908SOL    HW212624   1.368   1.041   6.841
 3909SOL     OW12625   7.010   4.856   6.149
 3909SOL    HW112626   6.921   4.818   6.173
 3909SOL    HW212627   0.027   4.806   6.072
 3910SOL     OW12628   3.734   4.070   1.925
 3910SOL    HW112629   3.644   4.049   1.886
 3910SOL    HW212630   3.737   4.039   2.020
 3911SOL     OW12631   4.504   1.539   6.949
 3911SOL    HW112632   4.434   1.542   7.020
 3911SOL    HW212633   4.576   1.475   6.976
 3912SOL     OW12634   3.522   1.747   6.326
 3912SOL    HW112635   3.423   1.739   6.317
 3912SOL    HW212636   3.544   1.818   6.393
 3913SOL     OW12637   2.982   6.091   6.814
 3913SOL    HW112638   3.028   6.173   6.848
 3913SOL    HW212639   3.048   6.033   6.767
 3914SOL     OW12640   5.108   0.646   1.220
 3914SOL    HW112641   5.124   0.581   1.293
 3914SOL    HW212642   5.036   0.612   1.159
 3915SOL     OW12643   4.304   6.489   0.839
 3915SOL    HW112644   4.234   6.418   0.824
 3915SOL    HW212645   4.373   6.483   0.768
 3916SOL     OW12646   1.827   6.464   2.463
 3916SOL    HW112647   1.773   6.537   2.503
 3916SOL    HW212648   1.916   6.459   2.509
 3917SOL     OW12649   1.323   4.357   0.732
 3917SOL    HW112650   1.263   4.421   0.685
 3917SOL    HW212651   1.269   4.288   0.779
 3918SOL     OW12652   4.280   6.601   1.740
 3918SOL    HW112653   4.322   6.662   1.673
 3918SOL    HW212654   4.300   6.633   1.832
 3919SOL     OW12655   3.247   0.211   6.553
 3919SOL    HW112656   3.214   0.232   6.461
 3919SOL    HW212657   3.185   0.145   6.596
 3920SOL     OW12658   2.533   2.268   6.190
 3920SOL    HW112659   2.530   2.346   6.127
 3920SOL    HW212660   2.608   2.282   6.255
 3921SOL     OW12661   0.271   3.144   0.214
 3921SOL    HW112662   0.256   3.045   0.209
 3921SOL    HW212663   0.185   3.189   0.237
 3922SOL     OW12664   4.360   5.169   0.484
 3922SOL    HW112665   4.268   5.130   0.489
 3922SOL    HW212666   4.362   5.256   0.533
 3923SOL     OW12667   6.288   1.966   0.224
 3923SOL    HW112668   6.202   1.943   0.272
 3923SOL    HW212669   6.352   2.008   0.289
 3924SOL     OW12670   0.528   4.785   2.875
 3924SOL    HW112671   0.619   4.744   2.870
 3924SOL    HW212672   0.459   4.713   2.880
 3925SOL     OW12673   4.114   4.330   0.874
 3925SOL    HW112674   4.079   4.268   0.944
 3925SOL    HW212675   4.210   4.350   0.892
 3926SOL     OW12676   6.752   6.771   3.993
 3926SOL    HW112677   6.842   6.758   3.951
 3926SOL    HW212678   6.681   6.742   3.929
 3927SOL     OW12679   0.112   2.839   4.443
 3927SOL    HW112680   0.059   2.898   4.382
 3927SOL    HW212681   0.194   2.888   4.472
 3928SOL     OW12682   4.086   5.650   4.899
 3928SOL    HW112683   4.175   5.685   4.927
 3928SOL    HW212684   4.099   5.568   4.842
 3929SOL     OW12685   0.315   1.518   6.648
 3929SOL    HW112686   0.259   1.586   6.600
 3929SOL    HW212687   0.394   1.493   6.591
 3930SOL     OW12688   1.385   1.929   3.216
 3930SOL    HW112689   1.470   1.903   3.170
 3930SOL    HW212690   1.376   1.878   3.302
 3931SOL     OW12691   2.231   1.571   2.009
 3931SOL    HW112692   2.136   1.544   2.025
 3931SOL    HW212693   2.286   1.550   2.090
 3932SOL     OW12694   1.723   4.084   3.702
 3932SOL    HW112695   1.813   4.102   3.742
 3932SOL    HW212696   1.725   4.107   3.605
 3933SOL     OW12697   1.836   6.836   6.955
 3933SOL    HW112698   1.764   6.883   6.904
 3933SOL    HW212699   1.829   6.738   6.939
 3934SOL     OW12700   0.440   0.681   2.179
 3934SOL    HW112701   0.517   0.743   2.197
 3934SOL    HW212702   0.475   0.594   2.145
 3935SOL     OW12703   1.620   1.042   5.310
 3935SOL    HW112704   1.694   1.080   5.366
 3935SOL    HW212705   1.585   0.960   5.354
 3936SOL     OW12706   6.833   6.463   5.342
 3936SOL    HW112707   6.839   6.384   5.402
 3936SOL    HW212708   6.747   6.460   5.290
 3937SOL     OW12709   6.902   6.705   2.916
 3937SOL    HW112710   6.808   6.682   2.891
 3937SOL    HW212711   6.951   6.623   2.944
 3938SOL     OW12712   5.873   2.899   3.701
 3938SOL    HW112713   5.914   2.944   3.621
 3938SOL    HW212714   5.944   2.883   3.770
 3939SOL     OW12715   2.907   2.031   3.041
 3939SOL    HW112716   2.895   2.120   2.998
 3939SOL    HW212717   2.928   2.043   3.138
 3940SOL     OW12718   3.665   4.914   2.112
 3940SOL    HW112719   3.609   4.930   2.194
 3940SOL    HW212720   3.611   4.865   2.044
 3941SOL     OW12721   6.253   0.402   4.910
 3941SOL    HW112722   6.281   0.496   4.890
 3941SOL    HW212723   6.315   0.338   4.865
 3942SOL     OW12724   0.776   6.218   5.450
 3942SOL    HW112725   0.715   6.162   5.394
 3942SOL    HW212726   0.855   6.164   5.479
 3943SOL     OW12727   0.365   3.325   2.305
 3943SOL    HW112728   0.278   3.317   2.353
 3943SOL    HW212729   0.397   3.235   2.277
 3944SOL     OW12730   5.518   3.796   5.550
 3944SOL    HW112731   5.576   3.863   5.597
 3944SOL    HW212732   5.532   3.802   5.452
 3945SOL     OW12733   1.153   2.625   2.613
 3945SOL    HW112734   1.091   2.692   2.654
 3945SOL    HW212735   1.177   2.556   2.682
 3946SOL     OW12736   6.705   4.015   6.390
 3946SOL    HW112737   6.765   3.937   6.407
 3946SOL    HW212738   6.619   4.001   6.440
 3947SOL     OW12739   5.409   5.489   1.094
 3947SOL    HW112740   5.499   5.519   1.062
 3947SOL    HW212741   5.420   5.425   1.170
 3948SOL     OW12742   0.726   4.917   0.666
 3948SOL    HW112743   0.707   5.015   0.664
 3948SOL    HW212744   0.824   4.902   0.679
 3949SOL     OW12745   5.990   6.748   2.909
 3949SOL    HW112746   5.916   6.788   2.855
 3949SOL    HW212747   6.000   6.799   2.994
 3950SOL     OW12748   3.391   4.046   1.358
 3950SOL    HW112749   3.482   4.017   1.326
 3950SOL    HW212750   3.326   3.970   1.346
 3951SOL     OW12751   0.270   0.578   6.969
 3951SOL    HW112752   0.233   0.646   0.010
 3951SOL    HW212753   0.353   0.539   7.007
 3952SOL     OW12754   6.124   3.643   4.660
 3952SOL    HW112755   6.086   3.553   4.681
 3952SOL    HW212756   6.110   3.664   4.563
 3953SOL     OW12757   3.520   4.622   0.190
 3953SOL    HW112758   3.485   4.582   0.105
 3953SOL    HW212759   3.462   4.594   0.266
 3954SOL     OW12760   5.666   5.387   5.384
 3954SOL    HW112761   5.747   5.333   5.406
 3954SOL    HW212762   5.594   5.366   5.451
 3955SOL     OW12763   4.572   6.991   6.953
 3955SOL    HW112764   4.587   6.950   0.020
 3955SOL    HW212765   4.473   7.000   6.936
 3956SOL     OW12766   1.385   2.127   4.658
 3956SOL    HW112767   1.315   2.132   4.729
 3956SOL    HW212768   1.362   2.190   4.584
 3957SOL     OW12769   4.262   0.067   3.479
 3957SOL    HW112770   4.201   0.133   3.435
 3957SOL    HW212771   4.208   0.001   3.531
 3958SOL     OW12772   6.018   0.018   6.353
 3958SOL    HW112773   5.970   6.974   6.412
 3958SOL    HW212774   6.084   6.991   6.297
 3959SOL     OW12775   3.441   6.941   0.980
 3959SOL    HW112776   3.468   6.850   0.951
 3959SOL    HW212777   3.493   6.968   1.061
 3960SOL     OW12778   5.886   2.090   6.138
 3960SOL    HW112779   5.957   2.060   6.074
 3960SOL    HW212780   5.913   2.066   6.231
 3961SOL     OW12781   5.159   2.987   2.511
 3961SOL    HW112782   5.135   3.079   2.541
 3961SOL    HW212783   5.228   2.949   2.572
 3962SOL     OW12784   1.163   5.927   6.541
 3962SOL    HW112785   1.231   5.856   6.560
 3962SOL    HW212786   1.072   5.885   6.537
 3963SOL     OW12787   5.033   4.797   3.698
 3963SOL    HW112788   4.966   4.785   3.625
 3963SOL    HW212789   4.988   4.834   3.780
 3964SOL     OW12790   4.386   4.765   4.835
 3964SOL    HW112791   4.357   4.686   4.890
 3964SOL    HW212792   4.306   4.818   4.808
 3965SOL     OW12793   3.990   3.967   6.184
 3965SOL    HW112794   4.053   3.955   6.260
 3965SOL    HW212795   3.924   4.039   6.206
 3966SOL     OW12796   6.778   5.068   0.214
 3966SOL    HW112797   6.776   4.970   0.195
 3966SOL    HW212798   6.810   5.084   0.307
 3967SOL     OW12799   1.371   4.597   2.592
 3967SOL    HW112800   1.402   4.562   2.504
 3967SOL    HW212801   1.440   4.659   2.630
 3968SOL     OW12802   6.625   0.584   1.038
 3968SOL    HW112803   6.652   0.491   1.017
 3968SOL    HW212804   6.573   0.622   0.961
 3969SOL     OW12805   0.292   3.809   3.093
 3969SOL    HW112806   0.387   3.784   3.076
 3969SOL    HW212807   0.266   3.779   3.185
 3970SOL     OW12808   4.146   5.146   3.708
 3970SOL    HW112809   4.144   5.054   3.669
 3970SOL    HW212810   4.239   5.181   3.707
 3971SOL     OW12811   2.305   4.767   2.354
 3971SOL    HW112812   2.361   4.701   2.303
 3971SOL    HW212813   2.238   4.718   2.409
 3972SOL     OW12814   2.028   5.638   1.690
 3972SOL    HW112815   2.071   5.709   1.747
 3972SOL    HW212816   2.099   5.581   1.649
 3973SOL     OW12817   2.249   4.167   5.299
 3973SOL    HW112818   2.325   4.105   5.278
 3973SOL    HW212819   2.220   4.214   5.216
 3974SOL     OW12820   2.046   0.948   5.748
 3974SOL    HW112821   1.999   1.035   5.732
 3974SOL    HW212822   1.982   0.873   5.735
 3975SOL     OW12823   6.112   6.954   6.676
 3975SOL    HW112824   6.102   0.031   6.674
 3975SOL    HW212825   6.035   6.912   6.628
 3976SOL     OW12826   2.261   4.971   1.041
 3976SOL    HW112827   2.222   4.937   1.126
 3976SOL    HW212828   2.343   4.919   1.018
 3977SOL     OW12829   3.019   4.853   5.439
 3977SOL    HW112830   2.922   4.840   5.415
 3977SOL    HW212831   3.032   4.828   5.535
 3978SOL     OW12832   5.833   0.587   4.454
 3978SOL    HW112833   5.857   0.680   4.425
 3978SOL    HW212834   5.908   0.549   4.509
 3979SOL     OW12835   2.529   6.045   1.423
 3979SOL    HW112836   2.460   6.017   1.490
 3979SOL    HW212837   2.514   5.997   1.337
 3980SOL     OW12838   0.202   4.399   6.324
 3980SOL    HW112839   0.108   4.368   6.304
 3980SOL    HW212840   0.267   4.336   6.282
 3981SOL     OW12841   1.713   1.768   6.791
 3981SOL    HW112842   1.708   1.850   6.734
 3981SOL    HW212843   1.800   1.766   6.839
 3982SOL     OW12844   2.503   0.575   4.342
 3982SOL    HW112845   2.404   0.591   4.345
 3982SOL    HW212846   2.530   0.517   4.419
 3983SOL     OW12847   3.658   5.486   4.468
 3983SOL    HW112848   3.608   5.411   4.512
 3983SOL    HW212849   3.643   5.482   4.370
 3984SOL     OW12850   2.462   0.555   2.092
 3984SOL    HW112851   2.454   0.639   2.039
 3984SOL    HW212852   2.371   0.523   2.118
 3985SOL     OW12853   2.111   4.312   6.714
 3985SOL    HW112854   2.061   4.230   6.685
 3985SOL    HW212855   2.048   4.375   6.759
 3986SOL     OW12856   6.689   1.455   3.340
 3986SOL    HW112857   6.590   1.447   3.329
 3986SOL    HW212858   6.709   1.517   3.416
 3987SOL     OW12859   1.584   5.794   5.016
 3987SOL    HW112860   1.639   5.722   5.058
 3987SOL    HW212861   1.502   5.809   5.071
 3988SOL     OW12862   3.954   2.870   5.578
 3988SOL    HW112863   3.896   2.819   5.514
 3988SOL    HW212864   3.974   2.813   5.657
 3989SOL     OW12865   6.704   1.395   0.229
 3989SOL    HW112866   6.753   1.421   0.312
 3989SOL    HW212867   6.606   1.385   0.249
 3990SOL     OW12868   6.249   1.303   3.863
 3990SOL    HW112869   6.185   1.245   3.913
 3990SOL    HW212870   6.292   1.367   3.927
 3991SOL     OW12871   6.035   1.579   2.317
 3991SOL    HW112872   5.935   1.592   2.317
 3991SOL    HW212873   6.059   1.503   2.377
 3992SOL     OW12874   4.388   1.875   6.401
 3992SOL    HW112875   4.421   1.868   6.307
 3992SOL    HW212876   4.442   1.944   6.450
 3993SOL     OW12877   1.446   2.172   3.317
 3993SOL    HW112878   1.389   2.249   3.289
 3993SOL    HW212879   1.420   2.091   3.266
 3994SOL     OW12880   1.599   2.882   5.556
 3994SOL    HW112881   1.609   2.897   5.654
 3994SOL    HW212882   1.505   2.904   5.528
 3995SOL     OW12883   2.023   3.874   4.376
 3995SOL    HW112884   2.036   3.775   4.374
 3995SOL    HW212885   2.066   3.915   4.296
 3996SOL     OW12886   1.651   0.728   4.776
 3996SOL    HW112887   1.721   0.759   4.712
 3996SOL    HW212888   1.617   0.805   4.830
 3997SOL     OW12889   4.707   2.851   3.069
 3997SOL    HW112890   4.697   2.867   2.971
 3997SOL    HW212891   4.747   2.931   3.113
 3998SOL     OW12892   4.814   1.559   2.371
 3998SOL    HW112893   4.720   1.538   2.398
 3998SOL    HW212894   4.822   1.552   2.271
 3999SOL     OW12895   5.305   3.492   3.770
 3999SOL    HW112896   5.322   3.589   3.787
 3999SOL    HW212897   5.208   3.479   3.749
 4000SOL     OW12898   3.442   5.714   2.580
 4000SOL    HW112899   3.375   5.788   2.581
 4000SOL    HW212900   3.407   5.636   2.632
 4001SOL     OW12901   1.599   2.788   4.644
 4001SOL    HW112902   1.611   2.759   4.549
 4001SOL    HW212903   1.669   2.744   4.701
 4002SOL     OW12904   2.675   3.041   0.214
 4002SOL    HW112905   2.604   2.978   0.183
 4002SOL    HW212906   2.631   3.118   0.262
 4003SOL     OW12907   2.771   6.910   6.008
 4003SOL    HW112908   2.778   6.945   6.101
 4003SOL    HW212909   2.808   6.977   5.944
 4004SOL     OW12910   6.049   2.670   4.297
 4004SOL    HW112911   5.992   2.592   4.321
 4004SOL    HW212912   6.100   2.700   4.378
 4005SOL     OW12913   5.138   5.208   1.046
 4005SOL    HW112914   5.163   5.284   0.987
 4005SOL    HW212915   5.196   5.207   1.127
 4006SOL     OW12916   4.674   4.692   1.937
 4006SOL    HW112917   4.585   4.679   1.981
 4006SOL    HW212918   4.686   4.788   1.915
 4007SOL     OW12919   0.456   2.876   1.860
 4007SOL    HW112920   0.461   2.962   1.911
 4007SOL    HW212921   0.527   2.875   1.789
 4008SOL     OW12922   3.572   1.681   5.079
 4008SOL    HW112923   3.489   1.696   5.025
 4008SOL    HW212924   3.652   1.707   5.026
 4009SOL     OW12925   4.881   2.416   0.713
 4009SOL    HW112926   4.978   2.410   0.735
 4009SOL    HW212927   4.837   2.329   0.731
 4010SOL     OW12928   1.873   3.618   1.274
 4010SOL    HW112929   1.833   3.530   1.248
 4010SOL    HW212930   1.947   3.602   1.338
 4011SOL     OW12931   1.174   0.068   1.820
 4011SOL    HW112932   1.086   0.111   1.838
 4011SOL    HW212933   1.231   0.073   1.902
 4012SOL     OW12934   4.448   4.628   1.230
 4012SOL    HW112935   4.413   4.603   1.139
 4012SOL    HW212936   4.377   4.675   1.282
 4013SOL     OW12937   2.755   0.458   0.974
 4013SOL    HW112938   2.730   0.476   1.069
 4013SOL    HW212939   2.852   0.434   0.968
 4014SOL     OW12940   4.088   5.425   3.652
 4014SOL    HW112941   4.176   5.445   3.608
 4014SOL    HW212942   4.083   5.328   3.675
 4015SOL     OW12943   4.138   4.814   5.984
 4015SOL    HW112944   4.146   4.899   5.932
 4015SOL    HW212945   4.217   4.803   6.045
 4016SOL     OW12946   1.046   5.282   6.638
 4016SOL    HW112947   1.021   5.335   6.719
 4016SOL    HW212948   0.965   5.269   6.581
 4017SOL     OW12949   0.591   6.806   0.405
 4017SOL    HW112950   0.494   6.817   0.422
 4017SOL    HW212951   0.609   6.712   0.375
 4018SOL     OW12952   5.816   6.256   1.949
 4018SOL    HW112953   5.756   6.267   2.028
 4018SOL    HW212954   5.882   6.183   1.966
 4019SOL     OW12955   5.749   3.930   2.247
 4019SOL    HW112956   5.750   3.893   2.340
 4019SOL    HW212957   5.812   3.878   2.190
 4020SOL     OW12958   6.348   2.595   5.789
 4020SOL    HW112959   6.319   2.526   5.723
 4020SOL    HW212960   6.299   2.581   5.875
 4021SOL     OW12961   2.840   4.137   5.716
 4021SOL    HW112962   2.933   4.164   5.742
 4021SOL    HW212963   2.837   4.038   5.703
 4022SOL     OW12964   4.472   0.333   6.652
 4022SOL    HW112965   4.398   0.271   6.679
 4022SOL    HW212966   4.553   0.313   6.708
 4023SOL     OW12967   6.812   0.848   4.027
 4023SOL    HW112968   6.908   0.821   4.020
 4023SOL    HW212969   6.788   0.906   3.949
 4024SOL     OW12970   2.928   5.104   3.997
 4024SOL    HW112971   2.911   5.198   3.968
 4024SOL    HW212972   2.891   5.091   4.089
 4025SOL     OW12973   0.363   6.101   4.743
 4025SOL    HW112974   0.272   6.116   4.705
 4025SOL    HW212975   0.354   6.070   4.838
 4026SOL     OW12976   6.205   6.771   3.256
 4026SOL    HW112977   6.215   6.742   3.161
 4026SOL    HW212978   6.295   6.769   3.300
 4027SOL     OW12979   2.699   2.763   0.908
 4027SOL    HW112980   2.649   2.699   0.966
 4027SOL    HW212981   2.714   2.849   0.958
 4028SOL     OW12982   3.049   2.157   2.707
 4028SOL    HW112983   3.118   2.172   2.636
 4028SOL    HW212984   2.961   2.135   2.665
 4029SOL     OW12985   2.880   4.739   6.010
 4029SOL    HW112986   2.971   4.779   6.002
 4029SOL    HW212987   2.811   4.804   5.976
 4030SOL     OW12988   1.021   1.877   0.472
 4030SOL    HW112989   0.987   1.931   0.548
 4030SOL    HW212990   1.036   1.783   0.501
 4031SOL     OW12991   5.054   6.482   3.584
 4031SOL    HW112992   4.961   6.508   3.557
 4031SOL    HW212993   5.119   6.520   3.518
 4032SOL     OW12994   6.363   0.321   2.459
 4032SOL    HW112995   6.450   0.307   2.412
 4032SOL    HW212996   6.378   0.371   2.544
 4033SOL     OW12997   2.939   3.678   1.885
 4033SOL    HW112998   3.002   3.756   1.885
 4033SOL    HW212999   2.942   3.633   1.796
 4034SOL     OW13000   0.077   1.577   4.595
 4034SOL    HW113001   0.174   1.579   4.619
 4034SOL    HW213002   0.064   1.624   4.508
 4035SOL     OW13003   6.424   2.510   0.801
 4035SOL    HW113004   6.359   2.586   0.807
 4035SOL    HW213005   6.475   2.516   0.715
 4036SOL     OW13006   5.118   6.610   2.608
 4036SOL    HW113007   5.079   6.668   2.679
 4036SOL    HW213008   5.178   6.542   2.649
 4037SOL     OW13009   2.139   1.215   0.859
 4037SOL    HW113010   2.053   1.166   0.869
 4037SOL    HW213011   2.215   1.150   0.857
 4038SOL     OW13012   4.330   4.055   1.645
 4038SOL    HW113013   4.399   4.041   1.573
 4038SOL    HW213014   4.367   4.118   1.714
 4039SOL     OW13015   4.691   4.395   1.438
 4039SOL    HW113016   4.684   4.311   1.491
 4039SOL    HW213017   4.672   4.376   1.342
 4040SOL     OW13018   3.808   0.170   5.871
 4040SOL    HW113019   3.808   0.267   5.846
 4040SOL    HW213020   3.878   0.153   5.941
 4041SOL     OW13021   2.258   5.248   0.933
 4041SOL    HW113022   2.270   5.166   0.989
 4041SOL    HW213023   2.193   5.310   0.978
 4042SOL     OW13024   6.512   5.487   2.928
 4042SOL    HW113025   6.425   5.536   2.931
 4042SOL    HW213026   6.534   5.454   3.020
 4043SOL     OW13027   5.050   2.028   4.460
 4043SOL    HW113028   4.995   1.946   4.446
 4043SOL    HW213029   5.076   2.066   4.371
 4044SOL     OW13030   4.614   6.958   3.246
 4044SOL    HW113031   4.612   0.025   3.200
 4044SOL    HW213032   4.522   6.936   3.279
 4045SOL     OW13033   2.430   5.379   5.811
 4045SOL    HW113034   2.486   5.421   5.882
 4045SOL    HW213035   2.487   5.321   5.753
 4046SOL     OW13036   1.097   1.449   3.567
 4046SOL    HW113037   1.032   1.441   3.643
 4046SOL    HW213038   1.172   1.383   3.580
 4047SOL     OW13039   1.560   2.356   0.774
 4047SOL    HW113040   1.550   2.368   0.676
 4047SOL    HW213041   1.526   2.265   0.800
 4048SOL     OW13042   5.136   2.106   2.218
 4048SOL    HW113043   5.225   2.116   2.262
 4048SOL    HW213044   5.117   2.188   2.163
 4049SOL     OW13045   6.621   6.040   6.358
 4049SOL    HW113046   6.567   6.104   6.412
 4049SOL    HW213047   6.659   6.087   6.278
 4050SOL     OW13048   1.380   6.414   0.514
 4050SOL    HW113049   1.362   6.512   0.505
 4050SOL    HW213050   1.465   6.391   0.467
 4051SOL     OW13051   3.714   2.843   6.975
 4051SOL    HW113052   3.664   2.756   6.979
 4051SOL    HW213053   3.803   2.832   7.021
 4052SOL     OW13054   0.089   0.758   2.575
 4052SOL    HW113055   0.157   0.799   2.635
 4052SOL    HW213056   7.020   0.768   2.615
 4053SOL     OW13057   3.257   5.432   4.075
 4053SOL    HW113058   3.329   5.379   4.030
 4053SOL    HW213059   3.299   5.496   4.140
 4054SOL     OW13060   0.075   3.248   2.291
 4054SOL    HW113061   0.044   3.321   2.231
 4054SOL    HW213062   0.080   3.162   2.239
 4055SOL     OW13063   3.853   3.262   6.097
 4055SOL    HW113064   3.945   3.238   6.129
 4055SOL    HW213065   3.827   3.351   6.134
 4056SOL     OW13066   3.836   3.739   0.670
 4056SOL    HW113067   3.917   3.797   0.673
 4056SOL    HW213068   3.860   3.651   0.629
 4057SOL     OW13069   5.467   2.260   1.750
 4057SOL    HW113070   5.435   2.291   1.660
 4057SOL    HW213071   5.403   2.291   1.820
 4058SOL     OW13072   1.817   6.926   4.064
 4058SOL    HW113073   1.874   6.952   3.987
 4058SOL    HW213074   1.738   6.987   4.069
 4059SOL     OW13075   0.970   2.569   3.643
 4059SOL    HW113076   0.960   2.469   3.649
 4059SOL    HW213077   0.880   2.611   3.636
 4060SOL     OW13078   4.515   5.208   4.602
 4060SOL    HW113079   4.476   5.294   4.571
 4060SOL    HW213080   4.462   5.132   4.564
 4061SOL     OW13081   3.222   5.342   1.486
 4061SOL    HW113082   3.243   5.357   1.583
 4061SOL    HW213083   3.307   5.326   1.436
 4062SOL     OW13084   2.843   1.843   2.846
 4062SOL    HW113085   2.744   1.837   2.852
 4062SOL    HW213086   2.877   1.910   2.913
 4063SOL     OW13087   6.076   6.353   5.359
 4063SOL    HW113088   5.990   6.402   5.349
 4063SOL    HW213089   6.136   6.403   5.422
 4064SOL     OW13090   1.600   6.526   3.778
 4064SOL    HW113091   1.681   6.551   3.831
 4064SOL    HW213092   1.565   6.438   3.811
 4065SOL     OW13093   6.895   6.717   0.684
 4065SOL    HW113094   6.965   6.647   0.695
 4065SOL    HW213095   6.861   6.744   0.774
 4066SOL     OW13096   5.146   5.576   2.699
 4066SOL    HW113097   5.204   5.501   2.665
 4066SOL    HW213098   5.187   5.613   2.783
 4067SOL     OW13099   5.779   3.256   3.020
 4067SOL    HW113100   5.685   3.223   3.030
 4067SOL    HW213101   5.790   3.295   2.928
 4068SOL     OW13102   3.357   0.395   4.671
 4068SOL    HW113103   3.300   0.372   4.591
 4068SOL    HW213104   3.332   0.486   4.704
 4069SOL     OW13105   4.282   4.435   6.257
 4069SOL    HW113106   4.206   4.487   6.218
 4069SOL    HW213107   4.246   4.359   6.312
 4070SOL     OW13108   0.517   3.753   2.158
 4070SOL    HW113109   0.514   3.791   2.250
 4070SOL    HW213110   0.482   3.820   2.093
 4071SOL     OW13111   1.263   0.983   5.820
 4071SOL    HW113112   1.322   0.946   5.749
 4071SOL    HW213113   1.297   0.956   5.910
 4072SOL     OW13114   0.943   5.629   4.022
 4072SOL    HW113115   0.921   5.708   3.964
 4072SOL    HW213116   0.960   5.660   4.115
 4073SOL     OW13117   2.746   5.666   6.027
 4073SOL    HW113118   2.683   5.741   6.046
 4073SOL    HW213119   2.779   5.627   6.113
 4074SOL     OW13120   0.036   2.828   1.898
 4074SOL    HW113121   0.027   2.738   1.857
 4074SOL    HW213122   0.024   2.898   1.827
 4075SOL     OW13123   3.908   1.914   2.549
 4075SOL    HW113124   3.896   1.861   2.633
 4075SOL    HW213125   3.861   2.001   2.558
 4076SOL     OW13126   3.032   3.932   5.457
 4076SOL    HW113127   3.011   3.985   5.375
 4076SOL    HW213128   2.952   3.933   5.518
 4077SOL     OW13129   3.738   0.089   0.084
 4077SOL    HW113130   3.724   0.046   0.173
 4077SOL    HW213131   3.752   0.188   0.097
 4078SOL     OW13132   6.061   5.540   2.238
 4078SOL    HW113133   6.143   5.556   2.294
 4078SOL    HW213134   6.003   5.472   2.284
 4079SOL     OW13135   0.697   1.884   3.803
 4079SOL    HW113136   0.637   1.810   3.833
 4079SOL    HW213137   0.646   1.944   3.740
 4080SOL     OW13138   2.296   3.537   0.299
 4080SOL    HW113139   2.355   3.515   0.377
 4080SOL    HW213140   2.210   3.487   0.307
 4081SOL     OW13141   1.816   2.001   3.971
 4081SOL    HW113142   1.910   2.008   3.937
 4081SOL    HW213143   1.805   1.913   4.018
 4082SOL     OW13144   1.682   2.643   1.142
 4082SOL    HW113145   1.598   2.672   1.186
 4082SOL    HW213146   1.732   2.581   1.203
 4083SOL     OW13147   6.226   4.263   1.936
 4083SOL    HW113148   6.273   4.344   1.970
 4083SOL    HW213149   6.293   4.192   1.914
 4084SOL     OW13150   4.627   2.076   3.216
 4084SOL    HW113151   4.637   1.991   3.164
 4084SOL    HW213152   4.680   2.071   3.300
 4085SOL     OW13153   2.498   5.594   0.929
 4085SOL    HW113154   2.518   5.622   1.023
 4085SOL    HW213155   2.400   5.580   0.919
 4086SOL     OW13156   0.154   4.657   1.059
 4086SOL    HW113157   0.163   4.707   0.973
 4086SOL    HW213158   0.245   4.639   1.097
 4087SOL     OW13159   1.709   1.640   3.069
 4087SOL    HW113160   1.638   1.662   3.002
 4087SOL    HW213161   1.776   1.579   3.027
 4088SOL     OW13162   6.555   0.954   6.484
 4088SOL    HW113163   6.459   0.961   6.461
 4088SOL    HW213164   6.567   0.970   6.582
 4089SOL     OW13165   6.333   4.724   4.072
 4089SOL    HW113166   6.429   4.702   4.054
 4089SOL    HW213167   6.281   4.639   4.084
 4090SOL     OW13168   1.633   5.895   5.727
 4090SOL    HW113169   1.707   5.938   5.675
 4090SOL    HW213170   1.615   5.804   5.689
 4091SOL     OW13171   0.421   6.257   0.465
 4091SOL    HW113172   0.399   6.283   0.371
 4091SOL    HW213173   0.385   6.165   0.484
 4092SOL     OW13174   5.756   2.628   4.140
 4092SOL    HW113175   5.810   2.709   4.120
 4092SOL    HW213176   5.780   2.554   4.076
 4093SOL     OW13177   4.981   6.359   1.156
 4093SOL    HW113178   4.986   6.458   1.143
 4093SOL    HW213179   4.968   6.338   1.253
 4094SOL     OW13180   1.560   4.673   5.859
 4094SOL    HW113181   1.539   4.694   5.764
 4094SOL    HW213182   1.485   4.703   5.917
 4095SOL     OW13183   0.149   3.893   0.339
 4095SOL    HW113184   0.103   3.808   0.367
 4095SOL    HW213185   0.236   3.901   0.388
 4096SOL     OW13186   4.625   0.868   6.733
 4096SOL    HW113187   4.572   0.862   6.649
 4096SOL    HW213188   4.603   0.789   6.791
 4097SOL     OW13189   4.719   4.592   4.437
 4097SOL    HW113190   4.757   4.574   4.527
 4097SOL    HW213191   4.772   4.664   4.392
 4098SOL     OW13192   0.963   2.182   1.814
 4098SOL    HW113193   0.897   2.223   1.876
 4098SOL    HW213194   0.965   2.083   1.827
 4099SOL     OW13195   3.847   5.338   1.106
 4099SOL    HW113196   3.770   5.380   1.058
 4099SOL    HW213197   3.842   5.238   1.096
 4100SOL     OW13198   0.167   6.551   4.280
 4100SOL    HW113199   0.193   6.471   4.226
 4100SOL    HW213200   0.249   6.602   4.305
 4101SOL     OW13201   0.213   1.567   0.589
 4101SOL    HW113202   0.294   1.558   0.647
 4101SOL    HW213203   0.240   1.597   0.498
 4102SOL     OW13204   1.355   0.889   1.164
 4102SOL    HW113205   1.454   0.882   1.160
 4102SOL    HW213206   1.328   0.986   1.164
 4103SOL     OW13207   0.549   6.893   1.100
 4103SOL    HW113208   0.452   6.902   1.080
 4103SOL    HW213209   0.577   6.798   1.085
 4104SOL     OW13210   0.463   4.649   3.434
 4104SOL    HW113211   0.494   4.694   3.518
 4104SOL    HW213212   0.542   4.610   3.387
 4105SOL     OW13213   5.719   0.471   3.046
 4105SOL    HW113214   5.756   0.549   2.995
 4105SOL    HW213215   5.637   0.437   3.000
 4106SOL     OW13216   0.181   3.068   3.382
 4106SOL    HW113217   0.226   3.128   3.315
 4106SOL    HW213218   0.103   3.116   3.423
 4107SOL     OW13219   1.250   5.688   0.926
 4107SOL    HW113220   1.260   5.730   1.016
 4107SOL    HW213221   1.299   5.743   0.859
 4108SOL     OW13222   6.806   4.926   4.405
 4108SOL    HW113223   6.877   4.938   4.336
 4108SOL    HW213224   6.797   4.829   4.429
 4109SOL     OW13225   6.445   0.365   4.719
 4109SOL    HW113226   6.504   0.285   4.720
 4109SOL    HW213227   6.380   0.358   4.644
 4110SOL     OW13228   4.283   3.473   6.071
 4110SOL    HW113229   4.213   3.453   6.002
 4110SOL    HW213230   4.351   3.535   6.032
 4111SOL     OW13231   5.751   4.581   6.511
 4111SOL    HW113232   5.831   4.525   6.492
 4111SOL    HW213233   5.695   4.590   6.428
 4112SOL     OW13234   4.793   6.248   4.513
 4112SOL    HW113235   4.839   6.222   4.428
 4112SOL    HW213236   4.772   6.166   4.566
 4113SOL     OW13237   5.455   5.634   5.072
 4113SOL    HW113238   5.364   5.635   5.031
 4113SOL    HW213239   5.450   5.598   5.165
 4114SOL     OW13240   3.917   2.034   4.007
 4114SOL    HW113241   3.951   1.940   3.999
 4114SOL    HW213242   3.994   2.098   3.997
 4115SOL     OW13243   3.254   5.070   2.152
 4115SOL    HW113244   3.182   5.062   2.083
 4115SOL    HW213245   3.318   4.994   2.142
 4116SOL     OW13246   3.882   1.470   2.979
 4116SOL    HW113247   3.980   1.478   2.996
 4116SOL    HW213248   3.838   1.558   2.994
 4117SOL     OW13249   0.791   3.282   2.588
 4117SOL    HW113250   0.701   3.319   2.567
 4117SOL    HW213251   0.783   3.185   2.612
 4118SOL     OW13252   5.292   6.746   0.420
 4118SOL    HW113253   5.277   6.706   0.330
 4118SOL    HW213254   5.205   6.779   0.457
 4119SOL     OW13255   2.997   1.497   3.906
 4119SOL    HW113256   2.932   1.535   3.840
 4119SOL    HW213257   3.008   1.399   3.889
 4120SOL     OW13258   3.795   0.827   5.409
 4120SOL    HW113259   3.783   0.850   5.312
 4120SOL    HW213260   3.879   0.869   5.442
 4121SOL     OW13261   6.542   7.006   3.519
 4121SOL    HW113262   6.603   6.939   3.477
 4121SOL    HW213263   6.551   0.072   3.472
 4122SOL     OW13264   1.469   0.045   4.545
 4122SOL    HW113265   1.378   0.081   4.564
 4122SOL    HW213266   1.462   6.970   4.520
 4123SOL     OW13267   4.097   4.571   5.340
 4123SOL    HW113268   4.048   4.568   5.427
 4123SOL    HW213269   4.111   4.478   5.306
 4124SOL     OW13270   6.614   6.373   0.370
 4124SOL    HW113271   6.598   6.413   0.280
 4124SOL    HW213272   6.666   6.438   0.426
 4125SOL     OW13273   4.477   1.876   2.839
 4125SOL    HW113274   4.440   1.842   2.925
 4125SOL    HW213275   4.555   1.935   2.858
 4126SOL     OW13276   1.931   3.208   3.251
 4126SOL    HW113277   1.992   3.176   3.324
 4126SOL    HW213278   1.979   3.202   3.163
 4127SOL     OW13279   5.590   3.818   5.288
 4127SOL    HW113280   5.683   3.782   5.273
 4127SOL    HW213281   5.528   3.775   5.222
 4128SOL     OW13282   0.925   3.219   1.240
 4128SOL    HW113283   0.942   3.287   1.311
 4128SOL    HW213284   0.841   3.169   1.261
 4129SOL     OW13285   3.396   0.816   6.764
 4129SOL    HW113286   3.478   0.846   6.716
 4129SOL    HW213287   3.351   0.743   6.711
 4130SOL     OW13288   6.206   2.712   0.850
 4130SOL    HW113289   6.120   2.703   0.902
 4130SOL    HW213290   6.186   2.750   0.760
 4131SOL     OW13291   0.461   1.455   3.425
 4131SOL    HW113292   0.502   1.383   3.369
 4131SOL    HW213293   0.414   1.520   3.365
 4132SOL     OW13294   4.880   4.036   3.445
 4132SOL    HW113295   4.854   3.951   3.491
 4132SOL    HW213296   4.891   4.018   3.347
 4133SOL     OW13297   3.254   6.080   1.368
 4133SOL    HW113298   3.345   6.061   1.331
 4133SOL    HW213299   3.221   6.167   1.333
 4134SOL     OW13300   2.013   3.794   1.118
 4134SOL    HW113301   2.057   3.881   1.140
 4134SOL    HW213302   1.973   3.754   1.201
 4135SOL     OW13303   0.558   2.396   2.252
 4135SOL    HW113304   0.624   2.330   2.287
 4135SOL    HW213305   0.532   2.370   2.158
 4136SOL     OW13306   1.017   3.173   3.142
 4136SOL    HW113307   1.062   3.229   3.073
 4136SOL    HW213308   0.918   3.185   3.136
 4137SOL     OW13309   1.481   3.678   1.280
 4137SOL    HW113310   1.549   3.667   1.352
 4137SOL    HW213311   1.504   3.757   1.223
 4138SOL     OW13312   4.000   5.793   2.743
 4138SOL    HW113313   4.026   5.697   2.750
 4138SOL    HW213314   3.948   5.819   2.824
 4139SOL     OW13315   1.643   1.450   5.511
 4139SOL    HW113316   1.691   1.449   5.423
 4139SOL    HW213317   1.644   1.543   5.548
 4140SOL     OW13318   3.515   0.877   5.205
 4140SOL    HW113319   3.588   0.812   5.183
 4140SOL    HW213320   3.548   0.942   5.274
 4141SOL     OW13321   5.035   6.076   1.086
 4141SOL    HW113322   4.977   6.094   1.006
 4141SOL    HW213323   5.054   6.162   1.133
 4142SOL     OW13324   6.339   4.943   1.191
 4142SOL    HW113325   6.378   4.854   1.167
 4142SOL    HW213326   6.405   5.015   1.171
 4143SOL     OW13327   5.702   2.401   0.977
 4143SOL    HW113328   5.666   2.366   0.891
 4143SOL    HW213329   5.747   2.327   1.027
 4144SOL     OW13330   4.733   1.741   7.022
 4144SOL    HW113331   4.649   1.699   6.987
 4144SOL    HW213332   4.796   1.758   6.946
 4145SOL     OW13333   0.216   6.467   1.793
 4145SOL    HW113334   0.159   6.531   1.844
 4145SOL    HW213335   0.165   6.383   1.776
 4146SOL     OW13336   6.246   0.041   3.231
 4146SOL    HW113337   6.173   0.089   3.279
 4146SOL    HW213338   6.250   6.968   3.262
 4147SOL     OW13339   4.412   5.053   5.946
 4147SOL    HW113340   4.455   4.991   5.880
 4147SOL    HW213341   4.326   5.087   5.908
 4148SOL     OW13342   2.605   0.504   4.639
 4148SOL    HW113343   2.694   0.459   4.644
 4148SOL    HW213344   2.536   0.444   4.680
 4149SOL     OW13345   6.993   4.020   1.469
 4149SOL    HW113346   0.051   3.962   1.455
 4149SOL    HW213347   6.947   4.035   1.381
 4150SOL     OW13348   1.567   0.657   5.860
 4150SOL    HW113349   1.521   0.589   5.917
 4150SOL    HW213350   1.516   0.669   5.775
 4151SOL     OW13351   3.146   6.075   5.588
 4151SOL    HW113352   3.075   6.014   5.623
 4151SOL    HW213353   3.105   6.139   5.522
 4152SOL     OW13354   4.269   5.692   1.287
 4152SOL    HW113355   4.246   5.769   1.347
 4152SOL    HW213356   4.193   5.627   1.285
 4153SOL     OW13357   5.857   5.292   0.976
 4153SOL    HW113358   5.892   5.296   1.069
 4153SOL    HW213359   5.894   5.369   0.923
 4154SOL     OW13360   0.034   5.147   3.988
 4154SOL    HW113361   0.011   5.194   3.903
 4154SOL    HW213362   0.103   5.200   4.037
 4155SOL     OW13363   6.958   1.281   1.402
 4155SOL    HW113364   0.005   1.327   1.459
 4155SOL    HW213365   7.003   1.223   1.335
 4156SOL     OW13366   6.097   6.046   4.775
 4156SOL    HW113367   6.027   6.040   4.846
 4156SOL    HW213368   6.065   6.001   4.692
 4157SOL     OW13369   4.827   5.616   4.417
 4157SOL    HW113370   4.779   5.676   4.481
 4157SOL    HW213371   4.910   5.662   4.385
 4158SOL     OW13372   0.643   2.900   1.626
 4158SOL    HW113373   0.568   2.842   1.595
 4158SOL    HW213374   0.706   2.846   1.682
 4159SOL     OW13375   2.146   2.929   3.037
 4159SOL    HW113376   2.127   3.027   3.045
 4159SOL    HW213377   2.194   2.898   3.119
 4160SOL     OW13378   5.190   0.900   0.336
 4160SOL    HW113379   5.200   0.951   0.250
 4160SOL    HW213380   5.095   0.871   0.346
 4161SOL     OW13381   0.962   2.235   0.872
 4161SOL    HW113382   0.879   2.193   0.907
 4161SOL    HW213383   1.034   2.230   0.942
 4162SOL     OW13384   6.541   6.158   0.146
 4162SOL    HW113385   6.513   6.105   0.065
 4162SOL    HW213386   6.460   6.197   0.189
 4163SOL     OW13387   4.936   0.409   3.028
 4163SOL    HW113388   4.873   0.344   2.984
 4163SOL    HW213389   5.012   0.429   2.966
 4164SOL     OW13390   1.921   6.697   5.748
 4164SOL    HW113391   1.892   6.603   5.766
 4164SOL    HW213392   2.013   6.711   5.784
 4165SOL     OW13393   4.604   0.804   5.729
 4165SOL    HW113394   4.689   0.752   5.728
 4165SOL    HW213395   4.526   0.741   5.726
 4166SOL     OW13396   5.432   1.654   0.687
 4166SOL    HW113397   5.512   1.614   0.642
 4166SOL    HW213398   5.369   1.690   0.618
 4167SOL     OW13399   2.354   4.494   6.945
 4167SOL    HW113400   2.378   4.524   6.853
 4167SOL    HW213401   2.302   4.566   6.990
 4168SOL     OW13402   0.299   4.327   1.189
 4168SOL    HW113403   0.210   4.298   1.156
 4168SOL    HW213404   0.362   4.249   1.189
 4169SOL     OW13405   5.924   5.470   5.082
 4169SOL    HW113406   5.907   5.397   5.016
 4169SOL    HW213407   5.857   5.543   5.068
 4170SOL     OW13408   4.610   3.361   6.666
 4170SOL    HW113409   4.578   3.362   6.571
 4170SOL    HW213410   4.676   3.287   6.678
 4171SOL     OW13411   6.344   6.024   0.587
 4171SOL    HW113412   6.396   6.037   0.671
 4171SOL    HW213413   6.332   5.927   0.569
 4172SOL     OW13414   1.346   2.151   6.424
 4172SOL    HW113415   1.262   2.161   6.477
 4172SOL    HW213416   1.366   2.236   6.376
 4173SOL     OW13417   5.130   4.188   4.461
 4173SOL    HW113418   5.223   4.195   4.498
 4173SOL    HW213419   5.085   4.108   4.501
 4174SOL     OW13420   4.659   1.468   2.858
 4174SOL    HW113421   4.584   1.430   2.804
 4174SOL    HW213422   4.728   1.507   2.797
 4175SOL     OW13423   2.234   5.549   4.674
 4175SOL    HW113424   2.179   5.583   4.750
 4175SOL    HW213425   2.309   5.493   4.709
 4176SOL     OW13426   3.666   6.164   2.018
 4176SOL    HW113427   3.650   6.082   1.963
 4176SOL    HW213428   3.582   6.190   2.065
 4177SOL     OW13429   5.865   5.241   5.486
 4177SOL    HW113430   5.836   5.151   5.454
 4177SOL    HW213431   5.936   5.230   5.556
 4178SOL     OW13432   3.952   0.100   4.323
 4178SOL    HW113433   3.907   0.011   4.323
 4178SOL    HW213434   3.887   0.170   4.353
 4179SOL     OW13435   5.540   3.173   3.134
 4179SOL    HW113436   5.540   3.096   3.070
 4179SOL    HW213437   5.463   3.234   3.113
 4180SOL     OW13438   4.379   4.091   0.577
 4180SOL    HW113439   4.455   4.126   0.522
 4180SOL    HW213440   4.296   4.090   0.522
 4181SOL     OW13441   3.392   0.996   0.250
 4181SOL    HW113442   3.432   0.975   0.161
 4181SOL    HW213443   3.375   1.095   0.256
 4182SOL     OW13444   0.882   6.527   3.398
 4182SOL    HW113445   0.818   6.600   3.376
 4182SOL    HW213446   0.883   6.459   3.325
 4183SOL     OW13447   3.026   1.423   7.010
 4183SOL    HW113448   2.929   1.443   6.994
 4183SOL    HW213449   3.079   1.454   6.931
 4184SOL     OW13450   3.950   6.300   2.088
 4184SOL    HW113451   3.902   6.355   2.156
 4184SOL    HW213452   4.048   6.313   2.097
 4185SOL     OW13453   1.055   4.612   3.001
 4185SOL    HW113454   1.086   4.701   2.969
 4185SOL    HW213455   1.127   4.544   2.985
 4186SOL     OW13456   2.986   4.729   0.220
 4186SOL    HW113457   3.018   4.634   0.218
 4186SOL    HW213458   2.930   4.747   0.139
 4187SOL     OW13459   4.046   3.467   5.309
 4187SOL    HW113460   3.982   3.401   5.269
 4187SOL    HW213461   4.027   3.476   5.407
 4188SOL     OW13462   5.359   0.889   5.310
 4188SOL    HW113463   5.280   0.883   5.372
 4188SOL    HW213464   5.327   0.882   5.216
 4189SOL     OW13465   3.485   4.960   5.427
 4189SOL    HW113466   3.518   4.980   5.519
 4189SOL    HW213467   3.464   4.862   5.420
 4190SOL     OW13468   0.815   0.432   0.523
 4190SOL    HW113469   0.732   0.486   0.516
 4190SOL    HW213470   0.796   0.346   0.571
 4191SOL     OW13471   4.923   4.369   3.502
 4191SOL    HW113472   4.967   4.438   3.560
 4191SOL    HW213473   4.827   4.393   3.489
 4192SOL     OW13474   0.819   0.832   4.279
 4192SOL    HW113475   0.722   0.839   4.258
 4192SOL    HW213476   0.873   0.870   4.204
 4193SOL     OW13477   0.121   1.391   1.579
 4193SOL    HW113478   0.099   1.409   1.675
 4193SOL    HW213479   0.198   1.327   1.574
 4194SOL     OW13480   6.004   0.278   4.227
 4194SOL    HW113481   6.059   0.217   4.170
 4194SOL    HW213482   6.061   0.352   4.263
 4195SOL     OW13483   3.810   6.634   1.454
 4195SOL    HW113484   3.845   6.717   1.497
 4195SOL    HW213485   3.763   6.578   1.522
 4196SOL     OW13486   6.164   1.978   2.821
 4196SOL    HW113487   6.108   2.012   2.896
 4196SOL    HW213488   6.108   1.925   2.759
 4197SOL     OW13489   4.696   5.488   5.666
 4197SOL    HW113490   4.706   5.494   5.765
 4197SOL    HW213491   4.631   5.416   5.643
 4198SOL     OW13492   5.651   2.182   0.063
 4198SOL    HW113493   5.626   2.239   0.141
 4198SOL    HW213494   5.743   2.147   0.076
 4199SOL     OW13495   1.867   2.761   6.306
 4199SOL    HW113496   1.812   2.843   6.325
 4199SOL    HW213497   1.893   2.718   6.392
 4200SOL     OW13498   3.711   0.461   5.820
 4200SOL    HW113499   3.685   0.456   5.916
 4200SOL    HW213500   3.707   0.556   5.789
 4201SOL     OW13501   6.294   6.972   3.626
 4201SOL    HW113502   6.265   0.001   3.707
 4201SOL    HW213503   6.381   7.010   3.592
 4202SOL     OW13504   3.646   5.766   5.094
 4202SOL    HW113505   3.637   5.852   5.044
 4202SOL    HW213506   3.738   5.729   5.082
 4203SOL     OW13507   3.995   4.861   0.207
 4203SOL    HW113508   3.935   4.841   0.285
 4203SOL    HW213509   4.003   4.960   0.196
 4204SOL     OW13510   3.427   3.809   2.875
 4204SOL    HW113511   3.457   3.897   2.911
 4204SOL    HW213512   3.498   3.740   2.891
 4205SOL     OW13513   4.035   5.708   3.345
 4205SOL    HW113514   4.101   5.636   3.325
 4205SOL    HW213515   3.971   5.717   3.268
 4206SOL     OW13516   6.816   0.506   5.860
 4206SOL    HW113517   6.828   0.604   5.843
 4206SOL    HW213518   6.824   0.488   5.958
 4207SOL     OW13519   2.233   1.815   1.255
 4207SOL    HW113520   2.155   1.865   1.293
 4207SOL    HW213521   2.280   1.873   1.189
 4208SOL     OW13522   6.949   2.833   5.697
 4208SOL    HW113523   6.972   2.860   5.603
 4208SOL    HW213524   6.853   2.807   5.702
 4209SOL     OW13525   6.993   0.077   4.197
 4209SOL    HW113526   0.009   7.007   4.188
 4209SOL    HW213527   6.908   0.084   4.145
 4210SOL     OW13528   3.457   3.444   2.340
 4210SOL    HW113529   3.365   3.437   2.302
 4210SOL    HW213530   3.465   3.527   2.395
 4211SOL     OW13531   4.657   6.237   6.461
 4211SOL    HW113532   4.672   6.332   6.487
 4211SOL    HW213533   4.593   6.194   6.524
 4212SOL     OW13534   6.068   1.761   2.697
 4212SOL    HW113535   6.132   1.684   2.697
 4212SOL    HW213536   5.979   1.731   2.733
 4213SOL     OW13537   1.870   0.888   1.378
 4213SOL    HW113538   1.910   0.883   1.286
 4213SOL    HW213539   1.941   0.911   1.444
 4214SOL     OW13540   0.989   5.090   5.261
 4214SOL    HW113541   0.926   5.012   5.271
 4214SOL    HW213542   0.986   5.124   5.167
 4215SOL     OW13543   5.648   6.966   6.005
 4215SOL    HW113544   5.608   6.910   5.933
 4215SOL    HW213545   5.661   6.911   6.087
 4216SOL     OW13546   1.191   1.484   2.618
 4216SOL    HW113547   1.198   1.555   2.689
 4216SOL    HW213548   1.094   1.463   2.603
 4217SOL     OW13549   0.911   0.339   2.272
 4217SOL    HW113550   0.812   0.335   2.260
 4217SOL    HW213551   0.951   0.399   2.202
 4218SOL     OW13552   4.331   0.817   1.370
 4218SOL    HW113553   4.340   0.729   1.322
 4218SOL    HW213554   4.412   0.832   1.427
 4219SOL     OW13555   3.524   5.644   3.920
 4219SOL    HW113556   3.481   5.599   3.998
 4219SOL    HW213557   3.493   5.601   3.835
 4220SOL     OW13558   6.203   2.529   4.037
 4220SOL    HW113559   6.136   2.507   4.108
 4220SOL    HW213560   6.189   2.470   3.957
 4221SOL     OW13561   5.743   4.755   6.725
 4221SOL    HW113562   5.670   4.822   6.712
 4221SOL    HW213563   5.748   4.695   6.645
 4222SOL     OW13564   6.365   2.268   2.936
 4222SOL    HW113565   6.377   2.214   3.019
 4222SOL    HW213566   6.408   2.220   2.859
 4223SOL     OW13567   4.122   3.027   6.200
 4223SOL    HW113568   4.100   3.123   6.215
 4223SOL    HW213569   4.065   2.970   6.258
 4224SOL     OW13570   5.158   3.817   4.037
 4224SOL    HW113571   5.191   3.774   4.121
 4224SOL    HW213572   5.115   3.905   4.060
 4225SOL     OW13573   4.011   1.178   5.589
 4225SOL    HW113574   3.994   1.084   5.618
 4225SOL    HW213575   4.104   1.186   5.554
 4226SOL     OW13576   1.094   0.745   2.318
 4226SOL    HW113577   1.097   0.680   2.394
 4226SOL    HW213578   1.084   0.838   2.353
 4227SOL     OW13579   3.658   4.714   1.226
 4227SOL    HW113580   3.703   4.687   1.311
 4227SOL    HW213581   3.584   4.651   1.205
 4228SOL     OW13582   0.627   4.365   5.084
 4228SOL    HW113583   0.563   4.291   5.102
 4228SOL    HW213584   0.719   4.328   5.073
 4229SOL     OW13585   5.020   5.469   5.634
 4229SOL    HW113586   4.960   5.447   5.557
 4229SOL    HW213587   4.965   5.484   5.716
 4230SOL     OW13588   1.679   6.421   3.127
 4230SOL    HW113589   1.639   6.461   3.209
 4230SOL    HW213590   1.777   6.439   3.125
 4231SOL     OW13591   5.704   6.699   5.776
 4231SOL    HW113592   5.784   6.759   5.768
 4231SOL    HW213593   5.621   6.750   5.754
 4232SOL     OW13594   6.924   4.834   2.440
 4232SOL    HW113595   6.980   4.753   2.425
 4232SOL    HW213596   6.931   4.864   2.535
 4233SOL     OW13597   0.126   0.854   6.269
 4233SOL    HW113598   0.225   0.870   6.262
 4233SOL    HW213599   0.107   0.802   6.352
 4234SOL     OW13600   2.483   6.677   5.451
 4234SOL    HW113601   2.451   6.769   5.475
 4234SOL    HW213602   2.561   6.684   5.388
 4235SOL     OW13603   5.700   3.943   5.727
 4235SOL    HW113604   5.790   3.902   5.709
 4235SOL    HW213605   5.711   4.040   5.748
 4236SOL     OW13606   6.188   3.728   2.792
 4236SOL    HW113607   6.143   3.701   2.876
 4236SOL    HW213608   6.145   3.811   2.756
 4237SOL     OW13609   5.335   5.520   2.238
 4237SOL    HW113610   5.394   5.595   2.209
 4237SOL    HW213611   5.383   5.463   2.305
 4238SOL     OW13612   2.929   5.348   2.900
 4238SOL    HW113613   3.001   5.367   2.967
 4238SOL    HW213614   2.882   5.264   2.925
 4239SOL     OW13615   5.600   1.517   3.174
 4239SOL    HW113616   5.565   1.581   3.105
 4239SOL    HW213617   5.636   1.436   3.129
 4240SOL     OW13618   2.155   6.521   6.800
 4240SOL    HW113619   2.141   6.607   6.750
 4240SOL    HW213620   2.095   6.519   6.880
 4241SOL     OW13621   6.206   1.388   0.565
 4241SOL    HW113622   6.157   1.378   0.478
 4241SOL    HW213623   6.268   1.466   0.559
 4242SOL     OW13624   2.647   0.851   3.712
 4242SOL    HW113625   2.693   0.848   3.623
 4242SOL    HW213626   2.651   0.760   3.755
 4243SOL     OW13627   6.682   3.021   3.304
 4243SOL    HW113628   6.742   3.092   3.265
 4243SOL    HW213629   6.631   2.978   3.230
 4244SOL     OW13630   4.304   4.239   1.263
 4244SOL    HW113631   4.224   4.184   1.238
 4244SOL    HW213632   4.282   4.295   1.343
 4245SOL     OW13633   0.276   1.295   6.063
 4245SOL    HW113634   0.182   1.328   6.057
 4245SOL    HW213635   0.328   1.329   5.984
 4246SOL     OW13636   6.886   3.976   3.119
 4246SOL    HW113637   6.970   3.959   3.068
 4246SOL    HW213638   6.905   3.969   3.217
 4247SOL     OW13639   2.821   4.739   3.254
 4247SOL    HW113640   2.813   4.751   3.155
 4247SOL    HW213641   2.737   4.699   3.290
 4248SOL     OW13642   2.298   1.877   3.901
 4248SOL    HW113643   2.383   1.848   3.857
 4248SOL    HW213644   2.316   1.955   3.961
 4249SOL     OW13645   5.446   2.468   3.777
 4249SOL    HW113646   5.506   2.389   3.789
 4249SOL    HW213647   5.357   2.436   3.743
 4250SOL     OW13648   6.913   5.547   3.115
 4250SOL    HW113649   6.945   5.602   3.192
 4250SOL    HW213650   6.964   5.460   3.113
 4251SOL     OW13651   5.617   4.289   1.507
 4251SOL    HW113652   5.533   4.330   1.541
 4251SOL    HW213653   5.650   4.221   1.573
 4252SOL     OW13654   5.887   0.234   6.474
 4252SOL    HW113655   5.822   0.178   6.525
 4252SOL    HW213656   5.939   0.177   6.411
 4253SOL     OW13657   3.323   0.032   1.280
 4253SOL    HW113658   3.326   0.104   1.210
 4253SOL    HW213659   3.286   6.970   1.240
 4254SOL     OW13660   0.997   3.679   1.969
 4254SOL    HW113661   1.090   3.689   2.003
 4254SOL    HW213662   0.933   3.676   2.047
 4255SOL     OW13663   0.250   4.279   4.268
 4255SOL    HW113664   0.176   4.211   4.270
 4255SOL    HW213665   0.333   4.237   4.230
 4256SOL     OW13666   1.970   6.139   0.717
 4256SOL    HW113667   1.877   6.147   0.754
 4256SOL    HW213668   2.036   6.137   0.791
 4257SOL     OW13669   2.733   0.599   4.217
 4257SOL    HW113670   2.777   0.689   4.223
 4257SOL    HW213671   2.654   0.596   4.278
 4258SOL     OW13672   3.812   6.069   0.849
 4258SOL    HW113673   3.830   6.116   0.935
 4258SOL    HW213674   3.726   6.102   0.810
 4259SOL     OW13675   2.456   0.818   1.119
 4259SOL    HW113676   2.446   0.855   1.027
 4259SOL    HW213677   2.552   0.827   1.148
 4260SOL     OW13678   5.631   0.585   1.385
 4260SOL    HW113679   5.563   0.526   1.342
 4260SOL    HW213680   5.656   0.548   1.474
 4261SOL     OW13681   2.317   0.114   2.777
 4261SOL    HW113682   2.361   0.184   2.721
 4261SOL    HW213683   2.241   0.073   2.726
 4262SOL     OW13684   0.630   4.378   6.425
 4262SOL    HW113685   0.596   4.437   6.351
 4262SOL    HW213686   0.555   4.352   6.485
 4263SOL     OW13687   3.008   0.621   3.084
 4263SOL    HW113688   3.013   0.627   2.985
 4263SOL    HW213689   2.916   0.645   3.114
 4264SOL     OW13690   6.258   1.694   3.032
 4264SOL    HW113691   6.252   1.628   3.108
 4264SOL    HW213692   6.168   1.733   3.015
 4265SOL     OW13693   4.268   1.335   1.046
 4265SOL    HW113694   4.246   1.347   0.949
 4265SOL    HW213695   4.195   1.373   1.102
 4266SOL     OW13696   1.843   5.374   6.416
 4266SOL    HW113697   1.884   5.465   6.427
 4266SOL    HW213698   1.851   5.345   6.321
 4267SOL     OW13699   2.170   3.806   3.823
 4267SOL    HW113700   2.145   3.805   3.727
 4267SOL    HW213701   2.202   3.897   3.849
 4268SOL     OW13702   0.874   5.781   6.296
 4268SOL    HW113703   0.970   5.808   6.283
 4268SOL    HW213704   0.835   5.755   6.208
 4269SOL     OW13705   2.742   0.689   2.554
 4269SOL    HW113706   2.747   0.701   2.455
 4269SOL    HW213707   2.758   0.777   2.599
 4270SOL     OW13708   3.757   3.734   3.235
 4270SOL    HW113709   3.783   3.743   3.139
 4270SOL    HW213710   3.657   3.729   3.243
 4271SOL     OW13711   6.714   1.192   0.018
 4271SOL    HW113712   6.718   1.264   0.088
 4271SOL    HW213713   6.783   1.211   6.970
 4272SOL     OW13714   6.753   2.446   4.161
 4272SOL    HW113715   6.848   2.466   4.137
 4272SOL    HW213716   6.715   2.522   4.214
 4273SOL     OW13717   4.825   6.847   4.885
 4273SOL    HW113718   4.878   6.781   4.939
 4273SOL    HW213719   4.846   6.940   4.917
 4274SOL     OW13720   0.766   6.746   1.631
 4274SOL    HW113721   0.762   6.758   1.730
 4274SOL    HW213722   0.861   6.754   1.601
 4275SOL     OW13723   6.875   2.225   4.457
 4275SOL    HW113724   6.790   2.262   4.494
 4275SOL    HW213725   6.953   2.270   4.501
 4276SOL     OW13726   1.858   5.741   3.893
 4276SOL    HW113727   1.764   5.710   3.901
 4276SOL    HW213728   1.884   5.746   3.796
 4277SOL     OW13729   6.319   4.757   3.235
 4277SOL    HW113730   6.370   4.693   3.177
 4277SOL    HW213731   6.383   4.811   3.290
 4278SOL     OW13732   6.923   6.896   5.495
 4278SOL    HW113733   6.910   6.962   5.570
 4278SOL    HW213734   7.020   6.893   5.471
 4279SOL     OW13735   3.713   0.893   4.059
 4279SOL    HW113736   3.654   0.877   4.138
 4279SOL    HW213737   3.714   0.812   4.001
 4280SOL     OW13738   5.026   0.704   6.060
 4280SOL    HW113739   5.036   0.724   5.963
 4280SOL    HW213740   5.064   0.613   6.080
 4281SOL     OW13741   0.091   4.219   3.072
 4281SOL    HW113742   0.108   4.145   3.138
 4281SOL    HW213743   0.177   4.262   3.047
 4282SOL     OW13744   3.407   4.007   5.887
 4282SOL    HW113745   3.501   4.003   5.921
 4282SOL    HW213746   3.360   4.087   5.925
 4283SOL     OW13747   1.432   0.634   3.291
 4283SOL    HW113748   1.521   0.633   3.338
 4283SOL    HW213749   1.411   0.542   3.259
 4284SOL     OW13750   4.152   4.824   1.205
 4284SOL    HW113751   4.158   4.758   1.130
 4284SOL    HW213752   4.075   4.885   1.189
 4285SOL     OW13753   1.753   0.652   5.614
 4285SOL    HW113754   1.782   0.700   5.697
 4285SOL    HW213755   1.713   0.717   5.549
 4286SOL     OW13756   5.093   6.985   5.658
 4286SOL    HW113757   5.175   0.010   5.624
 4286SOL    HW213758   5.013   7.014   5.606
 4287SOL     OW13759   5.808   1.302   5.823
 4287SOL    HW113760   5.730   1.317   5.885
 4287SOL    HW213761   5.835   1.389   5.783
 4288SOL     OW13762   0.292   5.530   3.559
 4288SOL    HW113763   0.217   5.464   3.552
 4288SOL    HW213764   0.379   5.482   3.544
 4289SOL     OW13765   6.902   3.145   6.190
 4289SOL    HW113766   6.931   3.115   6.281
 4289SOL    HW213767   6.809   3.112   6.172
 4290SOL     OW13768   1.114   6.043   3.895
 4290SOL    HW113769   1.177   5.986   3.948
 4290SOL    HW213770   1.164   6.089   3.822
 4291SOL     OW13771   4.785   3.461   0.442
 4291SOL    HW113772   4.836   3.458   0.356
 4291SOL    HW213773   4.695   3.502   0.427
 4292SOL     OW13774   5.639   2.944   0.048
 4292SOL    HW113775   5.588   2.975   6.989
 4292SOL    HW213776   5.576   2.932   0.124
 4293SOL     OW13777   2.519   2.572   0.401
 4293SOL    HW113778   2.461   2.509   0.349
 4293SOL    HW213779   2.588   2.611   0.341
 4294SOL     OW13780   1.991   2.165   6.959
 4294SOL    HW113781   2.012   2.252   7.004
 4294SOL    HW213782   2.076   2.115   6.941
 4295SOL     OW13783   3.977   5.755   5.126
 4295SOL    HW113784   3.956   5.852   5.113
 4295SOL    HW213785   4.001   5.715   5.038
 4296SOL     OW13786   3.106   0.005   1.006
 4296SOL    HW113787   3.065   0.091   0.976
 4296SOL    HW213788   3.138   6.976   0.926
 4297SOL     OW13789   5.030   0.334   6.675
 4297SOL    HW113790   5.104   0.327   6.741
 4297SOL    HW213791   4.966   0.406   6.703
 4298SOL     OW13792   3.736   5.074   0.284
 4298SOL    HW113793   3.697   5.098   0.373
 4298SOL    HW213794   3.818   5.018   0.297
 4299SOL     OW13795   1.515   3.394   6.749
 4299SOL    HW113796   1.603   3.427   6.782
 4299SOL    HW213797   1.529   3.333   6.671
 4300SOL     OW13798   3.052   6.711   0.331
 4300SOL    HW113799   2.993   6.631   0.343
 4300SOL    HW213800   3.142   6.692   0.372
 4301SOL     OW13801   3.844   1.330   1.696
 4301SOL    HW113802   3.757   1.328   1.646
 4301SOL    HW213803   3.826   1.341   1.794
 4302SOL     OW13804   0.818   0.333   6.341
 4302SOL    HW113805   0.809   0.357   6.438
 4302SOL    HW213806   0.743   0.375   6.290
 4303SOL     OW13807   6.914   4.578   3.844
 4303SOL    HW113808   6.837   4.623   3.799
 4303SOL    HW213809   6.897   4.480   3.848
 4304SOL     OW13810   3.119   4.050   2.190
 4304SOL    HW113811   3.196   4.076   2.248
 4304SOL    HW213812   3.061   4.130   2.172
 4305SOL     OW13813   0.145   0.697   5.181
 4305SOL    HW113814   0.050   0.724   5.170
 4305SOL    HW213815   0.150   0.616   5.240
 4306SOL     OW13816   5.129   5.006   5.680
 4306SOL    HW113817   5.178   4.922   5.658
 4306SOL    HW213818   5.162   5.080   5.621
 4307SOL     OW13819   5.488   3.972   6.025
 4307SOL    HW113820   5.396   3.945   5.998
 4307SOL    HW213821   5.521   4.044   5.965
 4308SOL     OW13822   5.892   4.864   1.135
 4308SOL    HW113823   5.828   4.830   1.205
 4308SOL    HW213824   5.909   4.792   1.068
 4309SOL     OW13825   0.980   1.167   7.005
 4309SOL    HW113826   0.912   1.164   0.057
 4309SOL    HW213827   1.043   1.242   7.022
 4310SOL     OW13828   2.177   2.492   1.611
 4310SOL    HW113829   2.228   2.437   1.676
 4310SOL    HW213830   2.130   2.566   1.659
 4311SOL     OW13831   2.055   6.221   2.682
 4311SOL    HW113832   1.996   6.246   2.759
 4311SOL    HW213833   1.998   6.189   2.606
 4312SOL     OW13834   2.161   5.480   1.526
 4312SOL    HW113835   2.214   5.447   1.448
 4312SOL    HW213836   2.206   5.452   1.611
 4313SOL     OW13837   4.727   1.199   1.403
 4313SOL    HW113838   4.741   1.283   1.352
 4313SOL    HW213839   4.629   1.177   1.405
 4314SOL     OW13840   5.939   1.147   4.544
 4314SOL    HW113841   5.861   1.087   4.530
 4314SOL    HW213842   5.957   1.198   4.459
 4315SOL     OW13843   2.486   5.871   2.110
 4315SOL    HW113844   2.430   5.952   2.098
 4315SOL    HW213845   2.577   5.887   2.071
 4316SOL     OW13846   5.519   0.856   2.028
 4316SOL    HW113847   5.614   0.881   2.005
 4316SOL    HW213848   5.503   0.761   2.004
 4317SOL     OW13849   5.131   2.583   4.701
 4317SOL    HW113850   5.105   2.664   4.649
 4317SOL    HW213851   5.220   2.599   4.745
 4318SOL     OW13852   0.598   2.895   4.383
 4318SOL    HW113853   0.517   2.953   4.381
 4318SOL    HW213854   0.604   2.843   4.298
 4319SOL     OW13855   2.032   1.524   0.816
 4319SOL    HW113856   2.130   1.516   0.834
 4319SOL    HW213857   2.002   1.449   0.757
 4320SOL     OW13858   4.908   4.945   0.315
 4320SOL    HW113859   4.946   4.853   0.301
 4320SOL    HW213860   4.935   5.003   0.238
 4321SOL     OW13861   6.996   6.620   5.181
 4321SOL    HW113862   6.945   6.555   5.237
 4321SOL    HW213863   6.935   6.693   5.149
 4322SOL     OW13864   6.407   2.744   6.851
 4322SOL    HW113865   6.465   2.826   6.844
 4322SOL    HW213866   6.351   2.736   6.769
 4323SOL     OW13867   4.552   4.170   0.390
 4323SOL    HW113868   4.567   4.145   0.294
 4323SOL    HW213869   4.615   4.243   0.415
 4324SOL     OW13870   5.886   3.899   6.740
 4324SOL    HW113871   5.856   3.807   6.763
 4324SOL    HW213872   5.975   3.895   6.694
 4325SOL     OW13873   2.176   1.285   1.654
 4325SOL    HW113874   2.085   1.248   1.672
 4325SOL    HW213875   2.238   1.211   1.629
 4326SOL     OW13876   4.613   4.936   3.784
 4326SOL    HW113877   4.552   4.863   3.754
 4326SOL    HW213878   4.671   4.903   3.859
 4327SOL     OW13879   5.830   6.005   1.624
 4327SOL    HW113880   5.896   5.978   1.694
 4327SOL    HW213881   5.740   6.015   1.666
 4328SOL     OW13882   4.586   3.603   5.663
 4328SOL    HW113883   4.533   3.666   5.606
 4328SOL    HW213884   4.568   3.509   5.634
 4329SOL     OW13885   4.647   1.882   5.427
 4329SOL    HW113886   4.637   1.942   5.348
 4329SOL    HW213887   4.560   1.834   5.443
 4330SOL     OW13888   2.211   6.180   4.343
 4330SOL    HW113889   2.190   6.150   4.250
 4330SOL    HW213890   2.182   6.111   4.408
 4331SOL     OW13891   5.803   1.747   1.929
 4331SOL    HW113892   5.860   1.668   1.949
 4331SOL    HW213893   5.735   1.759   2.001
 4332SOL     OW13894   4.968   3.283   2.055
 4332SOL    HW113895   5.014   3.195   2.067
 4332SOL    HW213896   4.902   3.277   1.980
 4333SOL     OW13897   3.893   0.951   5.845
 4333SOL    HW113898   3.900   1.034   5.900
 4333SOL    HW213899   3.823   0.891   5.884
 4334SOL     OW13900   1.986   2.261   2.842
 4334SOL    HW113901   1.920   2.245   2.768
 4334SOL    HW213902   1.941   2.247   2.930
 4335SOL     OW13903   3.447   4.138   2.635
 4335SOL    HW113904   3.361   4.184   2.656
 4335SOL    HW213905   3.464   4.142   2.537
 4336SOL     OW13906   3.340   6.580   5.946
 4336SOL    HW113907   3.351   6.540   6.037
 4336SOL    HW213908   3.420   6.559   5.891
 4337SOL     OW13909   0.636   4.129   0.604
 4337SOL    HW113910   0.729   4.167   0.603
 4337SOL    HW213911   0.580   4.181   0.667
 4338SOL     OW13912   6.257   0.083   5.752
 4338SOL    HW113913   6.294   0.092   5.659
 4338SOL    HW213914   6.173   0.136   5.759
 4339SOL     OW13915   5.072   3.396   5.874
 4339SOL    HW113916   4.982   3.429   5.847
 4339SOL    HW213917   5.097   3.318   5.817
 4340SOL     OW13918   6.066   3.552   1.987
 4340SOL    HW113919   6.159   3.516   1.981
 4340SOL    HW213920   6.016   3.530   1.903
 4341SOL     OW13921   0.631   5.340   1.647
 4341SOL    HW113922   0.566   5.414   1.628
 4341SOL    HW213923   0.715   5.379   1.683
 4342SOL     OW13924   5.359   3.758   3.870
 4342SOL    HW113925   5.306   3.789   3.950
 4342SOL    HW213926   5.453   3.737   3.899
 4343SOL     OW13927   2.615   6.235   5.301
 4343SOL    HW113928   2.557   6.267   5.227
 4343SOL    HW213929   2.568   6.163   5.352
 4344SOL     OW13930   0.165   3.930   2.001
 4344SOL    HW113931   0.137   4.014   1.955
 4344SOL    HW213932   0.119   3.852   1.959
 4345SOL     OW13933   3.498   3.852   4.767
 4345SOL    HW113934   3.530   3.860   4.861
 4345SOL    HW213935   3.466   3.940   4.734
 4346SOL     OW13936   1.792   3.178   2.790
 4346SOL    HW113937   1.889   3.199   2.779
 4346SOL    HW213938   1.752   3.156   2.702
 4347SOL     OW13939   6.395   6.517   2.683
 4347SOL    HW113940   6.480   6.528   2.735
 4347SOL    HW213941   6.417   6.495   2.588
 4348SOL     OW13942   6.958   5.319   3.787
 4348SOL    HW113943   6.881   5.329   3.850
 4348SOL    HW213944   6.928   5.269   3.705
 4349SOL     OW13945   5.516   1.648   2.938
 4349SOL    HW113946   5.502   1.584   2.863
 4349SOL    HW213947   5.488   1.740   2.910
 4350SOL     OW13948   3.123   1.941   3.726
 4350SOL    HW113949   3.189   1.992   3.781
 4350SOL    HW213950   3.101   1.854   3.771
 4351SOL     OW13951   1.813   5.442   0.689
 4351SOL    HW113952   1.800   5.539   0.670
 4351SOL    HW213953   1.750   5.389   0.631
 4352SOL     OW13954   6.442   3.887   2.342
 4352SOL    HW113955   6.523   3.909   2.397
 4352SOL    HW213956   6.420   3.790   2.352
 4353SOL     OW13957   4.293   2.903   6.759
 4353SOL    HW113958   4.243   2.899   6.672
 4353SOL    HW213959   4.364   2.832   6.759
 4354SOL     OW13960   2.247   0.742   5.715
 4354SOL    HW113961   2.163   0.794   5.733
 4354SOL    HW213962   2.326   0.794   5.748
 4355SOL     OW13963   2.317   6.780   2.542
 4355SOL    HW113964   2.313   6.691   2.498
 4355SOL    HW213965   2.363   6.772   2.631
 4356SOL     OW13966   4.921   3.948   0.371
 4356SOL    HW113967   4.892   3.971   0.279
 4356SOL    HW213968   5.000   3.888   0.367
 4357SOL     OW13969   6.340   1.279   1.251
 4357SOL    HW113970   6.431   1.294   1.213
 4357SOL    HW213971   6.305   1.191   1.221
 4358SOL     OW13972   0.056   0.749   0.584
 4358SOL    HW113973   0.008   0.689   0.648
 4358SOL    HW213974   0.112   0.814   0.635
 4359SOL     OW13975   1.901   1.840   6.064
 4359SOL    HW113976   1.874   1.898   5.988
 4359SOL    HW213977   1.876   1.884   6.150
 4360SOL     OW13978   1.320   3.289   3.484
 4360SOL    HW113979   1.378   3.208   3.494
 4360SOL    HW213980   1.297   3.325   3.575
 4361SOL     OW13981   2.386   3.535   1.456
 4361SOL    HW113982   2.426   3.506   1.544
 4361SOL    HW213983   2.446   3.604   1.415
 4362SOL     OW13984   6.394   5.203   3.404
 4362SOL    HW113985   6.326   5.162   3.343
 4362SOL    HW213986   6.352   5.225   3.492
 4363SOL     OW13987   5.946   2.181   1.131
 4363SOL    HW113988   6.020   2.114   1.130
 4363SOL    HW213989   5.858   2.133   1.132
 4364SOL     OW13990   2.974   3.698   4.139
 4364SOL    HW113991   2.936   3.681   4.048
 4364SOL    HW213992   2.976   3.613   4.190
 4365SOL     OW13993   2.914   0.672   2.083
 4365SOL    HW113994   2.940   0.749   2.025
 4365SOL    HW213995   2.923   0.698   2.180
 4366SOL     OW13996   5.588   0.499   0.429
 4366SOL    HW113997   5.653   0.428   0.456
 4366SOL    HW213998   5.637   0.577   0.390
 4367SOL     OW13999   2.260   4.273   4.652
 4367SOL    HW114000   2.350   4.295   4.690
 4367SOL    HW214001   2.267   4.188   4.599
 4368SOL     OW14002   3.441   5.033   0.010
 4368SOL    HW114003   3.366   5.045   0.075
 4368SOL    HW214004   3.511   4.975   0.051
 4369SOL     OW14005   4.699   5.681   2.824
 4369SOL    HW114006   4.751   5.657   2.742
 4369SOL    HW214007   4.608   5.639   2.819
 4370SOL     OW14008   3.841   5.144   1.714
 4370SOL    HW114009   3.762   5.207   1.712
 4370SOL    HW214010   3.914   5.182   1.658
 4371SOL     OW14011   1.020   2.278   2.369
 4371SOL    HW114012   1.094   2.306   2.307
 4371SOL    HW214013   1.059   2.243   2.454
 4372SOL     OW14014   2.638   2.073   2.711
 4372SOL    HW114015   2.609   2.014   2.787
 4372SOL    HW214016   2.591   2.161   2.717
 4373SOL     OW14017   5.443   1.822   0.371
 4373SOL    HW114018   5.352   1.795   0.403
 4373SOL    HW214019   5.487   1.745   0.325
 4374SOL     OW14020   0.852   1.996   0.676
 4374SOL    HW114021   0.790   2.033   0.744
 4374SOL    HW214022   0.799   1.953   0.602
 4375SOL     OW14023   4.394   6.804   3.345
 4375SOL    HW114024   4.319   6.826   3.407
 4375SOL    HW214025   4.357   6.774   3.257
 4376SOL     OW14026   6.654   6.671   2.740
 4376SOL    HW114027   6.600   6.729   2.680
 4376SOL    HW214028   6.711   6.609   2.685
 4377SOL     OW14029   5.643   4.870   0.252
 4377SOL    HW114030   5.664   4.965   0.228
 4377SOL    HW214031   5.560   4.842   0.203
 4378SOL     OW14032   2.256   2.523   2.322
 4378SOL    HW114033   2.328   2.525   2.252
 4378SOL    HW214034   2.237   2.617   2.352
 4379SOL     OW14035   2.198   2.398   2.663
 4379SOL    HW114036   2.109   2.429   2.630
 4379SOL    HW214037   2.189   2.307   2.703
 4380SOL     OW14038   1.225   0.078   3.030
 4380SOL    HW114039   1.224   0.028   2.943
 4380SOL    HW214040   1.216   0.176   3.012
 4381SOL     OW14041   1.695   3.799   5.407
 4381SOL    HW114042   1.766   3.866   5.390
 4381SOL    HW214043   1.731   3.707   5.393
 4382SOL     OW14044   6.058   3.591   5.854
 4382SOL    HW114045   6.051   3.579   5.953
 4382SOL    HW214046   6.117   3.520   5.816
 4383SOL     OW14047   0.838   2.384   5.912
 4383SOL    HW114048   0.830   2.403   6.010
 4383SOL    HW214049   0.908   2.314   5.898
 4384SOL     OW14050   6.742   1.930   5.662
 4384SOL    HW114051   6.660   1.960   5.612
 4384SOL    HW214052   6.732   1.834   5.686
 4385SOL     OW14053   6.129   3.118   5.334
 4385SOL    HW114054   6.115   3.151   5.428
 4385SOL    HW214055   6.169   3.026   5.337
 4386SOL     OW14056   2.235   3.372   6.937
 4386SOL    HW114057   2.310   3.359   7.002
 4386SOL    HW214058   2.273   3.383   6.845
 4387SOL     OW14059   6.896   1.583   1.341
 4387SOL    HW114060   6.925   1.628   1.257
 4387SOL    HW214061   6.917   1.485   1.336
 4388SOL     OW14062   5.325   1.868   6.305
 4388SOL    HW114063   5.386   1.793   6.279
 4388SOL    HW214064   5.315   1.931   6.228
 4389SOL     OW14065   0.100   3.496   1.033
 4389SOL    HW114066   0.117   3.454   0.944
 4389SOL    HW214067   0.171   3.563   1.053
 4390SOL     OW14068   3.770   1.255   1.321
 4390SOL    HW114069   3.832   1.184   1.354
 4390SOL    HW214070   3.735   1.230   1.231
 4391SOL     OW14071   2.094   6.170   0.066
 4391SOL    HW114072   2.023   6.118   0.018
 4391SOL    HW214073   2.168   6.191   0.003
 4392SOL     OW14074   6.946   3.286   5.204
 4392SOL    HW114075   6.869   3.348   5.215
 4392SOL    HW214076   6.915   3.201   5.160
 4393SOL     OW14077   6.277   0.066   2.440
 4393SOL    HW114078   6.295   0.021   2.528
 4393SOL    HW214079   6.299   0.163   2.447
 4394SOL     OW14080   5.966   6.138   2.304
 4394SOL    HW114081   5.983   6.234   2.327
 4394SOL    HW214082   6.044   6.083   2.334
 4395SOL     OW14083   3.007   6.442   1.773
 4395SOL    HW114084   3.038   6.446   1.678
 4395SOL    HW214085   3.061   6.505   1.828
 4396SOL     OW14086   2.087   2.164   3.941
 4396SOL    HW114087   2.137   2.080   3.961
 4396SOL    HW214088   2.073   2.217   4.025
 4397SOL     OW14089   0.586   1.180   4.592
 4397SOL    HW114090   0.561   1.166   4.688
 4397SOL    HW214091   0.618   1.094   4.553
 4398SOL     OW14092   0.712   4.116   5.734
 4398SOL    HW114093   0.684   4.200   5.782
 4398SOL    HW214094   0.655   4.105   5.653
 4399SOL     OW14095   2.037   0.686   1.785
 4399SOL    HW114096   2.009   0.759   1.847
 4399SOL    HW214097   1.957   0.629   1.763
 4400SOL     OW14098   3.471   6.673   5.591
 4400SOL    HW114099   3.494   6.582   5.558
 4400SOL    HW214100   3.522   6.693   5.674
 4401SOL     OW14101   4.324   0.044   6.493
 4401SOL    HW114102   4.253   0.070   6.558
 4401SOL    HW214103   4.373   0.125   6.462
 4402SOL     OW14104   2.776   0.225   1.861
 4402SOL    HW114105   2.777   0.255   1.956
 4402SOL    HW214106   2.720   0.288   1.807
 4403SOL     OW14107   1.094   7.007   2.772
 4403SOL    HW114108   0.999   7.014   2.799
 4403SOL    HW214109   1.100   6.978   2.676
 4404SOL     OW14110   0.655   4.924   5.999
 4404SOL    HW114111   0.556   4.916   5.990
 4404SOL    HW214112   0.698   4.926   5.908
 4405SOL     OW14113   1.826   4.384   1.105
 4405SOL    HW114114   1.867   4.471   1.075
 4405SOL    HW214115   1.897   4.314   1.111
 4406SOL     OW14116   0.098   3.651   0.634
 4406SOL    HW114117   0.090   3.650   0.535
 4406SOL    HW214118   0.016   3.691   0.674
 4407SOL     OW14119   6.409   4.784   0.592
 4407SOL    HW114120   6.346   4.749   0.660
 4407SOL    HW214121   6.374   4.765   0.500
 4408SOL     OW14122   3.576   1.085   1.491
 4408SOL    HW114123   3.572   1.123   1.399
 4408SOL    HW214124   3.533   0.995   1.492
 4409SOL     OW14125   4.967   0.721   2.481
 4409SOL    HW114126   5.052   0.736   2.532
 4409SOL    HW214127   4.947   0.801   2.425
 4410SOL     OW14128   1.210   5.057   6.600
 4410SOL    HW114129   1.227   5.035   6.696
 4410SOL    HW214130   1.197   5.156   6.590
 4411SOL     OW14131   4.046   3.853   4.292
 4411SOL    HW114132   4.065   3.767   4.339
 4411SOL    HW214133   4.049   3.837   4.193
 4412SOL     OW14134   4.202   6.567   4.933
 4412SOL    HW114135   4.284   6.527   4.892
 4412SOL    HW214136   4.123   6.547   4.875
 4413SOL     OW14137   6.479   5.205   3.941
 4413SOL    HW114138   6.413   5.165   3.877
 4413SOL    HW214139   6.514   5.135   4.003
 4414SOL     OW14140   3.446   4.521   1.177
 4414SOL    HW114141   3.490   4.433   1.196
 4414SOL    HW214142   3.399   4.552   1.259
 4415SOL     OW14143   3.876   3.007   0.240
 4415SOL    HW114144   3.826   2.973   0.321
 4415SOL    HW214145   3.900   2.929   0.182
 4416SOL     OW14146   3.013   0.620   3.847
 4416SOL    HW114147   3.061   0.606   3.760
 4416SOL    HW214148   3.050   0.701   3.892
 4417SOL     OW14149   5.724   4.208   3.379
 4417SOL    HW114150   5.725   4.237   3.283
 4417SOL    HW214151   5.641   4.243   3.423
 4418SOL     OW14152   5.857   1.909   2.277
 4418SOL    HW114153   5.897   1.941   2.191
 4418SOL    HW214154   5.930   1.875   2.337
 4419SOL     OW14155   5.818   6.316   6.315
 4419SOL    HW114156   5.914   6.344   6.310
 4419SOL    HW214157   5.788   6.284   6.225
 4420SOL     OW14158   5.445   1.110   2.035
 4420SOL    HW114159   5.463   1.012   2.027
 4420SOL    HW214160   5.380   1.138   1.965
 4421SOL     OW14161   2.180   0.911   4.887
 4421SOL    HW114162   2.086   0.888   4.910
 4421SOL    HW214163   2.183   1.000   4.842
 4422SOL     OW14164   2.338   3.860   6.789
 4422SOL    HW114165   2.251   3.898   6.819
 4422SOL    HW214166   2.409   3.880   6.857
 4423SOL     OW14167   0.183   2.814   5.838
 4423SOL    HW114168   0.100   2.789   5.790
 4423SOL    HW214169   0.168   2.899   5.890
 4424SOL     OW14170   5.785   0.910   4.668
 4424SOL    HW114171   5.853   0.837   4.668
 4424SOL    HW214172   5.776   0.949   4.759
 4425SOL     OW14173   3.091   4.517   0.617
 4425SOL    HW114174   3.018   4.503   0.684
 4425SOL    HW214175   3.091   4.612   0.586
 4426SOL     OW14176   6.940   1.337   3.902
 4426SOL    HW114177   6.988   1.381   3.977
 4426SOL    HW214178   6.905   1.406   3.839
 4427SOL     OW14179   0.241   6.708   2.673
 4427SOL    HW114180   0.177   6.726   2.747
 4427SOL    HW214181   0.219   6.767   2.595
 4428SOL     OW14182   3.376   6.871   2.350
 4428SOL    HW114183   3.441   6.938   2.384
 4428SOL    HW214184   3.347   6.897   2.258
 4429SOL     OW14185   2.223   5.998   2.548
 4429SOL    HW114186   2.279   5.915   2.553
 4429SOL    HW214187   2.274   6.075   2.587
 4430SOL     OW14188   4.858   4.109   4.773
 4430SOL    HW114189   4.907   4.196   4.781
 4430SOL    HW214190   4.848   4.066   4.863
 4431SOL     OW14191   2.264   1.270   1.925
 4431SOL    HW114192   2.251   1.273   1.826
 4431SOL    HW214193   2.321   1.192   1.950
 4432SOL     OW14194   2.841   3.861   5.653
 4432SOL    HW114195   2.895   3.795   5.705
 4432SOL    HW214196   2.749   3.826   5.640
 4433SOL     OW14197   4.713   1.822   4.741
 4433SOL    HW114198   4.661   1.739   4.721
 4433SOL    HW214199   4.800   1.818   4.692
 4434SOL     OW14200   5.228   1.601   3.859
 4434SOL    HW114201   5.190   1.558   3.941
 4434SOL    HW214202   5.163   1.589   3.783
 4435SOL     OW14203   4.854   3.419   1.490
 4435SOL    HW114204   4.811   3.441   1.402
 4435SOL    HW214205   4.911   3.496   1.519
 4436SOL     OW14206   4.559   0.892   0.790
 4436SOL    HW114207   4.654   0.869   0.769
 4436SOL    HW214208   4.551   0.911   0.888
 4437SOL     OW14209   6.017   2.081   3.030
 4437SOL    HW114210   5.996   2.078   3.127
 4437SOL    HW214211   5.959   2.149   2.986
 4438SOL     OW14212   5.347   0.606   0.146
 4438SOL    HW114213   5.347   0.633   0.242
 4438SOL    HW214214   5.263   0.640   0.102
 4439SOL     OW14215   0.408   4.620   1.879
 4439SOL    HW114216   0.348   4.685   1.833
 4439SOL    HW214217   0.358   4.534   1.895
 4440SOL     OW14218   2.637   5.025   0.480
 4440SOL    HW114219   2.548   5.062   0.454
 4440SOL    HW214220   2.683   5.090   0.541
 4441SOL     OW14221   6.816   1.646   2.552
 4441SOL    HW114222   6.742   1.588   2.587
 4441SOL    HW214223   6.904   1.611   2.584
 4442SOL     OW14224   2.314   5.473   4.262
 4442SOL    HW114225   2.399   5.488   4.211
 4442SOL    HW214226   2.242   5.530   4.223
 4443SOL     OW14227   0.630   3.009   0.234
 4443SOL    HW114228   0.682   3.094   0.247
 4443SOL    HW214229   0.582   3.012   0.146
 4444SOL     OW14230   3.091   4.561   5.421
 4444SOL    HW114231   3.060   4.567   5.326
 4444SOL    HW214232   3.011   4.557   5.481
 4445SOL     OW14233   1.086   6.617   0.731
 4445SOL    HW114234   1.074   6.519   0.713
 4445SOL    HW214235   1.079   6.668   0.645
 4446SOL     OW14236   5.626   0.403   2.007
 4446SOL    HW114237   5.613   0.339   1.931
 4446SOL    HW214238   5.563   0.481   1.996
 4447SOL     OW14239   5.644   3.780   5.949
 4447SOL    HW114240   5.566   3.839   5.966
 4447SOL    HW214241   5.705   3.823   5.882
 4448SOL     OW14242   2.636   3.957   1.676
 4448SOL    HW114243   2.635   3.974   1.577
 4448SOL    HW214244   2.558   3.900   1.701
 4449SOL     OW14245   5.558   0.444   6.205
 4449SOL    HW114246   5.460   0.466   6.207
 4449SOL    HW214247   5.599   0.466   6.294
 4450SOL     OW14248   3.267   3.490   5.294
 4450SOL    HW114249   3.258   3.408   5.351
 4450SOL    HW214250   3.230   3.569   5.343
 4451SOL     OW14251   6.605   4.884   3.009
 4451SOL    HW114252   6.632   4.929   3.094
 4451SOL    HW214253   6.564   4.796   3.029
 4452SOL     OW14254   5.122   6.264   4.385
 4452SOL    HW114255   5.171   6.308   4.310
 4452SOL    HW214256   5.057   6.198   4.349
 4453SOL     OW14257   0.818   2.617   1.675
 4453SOL    HW114258   0.891   2.550   1.686
 4453SOL    HW214259   0.766   2.624   1.760
 4454SOL     OW14260   1.609   2.132   0.491
 4454SOL    HW114261   1.523   2.100   0.532
 4454SOL    HW214262   1.607   2.115   0.393
 4455SOL     OW14263   4.409   6.723   5.965
 4455SOL    HW114264   4.397   6.822   5.955
 4455SOL    HW214265   4.423   6.700   6.061
 4456SOL     OW14266   3.457   5.782   2.141
 4456SOL    HW114267   3.444   5.803   2.044
 4456SOL    HW214268   3.381   5.820   2.193
 4457SOL     OW14269   4.549   1.187   2.401
 4457SOL    HW114270   4.519   1.139   2.319
 4457SOL    HW214271   4.482   1.258   2.425
 4458SOL     OW14272   1.663   2.822   0.380
 4458SOL    HW114273   1.680   2.895   0.446
 4458SOL    HW214274   1.713   2.740   0.407
 4459SOL     OW14275   3.827   1.038   4.815
 4459SOL    HW114276   3.882   1.016   4.734
 4459SOL    HW214277   3.845   1.133   4.842
 4460SOL     OW14278   2.769   3.117   5.780
 4460SOL    HW114279   2.750   3.211   5.750
 4460SOL    HW214280   2.819   3.119   5.866
 4461SOL     OW14281   1.241   0.188   1.141
 4461SOL    HW114282   1.197   0.271   1.175
 4461SOL    HW214283   1.292   0.208   1.058
 4462SOL     OW14284   5.795   5.329   1.689
 4462SOL    HW114285   5.809   5.345   1.787
 4462SOL    HW214286   5.879   5.352   1.639
 4463SOL     OW14287   5.141   2.002   0.205
 4463SOL    HW114288   5.097   1.965   0.287
 4463SOL    HW214289   5.176   1.927   0.150
 4464SOL     OW14290   6.741   5.811   1.051
 4464SOL    HW114291   6.813   5.803   1.120
 4464SOL    HW214292   6.665   5.865   1.089
 4465SOL     OW14293   2.685   5.440   1.514
 4465SOL    HW114294   2.751   5.442   1.438
 4465SOL    HW214295   2.689   5.351   1.559
 4466SOL     OW14296   1.738   1.443   3.647
 4466SOL    HW114297   1.677   1.380   3.600
 4466SOL    HW214298   1.833   1.416   3.632
 4467SOL     OW14299   1.609   6.315   2.764
 4467SOL    HW114300   1.697   6.333   2.807
 4467SOL    HW214301   1.575   6.398   2.720
 4468SOL     OW14302   1.882   3.580   0.205
 4468SOL    HW114303   1.927   3.664   0.236
 4468SOL    HW214304   1.860   3.523   0.284
 4469SOL     OW14305   3.168   0.514   1.487
 4469SOL    HW114306   3.114   0.433   1.509
 4469SOL    HW214307   3.139   0.590   1.545
 4470SOL     OW14308   6.306   2.408   2.212
 4470SOL    HW114309   6.220   2.373   2.174
 4470SOL    HW214310   6.285   2.472   2.287
 4471SOL     OW14311   1.054   2.224   6.759
 4471SOL    HW114312   1.025   2.128   6.758
 4471SOL    HW214313   1.076   2.253   6.666
 4472SOL     OW14314   1.263   3.450   2.301
 4472SOL    HW114315   1.343   3.440   2.360
 4472SOL    HW214316   1.183   3.413   2.347
 4473SOL     OW14317   6.231   2.843   4.493
 4473SOL    HW114318   6.281   2.869   4.410
 4473SOL    HW214319   6.296   2.828   4.567
 4474SOL     OW14320   2.725   0.741   2.291
 4474SOL    HW114321   2.697   0.678   2.219
 4474SOL    HW214322   2.698   0.834   2.267
 4475SOL     OW14323   1.663   3.937   2.772
 4475SOL    HW114324   1.699   3.845   2.757
 4475SOL    HW214325   1.690   3.968   2.863
 4476SOL     OW14326   4.300   0.454   3.166
 4476SOL    HW114327   4.328   0.374   3.114
 4476SOL    HW214328   4.217   0.493   3.125
 4477SOL     OW14329   1.957   7.011   4.824
 4477SOL    HW114330   1.929   6.918   4.802
 4477SOL    HW214331   1.994   0.033   4.742
 4478SOL     OW14332   4.101   6.729   2.907
 4478SOL    HW114333   4.037   6.801   2.935
 4478SOL    HW214334   4.127   6.742   2.811
 4479SOL     OW14335   0.325   1.407   2.246
 4479SOL    HW114336   0.344   1.453   2.159
 4479SOL    HW214337   0.409   1.364   2.280
 4480SOL     OW14338   1.340   3.841   4.872
 4480SOL    HW114339   1.396   3.880   4.944
 4480SOL    HW214340   1.396   3.782   4.814
 4481SOL     OW14341   3.398   6.021   4.744
 4481SOL    HW114342   3.436   6.110   4.720
 4481SOL    HW214343   3.394   5.963   4.662
 4482SOL     OW14344   1.305   2.815   4.740
 4482SOL    HW114345   1.342   2.731   4.702
 4482SOL    HW214346   1.226   2.793   4.798
 4483SOL     OW14347   5.425   3.053   2.357
 4483SOL    HW114348   5.436   3.052   2.456
 4483SOL    HW214349   5.369   2.975   2.329
 4484SOL     OW14350   2.693   2.598   6.667
 4484SOL    HW114351   2.751   2.656   6.610
 4484SOL    HW214352   2.699   2.503   6.636
 4485SOL     OW14353   5.979   1.939   4.837
 4485SOL    HW114354   5.985   1.866   4.904
 4485SOL    HW214355   5.933   2.018   4.877
 4486SOL     OW14356   5.637   4.759   5.184
 4486SOL    HW114357   5.587   4.735   5.267
 4486SOL    HW214358   5.572   4.768   5.108
 4487SOL     OW14359   2.238   2.817   6.666
 4487SOL    HW114360   2.305   2.745   6.646
 4487SOL    HW214361   2.256   2.896   6.608
 4488SOL     OW14362   0.388   3.539   6.308
 4488SOL    HW114363   0.337   3.454   6.295
 4488SOL    HW214364   0.486   3.521   6.302
 4489SOL     OW14365   5.458   5.154   4.688
 4489SOL    HW114366   5.367   5.194   4.683
 4489SOL    HW214367   5.509   5.196   4.764
 4490SOL     OW14368   6.009   2.731   2.416
 4490SOL    HW114369   6.015   2.632   2.401
 4490SOL    HW214370   5.989   2.748   2.513
 4491SOL     OW14371   6.438   2.488   4.445
 4491SOL    HW114372   6.363   2.521   4.502
 4491SOL    HW214373   6.499   2.431   4.500
 4492SOL     OW14374   5.831   4.645   1.576
 4492SOL    HW114375   5.787   4.575   1.520
 4492SOL    HW214376   5.823   4.621   1.672
 4493SOL     OW14377   4.774   5.236   4.650
 4493SOL    HW114378   4.840   5.183   4.595
 4493SOL    HW214379   4.682   5.210   4.623
 4494SOL     OW14380   0.671   1.129   6.906
 4494SOL    HW114381   0.754   1.125   6.963
 4494SOL    HW214382   0.592   1.100   6.961
 4495SOL     OW14383   3.643   6.551   4.428
 4495SOL    HW114384   3.624   6.606   4.347
 4495SOL    HW214385   3.734   6.511   4.421
 4496SOL     OW14386   5.430   6.182   0.952
 4496SOL    HW114387   5.348   6.125   0.944
 4496SOL    HW214388   5.404   6.272   0.988
 4497SOL     OW14389   4.964   1.632   0.107
 4497SOL    HW114390   5.017   1.716   0.102
 4497SOL    HW214391   4.866   1.654   0.103
 4498SOL     OW14392   0.313   3.769   0.529
 4498SOL    HW114393   0.342   3.710   0.454
 4498SOL    HW214394   0.251   3.719   0.589
 4499SOL     OW14395   6.403   3.809   4.789
 4499SOL    HW114396   6.423   3.849   4.878
 4499SOL    HW214397   6.441   3.717   4.784
 4500SOL     OW14398   3.061   3.113   4.793
 4500SOL    HW114399   3.016   3.194   4.830
 4500SOL    HW214400   3.113   3.068   4.866
 4501SOL     OW14401   0.264   3.280   3.257
 4501SOL    HW114402   0.275   3.379   3.271
 4501SOL    HW214403   0.199   3.265   3.183
 4502SOL     OW14404   0.673   2.782   6.665
 4502SOL    HW114405   0.768   2.803   6.642
 4502SOL    HW214406   0.624   2.866   6.688
 4503SOL     OW14407   3.361   0.026   1.724
 4503SOL    HW114408   3.326   6.955   1.735
 4503SOL    HW214409   3.415   0.051   1.805
 4504SOL     OW14410   6.887   1.251   4.895
 4504SOL    HW114411   6.932   1.225   4.810
 4504SOL    HW214412   6.800   1.295   4.876
 4505SOL     OW14413   5.391   5.384   1.866
 4505SOL    HW114414   5.328   5.411   1.939
 4505SOL    HW214415   5.444   5.463   1.837
 4506SOL     OW14416   4.808   2.830   3.457
 4506SOL    HW114417   4.810   2.849   3.555
 4506SOL    HW214418   4.778   2.736   3.442
 4507SOL     OW14419   5.446   4.376   2.696
 4507SOL    HW114420   5.432   4.352   2.600
 4507SOL    HW214421   5.422   4.472   2.710
 4508SOL     OW14422   1.475   5.298   6.600
 4508SOL    HW114423   1.417   5.336   6.672
 4508SOL    HW214424   1.523   5.372   6.553
 4509SOL     OW14425   4.398   2.351   2.932
 4509SOL    HW114426   4.423   2.335   2.837
 4509SOL    HW214427   4.397   2.449   2.951
 4510SOL     OW14428   3.663   1.630   3.978
 4510SOL    HW114429   3.691   1.563   4.047
 4510SOL    HW214430   3.636   1.715   4.023
 4511SOL     OW14431   6.515   3.493   0.117
 4511SOL    HW114432   6.501   3.591   0.100
 4511SOL    HW214433   6.440   3.441   0.077
 4512SOL     OW14434   2.937   1.553   5.481
 4512SOL    HW114435   2.851   1.556   5.533
 4512SOL    HW214436   3.008   1.601   5.532
 4513SOL     OW14437   6.519   5.347   0.465
 4513SOL    HW114438   6.522   5.365   0.563
 4513SOL    HW214439   6.592   5.397   0.419
 4514SOL     OW14440   3.957   1.648   6.315
 4514SOL    HW114441   4.054   1.637   6.334
 4514SOL    HW214442   3.919   1.719   6.375
 4515SOL     OW14443   0.258   1.821   5.971
 4515SOL    HW114444   0.264   1.722   5.958
 4515SOL    HW214445   0.171   1.854   5.936
 4516SOL     OW14446   1.903   0.074   0.045
 4516SOL    HW114447   1.878   7.004   0.015
 4516SOL    HW214448   1.877   0.140   6.997
 4517SOL     OW14449   4.051   1.075   6.882
 4517SOL    HW114450   4.149   1.069   6.865
 4517SOL    HW214451   4.028   1.165   6.919
 4518SOL     OW14452   6.455   0.435   2.711
 4518SOL    HW114453   6.411   0.497   2.776
 4518SOL    HW214454   6.492   0.355   2.759
 4519SOL     OW14455   6.961   7.013   1.475
 4519SOL    HW114456   6.984   0.010   1.379
 4519SOL    HW214457   6.946   0.077   1.524
 4520SOL     OW14458   4.694   6.431   4.707
 4520SOL    HW114459   4.740   6.375   4.638
 4520SOL    HW214460   4.758   6.497   4.745
 4521SOL     OW14461   6.888   1.945   4.562
 4521SOL    HW114462   6.844   2.035   4.551
 4521SOL    HW214463   6.927   1.939   4.654
 4522SOL     OW14464   5.305   5.865   3.157
 4522SOL    HW114465   5.297   5.789   3.222
 4522SOL    HW214466   5.228   5.927   3.169
 4523SOL     OW14467   0.831   4.450   6.932
 4523SOL    HW114468   0.777   4.443   6.848
 4523SOL    HW214469   0.860   4.545   6.946
 4524SOL     OW14470   6.541   2.602   3.016
 4524SOL    HW114471   6.465   2.618   2.953
 4524SOL    HW214472   6.525   2.518   3.068
 4525SOL     OW14473   5.079   1.596   5.813
 4525SOL    HW114474   5.058   1.693   5.823
 4525SOL    HW214475   5.178   1.582   5.819
 4526SOL     OW14476   6.672   0.289   0.965
 4526SOL    HW114477   6.670   0.313   0.868
 4526SOL    HW214478   6.621   0.205   0.979
 4527SOL     OW14479   5.254   1.121   3.924
 4527SOL    HW114480   5.322   1.057   3.959
 4527SOL    HW214481   5.171   1.114   3.979
 4528SOL     OW14482   4.932   0.825   0.364
 4528SOL    HW114483   4.910   0.752   0.300
 4528SOL    HW214484   4.857   0.837   0.428
 4529SOL     OW14485   2.492   0.470   5.340
 4529SOL    HW114486   2.414   0.533   5.347
 4529SOL    HW214487   2.514   0.433   5.430
 4530SOL     OW14488   2.418   5.443   4.886
 4530SOL    HW114489   2.420   5.348   4.854
 4530SOL    HW214490   2.510   5.483   4.877
 4531SOL     OW14491   0.206   2.631   4.919
 4531SOL    HW114492   0.144   2.708   4.931
 4531SOL    HW214493   0.154   2.550   4.892
 4532SOL     OW14494   6.152   1.175   2.346
 4532SOL    HW114495   6.095   1.105   2.304
 4532SOL    HW214496   6.233   1.189   2.290
 4533SOL     OW14497   1.135   1.711   2.018
 4533SOL    HW114498   1.228   1.690   1.986
 4533SOL    HW214499   1.117   1.664   2.104
 4534SOL     OW14500   4.845   4.196   4.065
 4534SOL    HW114501   4.813   4.153   4.149
 4534SOL    HW214502   4.837   4.296   4.074
 4535SOL     OW14503   3.541   0.872   2.667
 4535SOL    HW114504   3.539   0.961   2.713
 4535SOL    HW214505   3.557   0.886   2.569
 4536SOL     OW14506   3.724   1.519   4.221
 4536SOL    HW114507   3.669   1.508   4.304
 4536SOL    HW214508   3.790   1.444   4.215
 4537SOL     OW14509   3.884   3.583   0.437
 4537SOL    HW114510   3.937   3.665   0.414
 4537SOL    HW214511   3.810   3.573   0.371
 4538SOL     OW14512   1.808   0.212   2.818
 4538SOL    HW114513   1.845   0.173   2.733
 4538SOL    HW214514   1.712   0.237   2.804
 4539SOL     OW14515   3.043   6.730   4.963
 4539SOL    HW114516   2.981   6.704   5.037
 4539SOL    HW214517   3.027   6.826   4.939
 4540SOL     OW14518   2.700   2.813   6.101
 4540SOL    HW114519   2.766   2.748   6.064
 4540SOL    HW214520   2.630   2.832   6.032
 4541SOL     OW14521   6.501   2.240   0.611
 4541SOL    HW114522   6.464   2.190   0.689
 4541SOL    HW214523   6.599   2.222   0.603
 4542SOL     OW14524   6.933   1.678   1.976
 4542SOL    HW114525   6.986   1.692   2.060
 4542SOL    HW214526   6.951   1.754   1.913
 4543SOL     OW14527   4.446   2.183   1.996
 4543SOL    HW114528   4.408   2.093   2.016
 4543SOL    HW214529   4.398   2.224   1.919
 4544SOL     OW14530   3.366   5.906   5.965
 4544SOL    HW114531   3.433   5.905   5.891
 4544SOL    HW214532   3.367   5.817   6.012
 4545SOL     OW14533   5.825   3.640   4.280
 4545SOL    HW114534   5.783   3.605   4.196
 4545SOL    HW214535   5.843   3.565   4.343
 4546SOL     OW14536   1.839   1.118   5.084
 4546SOL    HW114537   1.811   1.185   5.016
 4546SOL    HW214538   1.760   1.092   5.140
 4547SOL     OW14539   5.807   2.378   2.298
 4547SOL    HW114540   5.803   2.404   2.202
 4547SOL    HW214541   5.714   2.370   2.335
 4548SOL     OW14542   1.494   3.223   4.077
 4548SOL    HW114543   1.580   3.271   4.097
 4548SOL    HW214544   1.421   3.259   4.135
 4549SOL     OW14545   6.703   3.752   1.603
 4549SOL    HW114546   6.614   3.772   1.560
 4549SOL    HW214547   6.766   3.716   1.534
 4550SOL     OW14548   1.118   5.026   3.223
 4550SOL    HW114549   1.071   5.112   3.205
 4550SOL    HW214550   1.050   4.955   3.244
 4551SOL     OW14551   6.726   2.946   4.695
 4551SOL    HW114552   6.706   3.030   4.745
 4551SOL    HW214553   6.751   2.874   4.759
 4552SOL     OW14554   6.460   3.327   2.229
 4552SOL    HW114555   6.507   3.327   2.317
 4552SOL    HW214556   6.463   3.235   2.190
 4553SOL     OW14557   3.071   4.825   6.264
 4553SOL    HW114558   3.114   4.904   6.308
 4553SOL    HW214559   3.045   4.848   6.171
 4554SOL     OW14560   6.076   6.997   1.381
 4554SOL    HW114561   6.106   6.983   1.475
 4554SOL    HW214562   6.040   0.068   1.371
 4555SOL     OW14563   2.178   2.684   6.303
 4555SOL    HW114564   2.171   2.743   6.223
 4555SOL    HW214565   2.096   2.627   6.310
 4556SOL     OW14566   5.494   2.804   4.294
 4556SOL    HW114567   5.414   2.758   4.255
 4556SOL    HW214568   5.556   2.831   4.221
 4557SOL     OW14569   5.062   6.513   5.319
 4557SOL    HW114570   5.055   6.578   5.242
 4557SOL    HW214571   5.006   6.545   5.395
 4558SOL     OW14572   0.198   4.582   5.113
 4558SOL    HW114573   0.211   4.553   5.018
 4558SOL    HW214574   0.150   4.670   5.115
 4559SOL     OW14575   0.456   3.903   1.922
 4559SOL    HW114576   0.469   3.844   1.842
 4559SOL    HW214577   0.358   3.917   1.937
 4560SOL     OW14578   5.159   3.915   1.520
 4560SOL    HW114579   5.201   3.989   1.572
 4560SOL    HW214580   5.068   3.943   1.490
 4561SOL     OW14581   2.245   1.770   2.942
 4561SOL    HW114582   2.162   1.802   2.895
 4561SOL    HW214583   2.305   1.725   2.877
 4562SOL     OW14584   2.482   6.298   5.797
 4562SOL    HW114585   2.578   6.327   5.803
 4562SOL    HW214586   2.439   6.304   5.887
 4563SOL     OW14587   7.014   2.718   1.522
 4563SOL    HW114588   6.972   2.684   1.438
 4563SOL    HW214589   6.977   2.808   1.543
 4564SOL     OW14590   6.662   6.271   1.421
 4564SOL    HW114591   6.694   6.193   1.368
 4564SOL    HW214592   6.733   6.300   1.485
 4565SOL     OW14593   0.809   1.260   4.902
 4565SOL    HW114594   0.883   1.201   4.931
 4565SOL    HW214595   0.846   1.345   4.865
 4566SOL     OW14596   6.727   2.904   0.152
 4566SOL    HW114597   6.813   2.902   0.101
 4566SOL    HW214598   6.673   2.984   0.124
 4567SOL     OW14599   6.282   0.939   6.484
 4567SOL    HW114600   6.308   0.937   6.581
 4567SOL    HW214601   6.264   0.846   6.453
 4568SOL     OW14602   2.368   3.557   6.088
 4568SOL    HW114603   2.445   3.592   6.034
 4568SOL    HW214604   2.342   3.625   6.157
 4569SOL     OW14605   1.984   1.728   2.793
 4569SOL    HW114606   1.962   1.781   2.875
 4569SOL    HW214607   1.899   1.700   2.748
 4570SOL     OW14608   0.607   6.490   2.947
 4570SOL    HW114609   0.535   6.542   2.994
 4570SOL    HW214610   0.662   6.552   2.891
 4571SOL     OW14611   4.227   4.224   6.412
 4571SOL    HW114612   4.203   4.136   6.371
 4571SOL    HW214613   4.268   4.208   6.502
 4572SOL     OW14614   2.161   0.774   6.967
 4572SOL    HW114615   2.103   0.791   6.887
 4572SOL    HW214616   2.106   0.778   0.028
 4573SOL     OW14617   6.299   1.001   0.483
 4573SOL    HW114618   6.302   0.972   0.579
 4573SOL    HW214619   6.367   1.073   0.469
 4574SOL     OW14620   5.675   4.183   0.687
 4574SOL    HW114621   5.689   4.269   0.734
 4574SOL    HW214622   5.747   4.169   0.618
 4575SOL     OW14623   5.981   0.831   6.649
 4575SOL    HW114624   5.970   0.905   6.582
 4575SOL    HW214625   5.902   0.770   6.645
 4576SOL     OW14626   2.710   6.475   5.764
 4576SOL    HW114627   2.749   6.510   5.849
 4576SOL    HW214628   2.781   6.472   5.694
 4577SOL     OW14629   1.689   2.290   4.991
 4577SOL    HW114630   1.638   2.250   5.068
 4577SOL    HW214631   1.752   2.222   4.954
 4578SOL     OW14632   0.568   2.867   5.080
 4578SOL    HW114633   0.545   2.965   5.078
 4578SOL    HW214634   0.558   2.832   5.173
 4579SOL     OW14635   3.966   0.687   3.425
 4579SOL    HW114636   3.964   0.613   3.492
 4579SOL    HW214637   3.914   0.765   3.459
 4580SOL     OW14638   5.893   4.764   0.593
 4580SOL    HW114639   5.903   4.862   0.607
 4580SOL    HW214640   5.941   4.737   0.509
 4581SOL     OW14641   2.300   5.178   2.804
 4581SOL    HW114642   2.242   5.206   2.881
 4581SOL    HW214643   2.323   5.258   2.749
 4582SOL     OW14644   5.530   0.218   5.300
 4582SOL    HW114645   5.606   0.242   5.240
 4582SOL    HW214646   5.521   0.119   5.305
 4583SOL     OW14647   2.417   2.571   6.669
 4583SOL    HW114648   2.410   2.478   6.707
 4583SOL    HW214649   2.513   2.592   6.650
 4584SOL     OW14650   0.393   4.751   5.562
 4584SOL    HW114651   0.414   4.831   5.506
 4584SOL    HW214652   0.388   4.670   5.504
 4585SOL     OW14653   3.096   5.878   3.278
 4585SOL    HW114654   3.067   5.795   3.325
 4585SOL    HW214655   3.073   5.958   3.335
 4586SOL     OW14656   3.452   4.869   0.593
 4586SOL    HW114657   3.428   4.815   0.513
 4586SOL    HW214658   3.501   4.812   0.659
 4587SOL     OW14659   3.720   4.143   3.130
 4587SOL    HW114660   3.777   4.223   3.152
 4587SOL    HW214661   3.713   4.084   3.210
 4588SOL     OW14662   2.613   3.527   5.316
 4588SOL    HW114663   2.685   3.461   5.295
 4588SOL    HW214664   2.649   3.620   5.304
 4589SOL     OW14665   6.045   1.122   2.591
 4589SOL    HW114666   6.100   1.135   2.508
 4589SOL    HW214667   5.971   1.057   2.572
 4590SOL     OW14668   4.845   5.808   1.441
 4590SOL    HW114669   4.767   5.870   1.430
 4590SOL    HW214670   4.816   5.729   1.495
 4591SOL     OW14671   1.156   0.076   4.870
 4591SOL    HW114672   1.115   0.135   4.939
 4591SOL    HW214673   1.243   0.040   4.903
 4592SOL     OW14674   2.696   1.547   2.453
 4592SOL    HW114675   2.646   1.508   2.530
 4592SOL    HW214676   2.699   1.647   2.463
 4593SOL     OW14677   4.862   5.557   2.630
 4593SOL    HW114678   4.869   5.514   2.540
 4593SOL    HW214679   4.954   5.581   2.662
 4594SOL     OW14680   2.756   1.379   3.074
 4594SOL    HW114681   2.783   1.474   3.063
 4594SOL    HW214682   2.657   1.371   3.060
 4595SOL     OW14683   3.921   3.464   5.579
 4595SOL    HW114684   3.848   3.525   5.610
 4595SOL    HW214685   3.884   3.372   5.564
 4596SOL     OW14686   5.683   6.926   2.033
 4596SOL    HW114687   5.723   6.974   2.111
 4596SOL    HW214688   5.747   6.859   1.998
 4597SOL     OW14689   3.708   5.490   6.162
 4597SOL    HW114690   3.620   5.537   6.166
 4597SOL    HW214691   3.779   5.556   6.135
 4598SOL     OW14692   2.153   6.346   6.583
 4598SOL    HW114693   2.174   6.407   6.660
 4598SOL    HW214694   2.091   6.392   6.520
 4599SOL     OW14695   1.544   5.035   1.044
 4599SOL    HW114696   1.643   5.023   1.039
 4599SOL    HW214697   1.501   4.945   1.058
 4600SOL     OW14698   1.509   5.408   5.623
 4600SOL    HW114699   1.423   5.440   5.663
 4600SOL    HW214700   1.523   5.312   5.646
 4601SOL     OW14701   2.176   1.224   5.560
 4601SOL    HW114702   2.135   1.216   5.651
 4601SOL    HW214703   2.200   1.319   5.541
 4602SOL     OW14704   2.123   6.563   1.180
 4602SOL    HW114705   2.180   6.618   1.241
 4602SOL    HW214706   2.092   6.481   1.228
 4603SOL     OW14707   3.114   6.177   0.593
 4603SOL    HW114708   3.198   6.122   0.583
 4603SOL    HW214709   3.037   6.125   0.556
 4604SOL     OW14710   4.345   0.669   0.657
 4604SOL    HW114711   4.400   0.595   0.619
 4604SOL    HW214712   4.381   0.694   0.747
 4605SOL     OW14713   3.052   0.018   2.392
 4605SOL    HW114714   2.979   0.079   2.422
 4605SOL    HW214715   3.032   6.946   2.420
 4606SOL     OW14716   0.514   6.444   2.347
 4606SOL    HW114717   0.455   6.456   2.267
 4606SOL    HW214718   0.529   6.347   2.364
 4607SOL     OW14719   1.434   3.432   1.622
 4607SOL    HW114720   1.482   3.518   1.642
 4607SOL    HW214721   1.343   3.454   1.587
 4608SOL     OW14722   0.511   6.037   3.479
 4608SOL    HW114723   0.419   6.017   3.513
 4608SOL    HW214724   0.556   6.103   3.539
 4609SOL     OW14725   4.251   5.172   6.296
 4609SOL    HW114726   4.200   5.215   6.221
 4609SOL    HW214727   4.280   5.243   6.361
 4610SOL     OW14728   5.039   2.366   1.148
 4610SOL    HW114729   4.981   2.339   1.225
 4610SOL    HW214730   5.041   2.292   1.081
 4611SOL     OW14731   0.750   6.184   6.835
 4611SOL    HW114732   0.744   6.090   6.801
 4611SOL    HW214733   0.830   6.229   6.795
 4612SOL     OW14734   1.425   5.699   0.135
 4612SOL    HW114735   1.525   5.696   0.135
 4612SOL    HW214736   1.391   5.679   0.043
 4613SOL     OW14737   2.432   5.773   1.802
 4613SOL    HW114738   2.515   5.762   1.856
 4613SOL    HW214739   2.437   5.716   1.720
 4614SOL     OW14740   6.546   3.205   3.459
 4614SOL    HW114741   6.504   3.244   3.377
 4614SOL    HW214742   6.597   3.122   3.434
 4615SOL     OW14743   1.582   0.209   0.172
 4615SOL    HW114744   1.569   0.295   0.220
 4615SOL    HW214745   1.675   0.175   0.188
 4616SOL     OW14746   6.657   0.775   4.801
 4616SOL    HW114747   6.618   0.835   4.870
 4616SOL    HW214748   6.651   0.680   4.832
 4617SOL     OW14749   0.862   2.490   2.602
 4617SOL    HW114750   0.954   2.498   2.642
 4617SOL    HW214751   0.847   2.396   2.571
 4618SOL     OW14752   2.240   2.940   4.796
 4618SOL    HW114753   2.209   3.012   4.734
 4618SOL    HW214754   2.303   2.978   4.863
 4619SOL     OW14755   3.123   6.212   2.855
 4619SOL    HW114756   3.128   6.135   2.917
 4619SOL    HW214757   3.212   6.257   2.851
 4620SOL     OW14758   2.934   4.938   0.851
 4620SOL    HW114759   2.939   5.035   0.872
 4620SOL    HW214760   2.987   4.919   0.768
 4621SOL     OW14761   5.132   0.406   2.281
 4621SOL    HW114762   5.109   0.309   2.268
 4621SOL    HW214763   5.180   0.417   2.368
 4622SOL     OW14764   2.549   4.587   0.744
 4622SOL    HW114765   2.622   4.645   0.780
 4622SOL    HW214766   2.585   4.528   0.672
 4623SOL     OW14767   5.153   6.460   0.852
 4623SOL    HW114768   5.130   6.521   0.928
 4623SOL    HW214769   5.237   6.493   0.808
 4624SOL     OW14770   4.112   6.956   3.174
 4624SOL    HW114771   4.055   7.009   3.110
 4624SOL    HW214772   4.207   6.985   3.165
 4625SOL     OW14773   2.258   4.364   1.064
 4625SOL    HW114774   2.174   4.310   1.068
 4625SOL    HW214775   2.308   4.343   0.980
 4626SOL     OW14776   5.027   4.461   1.510
 4626SOL    HW114777   5.006   4.423   1.600
 4626SOL    HW214778   4.970   4.541   1.493
 4627SOL     OW14779   2.434   4.434   4.781
 4627SOL    HW114780   2.519   4.460   4.827
 4627SOL    HW214781   2.400   4.513   4.729
 4628SOL     OW14782   6.198   4.013   3.685
 4628SOL    HW114783   6.141   4.061   3.619
 4628SOL    HW214784   6.233   4.077   3.753
 4629SOL     OW14785   2.380   5.566   6.102
 4629SOL    HW114786   2.324   5.509   6.042
 4629SOL    HW214787   2.446   5.509   6.151
 4630SOL     OW14788   2.992   5.730   2.588
 4630SOL    HW114789   2.909   5.764   2.632
 4630SOL    HW214790   2.987   5.630   2.581
 4631SOL     OW14791   1.510   5.718   3.270
 4631SOL    HW114792   1.437   5.722   3.202
 4631SOL    HW214793   1.515   5.626   3.308
 4632SOL     OW14794   3.154   4.884   2.383
 4632SOL    HW114795   3.170   4.960   2.321
 4632SOL    HW214796   3.061   4.849   2.370
 4633SOL     OW14797   5.637   0.613   4.724
 4633SOL    HW114798   5.625   0.520   4.760
 4633SOL    HW214799   5.695   0.610   4.642
 4634SOL     OW14800   3.323   4.430   5.756
 4634SOL    HW114801   3.368   4.481   5.683
 4634SOL    HW214802   3.233   4.400   5.725
 4635SOL     OW14803   4.641   4.012   1.168
 4635SOL    HW114804   4.568   3.986   1.105
 4635SOL    HW214805   4.729   4.011   1.120
 4636SOL     OW14806   1.100   4.833   0.112
 4636SOL    HW114807   1.099   4.752   0.171
 4636SOL    HW214808   1.162   4.817   0.035
 4637SOL     OW14809   0.818   6.105   1.225
 4637SOL    HW114810   0.874   6.022   1.217
 4637SOL    HW214811   0.726   6.080   1.255
 4638SOL     OW14812   4.434   4.513   6.683
 4638SOL    HW114813   4.471   4.470   6.765
 4638SOL    HW214814   4.342   4.477   6.664
 4639SOL     OW14815   3.816   3.756   5.342
 4639SOL    HW114816   3.832   3.722   5.250
 4639SOL    HW214817   3.724   3.730   5.372
 4640SOL     OW14818   4.836   3.867   3.830
 4640SOL    HW114819   4.921   3.816   3.827
 4640SOL    HW214820   4.780   3.835   3.907
 4641SOL     OW14821   2.301   0.063   4.627
 4641SOL    HW114822   2.207   0.096   4.621
 4641SOL    HW214823   2.303   6.987   4.605
 4642SOL     OW14824   1.043   5.670   4.281
 4642SOL    HW114825   1.133   5.713   4.278
 4642SOL    HW214826   0.982   5.725   4.339
 4643SOL     OW14827   6.652   2.599   1.206
 4643SOL    HW114828   6.568   2.627   1.159
 4643SOL    HW214829   6.653   2.499   1.215
 4644SOL     OW14830   6.725   5.112   5.366
 4644SOL    HW114831   6.627   5.093   5.364
 4644SOL    HW214832   6.754   5.128   5.460
 4645SOL     OW14833   0.525   0.249   4.039
 4645SOL    HW114834   0.615   0.223   4.003
 4645SOL    HW214835   0.481   0.314   3.976
 4646SOL     OW14836   2.147   5.837   3.698
 4646SOL    HW114837   2.151   5.767   3.769
 4646SOL    HW214838   2.229   5.831   3.641
 4647SOL     OW14839   1.771   6.928   3.044
 4647SOL    HW114840   1.675   6.905   3.056
 4647SOL    HW214841   1.793   7.011   3.095
 4648SOL     OW14842   3.470   1.283   2.699
 4648SOL    HW114843   3.524   1.367   2.696
 4648SOL    HW214844   3.492   1.232   2.782
 4649SOL     OW14845   5.301   0.949   0.015
 4649SOL    HW114846   5.220   0.913   6.990
 4649SOL    HW214847   5.284   1.043   0.044
 4650SOL     OW14848   4.614   5.372   2.511
 4650SOL    HW114849   4.701   5.374   2.461
 4650SOL    HW214850   4.582   5.466   2.525
 4651SOL     OW14851   6.522   3.101   0.470
 4651SOL    HW114852   6.477   3.027   0.520
 4651SOL    HW214853   6.488   3.189   0.503
 4652SOL     OW14854   6.298   0.037   4.432
 4652SOL    HW114855   6.291   0.087   4.346
 4652SOL    HW214856   6.360   6.981   4.420
 4653SOL     OW14857   4.951   5.339   0.848
 4653SOL    HW114858   5.033   5.385   0.884
 4653SOL    HW214859   4.878   5.406   0.839
 4654SOL     OW14860   0.846   6.948   0.470
 4654SOL    HW114861   0.748   6.960   0.481
 4654SOL    HW214862   0.864   6.886   0.394
 4655SOL     OW14863   5.352   3.955   1.169
 4655SOL    HW114864   5.415   4.000   1.233
 4655SOL    HW214865   5.400   3.936   1.083
 4656SOL     OW14866   1.457   0.096   2.380
 4656SOL    HW114867   1.523   0.145   2.323
 4656SOL    HW214868   1.456   7.021   2.353
 4657SOL     OW14869   4.315   6.663   1.998
 4657SOL    HW114870   4.322   6.594   2.069
 4657SOL    HW214871   4.269   6.744   2.034
 4658SOL     OW14872   3.778   1.188   2.983
 4658SOL    HW114873   3.684   1.171   3.014
 4658SOL    HW214874   3.792   1.286   2.973
 4659SOL     OW14875   3.434   4.737   5.238
 4659SOL    HW114876   3.373   4.754   5.162
 4659SOL    HW214877   3.412   4.649   5.280
 4660SOL     OW14878   1.092   3.637   5.541
 4660SOL    HW114879   1.066   3.664   5.634
 4660SOL    HW214880   1.120   3.541   5.540
 4661SOL     OW14881   2.603   4.506   5.858
 4661SOL    HW114882   2.563   4.439   5.796
 4661SOL    HW214883   2.572   4.488   5.951
 4662SOL     OW14884   3.290   0.119   5.534
 4662SOL    HW114885   3.245   0.078   5.613
 4662SOL    HW214886   3.368   0.173   5.566
 4663SOL     OW14887   0.471   1.687   1.573
 4663SOL    HW114888   0.537   1.751   1.612
 4663SOL    HW214889   0.387   1.689   1.627
 4664SOL     OW14890   1.268   1.198   1.400
 4664SOL    HW114891   1.203   1.273   1.418
 4664SOL    HW214892   1.358   1.223   1.436
 4665SOL     OW14893   3.736   0.204   6.602
 4665SOL    HW114894   3.709   0.121   6.651
 4665SOL    HW214895   3.671   0.222   6.528
 4666SOL     OW14896   1.704   3.247   0.690
 4666SOL    HW114897   1.653   3.164   0.666
 4666SOL    HW214898   1.709   3.255   0.789
 4667SOL     OW14899   6.896   3.442   2.460
 4667SOL    HW114900   6.900   3.411   2.365
 4667SOL    HW214901   6.819   3.398   2.506
 4668SOL     OW14902   4.147   2.011   2.911
 4668SOL    HW114903   4.165   2.100   2.952
 4668SOL    HW214904   4.209   1.996   2.834
 4669SOL     OW14905   4.690   6.514   6.476
 4669SOL    HW114906   4.657   6.582   6.540
 4669SOL    HW214907   4.786   6.530   6.455
 4670SOL     OW14908   2.168   2.547   5.937
 4670SOL    HW114909   2.102   2.480   5.971
 4670SOL    HW214910   2.260   2.521   5.965
 4671SOL     OW14911   0.146   2.880   0.560
 4671SOL    HW114912   0.203   2.819   0.505
 4671SOL    HW214913   0.096   2.827   0.629
 4672SOL     OW14914   2.195   4.760   5.881
 4672SOL    HW114915   2.247   4.747   5.966
 4672SOL    HW214916   2.191   4.858   5.860
 4673SOL     OW14917   4.919   0.098   2.355
 4673SOL    HW114918   4.914   0.015   2.300
 4673SOL    HW214919   4.833   0.109   2.406
 4674SOL     OW14920   5.573   0.985   6.685
 4674SOL    HW114921   5.651   0.988   6.746
 4674SOL    HW214922   5.593   0.926   6.607
 4675SOL     OW14923   2.195   1.225   6.741
 4675SOL    HW114924   2.118   1.276   6.779
 4675SOL    HW214925   2.187   1.221   6.642
 4676SOL     OW14926   6.966   6.247   4.084
 4676SOL    HW114927   6.966   6.196   3.998
 4676SOL    HW214928   6.882   6.226   4.136
 4677SOL     OW14929   2.266   1.731   6.544
 4677SOL    HW114930   2.190   1.732   6.610
 4677SOL    HW214931   2.228   1.727   6.451
 4678SOL     OW14932   1.783   4.387   2.985
 4678SOL    HW114933   1.693   4.431   2.987
 4678SOL    HW214934   1.852   4.453   3.014
 4679SOL     OW14935   3.503   1.238   0.464
 4679SOL    HW114936   3.585   1.181   0.460
 4679SOL    HW214937   3.458   1.238   0.375
 4680SOL     OW14938   3.039   1.621   0.595
 4680SOL    HW114939   3.133   1.602   0.565
 4680SOL    HW214940   2.980   1.632   0.516
 4681SOL     OW14941   4.987   5.909   6.401
 4681SOL    HW114942   4.977   5.900   6.302
 4681SOL    HW214943   5.082   5.890   6.426
 4682SOL     OW14944   4.171   4.381   5.569
 4682SOL    HW114945   4.242   4.427   5.622
 4682SOL    HW214946   4.213   4.329   5.495
 4683SOL     OW14947   4.372   4.874   3.078
 4683SOL    HW114948   4.444   4.936   3.046
 4683SOL    HW214949   4.373   4.791   3.023
 4684SOL     OW14950   6.809   1.776   5.236
 4684SOL    HW114951   6.905   1.750   5.238
 4684SOL    HW214952   6.800   1.871   5.266
 4685SOL     OW14953   0.616   6.059   5.297
 4685SOL    HW114954   0.638   5.976   5.348
 4685SOL    HW214955   0.522   6.054   5.264
 4686SOL     OW14956   4.260   4.944   7.021
 4686SOL    HW114957   4.202   4.892   0.061
 4686SOL    HW214958   4.248   4.911   6.928
 4687SOL     OW14959   6.145   4.215   4.625
 4687SOL    HW114960   6.135   4.117   4.641
 4687SOL    HW214961   6.213   4.230   4.552
 4688SOL     OW14962   6.169   4.637   4.605
 4688SOL    HW114963   6.124   4.557   4.645
 4688SOL    HW214964   6.148   4.718   4.660
 4689SOL     OW14965   5.833   0.625   0.706
 4689SOL    HW114966   5.806   0.530   0.691
 4689SOL    HW214967   5.922   0.642   0.665
 4690SOL     OW14968   1.269   6.964   6.925
 4690SOL    HW114969   1.200   6.966   6.852
 4690SOL    HW214970   1.231   6.919   7.005
 4691SOL     OW14971   3.161   5.112   1.654
 4691SOL    HW114972   3.071   5.088   1.691
 4691SOL    HW214973   3.150   5.169   1.573
 4692SOL     OW14974   5.972   5.582   1.942
 4692SOL    HW114975   5.972   5.570   2.041
 4692SOL    HW214976   5.923   5.506   1.899
 4693SOL     OW14977   0.754   1.436   3.150
 4693SOL    HW114978   0.836   1.440   3.208
 4693SOL    HW214979   0.699   1.518   3.165
 4694SOL     OW14980   2.029   0.660   0.503
 4694SOL    HW114981   2.109   0.700   0.458
 4694SOL    HW214982   2.039   0.561   0.508
 4695SOL     OW14983   1.789   3.573   1.760
 4695SOL    HW114984   1.702   3.591   1.805
 4695SOL    HW214985   1.854   3.537   1.827
 4696SOL     OW14986   0.285   4.144   0.105
 4696SOL    HW114987   0.340   4.061   0.092
 4696SOL    HW214988   0.223   4.132   0.182
 4697SOL     OW14989   2.080   3.218   1.270
 4697SOL    HW114990   2.109   3.184   1.360
 4697SOL    HW214991   2.124   3.164   1.198
 4698SOL     OW14992   4.564   5.121   3.073
 4698SOL    HW114993   4.652   5.075   3.082
 4698SOL    HW214994   4.564   5.180   2.992
 4699SOL     OW14995   1.733   6.637   2.058
 4699SOL    HW114996   1.725   6.638   1.958
 4699SOL    HW214997   1.696   6.550   2.093
 4700SOL     OW14998   6.563   1.694   2.977
 4700SOL    HW114999   6.469   1.660   2.968
 4700SOL    HW215000   6.564   1.793   2.961
 4701SOL     OW15001   2.279   2.289   0.042
 4701SOL    HW115002   2.341   2.238   7.005
 4701SOL    HW215003   2.324   2.371   0.076
 4702SOL     OW15004   3.940   5.188   6.913
 4702SOL    HW115005   4.003   5.164   6.986
 4702SOL    HW215006   3.991   5.208   6.830
 4703SOL     OW15007   1.069   1.510   1.493
 4703SOL    HW115008   1.038   1.586   1.551
 4703SOL    HW215009   1.153   1.471   1.532
 4704SOL     OW15010   0.526   6.531   0.573
 4704SOL    HW115011   0.547   6.447   0.622
 4704SOL    HW215012   0.544   6.517   0.475
 4705SOL     OW15013   3.621   3.064   2.281
 4705SOL    HW115014   3.701   3.045   2.224
 4705SOL    HW215015   3.589   2.980   2.324
 4706SOL     OW15016   3.490   0.283   6.455
 4706SOL    HW115017   3.487   0.379   6.427
 4706SOL    HW215018   3.401   0.257   6.494
 4707SOL     OW15019   1.883   6.643   0.831
 4707SOL    HW115020   1.947   6.714   0.802
 4707SOL    HW215021   1.934   6.561   0.855
 4708SOL     OW15022   1.372   1.684   6.665
 4708SOL    HW115023   1.281   1.667   6.627
 4708SOL    HW215024   1.401   1.776   6.641
 4709SOL     OW15025   4.570   5.885   5.563
 4709SOL    HW115026   4.514   5.813   5.604
 4709SOL    HW215027   4.660   5.849   5.540
 4710SOL     OW15028   4.053   1.111   5.234
 4710SOL    HW115029   3.991   1.188   5.248
 4710SOL    HW215030   4.147   1.145   5.230
 4711SOL     OW15031   5.792   0.808   1.260
 4711SOL    HW115032   5.757   0.719   1.291
 4711SOL    HW215033   5.892   0.805   1.257
 4712SOL     OW15034   2.680   4.245   6.791
 4712SOL    HW115035   2.642   4.284   6.875
 4712SOL    HW215036   2.685   4.145   6.800
 4713SOL     OW15037   3.023   3.638   0.344
 4713SOL    HW115038   3.063   3.584   0.418
 4713SOL    HW215039   2.927   3.613   0.333
 4714SOL     OW15040   1.163   2.428   0.211
 4714SOL    HW115041   1.151   2.430   0.111
 4714SOL    HW215042   1.138   2.518   0.249
 4715SOL     OW15043   5.329   2.413   2.738
 4715SOL    HW115044   5.341   2.321   2.702
 4715SOL    HW215045   5.338   2.479   2.664
 4716SOL     OW15046   4.897   5.499   6.598
 4716SOL    HW115047   4.917   5.422   6.537
 4716SOL    HW215048   4.858   5.574   6.546
 4717SOL     OW15049   0.145   7.018   3.855
 4717SOL    HW115050   0.158   0.042   3.767
 4717SOL    HW215051   0.088   6.937   3.842
 4718SOL     OW15052   5.465   2.662   1.610
 4718SOL    HW115053   5.493   2.722   1.535
 4718SOL    HW215054   5.435   2.574   1.573
 4719SOL     OW15055   5.287   3.282   1.831
 4719SOL    HW115056   5.210   3.249   1.886
 4719SOL    HW215057   5.360   3.313   1.892
 4720SOL     OW15058   2.223   5.369   5.980
 4720SOL    HW115059   2.291   5.351   5.909
 4720SOL    HW215060   2.146   5.419   5.939
 4721SOL     OW15061   6.733   2.044   1.953
 4721SOL    HW115062   6.783   1.963   1.982
 4721SOL    HW215063   6.798   2.113   1.919
 4722SOL     OW15064   0.972   6.352   6.328
 4722SOL    HW115065   1.037   6.335   6.254
 4722SOL    HW215066   1.021   6.390   6.407
 4723SOL     OW15067   2.196   3.707   5.913
 4723SOL    HW115068   2.232   3.789   5.868
 4723SOL    HW215069   2.267   3.637   5.916
 4724SOL     OW15070   6.132   5.865   2.876
 4724SOL    HW115071   6.088   5.934   2.932
 4724SOL    HW215072   6.187   5.909   2.805
 4725SOL     OW15073   6.487   5.739   2.745
 4725SOL    HW115074   6.544   5.662   2.718
 4725SOL    HW215075   6.516   5.821   2.696
 4726SOL     OW15076   1.888   2.642   5.824
 4726SOL    HW115077   1.959   2.576   5.804
 4726SOL    HW215078   1.800   2.609   5.789
 4727SOL     OW15079   0.978   5.864   0.871
 4727SOL    HW115080   0.958   5.875   0.969
 4727SOL    HW215081   1.070   5.825   0.861
 4728SOL     OW15082   6.041   0.796   1.972
 4728SOL    HW115083   6.062   0.890   1.943
 4728SOL    HW215084   6.116   0.735   1.943
 4729SOL     OW15085   2.623   1.607   0.658
 4729SOL    HW115086   2.658   1.517   0.631
 4729SOL    HW215087   2.535   1.595   0.705
 4730SOL     OW15088   3.201   5.738   5.059
 4730SOL    HW115089   3.126   5.689   5.015
 4730SOL    HW215090   3.197   5.835   5.034
 4731SOL     OW15091   4.646   0.262   0.115
 4731SOL    HW115092   4.620   0.261   0.018
 4731SOL    HW215093   4.725   0.322   0.128
 4732SOL     OW15094   0.615   3.068   5.980
 4732SOL    HW115095   0.667   3.121   6.047
 4732SOL    HW215096   0.579   3.129   5.910
 4733SOL     OW15097   1.057   3.822   3.259
 4733SOL    HW115098   1.114   3.746   3.227
 4733SOL    HW215099   1.112   3.906   3.259
 4734SOL     OW15100   4.721   2.624   0.576
 4734SOL    HW115101   4.765   2.543   0.616
 4734SOL    HW215102   4.777   2.659   0.501
 4735SOL     OW15103   6.910   5.811   4.582
 4735SOL    HW115104   6.833   5.811   4.519
 4735SOL    HW215105   6.994   5.837   4.533
 4736SOL     OW15106   0.219   1.927   6.359
 4736SOL    HW115107   0.129   1.945   6.318
 4736SOL    HW215108   0.263   2.014   6.383
 4737SOL     OW15109   2.284   4.256   2.275
 4737SOL    HW115110   2.298   4.351   2.246
 4737SOL    HW215111   2.353   4.231   2.342
 4738SOL     OW15112   0.158   6.626   3.168
 4738SOL    HW115113   0.145   6.717   3.207
 4738SOL    HW215114   0.168   6.559   3.241
 4739SOL     OW15115   4.109   6.255   3.286
 4739SOL    HW115116   4.148   6.297   3.368
 4739SOL    HW215117   4.102   6.156   3.299
 4740SOL     OW15118   0.808   1.448   1.368
 4740SOL    HW115119   0.901   1.459   1.403
 4740SOL    HW215120   0.782   1.529   1.316
 4741SOL     OW15121   3.975   3.435   0.968
 4741SOL    HW115122   3.933   3.512   1.017
 4741SOL    HW215123   4.055   3.469   0.917
 4742SOL     OW15124   3.601   6.722   5.840
 4742SOL    HW115125   3.524   6.752   5.896
 4742SOL    HW215126   3.642   6.801   5.794
 4743SOL     OW15127   1.823   3.456   3.139
 4743SOL    HW115128   1.847   3.368   3.181
 4743SOL    HW215129   1.811   3.525   3.210
 4744SOL     OW15130   1.734   4.643   0.379
 4744SOL    HW115131   1.724   4.545   0.367
 4744SOL    HW215132   1.699   4.671   0.468
 4745SOL     OW15133   3.105   4.062   5.712
 4745SOL    HW115134   3.063   4.017   5.633
 4745SOL    HW215135   3.139   3.993   5.776
 4746SOL     OW15136   5.630   5.984   2.652
 4746SOL    HW115137   5.601   6.073   2.618
 4746SOL    HW215138   5.730   5.980   2.653
 4747SOL     OW15139   1.425   3.869   0.014
 4747SOL    HW115140   1.464   3.940   0.073
 4747SOL    HW215141   1.470   3.873   6.947
 4748SOL     OW15142   2.572   5.311   0.837
 4748SOL    HW115143   2.572   5.403   0.874
 4748SOL    HW215144   2.478   5.282   0.818
 4749SOL     OW15145   2.153   6.414   5.671
 4749SOL    HW115146   2.220   6.404   5.597
 4749SOL    HW215147   2.129   6.323   5.706
 4750SOL     OW15148   0.325   3.846   4.531
 4750SOL    HW115149   0.246   3.871   4.588
 4750SOL    HW215150   0.400   3.910   4.551
 4751SOL     OW15151   4.057   1.938   2.040
 4751SOL    HW115152   4.054   1.939   2.140
 4751SOL    HW215153   3.965   1.953   2.004
 4752SOL     OW15154   4.095   1.395   6.667
 4752SOL    HW115155   4.186   1.434   6.650
 4752SOL    HW215156   4.030   1.468   6.685
 4753SOL     OW15157   6.118   0.233   3.588
 4753SOL    HW115158   6.203   0.272   3.620
 4753SOL    HW215159   6.103   0.259   3.492
 4754SOL     OW15160   5.845   5.317   4.847
 4754SOL    HW115161   5.753   5.351   4.863
 4754SOL    HW215162   5.843   5.248   4.774
 4755SOL     OW15163   3.005   0.465   0.315
 4755SOL    HW115164   2.928   0.460   0.250
 4755SOL    HW215165   3.088   0.434   0.269
 4756SOL     OW15166   6.099   2.601   6.958
 4756SOL    HW115167   6.047   2.625   6.877
 4756SOL    HW215168   6.190   2.569   6.931
 4757SOL     OW15169   2.367   1.519   0.757
 4757SOL    HW115170   2.301   1.461   0.709
 4757SOL    HW215171   2.441   1.462   0.793
 4758SOL     OW15172   1.465   6.253   3.883
 4758SOL    HW115173   1.404   6.230   3.808
 4758SOL    HW215174   1.424   6.325   3.938
 4759SOL     OW15175   6.297   4.739   4.995
 4759SOL    HW115176   6.345   4.743   4.907
 4759SOL    HW215177   6.258   4.829   5.015
 4760SOL     OW15178   2.456   2.211   0.563
 4760SOL    HW115179   2.504   2.134   0.604
 4760SOL    HW215180   2.412   2.265   0.636
 4761SOL     OW15181   0.645   5.926   0.216
 4761SOL    HW115182   0.626   5.988   0.139
 4761SOL    HW215183   0.594   5.841   0.203
 4762SOL     OW15184   1.407   5.728   2.029
 4762SOL    HW115185   1.440   5.633   2.025
 4762SOL    HW215186   1.372   5.747   2.121
 4763SOL     OW15187   6.039   0.201   2.862
 4763SOL    HW115188   6.001   0.212   2.770
 4763SOL    HW215189   6.132   0.236   2.864
 4764SOL     OW15190   4.857   3.970   5.013
 4764SOL    HW115191   4.956   3.972   5.019
 4764SOL    HW215192   4.825   3.875   5.016
 4765SOL     OW15193   5.007   0.997   4.842
 4765SOL    HW115194   4.917   1.039   4.829
 4765SOL    HW215195   5.078   1.057   4.805
 4766SOL     OW15196   5.512   5.613   4.099
 4766SOL    HW115197   5.420   5.577   4.111
 4766SOL    HW215198   5.517   5.706   4.136
 4767SOL     OW15199   2.923   5.360   5.125
 4767SOL    HW115200   3.006   5.349   5.069
 4767SOL    HW215201   2.930   5.303   5.207
 4768SOL     OW15202   4.386   2.257   6.457
 4768SOL    HW115203   4.336   2.256   6.371
 4768SOL    HW215204   4.322   2.265   6.533
 4769SOL     OW15205   4.621   5.037   6.950
 4769SOL    HW115206   4.596   5.035   0.025
 4769SOL    HW215207   4.607   4.946   6.911
 4770SOL     OW15208   0.249   1.641   4.193
 4770SOL    HW115209   0.205   1.730   4.181
 4770SOL    HW215210   0.180   1.569   4.188
 4771SOL     OW15211   2.791   5.571   5.221
 4771SOL    HW115212   2.842   5.496   5.178
 4771SOL    HW215213   2.693   5.558   5.202
 4772SOL     OW15214   3.898   5.078   0.934
 4772SOL    HW115215   3.818   5.039   0.889
 4772SOL    HW215216   3.931   5.156   0.882
 4773SOL     OW15217   0.044   5.294   4.426
 4773SOL    HW115218   0.026   5.291   4.328
 4773SOL    HW215219   0.090   5.380   4.449
 4774SOL     OW15220   1.905   3.376   1.594
 4774SOL    HW115221   1.865   3.450   1.648
 4774SOL    HW215222   1.970   3.414   1.528
 4775SOL     OW15223   5.585   6.825   2.813
 4775SOL    HW115224   5.511   6.819   2.879
 4775SOL    HW215225   5.657   6.884   2.849
 4776SOL     OW15226   1.120   6.318   5.844
 4776SOL    HW115227   1.121   6.306   5.745
 4776SOL    HW215228   1.105   6.414   5.866
 4777SOL     OW15229   1.925   5.474   1.340
 4777SOL    HW115230   1.980   5.463   1.424
 4777SOL    HW215231   1.855   5.543   1.356
 4778SOL     OW15232   6.587   2.803   3.655
 4778SOL    HW115233   6.541   2.734   3.711
 4778SOL    HW215234   6.526   2.881   3.642
 4779SOL     OW15235   5.697   6.058   2.279
 4779SOL    HW115236   5.787   6.096   2.300
 4779SOL    HW215237   5.686   5.971   2.326
 4780SOL     OW15238   5.792   1.728   0.195
 4780SOL    HW115239   5.822   1.772   0.110
 4780SOL    HW215240   5.813   1.788   0.273
 4781SOL     OW15241   2.356   5.768   2.637
 4781SOL    HW115242   2.335   5.751   2.541
 4781SOL    HW215243   2.281   5.737   2.695
 4782SOL     OW15244   5.906   5.361   6.971
 4782SOL    HW115245   5.973   5.290   6.948
 4782SOL    HW215246   5.818   5.318   6.991
 4783SOL     OW15247   4.694   4.016   6.933
 4783SOL    HW115248   4.700   4.116   6.922
 4783SOL    HW215249   4.729   3.972   6.850
 4784SOL     OW15250   6.622   3.472   6.361
 4784SOL    HW115251   6.629   3.408   6.285
 4784SOL    HW215252   6.580   3.557   6.330
 4785SOL     OW15253   1.389   6.042   2.891
 4785SOL    HW115254   1.311   5.979   2.882
 4785SOL    HW215255   1.408   6.058   2.987
 4786SOL     OW15256   2.516   0.114   0.166
 4786SOL    HW115257   2.425   0.128   0.205
 4786SOL    HW215258   2.580   0.089   0.239
 4787SOL     OW15259   4.061   1.303   2.823
 4787SOL    HW115260   3.980   1.346   2.863
 4787SOL    HW215261   4.124   1.373   2.789
 4788SOL     OW15262   6.280   6.109   6.977
 4788SOL    HW115263   6.274   6.087   6.879
 4788SOL    HW215264   6.280   6.209   6.989
 4789SOL     OW15265   5.001   2.019   1.542
 4789SOL    HW115266   4.932   1.952   1.515
 4789SOL    HW215267   4.966   2.072   1.619
 4790SOL     OW15268   6.097   1.557   5.454
 4790SOL    HW115269   6.157   1.487   5.494
 4790SOL    HW215270   6.145   1.601   5.378
 4791SOL     OW15271   6.928   2.982   1.139
 4791SOL    HW115272   6.991   2.942   1.205
 4791SOL    HW215273   6.835   2.983   1.178
 4792SOL     OW15274   2.926   4.978   3.743
 4792SOL    HW115275   3.022   4.996   3.718
 4792SOL    HW215276   2.909   5.013   3.835
 4793SOL     OW15277   2.456   2.591   5.057
 4793SOL    HW115278   2.476   2.663   5.123
 4793SOL    HW215279   2.357   2.586   5.042
 4794SOL     OW15280   5.526   0.130   5.021
 4794SOL    HW115281   5.609   0.139   5.076
 4794SOL    HW215282   5.499   0.034   5.015
 4795SOL     OW15283   6.273   2.101   3.806
 4795SOL    HW115284   6.215   2.066   3.733
 4795SOL    HW215285   6.217   2.152   3.871
 4796SOL     OW15286   4.597   1.415   4.986
 4796SOL    HW115287   4.584   1.327   5.031
 4796SOL    HW215288   4.694   1.426   4.963
 4797SOL     OW15289   0.571   6.544   5.495
 4797SOL    HW115290   0.650   6.491   5.525
 4797SOL    HW215291   0.488   6.490   5.508
 4798SOL     OW15292   0.145   4.391   5.588
 4798SOL    HW115293   0.239   4.374   5.561
 4798SOL    HW215294   0.091   4.307   5.580
 4799SOL     OW15295   4.053   1.718   0.794
 4799SOL    HW115296   3.991   1.780   0.841
 4799SOL    HW215297   4.143   1.721   0.838
 4800SOL     OW15298   3.043   2.926   6.962
 4800SOL    HW115299   2.967   2.929   6.897
 4800SOL    HW215300   3.007   2.928   0.034
 4801SOL     OW15301   3.014   2.340   6.787
 4801SOL    HW115302   3.074   2.345   6.707
 4801SOL    HW215303   3.058   2.288   6.859
 4802SOL     OW15304   0.485   6.709   1.971
 4802SOL    HW115305   0.487   6.624   2.023
 4802SOL    HW215306   0.412   6.768   2.006
 4803SOL     OW15307   6.906   4.859   6.915
 4803SOL    HW115308   6.982   4.901   6.965
 4803SOL    HW215309   6.827   4.851   6.975
 4804SOL     OW15310   6.613   6.683   1.811
 4804SOL    HW115311   6.669   6.749   1.762
 4804SOL    HW215312   6.660   6.595   1.813
 4805SOL     OW15313   5.772   1.469   2.109
 4805SOL    HW115314   5.696   1.533   2.096
 4805SOL    HW215315   5.762   1.393   2.045
 4806SOL     OW15316   0.924   4.585   2.616
 4806SOL    HW115317   0.888   4.553   2.528
 4806SOL    HW215318   1.007   4.533   2.638
 4807SOL     OW15319   0.484   5.459   0.075
 4807SOL    HW115320   0.393   5.477   0.038
 4807SOL    HW215321   0.496   5.508   0.161
 4808SOL     OW15322   4.405   5.447   0.918
 4808SOL    HW115323   4.340   5.517   0.888
 4808SOL    HW215324   4.433   5.466   1.012
 4809SOL     OW15325   3.602   4.872   0.138
 4809SOL    HW115326   3.581   4.783   0.177
 4809SOL    HW215327   3.656   4.925   0.203
 4810SOL     OW15328   1.671   4.279   2.451
 4810SOL    HW115329   1.693   4.377   2.455
 4810SOL    HW215330   1.579   4.267   2.415
 4811SOL     OW15331   2.528   4.212   1.752
 4811SOL    HW115332   2.598   4.144   1.733
 4811SOL    HW215333   2.567   4.304   1.742
 4812SOL     OW15334   0.670   5.711   2.276
 4812SOL    HW115335   0.666   5.682   2.181
 4812SOL    HW215336   0.638   5.637   2.335
 4813SOL     OW15337   5.870   1.613   6.911
 4813SOL    HW115338   5.794   1.663   6.871
 4813SOL    HW215339   5.928   1.676   6.963
 4814SOL     OW15340   6.939   3.209   0.994
 4814SOL    HW115341   0.014   3.230   0.983
 4814SOL    HW215342   6.930   3.118   1.036
 4815SOL     OW15343   5.059   3.804   2.847
 4815SOL    HW115344   5.030   3.860   2.924
 4815SOL    HW215345   4.981   3.789   2.785
 4816SOL     OW15346   2.459   4.811   0.955
 4816SOL    HW115347   2.518   4.873   0.904
 4816SOL    HW215348   2.508   4.725   0.973
 4817SOL     OW15349   2.089   1.510   0.028
 4817SOL    HW115350   2.077   1.433   6.988
 4817SOL    HW215351   2.182   1.509   0.065
 4818SOL     OW15352   0.590   6.753   4.566
 4818SOL    HW115353   0.687   6.766   4.543
 4818SOL    HW215354   0.535   6.818   4.513
 4819SOL     OW15355   2.339   1.804   0.742
 4819SOL    HW115356   2.349   1.704   0.744
 4819SOL    HW215357   2.252   1.830   0.783
 4820SOL     OW15358   6.050   2.410   2.400
 4820SOL    HW115359   5.956   2.396   2.370
 4820SOL    HW215360   6.072   2.342   2.470
 4821SOL     OW15361   0.504   6.863   2.502
 4821SOL    HW115362   0.404   6.868   2.494
 4821SOL    HW215363   0.540   6.799   2.435
 4822SOL     OW15364   2.107   3.404   4.490
 4822SOL    HW115365   2.123   3.384   4.587
 4822SOL    HW215366   2.015   3.441   4.478
 4823SOL     OW15367   1.141   0.423   4.660
 4823SOL    HW115368   1.058   0.427   4.715
 4823SOL    HW215369   1.150   0.507   4.606
 4824SOL     OW15370   5.331   2.306   4.480
 4824SOL    HW115371   5.371   2.283   4.568
 4824SOL    HW215372   5.342   2.229   4.417
 4825SOL     OW15373   1.899   2.212   4.752
 4825SOL    HW115374   1.987   2.221   4.705
 4825SOL    HW215375   1.835   2.278   4.714
 4826SOL     OW15376   6.931   1.487   6.374
 4826SOL    HW115377   6.873   1.469   6.294
 4826SOL    HW215378   6.938   1.404   6.430
 4827SOL     OW15379   6.430   1.220   1.501
 4827SOL    HW115380   6.522   1.194   1.471
 4827SOL    HW215381   6.372   1.237   1.421
 4828SOL     OW15382   5.346   2.801   0.967
 4828SOL    HW115383   5.409   2.724   0.951
 4828SOL    HW215384   5.354   2.866   0.891
 4829SOL     OW15385   4.667   0.007   0.242
 4829SOL    HW115386   4.713   0.090   0.212
 4829SOL    HW215387   4.573   0.029   0.269
 4830SOL     OW15388   4.543   6.686   3.864
 4830SOL    HW115389   4.486   6.632   3.803
 4830SOL    HW215390   4.605   6.625   3.914
 4831SOL     OW15391   0.382   4.573   6.432
 4831SOL    HW115392   0.436   4.596   6.351
 4831SOL    HW215393   0.314   4.504   6.410
 4832SOL     OW15394   3.134   3.453   4.778
 4832SOL    HW115395   3.050   3.431   4.829
 4832SOL    HW215396   3.169   3.541   4.809
 4833SOL     OW15397   4.905   1.729   3.371
 4833SOL    HW115398   4.945   1.730   3.279
 4833SOL    HW215399   4.806   1.727   3.365
 4834SOL     OW15400   3.859   6.222   1.079
 4834SOL    HW115401   3.778   6.273   1.107
 4834SOL    HW215402   3.931   6.234   1.148
 4835SOL     OW15403   6.942   1.204   6.446
 4835SOL    HW115404   7.015   1.180   6.511
 4835SOL    HW215405   6.853   1.189   6.489
 4836SOL     OW15406   4.907   2.760   4.516
 4836SOL    HW115407   4.992   2.801   4.549
 4836SOL    HW215408   4.927   2.671   4.475
 4837SOL     OW15409   5.930   3.664   2.621
 4837SOL    HW115410   5.960   3.628   2.709
 4837SOL    HW215411   5.948   3.597   2.549
 4838SOL     OW15412   1.191   5.060   0.302
 4838SOL    HW115413   1.125   5.007   0.248
 4838SOL    HW215414   1.223   5.004   0.378
 4839SOL     OW15415   1.803   3.095   6.613
 4839SOL    HW115416   1.879   3.139   6.566
 4839SOL    HW215417   1.832   3.062   6.703
 4840SOL     OW15418   6.727   4.956   6.400
 4840SOL    HW115419   6.742   4.899   6.320
 4840SOL    HW215420   6.807   5.015   6.414
 4841SOL     OW15421   3.362   5.409   1.720
 4841SOL    HW115422   3.397   5.339   1.782
 4841SOL    HW215423   3.438   5.455   1.675
 4842SOL     OW15424   3.704   4.867   2.507
 4842SOL    HW115425   3.664   4.834   2.592
 4842SOL    HW215426   3.797   4.899   2.525
 4843SOL     OW15427   6.407   2.694   1.072
 4843SOL    HW115428   6.351   2.697   1.154
 4843SOL    HW215429   6.348   2.705   0.991
 4844SOL     OW15430   0.063   3.108   5.885
 4844SOL    HW115431   0.026   3.092   5.976
 4844SOL    HW215432   7.011   3.135   5.823
 4845SOL     OW15433   5.283   5.341   6.435
 4845SOL    HW115434   5.314   5.316   6.527
 4845SOL    HW215435   5.183   5.330   6.430
 4846SOL     OW15436   6.991   3.201   3.551
 4846SOL    HW115437   6.978   3.124   3.614
 4846SOL    HW215438   6.960   3.285   3.594
 4847SOL     OW15439   2.568   1.151   6.311
 4847SOL    HW115440   2.636   1.167   6.238
 4847SOL    HW215441   2.527   1.238   6.338
 4848SOL     OW15442   1.760   0.734   3.876
 4848SOL    HW115443   1.755   0.672   3.798
 4848SOL    HW215444   1.705   0.698   3.951
 4849SOL     OW15445   1.146   6.182   6.638
 4849SOL    HW115446   1.157   6.254   6.569
 4849SOL    HW215447   1.170   6.094   6.599
 4850SOL     OW15448   3.922   1.653   2.087
 4850SOL    HW115449   3.975   1.682   2.167
 4850SOL    HW215450   3.837   1.706   2.082
 4851SOL     OW15451   4.617   6.757   5.706
 4851SOL    HW115452   4.582   6.745   5.798
 4851SOL    HW215453   4.559   6.706   5.642
 4852SOL     OW15454   1.640   6.328   5.124
 4852SOL    HW115455   1.611   6.366   5.212
 4852SOL    HW215456   1.647   6.229   5.131
 4853SOL     OW15457   3.263   1.481   3.326
 4853SOL    HW115458   3.286   1.385   3.310
 4853SOL    HW215459   3.346   1.536   3.321
 4854SOL     OW15460   4.593   6.857   1.467
 4854SOL    HW115461   4.586   6.906   1.380
 4854SOL    HW215462   4.650   6.776   1.455
 4855SOL     OW15463   6.204   2.529   3.103
 4855SOL    HW115464   6.194   2.609   3.161
 4855SOL    HW215465   6.137   2.533   3.029
 4856SOL     OW15466   1.705   3.607   2.672
 4856SOL    HW115467   1.798   3.637   2.696
 4856SOL    HW215468   1.667   3.556   2.749
 4857SOL     OW15469   2.596   1.901   4.959
 4857SOL    HW115470   2.557   1.840   5.028
 4857SOL    HW215471   2.665   1.853   4.906
 4858SOL     OW15472   0.388   0.700   4.350
 4858SOL    HW115473   0.297   0.740   4.343
 4858SOL    HW215474   0.397   0.652   4.437
 4859SOL     OW15475   0.454   0.281   4.666
 4859SOL    HW115476   0.421   0.193   4.632
 4859SOL    HW215477   0.473   0.273   4.764
 4860SOL     OW15478   4.394   4.470   1.696
 4860SOL    HW115479   4.415   4.384   1.741
 4860SOL    HW215480   4.334   4.524   1.754
 4861SOL     OW15481   6.140   4.815   0.155
 4861SOL    HW115482   6.110   4.787   0.246
 4861SOL    HW215483   6.060   4.833   0.098
 4862SOL     OW15484   2.349   4.789   5.085
 4862SOL    HW115485   2.407   4.744   5.017
 4862SOL    HW215486   2.313   4.721   5.149
 4863SOL     OW15487   5.665   3.687   1.627
 4863SOL    HW115488   5.659   3.587   1.631
 4863SOL    HW215489   5.573   3.726   1.632
 4864SOL     OW15490   4.182   1.500   2.672
 4864SOL    HW115491   4.107   1.515   2.607
 4864SOL    HW215492   4.202   1.586   2.719
 4865SOL     OW15493   1.963   6.511   4.228
 4865SOL    HW115494   2.017   6.475   4.152
 4865SOL    HW215495   1.866   6.495   4.211
 4866SOL     OW15496   6.081   3.072   1.968
 4866SOL    HW115497   6.055   3.055   2.063
 4866SOL    HW215498   6.180   3.067   1.959
 4867SOL     OW15499   3.773   5.206   2.049
 4867SOL    HW115500   3.693   5.248   2.006
 4867SOL    HW215501   3.747   5.119   2.091
 4868SOL     OW15502   6.709   4.858   2.759
 4868SOL    HW115503   6.706   4.759   2.749
 4868SOL    HW215504   6.676   4.883   2.850
 4869SOL     OW15505   1.129   0.978   1.951
 4869SOL    HW115506   1.094   0.921   1.877
 4869SOL    HW215507   1.226   0.959   1.965
 4870SOL     OW15508   0.215   5.985   2.555
 4870SOL    HW115509   0.255   5.924   2.486
 4870SOL    HW215510   0.120   5.959   2.571
 4871SOL     OW15511   1.571   1.041   3.868
 4871SOL    HW115512   1.599   1.136   3.858
 4871SOL    HW215513   1.628   0.997   3.938
 4872SOL     OW15514   6.272   6.133   3.728
 4872SOL    HW115515   6.243   6.047   3.687
 4872SOL    HW215516   6.192   6.187   3.754
 4873SOL     OW15517   0.245   4.809   3.484
 4873SOL    HW115518   0.318   4.741   3.473
 4873SOL    HW215519   0.194   4.790   3.567
 4874SOL     OW15520   6.252   3.232   3.007
 4874SOL    HW115521   6.220   3.247   2.913
 4874SOL    HW215522   6.280   3.137   3.018
 4875SOL     OW15523   5.829   2.583   1.565
 4875SOL    HW115524   5.785   2.566   1.653
 4875SOL    HW215525   5.759   2.594   1.494
 4876SOL     OW15526   5.601   1.566   4.425
 4876SOL    HW115527   5.528   1.580   4.492
 4876SOL    HW215528   5.567   1.511   4.349
 4877SOL     OW15529   1.451   2.362   0.040
 4877SOL    HW115530   1.409   2.450   0.060
 4877SOL    HW215531   1.382   2.299   0.004
 4878SOL     OW15532   6.338   0.556   2.927
 4878SOL    HW115533   6.421   0.555   2.982
 4878SOL    HW215534   6.294   0.645   2.933
 4879SOL     OW15535   4.333   6.254   2.446
 4879SOL    HW115536   4.396   6.183   2.478
 4879SOL    HW215537   4.260   6.211   2.392
 4880SOL     OW15538   5.540   3.597   0.118
 4880SOL    HW115539   5.452   3.606   0.165
 4880SOL    HW215540   5.610   3.566   0.182
 4881SOL     OW15541   1.500   0.992   6.504
 4881SOL    HW115542   1.530   0.899   6.485
 4881SOL    HW215543   1.571   1.057   6.477
 4882SOL     OW15544   5.382   1.318   4.946
 4882SOL    HW115545   5.398   1.410   4.981
 4882SOL    HW215546   5.379   1.254   5.023
 4883SOL     OW15547   5.348   4.507   2.186
 4883SOL    HW115548   5.253   4.476   2.190
 4883SOL    HW215549   5.377   4.510   2.090
 4884SOL     OW15550   2.965   6.853   1.433
 4884SOL    HW115551   2.884   6.800   1.408
 4884SOL    HW215552   3.041   6.827   1.374
 4885SOL     OW15553   2.065   4.882   2.092
 4885SOL    HW115554   1.996   4.943   2.052
 4885SOL    HW215555   2.156   4.908   2.058
 4886SOL     OW15556   1.331   5.467   1.095
 4886SOL    HW115557   1.306   5.537   1.029
 4886SOL    HW215558   1.321   5.502   1.188
 4887SOL     OW15559   0.858   0.426   2.654
 4887SOL    HW115560   0.771   0.424   2.703
 4887SOL    HW215561   0.864   0.346   2.595
 4888SOL     OW15562   2.425   6.642   4.120
 4888SOL    HW115563   2.503   6.601   4.074
 4888SOL    HW215564   2.404   6.590   4.203
 4889SOL     OW15565   6.712   1.408   6.223
 4889SOL    HW115566   6.662   1.351   6.289
 4889SOL    HW215567   6.650   1.438   6.151
 4890SOL     OW15568   1.149   1.382   0.027
 4890SOL    HW115569   1.230   1.400   6.993
 4890SOL    HW215570   1.170   1.397   0.123
 4891SOL     OW15571   1.462   4.675   6.759
 4891SOL    HW115572   1.551   4.721   6.755
 4891SOL    HW215573   1.464   4.605   6.830
 4892SOL     OW15574   3.264   5.907   2.257
 4892SOL    HW115575   3.176   5.874   2.290
 4892SOL    HW215576   3.254   6.000   2.222
 4893SOL     OW15577   6.446   3.725   1.461
 4893SOL    HW115578   6.389   3.764   1.534
 4893SOL    HW215579   6.397   3.651   1.416
 4894SOL     OW15580   2.496   1.429   2.965
 4894SOL    HW115581   2.476   1.332   2.951
 4894SOL    HW215582   2.422   1.471   3.017
 4895SOL     OW15583   0.807   4.841   3.583
 4895SOL    HW115584   0.716   4.801   3.576
 4895SOL    HW215585   0.802   4.926   3.636
 4896SOL     OW15586   1.750   5.356   2.063
 4896SOL    HW115587   1.769   5.312   2.150
 4896SOL    HW215588   1.826   5.417   2.039
 4897SOL     OW15589   2.604   3.990   6.163
 4897SOL    HW115590   2.620   4.053   6.087
 4897SOL    HW215591   2.526   4.021   6.217
 4898SOL     OW15592   3.970   0.631   4.342
 4898SOL    HW115593   3.912   0.565   4.295
 4898SOL    HW215594   3.965   0.616   4.441
 4899SOL     OW15595   5.944   5.049   3.248
 4899SOL    HW115596   5.888   5.122   3.287
 4899SOL    HW215597   5.890   4.964   3.243
 4900SOL     OW15598   2.142   6.070   4.107
 4900SOL    HW115599   2.204   6.086   4.030
 4900SOL    HW215600   2.052   6.044   4.073
 4901SOL     OW15601   3.251   7.022   5.793
 4901SOL    HW115602   3.290   6.981   5.875
 4901SOL    HW215603   3.176   6.965   5.760
 4902SOL     OW15604   2.440   1.758   4.358
 4902SOL    HW115605   2.439   1.768   4.258
 4902SOL    HW215606   2.348   1.740   4.391
 4903SOL     OW15607   3.993   6.309   6.550
 4903SOL    HW115608   4.020   6.399   6.515
 4903SOL    HW215609   4.073   6.263   6.589
 4904SOL     OW15610   1.869   6.343   3.936
 4904SOL    HW115611   1.952   6.329   3.881
 4904SOL    HW215612   1.805   6.269   3.918
 4905SOL     OW15613   4.642   0.091   2.430
 4905SOL    HW115614   4.589   0.020   2.477
 4905SOL    HW215615   4.637   0.077   2.332
 4906SOL     OW15616   4.621   2.091   5.939
 4906SOL    HW115617   4.719   2.077   5.952
 4906SOL    HW215618   4.578   2.005   5.914
 4907SOL     OW15619   4.465   6.207   1.455
 4907SOL    HW115620   4.389   6.270   1.473
 4907SOL    HW215621   4.538   6.224   1.521
 4908SOL     OW15622   5.428   4.856   6.409
 4908SOL    HW115623   5.452   4.930   6.346
 4908SOL    HW215624   5.467   4.877   6.499
 4909SOL     OW15625   6.702   0.193   4.115
 4909SOL    HW115626   6.694   0.211   4.213
 4909SOL    HW215627   6.641   0.117   4.090
 4910SOL     OW15628   5.825   0.466   5.108
 4910SOL    HW115629   5.877   0.540   5.066
 4910SOL    HW215630   5.869   0.379   5.087
 4911SOL     OW15631   1.281   3.303   4.241
 4911SOL    HW115632   1.215   3.374   4.218
 4911SOL    HW215633   1.232   3.224   4.278
 4912SOL     OW15634   5.117   1.454   6.801
 4912SOL    HW115635   5.063   1.484   6.722
 4912SOL    HW215636   5.210   1.490   6.792
 4913SOL     OW15637   3.644   2.853   4.987
 4913SOL    HW115638   3.708   2.778   5.002
 4913SOL    HW215639   3.649   2.883   4.892
 4914SOL     OW15640   4.231   0.564   5.031
 4914SOL    HW115641   4.175   0.484   5.009
 4914SOL    HW215642   4.199   0.642   4.977
 4915SOL     OW15643   4.827   0.078   5.001
 4915SOL    HW115644   4.816   0.177   4.990
 4915SOL    HW215645   4.801   0.052   5.094
 4916SOL     OW15646   1.601   0.034   4.009
 4916SOL    HW115647   1.568   6.976   3.959
 4916SOL    HW215648   1.556   0.038   4.099
 4917SOL     OW15649   2.805   4.875   1.192
 4917SOL    HW115650   2.848   4.853   1.279
 4917SOL    HW215651   2.829   4.806   1.124
 4918SOL     OW15652   4.483   5.626   2.535
 4918SOL    HW115653   4.444   5.638   2.626
 4918SOL    HW215654   4.417   5.659   2.467
 4919SOL     OW15655   2.931   2.139   0.009
 4919SOL    HW115656   2.961   2.100   0.096
 4919SOL    HW215657   2.913   2.237   0.020
 4920SOL     OW15658   6.184   0.954   4.061
 4920SOL    HW115659   6.141   0.997   3.982
 4920SOL    HW215660   6.120   0.954   4.138
 4921SOL     OW15661   1.345   4.692   0.861
 4921SOL    HW115662   1.429   4.739   0.836
 4921SOL    HW215663   1.292   4.673   0.778
 4922SOL     OW15664   1.803   2.135   5.255
 4922SOL    HW115665   1.871   2.207   5.263
 4922SOL    HW215666   1.711   2.174   5.261
 4923SOL     OW15667   4.337   1.931   2.010
 4923SOL    HW115668   4.245   1.948   2.045
 4923SOL    HW215669   4.343   1.838   1.974
 4924SOL     OW15670   2.829   1.651   5.231
 4924SOL    HW115671   2.785   1.739   5.251
 4924SOL    HW215672   2.866   1.613   5.316
 4925SOL     OW15673   6.565   6.198   2.142
 4925SOL    HW115674   6.563   6.244   2.231
 4925SOL    HW215675   6.487   6.137   2.135
 4926SOL     OW15676   5.669   1.493   0.603
 4926SOL    HW115677   5.649   1.418   0.666
 4926SOL    HW215678   5.628   1.473   0.514
 4927SOL     OW15679   3.711   3.822   4.342
 4927SOL    HW115680   3.661   3.907   4.327
 4927SOL    HW215681   3.809   3.841   4.340
 4928SOL     OW15682   1.413   0.191   6.971
 4928SOL    HW115683   1.366   0.103   6.979
 4928SOL    HW215684   1.458   0.213   0.036
 4929SOL     OW15685   0.567   5.549   4.893
 4929SOL    HW115686   0.478   5.515   4.861
 4929SOL    HW215687   0.557   5.585   4.985
 4930SOL     OW15688   4.875   0.898   3.261
 4930SOL    HW115689   4.929   0.980   3.245
 4930SOL    HW215690   4.920   0.819   3.219
 4931SOL     OW15691   0.029   0.174   0.874
 4931SOL    HW115692   0.071   0.129   0.952
 4931SOL    HW215693   0.088   0.164   0.794
 4932SOL     OW15694   2.728   3.274   1.785
 4932SOL    HW115695   2.763   3.184   1.760
 4932SOL    HW215696   2.758   3.298   1.877
 4933SOL     OW15697   2.410   6.932   3.290
 4933SOL    HW115698   2.418   7.005   3.358
 4933SOL    HW215699   2.347   6.861   3.324
 4934SOL     OW15700   2.547   5.918   2.451
 4934SOL    HW115701   2.478   5.867   2.502
 4934SOL    HW215702   2.573   5.866   2.370
 4935SOL     OW15703   1.640   0.778   6.120
 4935SOL    HW115704   1.588   0.725   6.052
 4935SOL    HW215705   1.660   0.869   6.082
 4936SOL     OW15706   2.548   4.699   1.900
 4936SOL    HW115707   2.631   4.673   1.949
 4936SOL    HW215708   2.472   4.642   1.931
 4937SOL     OW15709   6.571   3.010   5.755
 4937SOL    HW115710   6.570   2.996   5.854
 4937SOL    HW215711   6.609   2.930   5.710
 4938SOL     OW15712   2.235   5.765   5.755
 4938SOL    HW115713   2.222   5.752   5.853
 4938SOL    HW215714   2.315   5.822   5.740
 4939SOL     OW15715   6.433   1.921   3.922
 4939SOL    HW115716   6.474   1.978   3.993
 4939SOL    HW215717   6.381   1.979   3.859
 4940SOL     OW15718   0.144   0.984   5.338
 4940SOL    HW115719   0.115   1.071   5.298
 4940SOL    HW215720   0.107   0.909   5.284
 4941SOL     OW15721   5.081   2.155   5.251
 4941SOL    HW115722   5.135   2.072   5.235
 4941SOL    HW215723   5.143   2.232   5.268
 4942SOL     OW15724   5.477   3.209   6.058
 4942SOL    HW115725   5.571   3.177   6.072
 4942SOL    HW215726   5.419   3.174   6.132
 4943SOL     OW15727   4.557   3.843   6.007
 4943SOL    HW115728   4.518   3.907   6.073
 4943SOL    HW215729   4.485   3.787   5.967
 4944SOL     OW15730   2.277   4.215   1.867
 4944SOL    HW115731   2.225   4.270   1.802
 4944SOL    HW215732   2.367   4.193   1.829
 4945SOL     OW15733   0.811   0.455   4.600
 4945SOL    HW115734   0.812   0.494   4.692
 4945SOL    HW215735   0.803   0.356   4.606
 4946SOL     OW15736   1.529   4.764   0.119
 4946SOL    HW115737   1.487   4.821   0.049
 4946SOL    HW215738   1.621   4.798   0.138
 4947SOL     OW15739   2.480   0.538   1.147
 4947SOL    HW115740   2.475   0.636   1.128
 4947SOL    HW215741   2.562   0.519   1.199
 4948SOL     OW15742   1.635   2.833   2.674
 4948SOL    HW115743   1.577   2.761   2.637
 4948SOL    HW215744   1.591   2.874   2.754
 4949SOL     OW15745   5.610   5.752   6.295
 4949SOL    HW115746   5.600   5.805   6.210
 4949SOL    HW215747   5.630   5.815   6.370
 4950SOL     OW15748   2.558   5.351   4.463
 4950SOL    HW115749   2.564   5.254   4.484
 4950SOL    HW215750   2.485   5.367   4.397
 4951SOL     OW15751   6.210   1.559   5.173
 4951SOL    HW115752   6.160   1.473   5.187
 4951SOL    HW215753   6.307   1.539   5.158
 4952SOL     OW15754   0.687   0.989   6.150
 4952SOL    HW115755   0.620   1.050   6.192
 4952SOL    HW215756   0.761   0.971   6.215
 4953SOL     OW15757   2.061   5.942   2.853
 4953SOL    HW115758   2.086   5.983   2.941
 4953SOL    HW215759   2.091   6.002   2.779
 4954SOL     OW15760   3.632   2.963   0.399
 4954SOL    HW115761   3.580   3.048   0.388
 4954SOL    HW215762   3.576   2.887   0.366
 4955SOL     OW15763   3.028   6.524   6.796
 4955SOL    HW115764   2.958   6.561   6.736
 4955SOL    HW215765   3.115   6.571   6.779
 4956SOL     OW15766   2.113   0.151   5.138
 4956SOL    HW115767   2.081   0.174   5.230
 4956SOL    HW215768   2.194   0.092   5.144
 4957SOL     OW15769   6.027   2.140   2.286
 4957SOL    HW115770   6.047   2.102   2.376
 4957SOL    HW215771   5.936   2.182   2.287
 4958SOL     OW15772   0.060   5.444   5.414
 4958SOL    HW115773   0.135   5.441   5.348
 4958SOL    HW215774   0.089   5.494   5.495
 4959SOL     OW15775   6.456   1.760   0.080
 4959SOL    HW115776   6.523   1.811   0.135
 4959SOL    HW215777   6.369   1.809   0.080
 4960SOL     OW15778   3.210   4.955   3.261
 4960SOL    HW115779   3.206   4.944   3.360
 4960SOL    HW215780   3.223   5.051   3.238
 4961SOL     OW15781   4.464   1.342   5.866
 4961SOL    HW115782   4.513   1.387   5.792
 4961SOL    HW215783   4.387   1.399   5.894
 4962SOL     OW15784   6.232   2.256   0.435
 4962SOL    HW115785   6.239   2.277   0.338
 4962SOL    HW215786   6.322   2.229   0.470
 4963SOL     OW15787   6.333   5.746   0.562
 4963SOL    HW115788   6.336   5.725   0.465
 4963SOL    HW215789   6.246   5.716   0.601
 4964SOL     OW15790   3.131   0.215   3.585
 4964SOL    HW115791   3.049   0.166   3.613
 4964SOL    HW215792   3.106   0.294   3.528
 4965SOL     OW15793   0.594   1.014   2.481
 4965SOL    HW115794   0.614   1.081   2.553
 4965SOL    HW215795   0.521   0.954   2.512
 4966SOL     OW15796   2.301   6.987   5.235
 4966SOL    HW115797   2.388   6.962   5.275
 4966SOL    HW215798   2.227   6.934   5.278
 4967SOL     OW15799   3.345   5.331   5.736
 4967SOL    HW115800   3.292   5.350   5.653
 4967SOL    HW215801   3.369   5.234   5.738
 4968SOL     OW15802   6.742   1.610   3.567
 4968SOL    HW115803   6.733   1.687   3.630
 4968SOL    HW215804   6.830   1.565   3.582
 4969SOL     OW15805   2.440   6.370   2.874
 4969SOL    HW115806   2.509   6.421   2.822
 4969SOL    HW215807   2.403   6.429   2.946
 4970SOL     OW15808   2.072   2.524   2.929
 4970SOL    HW115809   2.006   2.555   2.997
 4970SOL    HW215810   2.036   2.444   2.882
 4971SOL     OW15811   6.191   5.541   3.850
 4971SOL    HW115812   6.268   5.564   3.791
 4971SOL    HW215813   6.160   5.447   3.830
 4972SOL     OW15814   1.433   3.838   0.757
 4972SOL    HW115815   1.374   3.795   0.826
 4972SOL    HW215816   1.400   3.815   0.666
 4973SOL     OW15817   1.717   6.866   2.204
 4973SOL    HW115818   1.724   6.785   2.145
 4973SOL    HW215819   1.682   6.943   2.151
 4974SOL     OW15820   6.182   4.218   0.989
 4974SOL    HW115821   6.134   4.305   0.999
 4974SOL    HW215822   6.120   4.143   1.015
 4975SOL     OW15823   5.672   4.332   5.468
 4975SOL    HW115824   5.743   4.304   5.532
 4975SOL    HW215825   5.711   4.392   5.398
 4976SOL     OW15826   2.196   0.502   3.478
 4976SOL    HW115827   2.206   0.560   3.559
 4976SOL    HW215828   2.109   0.524   3.432
 4977SOL     OW15829   3.790   4.543   0.271
 4977SOL    HW115830   3.695   4.545   0.240
 4977SOL    HW215831   3.850   4.536   0.191
 4978SOL     OW15832   6.876   4.054   4.740
 4978SOL    HW115833   6.961   4.008   4.714
 4978SOL    HW215834   6.867   4.055   4.840
 4979SOL     OW15835   0.347   0.143   6.195
 4979SOL    HW115836   0.413   0.092   6.250
 4979SOL    HW215837   0.392   0.223   6.156
 4980SOL     OW15838   5.184   6.442   3.326
 4980SOL    HW115839   5.201   6.372   3.395
 4980SOL    HW215840   5.194   6.402   3.235
 4981SOL     OW15841   4.688   6.067   0.160
 4981SOL    HW115842   4.719   5.972   0.171
 4981SOL    HW215843   4.661   6.081   0.064
 4982SOL     OW15844   2.475   1.365   5.977
 4982SOL    HW115845   2.522   1.389   6.062
 4982SOL    HW215846   2.402   1.299   5.997
 4983SOL     OW15847   6.018   3.173   4.813
 4983SOL    HW115848   6.012   3.254   4.872
 4983SOL    HW215849   5.943   3.111   4.835
 4984SOL     OW15850   5.652   3.958   3.549
 4984SOL    HW115851   5.720   4.014   3.501
 4984SOL    HW215852   5.605   3.899   3.483
 4985SOL     OW15853   6.346   6.260   3.370
 4985SOL    HW115854   6.330   6.162   3.382
 4985SOL    HW215855   6.430   6.286   3.418
 4986SOL     OW15856   5.965   4.348   1.960
 4986SOL    HW115857   5.913   4.297   2.028
 4986SOL    HW215858   6.053   4.303   1.943
 4987SOL     OW15859   1.066   0.290   1.534
 4987SOL    HW115860   0.976   0.261   1.503
 4987SOL    HW215861   1.114   0.338   1.460
 4988SOL     OW15862   5.165   0.805   3.290
 4988SOL    HW115863   5.221   0.835   3.212
 4988SOL    HW215864   5.113   0.723   3.264
 4989SOL     OW15865   4.771   0.140   1.940
 4989SOL    HW115866   4.769   0.223   1.885
 4989SOL    HW215867   4.825   0.070   1.892
 4990SOL     OW15868   2.020   2.317   5.413
 4990SOL    HW115869   2.025   2.401   5.358
 4990SOL    HW215870   2.108   2.271   5.411
 4991SOL     OW15871   6.606   4.985   4.091
 4991SOL    HW115872   6.517   4.993   4.136
 4991SOL    HW215873   6.678   4.982   4.160
 4992SOL     OW15874   4.990   1.107   4.012
 4992SOL    HW115875   5.005   1.041   4.086
 4992SOL    HW215876   4.989   1.059   3.925
 4993SOL     OW15877   3.003   6.153   3.976
 4993SOL    HW115878   2.979   6.167   4.072
 4993SOL    HW215879   2.933   6.097   3.932
 4994SOL     OW15880   2.112   6.945   3.008
 4994SOL    HW115881   2.061   6.959   2.924
 4994SOL    HW215882   2.048   6.926   3.083
 4995SOL     OW15883   0.043   2.532   5.778
 4995SOL    HW115884   0.047   2.446   5.725
 4995SOL    HW215885   0.068   2.608   5.719
 4996SOL     OW15886   1.399   1.324   2.506
 4996SOL    HW115887   1.338   1.381   2.561
 4996SOL    HW215888   1.384   1.343   2.409
 4997SOL     OW15889   5.352   2.270   2.980
 4997SOL    HW115890   5.374   2.313   2.892
 4997SOL    HW215891   5.307   2.338   3.039
 4998SOL     OW15892   2.209   4.221   4.992
 4998SOL    HW115893   2.273   4.288   4.954
 4998SOL    HW215894   2.254   4.132   4.998
 4999SOL     OW15895   6.482   4.110   0.292
 4999SOL    HW115896   6.458   4.130   0.197
 4999SOL    HW215897   6.418   4.155   0.354
 5000SOL     OW15898   2.788   6.498   3.389
 5000SOL    HW115899   2.788   6.440   3.308
 5000SOL    HW215900   2.805   6.442   3.470
 5001SOL     OW15901   0.251   4.192   0.921
 5001SOL    HW115902   0.206   4.121   0.868
 5001SOL    HW215903   0.307   4.150   0.993
 5002SOL     OW15904   0.456   3.099   3.667
 5002SOL    HW115905   0.462   3.171   3.736
 5002SOL    HW215906   0.529   3.111   3.600
 5003SOL     OW15907   2.422   6.347   2.489
 5003SOL    HW115908   2.487   6.388   2.553
 5003SOL    HW215909   2.382   6.265   2.530
 5004SOL     OW15910   3.374   5.037   6.138
 5004SOL    HW115911   3.435   5.112   6.163
 5004SOL    HW215912   3.428   4.959   6.107
 5005SOL     OW15913   3.134   2.512   0.505
 5005SOL    HW115914   3.213   2.484   0.451
 5005SOL    HW215915   3.054   2.460   0.475
 5006SOL     OW15916   5.310   1.105   0.505
 5006SOL    HW115917   5.241   1.178   0.499
 5006SOL    HW215918   5.281   1.027   0.450
 5007SOL     OW15919   1.496   6.827   6.870
 5007SOL    HW115920   1.402   6.854   6.892
 5007SOL    HW215921   1.551   6.909   6.853
 5008SOL     OW15922   6.782   6.416   3.229
 5008SOL    HW115923   6.846   6.461   3.167
 5008SOL    HW215924   6.691   6.414   3.187
 5009SOL     OW15925   1.456   6.421   0.792
 5009SOL    HW115926   1.450   6.403   0.693
 5009SOL    HW215927   1.370   6.461   0.823
 5010SOL     OW15928   3.292   3.444   2.675
 5010SOL    HW115929   3.342   3.358   2.670
 5010SOL    HW215930   3.219   3.445   2.606
 5011SOL     OW15931   1.829   3.681   2.986
 5011SOL    HW115932   1.876   3.697   2.899
 5011SOL    HW215933   1.825   3.583   3.004
 5012SOL     OW15934   5.212   4.365   6.167
 5012SOL    HW115935   5.304   4.371   6.206
 5012SOL    HW215936   5.153   4.316   6.230
 5013SOL     OW15937   5.057   1.577   6.562
 5013SOL    HW115938   5.087   1.672   6.571
 5013SOL    HW215939   5.054   1.552   6.465
 5014SOL     OW15940   5.420   4.534   0.664
 5014SOL    HW115941   5.505   4.586   0.653
 5014SOL    HW215942   5.442   4.437   0.678
 5015SOL     OW15943   4.410   1.908   4.380
 5015SOL    HW115944   4.356   1.826   4.403
 5015SOL    HW215945   4.381   1.942   4.290
 5016SOL     OW15946   2.003   2.360   0.939
 5016SOL    HW115947   2.091   2.408   0.934
 5016SOL    HW215948   1.938   2.405   0.877
 5017SOL     OW15949   1.898   2.068   0.300
 5017SOL    HW115950   1.846   2.143   0.340
 5017SOL    HW215951   1.936   2.011   0.374
 5018SOL     OW15952   6.947   4.271   2.022
 5018SOL    HW115953   6.971   4.195   1.962
 5018SOL    HW215954   6.995   4.262   2.109
 5019SOL     OW15955   0.909   5.009   6.606
 5019SOL    HW115956   0.985   5.067   6.634
 5019SOL    HW215957   0.859   5.054   6.531
 5020SOL     OW15958   5.237   0.053   6.318
 5020SOL    HW115959   5.169   0.116   6.355
 5020SOL    HW215960   5.328   0.096   6.324
 5021SOL     OW15961   1.569   1.952   6.129
 5021SOL    HW115962   1.575   1.920   6.035
 5021SOL    HW215963   1.473   1.959   6.157
 5022SOL     OW15964   1.175   0.857   0.142
 5022SOL    HW115965   1.127   0.929   0.193
 5022SOL    HW215966   1.248   0.820   0.199
 5023SOL     OW15967   6.454   3.135   1.228
 5023SOL    HW115968   6.484   3.167   1.317
 5023SOL    HW215969   6.354   3.137   1.223
 5024SOL     OW15970   5.593   5.737   2.180
 5024SOL    HW115971   5.648   5.739   2.264
 5024SOL    HW215972   5.653   5.751   2.101
 5025SOL     OW15973   3.801   2.222   1.673
 5025SOL    HW115974   3.762   2.283   1.742
 5025SOL    HW215975   3.887   2.261   1.639
 5026SOL     OW15976   6.344   6.311   6.327
 5026SOL    HW115977   6.372   6.366   6.249
 5026SOL    HW215978   6.250   6.334   6.352
 5027SOL     OW15979   0.637   6.175   2.486
 5027SOL    HW115980   0.648   6.079   2.510
 5027SOL    HW215981   0.540   6.198   2.481
 5028SOL     OW15982   0.905   0.343   3.197
 5028SOL    HW115983   0.955   0.257   3.205
 5028SOL    HW215984   0.952   0.413   3.251
 5029SOL     OW15985   0.277   2.208   3.066
 5029SOL    HW115986   0.214   2.136   3.038
 5029SOL    HW215987   0.319   2.184   3.154
 5030SOL     OW15988   6.794   6.996   6.847
 5030SOL    HW115989   6.728   6.922   6.836
 5030SOL    HW215990   6.759   0.040   6.913
 5031SOL     OW15991   6.020   0.761   4.710
 5031SOL    HW115992   6.032   0.669   4.672
 5031SOL    HW215993   6.099   0.817   4.686
 5032SOL     OW15994   1.155   3.723   1.169
 5032SOL    HW115995   1.142   3.807   1.223
 5032SOL    HW215996   1.184   3.649   1.230
 5033SOL     OW15997   3.128   6.270   6.191
 5033SOL    HW115998   3.133   6.312   6.101
 5033SOL    HW215999   3.208   6.211   6.205
 5034SOL     OW16000   5.275   1.058   2.847
 5034SOL    HW116001   5.198   1.037   2.787
 5034SOL    HW216002   5.275   0.995   2.924
 5035SOL     OW16003   0.298   4.318   0.416
 5035SOL    HW116004   0.388   4.359   0.401
 5035SOL    HW216005   0.306   4.219   0.420
 5036SOL     OW16006   0.060   5.010   0.068
 5036SOL    HW116007   0.025   4.955   0.144
 5036SOL    HW216008   0.045   5.107   0.087
 5037SOL     OW16009   5.186   2.536   3.364
 5037SOL    HW116010   5.183   2.609   3.295
 5037SOL    HW216011   5.149   2.569   3.450
 5038SOL     OW16012   1.768   4.151   6.853
 5038SOL    HW116013   1.775   4.100   6.767
 5038SOL    HW216014   1.675   4.183   6.866
 5039SOL     OW16015   2.940   4.287   5.351
 5039SOL    HW116016   2.924   4.348   5.274
 5039SOL    HW216017   2.966   4.341   5.431
 5040SOL     OW16018   1.787   4.849   6.035
 5040SOL    HW116019   1.726   4.798   5.975
 5040SOL    HW216020   1.869   4.876   5.983
 5041SOL     OW16021   1.576   1.777   1.801
 5041SOL    HW116022   1.535   1.864   1.830
 5041SOL    HW216023   1.621   1.788   1.713
 5042SOL     OW16024   6.124   3.139   0.728
 5042SOL    HW116025   6.062   3.188   0.667
 5042SOL    HW216026   6.180   3.075   0.676
 5043SOL     OW16027   3.054   1.091   6.160
 5043SOL    HW116028   3.073   1.070   6.063
 5043SOL    HW216029   2.959   1.069   6.180
 5044SOL     OW16030   0.071   6.248   1.735
 5044SOL    HW116031   0.118   6.201   1.660
 5044SOL    HW216032   0.027   6.181   1.795
 5045SOL     OW16033   5.769   1.969   0.401
 5045SOL    HW116034   5.747   1.905   0.475
 5045SOL    HW216035   5.687   2.020   0.375
 5046SOL     OW16036   3.565   4.211   3.640
 5046SOL    HW116037   3.516   4.253   3.716
 5046SOL    HW216038   3.638   4.152   3.676
 5047SOL     OW16039   0.432   3.116   2.647
 5047SOL    HW116040   0.372   3.171   2.705
 5047SOL    HW216041   0.442   3.024   2.685
 5048SOL     OW16042   0.602   0.672   1.862
 5048SOL    HW116043   0.658   0.608   1.914
 5048SOL    HW216044   0.656   0.754   1.842
 5049SOL     OW16045   6.555   1.650   5.068
 5049SOL    HW116046   6.631   1.670   5.130
 5049SOL    HW216047   6.542   1.551   5.062
 5050SOL     OW16048   1.349   0.296   1.706
 5050SOL    HW116049   1.251   0.306   1.689
 5050SOL    HW216050   1.371   0.200   1.720
 5051SOL     OW16051   4.191   3.924   1.267
 5051SOL    HW116052   4.260   3.938   1.338
 5051SOL    HW216053   4.223   3.857   1.201
 5052SOL     OW16054   2.125   6.275   5.992
 5052SOL    HW116055   2.061   6.218   6.043
 5052SOL    HW216056   2.219   6.252   6.018
 5053SOL     OW16057   2.245   4.166   3.728
 5053SOL    HW116058   2.313   4.230   3.691
 5053SOL    HW216059   2.272   4.137   3.820
 5054SOL     OW16060   3.741   6.254   4.979
 5054SOL    HW116061   3.791   6.334   5.012
 5054SOL    HW216062   3.646   6.278   4.962
 5055SOL     OW16063   1.994   0.242   5.397
 5055SOL    HW116064   2.077   0.261   5.449
 5055SOL    HW216065   1.941   0.326   5.387
 5056SOL     OW16066   6.320   4.245   0.464
 5056SOL    HW116067   6.229   4.206   0.451
 5056SOL    HW216068   6.314   4.345   0.452
 5057SOL     OW16069   6.693   6.022   5.422
 5057SOL    HW116070   6.681   5.930   5.459
 5057SOL    HW216071   6.697   6.018   5.322
 5058SOL     OW16072   2.762   3.040   5.302
 5058SOL    HW116073   2.668   3.027   5.273
 5058SOL    HW216074   2.791   2.961   5.357
 5059SOL     OW16075   5.610   2.538   3.466
 5059SOL    HW116076   5.599   2.607   3.395
 5059SOL    HW216077   5.608   2.581   3.556
 5060SOL     OW16078   0.414   2.118   5.845
 5060SOL    HW116079   0.507   2.081   5.841
 5060SOL    HW216080   0.384   2.119   5.941
 5061SOL     OW16081   3.602   3.273   2.902
 5061SOL    HW116082   3.639   3.227   2.983
 5061SOL    HW216083   3.678   3.303   2.844
 5062SOL     OW16084   5.497   0.024   3.302
 5062SOL    HW116085   5.506   0.120   3.277
 5062SOL    HW216086   5.450   0.016   3.389
 5063SOL     OW16087   1.313   0.028   2.064
 5063SOL    HW116088   1.283   6.956   2.052
 5063SOL    HW216089   1.257   0.073   2.134
 5064SOL     OW16090   4.309   3.790   1.603
 5064SOL    HW116091   4.302   3.888   1.617
 5064SOL    HW216092   4.405   3.764   1.596
 5065SOL     OW16093   1.694   1.652   3.470
 5065SOL    HW116094   1.710   1.576   3.534
 5065SOL    HW216095   1.738   1.735   3.505
 5066SOL     OW16096   3.414   4.563   0.900
 5066SOL    HW116097   3.410   4.552   0.999
 5066SOL    HW216098   3.444   4.476   0.858
 5067SOL     OW16099   3.352   1.154   2.489
 5067SOL    HW116100   3.318   1.070   2.532
 5067SOL    HW216101   3.392   1.213   2.559
 5068SOL     OW16102   3.151   4.830   6.925
 5068SOL    HW116103   3.145   4.745   6.978
 5068SOL    HW216104   3.210   4.815   6.845
 5069SOL     OW16105   2.129   3.023   5.895
 5069SOL    HW116106   2.183   3.047   5.815
 5069SOL    HW216107   2.040   2.988   5.866
 5070SOL     OW16108   5.129   4.519   4.023
 5070SOL    HW116109   5.113   4.494   4.118
 5070SOL    HW216110   5.220   4.488   3.995
 5071SOL     OW16111   4.099   0.992   3.988
 5071SOL    HW116112   4.106   0.966   4.084
 5071SOL    HW216113   4.084   1.091   3.980
 5072SOL     OW16114   1.082   0.875   1.690
 5072SOL    HW116115   1.110   0.920   1.605
 5072SOL    HW216116   1.098   0.777   1.682
 5073SOL     OW16117   1.664   4.378   1.324
 5073SOL    HW116118   1.704   4.376   1.233
 5073SOL    HW216119   1.576   4.425   1.322
 5074SOL     OW16120   3.358   2.224   1.371
 5074SOL    HW116121   3.282   2.277   1.408
 5074SOL    HW216122   3.415   2.191   1.447
 5075SOL     OW16123   1.459   2.289   6.161
 5075SOL    HW116124   1.557   2.270   6.169
 5075SOL    HW216125   1.408   2.203   6.168
 5076SOL     OW16126   4.965   0.455   1.043
 5076SOL    HW116127   4.924   0.494   0.960
 5076SOL    HW216128   5.012   0.370   1.021
 5077SOL     OW16129   1.672   4.207   5.550
 5077SOL    HW116130   1.634   4.176   5.638
 5077SOL    HW216131   1.664   4.306   5.544
 5078SOL     OW16132   0.940   0.659   4.032
 5078SOL    HW116133   0.933   0.634   4.128
 5078SOL    HW216134   0.921   0.756   4.021
 5079SOL     OW16135   2.162   3.326   4.780
 5079SOL    HW116136   2.180   3.241   4.732
 5079SOL    HW216137   2.164   3.310   4.879
 5080SOL     OW16138   6.047   6.492   6.221
 5080SOL    HW116139   6.003   6.575   6.188
 5080SOL    HW216140   6.105   6.454   6.149
 5081SOL     OW16141   3.028   3.775   5.108
 5081SOL    HW116142   3.123   3.760   5.081
 5081SOL    HW216143   3.012   3.872   5.123
 5082SOL     OW16144   5.342   5.974   1.468
 5082SOL    HW116145   5.244   5.979   1.452
 5082SOL    HW216146   5.391   6.000   1.384
 5083SOL     OW16147   2.336   0.685   2.624
 5083SOL    HW116148   2.337   0.761   2.559
 5083SOL    HW216149   2.307   0.602   2.576
 5084SOL     OW16150   0.790   4.041   4.268
 5084SOL    HW116151   0.870   4.066   4.214
 5084SOL    HW216152   0.808   3.955   4.316
 5085SOL     OW16153   6.549   2.309   6.006
 5085SOL    HW116154   6.632   2.364   6.010
 5085SOL    HW216155   6.474   2.359   6.051
 5086SOL     OW16156   1.289   5.038   2.888
 5086SOL    HW116157   1.285   5.137   2.887
 5086SOL    HW216158   1.385   5.009   2.885
 5087SOL     OW16159   1.548   5.012   2.205
 5087SOL    HW116160   1.511   4.964   2.126
 5087SOL    HW216161   1.473   5.034   2.268
 5088SOL     OW16162   5.882   6.972   3.963
 5088SOL    HW116163   5.973   7.013   3.959
 5088SOL    HW216164   5.853   6.946   3.871
 5089SOL     OW16165   5.997   3.842   4.247
 5089SOL    HW116166   5.938   3.762   4.260
 5089SOL    HW216167   5.962   3.897   4.172
 5090SOL     OW16168   1.958   3.683   2.737
 5090SOL    HW116169   1.985   3.761   2.680
 5090SOL    HW216170   2.026   3.610   2.728
 5091SOL     OW16171   6.749   1.353   1.769
 5091SOL    HW116172   6.701   1.405   1.699
 5091SOL    HW216173   6.848   1.357   1.752
 5092SOL     OW16174   3.479   3.730   3.219
 5092SOL    HW116175   3.426   3.699   3.298
 5092SOL    HW216176   3.464   3.667   3.143
 5093SOL     OW16177   3.155   0.578   0.507
 5093SOL    HW116178   3.090   0.525   0.452
 5093SOL    HW216179   3.194   0.651   0.450
 5094SOL     OW16180   2.483   5.864   5.773
 5094SOL    HW116181   2.520   5.877   5.865
 5094SOL    HW216182   2.537   5.794   5.725
 5095SOL     OW16183   6.318   1.769   3.711
 5095SOL    HW116184   6.354   1.834   3.643
 5095SOL    HW216185   6.337   1.803   3.803
 5096SOL     OW16186   3.758   5.009   6.369
 5096SOL    HW116187   3.851   4.988   6.399
 5096SOL    HW216188   3.750   5.107   6.350
 5097SOL     OW16189   0.915   0.126   6.205
 5097SOL    HW116190   0.896   0.199   6.271
 5097SOL    HW216191   0.884   0.154   6.114
 5098SOL     OW16192   3.199   0.867   2.350
 5098SOL    HW116193   3.240   0.890   2.438
 5098SOL    HW216194   3.134   0.937   2.324
 5099SOL     OW16195   0.550   0.108   0.878
 5099SOL    HW116196   0.481   0.100   0.950
 5099SOL    HW216197   0.602   0.192   0.891
 5100SOL     OW16198   3.245   5.431   4.590
 5100SOL    HW116199   3.179   5.421   4.515
 5100SOL    HW216200   3.239   5.524   4.627
 5101SOL     OW16201   4.279   0.626   6.776
 5101SOL    HW116202   4.190   0.672   6.766
 5101SOL    HW216203   4.279   0.572   6.860
 5102SOL     OW16204   5.771   6.807   4.347
 5102SOL    HW116205   5.727   6.777   4.262
 5102SOL    HW216206   5.840   6.876   4.325
 5103SOL     OW16207   0.258   0.459   4.000
 5103SOL    HW116208   0.169   0.417   3.980
 5103SOL    HW216209   0.271   0.463   4.099
 5104SOL     OW16210   1.770   6.294   1.908
 5104SOL    HW116211   1.733   6.202   1.910
 5104SOL    HW216212   1.747   6.341   1.994
 5105SOL     OW16213   2.097   2.375   0.391
 5105SOL    HW116214   2.185   2.366   0.343
 5105SOL    HW216215   2.083   2.296   0.450
 5106SOL     OW16216   4.154   2.613   0.226
 5106SOL    HW116217   4.141   2.538   0.291
 5106SOL    HW216218   4.230   2.591   0.165
 5107SOL     OW16219   4.065   1.459   1.168
 5107SOL    HW116220   4.035   1.548   1.136
 5107SOL    HW216221   4.079   1.462   1.267
 5108SOL     OW16222   3.914   3.944   4.729
 5108SOL    HW116223   3.979   3.874   4.697
 5108SOL    HW216224   3.821   3.912   4.715
 5109SOL     OW16225   1.033   1.927   6.915
 5109SOL    HW116226   0.936   1.935   6.890
 5109SOL    HW216227   1.049   1.974   7.002
 5110SOL     OW16228   0.589   0.486   5.937
 5110SOL    HW116229   0.613   0.581   5.958
 5110SOL    HW216230   0.584   0.474   5.837
 5111SOL     OW16231   1.277   0.449   4.974
 5111SOL    HW116232   1.177   0.449   4.972
 5111SOL    HW216233   1.313   0.497   4.894
 5112SOL     OW16234   1.398   0.332   3.245
 5112SOL    HW116235   1.458   0.258   3.216
 5112SOL    HW216236   1.329   0.296   3.308
 5113SOL     OW16237   1.644   6.763   0.954
 5113SOL    HW116238   1.699   6.806   1.026
 5113SOL    HW216239   1.704   6.729   0.882
 5114SOL     OW16240   3.686   0.583   6.828
 5114SOL    HW116241   3.706   0.485   6.836
 5114SOL    HW216242   3.592   0.600   6.858
 5115SOL     OW16243   1.546   4.750   3.932
 5115SOL    HW116244   1.523   4.664   3.979
 5115SOL    HW216245   1.613   4.801   3.986
 5116SOL     OW16246   0.474   6.907   6.608
 5116SOL    HW116247   0.450   6.847   6.531
 5116SOL    HW216248   0.563   6.881   6.644
 5117SOL     OW16249   2.180   3.883   4.777
 5117SOL    HW116250   2.235   3.914   4.855
 5117SOL    HW216251   2.167   3.784   4.783
 5118SOL     OW16252   4.825   1.138   0.050
 5118SOL    HW116253   4.889   1.073   0.008
 5118SOL    HW216254   4.860   1.231   0.037
 5119SOL     OW16255   5.237   0.585   2.119
 5119SOL    HW116256   5.170   0.660   2.113
 5119SOL    HW216257   5.204   0.516   2.183
 5120SOL     OW16258   3.450   0.527   4.048
 5120SOL    HW116259   3.462   0.429   4.061
 5120SOL    HW216260   3.482   0.576   4.128
 5121SOL     OW16261   2.765   2.078   6.807
 5121SOL    HW116262   2.794   1.991   6.767
 5121SOL    HW216263   2.819   2.097   6.889
 5122SOL     OW16264   3.432   6.374   3.437
 5122SOL    HW116265   3.515   6.381   3.382
 5122SOL    HW216266   3.352   6.379   3.377
 5123SOL     OW16267   4.355   2.213   4.153
 5123SOL    HW116268   4.393   2.121   4.144
 5123SOL    HW216269   4.321   2.226   4.246
 5124SOL     OW16270   2.551   5.826   4.502
 5124SOL    HW116271   2.470   5.769   4.491
 5124SOL    HW216272   2.572   5.873   4.416
 5125SOL     OW16273   6.128   2.877   3.837
 5125SOL    HW116274   6.180   2.961   3.826
 5125SOL    HW216275   6.104   2.865   3.934
 5126SOL     OW16276   5.857   5.359   5.817
 5126SOL    HW116277   5.927   5.402   5.759
 5126SOL    HW216278   5.769   5.406   5.804
 5127SOL     OW16279   0.923   4.201   6.993
 5127SOL    HW116280   0.919   4.297   6.969
 5127SOL    HW216281   1.006   4.160   6.954
 5128SOL     OW16282   7.014   0.586   6.925
 5128SOL    HW116283   0.092   0.586   6.935
 5128SOL    HW216284   6.989   0.537   6.842
 5129SOL     OW16285   6.353   6.983   2.672
 5129SOL    HW116286   6.295   6.903   2.653
 5129SOL    HW216287   6.382   6.981   2.767
 5130SOL     OW16288   0.302   5.747   3.716
 5130SOL    HW116289   0.270   5.656   3.688
 5130SOL    HW216290   0.349   5.740   3.804
 5131SOL     OW16291   2.172   5.002   4.254
 5131SOL    HW116292   2.138   4.926   4.199
 5131SOL    HW216293   2.262   4.979   4.291
 5132SOL     OW16294   3.320   2.532   6.459
 5132SOL    HW116295   3.266   2.612   6.487
 5132SOL    HW216296   3.359   2.547   6.368
 5133SOL     OW16297   1.883   5.680   6.761
 5133SOL    HW116298   1.887   5.598   6.818
 5133SOL    HW216299   1.932   5.663   6.675
 5134SOL     OW16300   0.181   2.993   2.399
 5134SOL    HW116301   0.248   2.977   2.472
 5134SOL    HW216302   0.117   3.065   2.428
 5135SOL     OW16303   5.672   3.212   4.557
 5135SOL    HW116304   5.614   3.168   4.488
 5135SOL    HW216305   5.614   3.252   4.628
 5136SOL     OW16306   4.728   0.668   6.470
 5136SOL    HW116307   4.789   0.734   6.426
 5136SOL    HW216308   4.633   0.697   6.459
 5137SOL     OW16309   5.287   4.014   5.590
 5137SOL    HW116310   5.323   3.926   5.558
 5137SOL    HW216311   5.362   4.071   5.622
 5138SOL     OW16312   3.943   3.241   5.195
 5138SOL    HW116313   3.990   3.273   5.113
 5138SOL    HW216314   3.933   3.141   5.191
 5139SOL     OW16315   1.544   1.164   3.079
 5139SOL    HW116316   1.579   1.090   3.022
 5139SOL    HW216317   1.552   1.138   3.175
 5140SOL     OW16318   3.930   2.941   6.401
 5140SOL    HW116319   3.942   3.009   6.474
 5140SOL    HW216320   3.833   2.935   6.377
 5141SOL     OW16321   6.168   3.742   1.059
 5141SOL    HW116322   6.179   3.801   1.138
 5141SOL    HW216323   6.247   3.752   0.998
 5142SOL     OW16324   6.239   6.704   2.978
 5142SOL    HW116325   6.300   6.679   2.903
 5142SOL    HW216326   6.150   6.728   2.942
 5143SOL     OW16327   6.419   4.405   4.026
 5143SOL    HW116328   6.334   4.439   4.065
 5143SOL    HW216329   6.404   4.382   3.929
 5144SOL     OW16330   0.990   4.472   5.406
 5144SOL    HW116331   0.901   4.426   5.413
 5144SOL    HW216332   1.000   4.536   5.482
 5145SOL     OW16333   2.992   5.320   5.663
 5145SOL    HW116334   2.939   5.303   5.580
 5145SOL    HW216335   3.014   5.417   5.670
 5146SOL     OW16336   3.334   3.858   5.327
 5146SOL    HW116337   3.364   3.942   5.281
 5146SOL    HW216338   3.267   3.811   5.270
 5147SOL     OW16339   6.859   5.549   2.740
 5147SOL    HW116340   6.813   5.464   2.714
 5147SOL    HW216341   6.815   5.587   2.822
 5148SOL     OW16342   6.130   6.926   1.650
 5148SOL    HW116343   6.228   6.938   1.660
 5148SOL    HW216344   6.107   6.829   1.652
 5149SOL     OW16345   6.675   5.195   2.973
 5149SOL    HW116346   6.593   5.156   2.930
 5149SOL    HW216347   6.647   5.251   3.051
 5150SOL     OW16348   2.154   5.398   3.187
 5150SOL    HW116349   2.085   5.444   3.243
 5150SOL    HW216350   2.218   5.350   3.247
 5151SOL     OW16351   6.400   2.881   1.767
 5151SOL    HW116352   6.355   2.881   1.678
 5151SOL    HW216353   6.379   2.795   1.815
 5152SOL     OW16354   1.786   4.587   7.000
 5152SOL    HW116355   1.688   4.578   7.020
 5152SOL    HW216356   1.815   4.681   7.019
 5153SOL     OW16357   1.926   1.011   6.962
 5153SOL    HW116358   1.933   0.946   6.886
 5153SOL    HW216359   2.014   1.016   7.010
 5154SOL     OW16360   0.796   2.665   6.050
 5154SOL    HW116361   0.701   2.634   6.058
 5154SOL    HW216362   0.798   2.753   6.003
 5155SOL     OW16363   4.258   0.502   2.182
 5155SOL    HW116364   4.329   0.433   2.169
 5155SOL    HW216365   4.286   0.565   2.254
 5156SOL     OW16366   5.761   3.685   6.169
 5156SOL    HW116367   5.688   3.630   6.209
 5156SOL    HW216368   5.734   3.713   6.077
 5157SOL     OW16369   3.882   2.086   3.216
 5157SOL    HW116370   3.912   2.002   3.261
 5157SOL    HW216371   3.914   2.165   3.268
 5158SOL     OW16372   3.902   1.668   1.675
 5158SOL    HW116373   3.825   1.647   1.735
 5158SOL    HW216374   3.893   1.762   1.640
 5159SOL     OW16375   6.687   3.889   4.402
 5159SOL    HW116376   6.597   3.871   4.441
 5159SOL    HW216377   6.758   3.854   4.464
 5160SOL     OW16378   0.177   5.196   2.790
 5160SOL    HW116379   0.181   5.105   2.830
 5160SOL    HW216380   0.216   5.263   2.853
 5161SOL     OW16381   1.942   3.830   5.996
 5161SOL    HW116382   2.040   3.821   6.011
 5161SOL    HW216383   1.895   3.751   6.035
 5162SOL     OW16384   1.065   4.870   2.908
 5162SOL    HW116385   0.975   4.910   2.891
 5162SOL    HW216386   1.130   4.943   2.930
 5163SOL     OW16387   3.601   6.490   0.133
 5163SOL    HW116388   3.639   6.515   0.044
 5163SOL    HW216389   3.622   6.562   0.199
 5164SOL     OW16390   3.831   2.670   6.559
 5164SOL    HW116391   3.892   2.669   6.480
 5164SOL    HW216392   3.835   2.759   6.603
 5165SOL     OW16393   6.312   4.258   5.799
 5165SOL    HW116394   6.318   4.349   5.841
 5165SOL    HW216395   6.304   4.267   5.700
 5166SOL     OW16396   0.567   5.158   2.408
 5166SOL    HW116397   0.558   5.063   2.438
 5166SOL    HW216398   0.662   5.187   2.417
 5167SOL     OW16399   6.793   6.372   6.513
 5167SOL    HW116400   6.871   6.376   6.450
 5167SOL    HW216401   6.827   6.358   6.606
 5168SOL     OW16402   5.263   3.554   1.774
 5168SOL    HW116403   5.261   3.598   1.863
 5168SOL    HW216404   5.278   3.456   1.785
 5169SOL     OW16405   4.036   1.999   4.395
 5169SOL    HW116406   3.954   2.044   4.430
 5169SOL    HW216407   4.105   2.068   4.374
 5170SOL     OW16408   0.390   4.337   5.456
 5170SOL    HW116409   0.362   4.308   5.364
 5170SOL    HW216410   0.481   4.378   5.451
 5171SOL     OW16411   0.677   5.174   4.479
 5171SOL    HW116412   0.697   5.270   4.459
 5171SOL    HW216413   0.679   5.160   4.578
 5172SOL     OW16414   1.476   2.774   2.403
 5172SOL    HW116415   1.439   2.684   2.426
 5172SOL    HW216416   1.403   2.841   2.401
 5173SOL     OW16417   5.456   5.109   5.929
 5173SOL    HW116418   5.399   5.177   5.974
 5173SOL    HW216419   5.433   5.018   5.964
 5174SOL     OW16420   2.161   4.914   3.318
 5174SOL    HW116421   2.238   4.880   3.372
 5174SOL    HW216422   2.121   4.993   3.364
 5175SOL     OW16423   2.819   3.296   6.841
 5175SOL    HW116424   2.841   3.249   6.927
 5175SOL    HW216425   2.874   3.257   6.767
 5176SOL     OW16426   4.766   3.125   6.730
 5176SOL    HW116427   4.856   3.164   6.712
 5176SOL    HW216428   4.759   3.099   6.827
 5177SOL     OW16429   5.114   0.652   7.007
 5177SOL    HW116430   5.038   0.631   0.047
 5177SOL    HW216431   5.082   0.708   6.932
 5178SOL     OW16432   1.113   4.373   2.334
 5178SOL    HW116433   1.101   4.297   2.398
 5178SOL    HW216434   1.079   4.347   2.244
 5179SOL     OW16435   4.128   5.755   3.639
 5179SOL    HW116436   4.155   5.740   3.544
 5179SOL    HW216437   4.073   5.678   3.671
 5180SOL     OW16438   2.350   1.989   1.047
 5180SOL    HW116439   2.258   2.017   1.020
 5180SOL    HW216440   2.414   2.063   1.025
 5181SOL     OW16441   5.603   1.228   2.544
 5181SOL    HW116442   5.647   1.262   2.627
 5181SOL    HW216443   5.673   1.211   2.474
 5182SOL     OW16444   4.037   4.341   1.596
 5182SOL    HW116445   4.044   4.258   1.651
 5182SOL    HW216446   3.949   4.342   1.548
 5183SOL     OW16447   4.130   1.471   3.124
 5183SOL    HW116448   4.130   1.496   3.221
 5183SOL    HW216449   4.224   1.459   3.092
 5184SOL     OW16450   0.739   1.720   4.446
 5184SOL    HW116451   0.728   1.629   4.487
 5184SOL    HW216452   0.711   1.717   4.350
 5185SOL     OW16453   5.681   0.573   2.272
 5185SOL    HW116454   5.708   0.513   2.197
 5185SOL    HW216455   5.718   0.536   2.358
 5186SOL     OW16456   6.511   2.800   0.652
 5186SOL    HW116457   6.565   2.730   0.605
 5186SOL    HW216458   6.416   2.796   0.618
 5187SOL     OW16459   1.071   0.001   4.468
 5187SOL    HW116460   1.138   0.061   4.512
 5187SOL    HW216461   1.116   6.968   4.398
 5188SOL     OW16462   0.765   5.477   0.853
 5188SOL    HW116463   0.755   5.548   0.783
 5188SOL    HW216464   0.806   5.517   0.935
 5189SOL     OW16465   3.424   4.306   0.738
 5189SOL    HW116466   3.405   4.247   0.659
 5189SOL    HW216467   3.522   4.308   0.755
 5190SOL     OW16468   0.656   1.804   4.191
 5190SOL    HW116469   0.718   1.868   4.145
 5190SOL    HW216470   0.608   1.749   4.123
 5191SOL     OW16471   3.919   0.373   1.817
 5191SOL    HW116472   3.988   0.445   1.817
 5191SOL    HW216473   3.828   0.414   1.828
 5192SOL     OW16474   2.655   5.513   2.653
 5192SOL    HW116475   2.618   5.480   2.740
 5192SOL    HW216476   2.752   5.487   2.646
 5193SOL     OW16477   5.190   4.705   5.097
 5193SOL    HW116478   5.166   4.758   5.015
 5193SOL    HW216479   5.153   4.612   5.089
 5194SOL     OW16480   4.837   2.262   0.287
 5194SOL    HW116481   4.832   2.180   0.230
 5194SOL    HW216482   4.817   2.238   0.382
 5195SOL     OW16483   6.379   6.544   4.098
 5195SOL    HW116484   6.370   6.474   4.027
 5195SOL    HW216485   6.440   6.510   4.170
 5196SOL     OW16486   3.300   5.249   0.302
 5196SOL    HW116487   3.306   5.210   0.394
 5196SOL    HW216488   3.250   5.186   0.243
 5197SOL     OW16489   2.004   5.422   5.502
 5197SOL    HW116490   2.077   5.476   5.544
 5197SOL    HW216491   2.019   5.325   5.522
 5198SOL     OW16492   4.346   6.542   3.682
 5198SOL    HW116493   4.275   6.613   3.687
 5198SOL    HW216494   4.311   6.457   3.719
 5199SOL     OW16495   1.743   5.854   0.272
 5199SOL    HW116496   1.678   5.926   0.295
 5199SOL    HW216497   1.701   5.790   0.207
 5200SOL     OW16498   1.054   2.410   5.257
 5200SOL    HW116499   0.966   2.384   5.218
 5200SOL    HW216500   1.088   2.492   5.211
 5201SOL     OW16501   0.298   6.504   3.893
 5201SOL    HW116502   0.262   6.553   3.814
 5201SOL    HW216503   0.389   6.537   3.915
 5202SOL     OW16504   5.923   4.086   5.863
 5202SOL    HW116505   5.899   4.104   5.958
 5202SOL    HW216506   6.020   4.064   5.856
 5203SOL     OW16507   2.445   1.310   6.791
 5203SOL    HW116508   2.348   1.289   6.801
 5203SOL    HW216509   2.456   1.405   6.765
 5204SOL     OW16510   4.347   5.790   6.631
 5204SOL    HW116511   4.396   5.798   6.544
 5204SOL    HW216512   4.287   5.711   6.628
 5205SOL     OW16513   0.667   5.929   0.618
 5205SOL    HW116514   0.568   5.934   0.631
 5205SOL    HW216515   0.701   6.016   0.583
 5206SOL     OW16516   0.419   4.854   6.534
 5206SOL    HW116517   0.387   4.762   6.512
 5206SOL    HW216518   0.456   4.855   6.627
 5207SOL     OW16519   1.037   6.246   4.194
 5207SOL    HW116520   0.978   6.261   4.115
 5207SOL    HW216521   1.036   6.149   4.218
 5208SOL     OW16522   5.310   2.494   6.679
 5208SOL    HW116523   5.266   2.476   6.590
 5208SOL    HW216524   5.239   2.505   6.749
 5209SOL     OW16525   5.704   6.456   2.353
 5209SOL    HW116526   5.636   6.437   2.423
 5209SOL    HW216527   5.677   6.413   2.267
 5210SOL     OW16528   4.577   2.802   0.357
 5210SOL    HW116529   4.638   2.878   0.335
 5210SOL    HW216530   4.591   2.728   0.291
 5211SOL     OW16531   3.945   2.389   5.795
 5211SOL    HW116532   3.927   2.364   5.700
 5211SOL    HW216533   3.859   2.402   5.844
 5212SOL     OW16534   0.527   2.793   0.625
 5212SOL    HW116535   0.547   2.788   0.528
 5212SOL    HW216536   0.547   2.705   0.668
 5213SOL     OW16537   4.746   4.288   6.833
 5213SOL    HW116538   4.840   4.321   6.829
 5213SOL    HW216539   4.686   4.362   6.863
 5214SOL     OW16540   5.384   2.095   6.094
 5214SOL    HW116541   5.379   2.195   6.085
 5214SOL    HW216542   5.462   2.061   6.042
 5215SOL     OW16543   0.983   4.127   4.095
 5215SOL    HW116544   1.044   4.051   4.119
 5215SOL    HW216545   0.975   4.133   3.996
 5216SOL     OW16546   4.660   4.965   1.979
 5216SOL    HW116547   4.621   5.019   2.053
 5216SOL    HW216548   4.736   5.016   1.938
 5217SOL     OW16549   3.669   5.390   4.212
 5217SOL    HW116550   3.641   5.304   4.253
 5217SOL    HW216551   3.762   5.412   4.242
 5218SOL     OW16552   0.874   0.849   2.154
 5218SOL    HW116553   0.953   0.792   2.178
 5218SOL    HW216554   0.884   0.939   2.196
 5219SOL     OW16555   4.356   1.485   4.876
 5219SOL    HW116556   4.362   1.574   4.831
 5219SOL    HW216557   4.435   1.472   4.936
 5220SOL     OW16558   0.877   6.267   2.363
 5220SOL    HW116559   0.881   6.210   2.280
 5220SOL    HW216560   0.805   6.233   2.423
 5221SOL     OW16561   5.946   1.372   3.833
 5221SOL    HW116562   5.860   1.421   3.843
 5221SOL    HW216563   5.989   1.398   3.746
 5222SOL     OW16564   4.266   6.433   3.175
 5222SOL    HW116565   4.191   6.370   3.197
 5222SOL    HW216566   4.353   6.394   3.207
 5223SOL     OW16567   6.089   2.478   0.701
 5223SOL    HW116568   6.132   2.532   0.629
 5223SOL    HW216569   6.032   2.538   0.758
 5224SOL     OW16570   6.192   2.922   4.834
 5224SOL    HW116571   6.157   2.843   4.885
 5224SOL    HW216572   6.116   2.984   4.812
 5225SOL     OW16573   0.416   0.716   3.930
 5225SOL    HW116574   0.442   0.722   3.834
 5225SOL    HW216575   0.372   0.628   3.947
 5226SOL     OW16576   6.800   0.140   5.039
 5226SOL    HW116577   6.834   0.093   5.120
 5226SOL    HW216578   6.871   0.201   5.003
 5227SOL     OW16579   0.160   3.327   5.025
 5227SOL    HW116580   0.232   3.276   4.978
 5227SOL    HW216581   0.073   3.279   5.016
 5228SOL     OW16582   6.226   2.219   0.947
 5228SOL    HW116583   6.205   2.312   0.976
 5228SOL    HW216584   6.198   2.207   0.852
 5229SOL     OW16585   2.608   5.996   0.402
 5229SOL    HW116586   2.619   5.932   0.326
 5229SOL    HW216587   2.526   6.051   0.387
 5230SOL     OW16588   0.679   5.660   1.704
 5230SOL    HW116589   0.581   5.653   1.688
 5230SOL    HW216590   0.714   5.744   1.663
 5231SOL     OW16591   4.794   2.318   4.521
 5231SOL    HW116592   4.891   2.341   4.534
 5231SOL    HW216593   4.738   2.394   4.554
 5232SOL     OW16594   2.114   3.487   6.278
 5232SOL    HW116595   2.195   3.444   6.318
 5232SOL    HW216596   2.113   3.470   6.179
 5233SOL     OW16597   4.560   1.037   2.163
 5233SOL    HW116598   4.605   0.959   2.120
 5233SOL    HW216599   4.465   1.015   2.183
 5234SOL     OW16600   2.555   1.649   5.843
 5234SOL    HW116601   2.507   1.571   5.883
 5234SOL    HW216602   2.521   1.733   5.884
 5235SOL     OW16603   1.809   2.511   0.764
 5235SOL    HW116604   1.722   2.475   0.798
 5235SOL    HW216605   1.804   2.521   0.665
 5236SOL     OW16606   4.876   5.088   1.808
 5236SOL    HW116607   4.929   5.012   1.769
 5236SOL    HW216608   4.939   5.161   1.837
 5237SOL     OW16609   1.521   1.400   4.992
 5237SOL    HW116610   1.575   1.355   4.921
 5237SOL    HW216611   1.461   1.333   5.037
 5238SOL     OW16612   0.419   4.389   0.099
 5238SOL    HW116613   0.385   4.295   0.106
 5238SOL    HW216614   0.348   4.448   0.062
 5239SOL     OW16615   3.237   3.051   4.488
 5239SOL    HW116616   3.166   3.075   4.554
 5239SOL    HW216617   3.255   3.129   4.429
 5240SOL     OW16618   2.721   2.358   5.734
 5240SOL    HW116619   2.661   2.382   5.811
 5240SOL    HW216620   2.775   2.438   5.708
 5241SOL     OW16621   0.366   5.215   4.639
 5241SOL    HW116622   0.300   5.168   4.697
 5241SOL    HW216623   0.386   5.306   4.676
 5242SOL     OW16624   6.703   6.627   6.655
 5242SOL    HW116625   6.668   6.550   6.708
 5242SOL    HW216626   6.719   6.599   6.561
 5243SOL     OW16627   1.512   5.519   1.524
 5243SOL    HW116628   1.473   5.440   1.570
 5243SOL    HW216629   1.612   5.509   1.518
 5244SOL     OW16630   3.207   5.559   6.852
 5244SOL    HW116631   3.120   5.544   6.805
 5244SOL    HW216632   3.257   5.473   6.857
 5245SOL     OW16633   3.917   4.784   6.929
 5245SOL    HW116634   3.925   4.785   0.007
 5245SOL    HW216635   3.858   4.860   6.900
 5246SOL     OW16636   5.396   3.765   1.631
 5246SOL    HW116637   5.361   3.672   1.616
 5246SOL    HW216638   5.343   3.830   1.577
 5247SOL     OW16639   1.596   0.892   6.976
 5247SOL    HW116640   1.524   0.908   6.908
 5247SOL    HW216641   1.596   0.967   0.021
 5248SOL     OW16642   5.691   1.465   3.870
 5248SOL    HW116643   5.670   1.448   3.967
 5248SOL    HW216644   5.630   1.411   3.813
 5249SOL     OW16645   0.028   5.161   6.053
 5249SOL    HW116646   6.961   5.129   6.088
 5249SOL    HW216647   0.101   5.131   6.114
 5250SOL     OW16648   1.931   5.698   6.253
 5250SOL    HW116649   1.899   5.646   6.174
 5250SOL    HW216650   1.862   5.766   6.279
 5251SOL     OW16651   0.542   3.543   0.092
 5251SOL    HW116652   0.498   3.586   0.014
 5251SOL    HW216653   0.578   3.454   0.065
 5252SOL     OW16654   1.823   6.329   0.341
 5252SOL    HW116655   1.858   6.253   0.287
 5252SOL    HW216656   1.749   6.296   0.400
 5253SOL     OW16657   6.119   4.857   4.762
 5253SOL    HW116658   6.216   4.882   4.759
 5253SOL    HW216659   6.079   4.888   4.848
 5254SOL     OW16660   4.368   1.040   3.019
 5254SOL    HW116661   4.386   0.941   3.017
 5254SOL    HW216662   4.362   1.075   2.926
 5255SOL     OW16663   6.062   1.783   5.168
 5255SOL    HW116664   5.988   1.744   5.114
 5255SOL    HW216665   6.131   1.713   5.186
 5256SOL     OW16666   3.867   1.404   3.642
 5256SOL    HW116667   3.930   1.372   3.713
 5256SOL    HW216668   3.878   1.348   3.560
 5257SOL     OW16669   5.546   6.559   2.088
 5257SOL    HW116670   5.516   6.568   2.183
 5257SOL    HW216671   5.525   6.467   2.055
 5258SOL     OW16672   5.707   3.384   1.616
 5258SOL    HW116673   5.752   3.357   1.531
 5258SOL    HW216674   5.628   3.325   1.632
 5259SOL     OW16675   5.426   6.302   1.975
 5259SOL    HW116676   5.450   6.207   1.953
 5259SOL    HW216677   5.405   6.352   1.890
 5260SOL     OW16678   5.369   3.594   0.964
 5260SOL    HW116679   5.278   3.606   0.924
 5260SOL    HW216680   5.360   3.555   1.055
 5261SOL     OW16681   0.444   3.737   6.936
 5261SOL    HW116682   0.445   3.728   6.836
 5261SOL    HW216683   0.470   3.830   6.961
 5262SOL     OW16684   2.820   0.831   3.475
 5262SOL    HW116685   2.912   0.824   3.516
 5262SOL    HW216686   2.828   0.825   3.376
 5263SOL     OW16687   1.771   1.726   4.324
 5263SOL    HW116688   1.741   1.699   4.232
 5263SOL    HW216689   1.691   1.747   4.380
 5264SOL     OW16690   6.623   2.383   2.722
 5264SOL    HW116691   6.659   2.434   2.800
 5264SOL    HW216692   6.690   2.381   2.648
 5265SOL     OW16693   6.564   3.776   3.887
 5265SOL    HW116694   6.623   3.738   3.958
 5265SOL    HW216695   6.485   3.820   3.929
 5266SOL     OW16696   2.808   5.541   0.816
 5266SOL    HW116697   2.812   5.641   0.826
 5266SOL    HW216698   2.745   5.517   0.743
 5267SOL     OW16699   5.381   3.920   4.849
 5267SOL    HW116700   5.358   3.832   4.809
 5267SOL    HW216701   5.435   3.906   4.932
 5268SOL     OW16702   5.755   0.659   6.622
 5268SOL    HW116703   5.780   0.584   6.561
 5268SOL    HW216704   5.697   0.625   6.696
 5269SOL     OW16705   1.333   6.958   3.758
 5269SOL    HW116706   1.281   6.875   3.737
 5269SOL    HW216707   1.397   6.977   3.684
 5270SOL     OW16708   6.001   0.945   1.025
 5270SOL    HW116709   5.986   0.851   1.057
 5270SOL    HW216710   5.997   0.947   0.925
 5271SOL     OW16711   6.004   5.593   5.348
 5271SOL    HW116712   5.914   5.634   5.361
 5271SOL    HW216713   6.006   5.543   5.261
 5272SOL     OW16714   3.126   5.335   1.926
 5272SOL    HW116715   3.110   5.256   1.985
 5272SOL    HW216716   3.201   5.315   1.863
 5273SOL     OW16717   6.796   2.915   3.521
 5273SOL    HW116718   6.745   2.846   3.571
 5273SOL    HW216719   6.753   2.931   3.432
 5274SOL     OW16720   6.867   0.046   2.944
 5274SOL    HW116721   6.873   6.986   3.001
 5274SOL    HW216722   6.814   0.026   2.862
 5275SOL     OW16723   3.659   2.454   1.170
 5275SOL    HW116724   3.714   2.524   1.125
 5275SOL    HW216725   3.562   2.476   1.161
 5276SOL     OW16726   1.912   0.589   1.054
 5276SOL    HW116727   1.992   0.586   0.994
 5276SOL    HW216728   1.937   0.555   1.145
 5277SOL     OW16729   1.678   1.433   2.488
 5277SOL    HW116730   1.581   1.409   2.494
 5277SOL    HW216731   1.729   1.357   2.448
 5278SOL     OW16732   6.026   0.189   3.316
 5278SOL    HW116733   5.984   0.275   3.287
 5278SOL    HW216734   5.983   0.113   3.266
 5279SOL     OW16735   1.882   5.164   6.165
 5279SOL    HW116736   1.822   5.109   6.222
 5279SOL    HW216737   1.899   5.117   6.078
 5280SOL     OW16738   2.472   6.384   5.096
 5280SOL    HW116739   2.504   6.315   5.031
 5280SOL    HW216740   2.395   6.434   5.057
 5281SOL     OW16741   0.380   1.862   2.866
 5281SOL    HW116742   0.451   1.927   2.892
 5281SOL    HW216743   0.414   1.768   2.878
 5282SOL     OW16744   2.453   1.839   3.168
 5282SOL    HW116745   2.446   1.939   3.174
 5282SOL    HW216746   2.400   1.798   3.242
 5283SOL     OW16747   4.424   6.740   0.700
 5283SOL    HW116748   4.341   6.716   0.749
 5283SOL    HW216749   4.466   6.821   0.743
 5284SOL     OW16750   4.807   3.793   3.535
 5284SOL    HW116751   4.855   3.716   3.577
 5284SOL    HW216752   4.736   3.759   3.474
 5285SOL     OW16753   2.928   5.180   3.185
 5285SOL    HW116754   2.863   5.131   3.128
 5285SOL    HW216755   2.979   5.115   3.241
 5286SOL     OW16756   1.203   4.628   0.281
 5286SOL    HW116757   1.296   4.607   0.313
 5286SOL    HW216758   1.156   4.684   0.350
 5287SOL     OW16759   2.694   6.781   0.894
 5287SOL    HW116760   2.775   6.724   0.912
 5287SOL    HW216761   2.722   6.877   0.891
 5288SOL     OW16762   3.466   0.439   1.614
 5288SOL    HW116763   3.378   0.446   1.661
 5288SOL    HW216764   3.534   0.492   1.665
 5289SOL     OW16765   1.783   4.227   5.820
 5289SOL    HW116766   1.755   4.310   5.869
 5289SOL    HW216767   1.805   4.250   5.725
 5290SOL     OW16768   1.534   4.936   5.022
 5290SOL    HW116769   1.478   5.019   5.018
 5290SOL    HW216770   1.631   4.962   5.023
 5291SOL     OW16771   2.331   5.123   6.113
 5291SOL    HW116772   2.298   5.094   6.203
 5291SOL    HW216773   2.258   5.172   6.065
 5292SOL     OW16774   6.588   2.940   6.785
 5292SOL    HW116775   6.535   3.018   6.751
 5292SOL    HW216776   6.659   2.916   6.718
 5293SOL     OW16777   0.421   0.340   5.138
 5293SOL    HW116778   0.459   0.276   5.206
 5293SOL    HW216779   0.350   0.293   5.086
 5294SOL     OW16780   4.827   3.479   5.737
 5294SOL    HW116781   4.814   3.399   5.678
 5294SOL    HW216782   4.749   3.540   5.727
 5295SOL     OW16783   5.350   0.617   2.878
 5295SOL    HW116784   5.404   0.533   2.884
 5295SOL    HW216785   5.399   0.685   2.824
 5296SOL     OW16786   2.186   5.184   0.053
 5296SOL    HW116787   2.221   5.275   0.071
 5296SOL    HW216788   2.256   5.116   0.074
 5297SOL     OW16789   2.843   1.938   1.579
 5297SOL    HW116790   2.798   1.972   1.662
 5297SOL    HW216791   2.773   1.916   1.511
 5298SOL     OW16792   0.776   5.373   0.531
 5298SOL    HW116793   0.854   5.436   0.533
 5298SOL    HW216794   0.803   5.289   0.485
 5299SOL     OW16795   2.656   2.357   0.477
 5299SOL    HW116796   2.616   2.448   0.485
 5299SOL    HW216797   2.590   2.288   0.508
 5300SOL     OW16798   0.444   5.934   2.128
 5300SOL    HW116799   0.393   5.850   2.109
 5300SOL    HW216800   0.451   5.947   2.227
 5301SOL     OW16801   4.331   2.140   0.967
 5301SOL    HW116802   4.283   2.191   0.896
 5301SOL    HW216803   4.264   2.100   1.030
 5302SOL     OW16804   5.785   3.946   2.829
 5302SOL    HW116805   5.792   3.920   2.732
 5302SOL    HW216806   5.832   4.033   2.843
 5303SOL     OW16807   6.691   5.804   3.261
 5303SOL    HW116808   6.603   5.772   3.226
 5303SOL    HW216809   6.677   5.848   3.350
 5304SOL     OW16810   0.003   1.885   5.836
 5304SOL    HW116811   6.986   1.848   5.751
 5304SOL    HW216812   6.955   1.938   5.884
 5305SOL     OW16813   1.517   6.707   4.917
 5305SOL    HW116814   1.610   6.739   4.938
 5305SOL    HW216815   1.522   6.631   4.853
 5306SOL     OW16816   0.262   6.140   5.042
 5306SOL    HW116817   0.200   6.219   5.033
 5306SOL    HW216818   0.211   6.061   5.073
 5307SOL     OW16819   4.403   0.397   0.202
 5307SOL    HW116820   4.487   0.348   0.178
 5307SOL    HW216821   4.351   0.344   0.269
 5308SOL     OW16822   0.873   6.558   5.016
 5308SOL    HW116823   0.948   6.572   4.950
 5308SOL    HW216824   0.822   6.476   4.991
 5309SOL     OW16825   3.231   3.699   2.077
 5309SOL    HW116826   3.240   3.602   2.055
 5309SOL    HW216827   3.188   3.747   2.001
 5310SOL     OW16828   5.280   2.976   1.953
 5310SOL    HW116829   5.185   3.003   1.937
 5310SOL    HW216830   5.302   2.895   1.897
 5311SOL     OW16831   0.446   5.820   1.024
 5311SOL    HW116832   0.406   5.843   1.112
 5311SOL    HW216833   0.539   5.856   1.020
 5312SOL     OW16834   0.164   4.341   2.491
 5312SOL    HW116835   0.102   4.311   2.564
 5312SOL    HW216836   0.138   4.433   2.462
 5313SOL     OW16837   0.949   5.047   0.002
 5313SOL    HW116838   0.868   5.021   6.971
 5313SOL    HW216839   0.962   4.981   0.076
 5314SOL     OW16840   3.175   5.084   0.149
 5314SOL    HW116841   3.147   5.000   0.196
 5314SOL    HW216842   3.130   5.088   0.060
 5315SOL     OW16843   3.649   3.964   1.240
 5315SOL    HW116844   3.632   3.918   1.153
 5315SOL    HW216845   3.747   3.973   1.254
 5316SOL     OW16846   6.808   5.359   5.288
 5316SOL    HW116847   6.882   5.385   5.350
 5316SOL    HW216848   6.771   5.271   5.315
 5317SOL     OW16849   6.770   0.922   4.607
 5317SOL    HW116850   6.730   0.860   4.675
 5317SOL    HW216851   6.843   0.976   4.649
 5318SOL     OW16852   0.700   2.046   6.081
 5318SOL    HW116853   0.629   1.975   6.083
 5318SOL    HW216854   0.684   2.107   6.004
 5319SOL     OW16855   4.823   6.790   0.281
 5319SOL    HW116856   4.759   6.719   0.312
 5319SOL    HW216857   4.774   6.875   0.267
 5320SOL     OW16858   5.566   4.933   6.635
 5320SOL    HW116859   5.505   4.980   6.699
 5320SOL    HW216860   5.630   5.000   6.596
 5321SOL     OW16861   0.870   4.016   2.690
 5321SOL    HW116862   0.898   4.037   2.596
 5321SOL    HW216863   0.945   3.971   2.738
 5322SOL     OW16864   4.066   6.391   6.092
 5322SOL    HW116865   3.993   6.444   6.048
 5322SOL    HW216866   4.145   6.449   6.110
 5323SOL     OW16867   3.681   3.355   0.534
 5323SOL    HW116868   3.728   3.422   0.477
 5323SOL    HW216869   3.740   3.330   0.611
 5324SOL     OW16870   3.574   2.665   1.823
 5324SOL    HW116871   3.648   2.728   1.845
 5324SOL    HW216872   3.605   2.571   1.838
 5325SOL     OW16873   5.711   6.134   3.583
 5325SOL    HW116874   5.733   6.122   3.486
 5325SOL    HW216875   5.614   6.115   3.598
 5326SOL     OW16876   6.924   5.010   2.664
 5326SOL    HW116877   6.838   4.974   2.700
 5326SOL    HW216878   6.913   5.107   2.642
 5327SOL     OW16879   0.243   5.171   5.613
 5327SOL    HW116880   0.171   5.115   5.655
 5327SOL    HW216881   0.215   5.267   5.615
 5328SOL     OW16882   4.340   3.099   5.592
 5328SOL    HW116883   4.327   3.190   5.629
 5328SOL    HW216884   4.260   3.074   5.537
 5329SOL     OW16885   0.235   4.007   6.650
 5329SOL    HW116886   0.205   3.915   6.624
 5329SOL    HW216887   0.320   4.029   6.602
 5330SOL     OW16888   3.295   4.811   6.654
 5330SOL    HW116889   3.372   4.819   6.717
 5330SOL    HW216890   3.329   4.788   6.563
 5331SOL     OW16891   5.438   1.387   1.586
 5331SOL    HW116892   5.526   1.433   1.598
 5331SOL    HW216893   5.367   1.454   1.566
 5332SOL     OW16894   6.639   4.289   0.468
 5332SOL    HW116895   6.664   4.234   0.549
 5332SOL    HW216896   6.590   4.231   0.403
 5333SOL     OW16897   1.118   0.553   3.677
 5333SOL    HW116898   1.214   0.560   3.652
 5333SOL    HW216899   1.110   0.539   3.776
 5334SOL     OW16900   3.675   5.141   5.688
 5334SOL    HW116901   3.733   5.090   5.752
 5334SOL    HW216902   3.704   5.121   5.594
 5335SOL     OW16903   0.313   5.154   2.319
 5335SOL    HW116904   0.412   5.164   2.332
 5335SOL    HW216905   0.293   5.066   2.276
 5336SOL     OW16906   2.126   2.045   3.594
 5336SOL    HW116907   2.093   1.968   3.650
 5336SOL    HW216908   2.049   2.086   3.545
 5337SOL     OW16909   5.467   4.619   1.544
 5337SOL    HW116910   5.476   4.666   1.632
 5337SOL    HW216911   5.419   4.533   1.558
 5338SOL     OW16912   5.676   0.845   6.454
 5338SOL    HW116913   5.705   0.773   6.517
 5338SOL    HW216914   5.597   0.814   6.401
 5339SOL     OW16915   5.711   1.273   3.063
 5339SOL    HW116916   5.788   1.262   3.000
 5339SOL    HW216917   5.722   1.210   3.140
 5340SOL     OW16918   6.120   3.882   1.289
 5340SOL    HW116919   6.118   3.807   1.356
 5340SOL    HW216920   6.030   3.925   1.284
 5341SOL     OW16921   3.022   5.095   5.158
 5341SOL    HW116922   3.009   5.009   5.108
 5341SOL    HW216923   3.086   5.080   5.233
 5342SOL     OW16924   5.442   6.209   4.728
 5342SOL    HW116925   5.351   6.220   4.688
 5342SOL    HW216926   5.457   6.278   4.799
 5343SOL     OW16927   3.931   3.407   4.528
 5343SOL    HW116928   3.846   3.404   4.475
 5343SOL    HW216929   3.914   3.374   4.621
 5344SOL     OW16930   0.643   1.828   0.526
 5344SOL    HW116931   0.557   1.794   0.489
 5344SOL    HW216932   0.716   1.762   0.506
 5345SOL     OW16933   4.715   0.884   0.006
 5345SOL    HW116934   4.772   0.852   6.952
 5345SOL    HW216935   4.757   0.965   0.048
 5346SOL     OW16936   3.079   5.595   3.979
 5346SOL    HW116937   3.127   5.520   4.024
 5346SOL    HW216938   3.101   5.681   4.025
 5347SOL     OW16939   6.428   4.036   3.183
 5347SOL    HW116940   6.509   4.071   3.137
 5347SOL    HW216941   6.382   4.110   3.232
 5348SOL     OW16942   0.538   1.415   6.486
 5348SOL    HW116943   0.507   1.336   6.538
 5348SOL    HW216944   0.472   1.436   6.414
 5349SOL     OW16945   2.562   3.059   0.796
 5349SOL    HW116946   2.533   2.966   0.776
 5349SOL    HW216947   2.481   3.116   0.813
 5350SOL     OW16948   2.678   6.874   5.248
 5350SOL    HW116949   2.687   6.816   5.166
 5350SOL    HW216950   2.654   6.967   5.221
 5351SOL     OW16951   0.379   5.485   2.243
 5351SOL    HW116952   0.440   5.503   2.321
 5351SOL    HW216953   0.432   5.446   2.168
 5352SOL     OW16954   2.144   4.683   3.201
 5352SOL    HW116955   2.137   4.777   3.234
 5352SOL    HW216956   2.226   4.673   3.146
 5353SOL     OW16957   3.860   5.963   4.109
 5353SOL    HW116958   3.775   5.930   4.067
 5353SOL    HW216959   3.927   5.889   4.112
 5354SOL     OW16960   2.077   4.882   0.606
 5354SOL    HW116961   2.103   4.954   0.543
 5354SOL    HW216962   2.154   4.819   0.620
 5355SOL     OW16963   6.089   4.869   4.236
 5355SOL    HW116964   6.156   4.804   4.200
 5355SOL    HW216965   6.116   4.896   4.329
 5356SOL     OW16966   6.610   3.618   2.547
 5356SOL    HW116967   6.641   3.652   2.458
 5356SOL    HW216968   6.540   3.679   2.583
 5357SOL     OW16969   3.692   4.363   0.765
 5357SOL    HW116970   3.741   4.300   0.704
 5357SOL    HW216971   3.750   4.384   0.844
 5358SOL     OW16972   4.732   2.636   1.200
 5358SOL    HW116973   4.772   2.584   1.275
 5358SOL    HW216974   4.727   2.579   1.118
 5359SOL     OW16975   2.462   1.992   6.193
 5359SOL    HW116976   2.501   2.084   6.187
 5359SOL    HW216977   2.400   1.987   6.272
 5360SOL     OW16978   5.237   6.193   3.887
 5360SOL    HW116979   5.150   6.176   3.840
 5360SOL    HW216980   5.303   6.230   3.821
 5361SOL     OW16981   2.157   6.423   4.077
 5361SOL    HW116982   2.132   6.419   3.980
 5361SOL    HW216983   2.252   6.395   4.088
 5362SOL     OW16984   6.667   5.875   2.542
 5362SOL    HW116985   6.704   5.860   2.634
 5362SOL    HW216986   6.700   5.962   2.506
 5363SOL     OW16987   5.311   6.324   5.926
 5363SOL    HW116988   5.278   6.285   5.840
 5363SOL    HW216989   5.238   6.321   5.994
 5364SOL     OW16990   5.892   6.619   1.500
 5364SOL    HW116991   5.949   6.658   1.573
 5364SOL    HW216992   5.881   6.520   1.516
 5365SOL     OW16993   2.960   3.213   2.285
 5365SOL    HW116994   2.879   3.212   2.226
 5365SOL    HW216995   3.006   3.301   2.277
 5366SOL     OW16996   6.771   6.637   2.403
 5366SOL    HW116997   6.789   6.692   2.321
 5366SOL    HW216998   6.822   6.675   2.480
 5367SOL     OW16999   0.218   6.669   1.581
 5367SOL    HW117000   0.185   6.611   1.656
 5367SOL    HW217001   0.141   6.694   1.522
 5368SOL     OW17002   6.566   6.869   2.558
 5368SOL    HW117003   6.586   6.845   2.463
 5368SOL    HW217004   6.486   6.928   2.562
 5369SOL     OW17005   3.193   6.298   0.979
 5369SOL    HW117006   3.220   6.208   0.944
 5369SOL    HW217007   3.096   6.298   1.002
 5370SOL     OW17008   3.923   3.914   1.219
 5370SOL    HW117009   4.019   3.936   1.238
 5370SOL    HW217010   3.917   3.833   1.161
 5371SOL     OW17011   6.910   4.994   5.207
 5371SOL    HW117012   6.934   4.918   5.267
 5371SOL    HW217013   6.834   5.045   5.246
 5372SOL     OW17014   0.926   6.046   2.724
 5372SOL    HW117015   0.912   6.082   2.816
 5372SOL    HW217016   1.023   6.052   2.700
 5373SOL     OW17017   4.075   6.737   5.378
 5373SOL    HW117018   4.108   6.749   5.472
 5373SOL    HW217019   4.069   6.639   5.357
 5374SOL     OW17020   1.900   4.660   0.723
 5374SOL    HW117021   1.975   4.709   0.678
 5374SOL    HW217022   1.887   4.696   0.815
 5375SOL     OW17023   0.431   5.532   5.831
 5375SOL    HW117024   0.351   5.523   5.890
 5375SOL    HW217025   0.514   5.526   5.886
 5376SOL     OW17026   1.258   2.200   1.369
 5376SOL    HW117027   1.253   2.115   1.422
 5376SOL    HW217028   1.186   2.262   1.401
 5377SOL     OW17029   1.202   0.244   2.719
 5377SOL    HW117030   1.157   0.159   2.748
 5377SOL    HW217031   1.234   0.294   2.800
 5378SOL     OW17032   6.800   0.115   2.141
 5378SOL    HW117033   6.867   0.103   2.214
 5378SOL    HW217034   6.825   0.194   2.085
 5379SOL     OW17035   1.068   3.251   4.736
 5379SOL    HW117036   1.150   3.239   4.679
 5379SOL    HW217037   1.091   3.310   4.815
 5380SOL     OW17038   2.695   6.538   1.153
 5380SOL    HW117039   2.793   6.519   1.158
 5380SOL    HW217040   2.658   6.502   1.068
 5381SOL     OW17041   6.943   6.061   1.975
 5381SOL    HW117042   0.020   6.069   1.961
 5381SOL    HW217043   6.902   6.017   1.895
 5382SOL     OW17044   2.918   2.215   2.293
 5382SOL    HW117045   2.879   2.307   2.280
 5382SOL    HW217046   2.905   2.187   2.388
 5383SOL     OW17047   1.377   2.578   4.627
 5383SOL    HW117048   1.429   2.515   4.685
 5383SOL    HW217049   1.439   2.627   4.566
 5384SOL     OW17050   4.760   6.075   4.732
 5384SOL    HW117051   4.797   6.148   4.789
 5384SOL    HW217052   4.731   5.999   4.789
 5385SOL     OW17053   4.987   3.106   5.394
 5385SOL    HW117054   5.073   3.064   5.423
 5385SOL    HW217055   5.004   3.201   5.367
 5386SOL     OW17056   5.498   1.118   4.226
 5386SOL    HW117057   5.528   1.061   4.302
 5386SOL    HW217058   5.461   1.060   4.153
 5387SOL     OW17059   2.457   6.169   3.078
 5387SOL    HW117060   2.458   6.257   3.030
 5387SOL    HW217061   2.453   6.095   3.011
 5388SOL     OW17062   1.386   6.827   2.673
 5388SOL    HW117063   1.461   6.894   2.672
 5388SOL    HW217064   1.344   6.823   2.583
 5389SOL     OW17065   3.930   1.786   4.619
 5389SOL    HW117066   3.870   1.861   4.589
 5389SOL    HW217067   3.918   1.708   4.557
 5390SOL     OW17068   5.530   4.385   3.458
 5390SOL    HW117069   5.513   4.387   3.556
 5390SOL    HW217070   5.509   4.475   3.419
 5391SOL     OW17071   2.239   1.782   0.111
 5391SOL    HW117072   2.223   1.718   0.186
 5391SOL    HW217073   2.192   1.868   0.129
 5392SOL     OW17074   5.599   4.188   1.045
 5392SOL    HW117075   5.570   4.178   1.140
 5392SOL    HW217076   5.675   4.126   1.027
 5393SOL     OW17077   5.013   1.003   5.125
 5393SOL    HW117078   5.018   0.996   5.025
 5393SOL    HW217079   5.029   1.099   5.152
 5394SOL     OW17080   0.896   5.558   1.127
 5394SOL    HW117081   0.974   5.496   1.137
 5394SOL    HW217082   0.831   5.541   1.202
 5395SOL     OW17083   5.051   0.415   1.717
 5395SOL    HW117084   5.097   0.352   1.779
 5395SOL    HW217085   4.997   0.363   1.651
 5396SOL     OW17086   5.359   5.156   2.109
 5396SOL    HW117087   5.359   5.113   2.019
 5396SOL    HW217088   5.343   5.086   2.179
 5397SOL     OW17089   7.011   1.984   2.307
 5397SOL    HW117090   6.936   1.948   2.362
 5397SOL    HW217091   0.047   2.043   2.363
 5398SOL     OW17092   2.591   1.939   3.877
 5398SOL    HW117093   2.679   1.903   3.847
 5398SOL    HW217094   2.571   2.024   3.829
 5399SOL     OW17095   3.034   6.802   6.552
 5399SOL    HW117096   2.936   6.786   6.545
 5399SOL    HW217097   3.083   6.731   6.500
 5400SOL     OW17098   2.861   3.373   0.479
 5400SOL    HW117099   2.944   3.336   0.437
 5400SOL    HW217100   2.808   3.298   0.518
 5401SOL     OW17101   5.482   3.979   2.231
 5401SOL    HW117102   5.433   3.914   2.174
 5401SOL    HW217103   5.569   3.939   2.260
 5402SOL     OW17104   2.473   6.752   1.041
 5402SOL    HW117105   2.552   6.753   0.979
 5402SOL    HW217106   2.488   6.817   1.115
 5403SOL     OW17107   5.322   3.563   6.152
 5403SOL    HW117108   5.253   3.491   6.147
 5403SOL    HW217109   5.297   3.629   6.223
 5404SOL     OW17110   0.756   0.132   1.494
 5404SOL    HW117111   0.834   0.078   1.525
 5404SOL    HW217112   0.676   0.072   1.483
 5405SOL     OW17113   6.325   4.782   6.868
 5405SOL    HW117114   6.340   4.819   6.959
 5405SOL    HW217115   6.277   4.850   6.812
 5406SOL     OW17116   2.356   1.126   5.027
 5406SOL    HW117117   2.275   1.174   4.993
 5406SOL    HW217118   2.436   1.185   5.016
 5407SOL     OW17119   3.421   1.881   0.913
 5407SOL    HW117120   3.451   1.915   0.824
 5407SOL    HW217121   3.354   1.807   0.899
 5408SOL     OW17122   4.169   0.996   4.996
 5408SOL    HW117123   4.235   1.053   4.947
 5408SOL    HW217124   4.127   1.049   5.070
 5409SOL     OW17125   6.261   1.074   2.750
 5409SOL    HW117126   6.178   1.107   2.705
 5409SOL    HW217127   6.262   1.103   2.845
 5410SOL     OW17128   1.077   2.403   6.945
 5410SOL    HW117129   1.080   2.331   6.875
 5410SOL    HW217130   1.073   2.492   6.901
 5411SOL     OW17131   4.859   4.980   6.308
 5411SOL    HW117132   4.808   5.066   6.307
 5411SOL    HW217133   4.949   4.994   6.269
 5412SOL     OW17134   2.841   1.456   6.379
 5412SOL    HW117135   2.844   1.546   6.335
 5412SOL    HW217136   2.762   1.451   6.440
 5413SOL     OW17137   0.399   0.275   0.014
 5413SOL    HW117138   0.396   0.190   0.067
 5413SOL    HW217139   0.455   0.260   6.954
 5414SOL     OW17140   6.476   5.093   4.888
 5414SOL    HW117141   6.443   5.184   4.915
 5414SOL    HW217142   6.547   5.104   4.818
 5415SOL     OW17143   2.971   6.360   0.782
 5415SOL    HW117144   2.934   6.304   0.857
 5415SOL    HW217145   3.006   6.300   0.710
 5416SOL     OW17146   2.649   4.834   5.123
 5416SOL    HW117147   2.570   4.777   5.144
 5416SOL    HW217148   2.723   4.777   5.087
 5417SOL     OW17149   3.933   0.122   5.223
 5417SOL    HW117150   3.883   0.086   5.144
 5417SOL    HW217151   3.869   0.163   5.288
 5418SOL     OW17152   5.742   5.686   5.050
 5418SOL    HW117153   5.752   5.735   4.963
 5418SOL    HW217154   5.648   5.653   5.059
 5419SOL     OW17155   3.940   5.944   0.644
 5419SOL    HW117156   3.886   5.894   0.576
 5419SOL    HW217157   3.889   5.951   0.729
 5420SOL     OW17158   2.107   2.092   0.959
 5420SOL    HW117159   2.066   2.050   1.040
 5420SOL    HW217160   2.064   2.180   0.941
 5421SOL     OW17161   3.274   5.128   1.211
 5421SOL    HW117162   3.325   5.080   1.283
 5421SOL    HW217163   3.247   5.063   1.140
 5422SOL     OW17164   1.316   4.783   4.585
 5422SOL    HW117165   1.342   4.848   4.513
 5422SOL    HW217166   1.326   4.690   4.550
 5423SOL     OW17167   5.263   5.005   0.280
 5423SOL    HW117168   5.176   5.039   0.244
 5423SOL    HW217169   5.317   5.081   0.316
 5424SOL     OW17170   5.608   3.869   4.439
 5424SOL    HW117171   5.662   3.892   4.520
 5424SOL    HW217172   5.658   3.803   4.383
 5425SOL     OW17173   6.404   2.567   4.782
 5425SOL    HW117174   6.316   2.535   4.749
 5425SOL    HW217175   6.409   2.667   4.772
 5426SOL     OW17176   5.077   5.493   2.174
 5426SOL    HW117177   5.067   5.510   2.076
 5426SOL    HW217178   5.174   5.487   2.197
 5427SOL     OW17179   5.402   3.233   0.013
 5427SOL    HW117180   5.431   3.181   6.955
 5427SOL    HW217181   5.414   3.331   7.017
 5428SOL     OW17182   5.358   6.440   1.727
 5428SOL    HW117183   5.418   6.448   1.647
 5428SOL    HW217184   5.319   6.530   1.748
 5429SOL     OW17185   2.008   6.853   5.064
 5429SOL    HW117186   2.099   6.848   5.105
 5429SOL    HW217187   2.007   6.925   4.994
 5430SOL     OW17188   1.861   3.010   4.703
 5430SOL    HW117189   1.839   2.913   4.717
 5430SOL    HW217190   1.870   3.055   4.792
 5431SOL     OW17191   2.965   3.737   6.402
 5431SOL    HW117192   3.006   3.727   6.492
 5431SOL    HW217193   2.879   3.788   6.410
 5432SOL     OW17194   3.855   5.512   6.437
 5432SOL    HW117195   3.805   5.483   6.356
 5432SOL    HW217196   3.816   5.598   6.472
 5433SOL     OW17197   0.866   0.230   1.161
 5433SOL    HW117198   0.830   0.137   1.149
 5433SOL    HW217199   0.844   0.285   1.081
 5434SOL     OW17200   4.321   1.134   4.782
 5434SOL    HW117201   4.236   1.099   4.741
 5434SOL    HW217202   4.392   1.139   4.712
 5435SOL     OW17203   6.564   3.757   0.502
 5435SOL    HW117204   6.619   3.801   0.573
 5435SOL    HW217205   6.590   3.794   0.412
 5436SOL     OW17206   6.320   4.161   4.096
 5436SOL    HW117207   6.223   4.187   4.089
 5436SOL    HW217208   6.377   4.240   4.071
 5437SOL     OW17209   3.286   4.847   5.028
 5437SOL    HW117210   3.268   4.867   4.932
 5437SOL    HW217211   3.199   4.842   5.078
 5438SOL     OW17212   5.154   4.463   1.963
 5438SOL    HW117213   5.112   4.395   2.023
 5438SOL    HW217214   5.119   4.452   1.870
 5439SOL     OW17215   0.520   3.408   6.610
 5439SOL    HW117216   0.573   3.415   6.695
 5439SOL    HW217217   0.581   3.385   6.535
 5440SOL     OW17218   6.412   6.365   3.692
 5440SOL    HW117219   6.494   6.311   3.710
 5440SOL    HW217220   6.335   6.304   3.672
 5441SOL     OW17221   5.432   3.435   3.508
 5441SOL    HW117222   5.522   3.464   3.539
 5441SOL    HW217223   5.368   3.435   3.585
 5442SOL     OW17224   4.114   6.884   3.607
 5442SOL    HW117225   4.059   6.950   3.658
 5442SOL    HW217226   4.188   6.850   3.666
 5443SOL     OW17227   4.571   5.870   3.835
 5443SOL    HW117228   4.522   5.805   3.777
 5443SOL    HW217229   4.550   5.963   3.805
 5444SOL     OW17230   0.137   0.747   4.133
 5444SOL    HW117231   0.082   0.677   4.178
 5444SOL    HW217232   0.152   0.721   4.037
 5445SOL     OW17233   6.136   4.331   3.443
 5445SOL    HW117234   6.058   4.274   3.418
 5445SOL    HW217235   6.127   4.421   3.400
 5446SOL     OW17236   6.025   5.239   4.351
 5446SOL    HW117237   5.926   5.254   4.353
 5446SOL    HW217238   6.066   5.300   4.283
 5447SOL     OW17239   1.593   1.365   1.217
 5447SOL    HW117240   1.684   1.399   1.194
 5447SOL    HW217241   1.544   1.342   1.133
 5448SOL     OW17242   4.376   4.853   3.900
 5448SOL    HW117243   4.448   4.922   3.902
 5448SOL    HW217244   4.414   4.765   3.870
 5449SOL     OW17245   1.879   1.145   1.080
 5449SOL    HW117246   1.878   1.119   0.983
 5449SOL    HW217247   1.900   1.242   1.088
 5450SOL     OW17248   3.512   0.214   1.085
 5450SOL    HW117249   3.589   0.273   1.109
 5450SOL    HW217250   3.529   0.122   1.122
 5451SOL     OW17251   1.800   5.918   3.553
 5451SOL    HW117252   1.755   5.946   3.468
 5451SOL    HW217253   1.841   5.999   3.596
 5452SOL     OW17254   2.731   4.312   0.969
 5452SOL    HW117255   2.792   4.256   0.914
 5452SOL    HW217256   2.699   4.259   1.048
 5453SOL     OW17257   5.244   3.684   2.001
 5453SOL    HW117258   5.180   3.760   2.011
 5453SOL    HW217259   5.298   3.675   2.085
 5454SOL     OW17260   5.614   5.578   0.804
 5454SOL    HW117261   5.523   5.614   0.781
 5454SOL    HW217262   5.626   5.489   0.761
 5455SOL     OW17263   0.096   2.135   3.505
 5455SOL    HW117264   0.054   2.163   3.418
 5455SOL    HW217265   0.086   2.209   3.571
 5456SOL     OW17266   3.387   1.888   6.532
 5456SOL    HW117267   3.349   1.974   6.566
 5456SOL    HW217268   3.475   1.872   6.576
 5457SOL     OW17269   6.481   2.162   1.506
 5457SOL    HW117270   6.503   2.108   1.425
 5457SOL    HW217271   6.560   2.163   1.568
 5458SOL     OW17272   6.806   5.208   0.812
 5458SOL    HW117273   6.900   5.195   0.842
 5458SOL    HW217274   6.748   5.137   0.853
 5459SOL     OW17275   1.968   4.830   5.466
 5459SOL    HW117276   2.028   4.750   5.457
 5459SOL    HW217277   1.899   4.829   5.394
 5460SOL     OW17278   2.835   6.873   2.104
 5460SOL    HW117279   2.801   6.826   2.023
 5460SOL    HW217280   2.926   6.910   2.086
 5461SOL     OW17281   0.667   0.461   4.323
 5461SOL    HW117282   0.734   0.387   4.331
 5461SOL    HW217283   0.701   0.530   4.259
 5462SOL     OW17284   5.547   6.311   6.906
 5462SOL    HW117285   5.539   6.214   6.886
 5462SOL    HW217286   5.598   6.325   6.991
 5463SOL     OW17287   0.294   1.914   0.236
 5463SOL    HW117288   0.366   1.981   0.220
 5463SOL    HW217289   0.219   1.930   0.171
 5464SOL     OW17290   5.994   5.943   4.542
 5464SOL    HW117291   5.946   6.026   4.511
 5464SOL    HW217292   5.929   5.881   4.584
 5465SOL     OW17293   6.350   0.660   3.388
 5465SOL    HW117294   6.323   0.613   3.472
 5465SOL    HW217295   6.385   0.751   3.411
 5466SOL     OW17296   5.417   2.742   5.811
 5466SOL    HW117297   5.381   2.649   5.806
 5466SOL    HW217298   5.495   2.744   5.874
 5467SOL     OW17299   6.054   3.370   3.370
 5467SOL    HW117300   6.138   3.404   3.412
 5467SOL    HW217301   5.991   3.337   3.441
 5468SOL     OW17302   0.061   2.279   4.657
 5468SOL    HW117303   0.043   2.374   4.681
 5468SOL    HW217304   0.130   2.275   4.584
 5469SOL     OW17305   2.887   5.798   5.413
 5469SOL    HW117306   2.978   5.772   5.379
 5469SOL    HW217307   2.826   5.719   5.407
 5470SOL     OW17308   3.946   5.373   4.158
 5470SOL    HW117309   3.942   5.433   4.078
 5470SOL    HW217310   3.991   5.287   4.133
 5471SOL     OW17311   5.982   0.438   2.571
 5471SOL    HW117312   5.905   0.458   2.632
 5471SOL    HW217313   6.052   0.509   2.580
 5472SOL     OW17314   2.871   3.581   6.950
 5472SOL    HW117315   2.834   3.489   6.943
 5472SOL    HW217316   2.909   3.595   0.020
 5473SOL     OW17317   1.257   3.524   0.457
 5473SOL    HW117318   1.217   3.580   0.529
 5473SOL    HW217319   1.188   3.507   0.386
 5474SOL     OW17320   0.895   5.049   4.790
 5474SOL    HW117321   0.879   5.146   4.774
 5474SOL    HW217322   0.810   4.998   4.779
 5475SOL     OW17323   1.825   2.271   0.495
 5475SOL    HW117324   1.755   2.200   0.505
 5475SOL    HW217325   1.913   2.236   0.528
 5476SOL     OW17326   2.550   4.561   5.150
 5476SOL    HW117327   2.595   4.490   5.203
 5476SOL    HW217328   2.609   4.588   5.074
 5477SOL     OW17329   2.230   4.110   3.316
 5477SOL    HW117330   2.291   4.188   3.331
 5477SOL    HW217331   2.139   4.133   3.349
 5478SOL     OW17332   4.561   0.085   5.398
 5478SOL    HW117333   4.543   0.153   5.468
 5478SOL    HW217334   4.488   0.016   5.398
 5479SOL     OW17335   5.155   2.105   4.988
 5479SOL    HW117336   5.112   2.132   4.902
 5479SOL    HW217337   5.150   2.180   5.053
 5480SOL     OW17338   5.207   5.367   4.497
 5480SOL    HW117339   5.277   5.405   4.557
 5480SOL    HW217340   5.247   5.294   4.442
 5481SOL     OW17341   4.440   1.942   4.648
 5481SOL    HW117342   4.531   1.983   4.659
 5481SOL    HW217343   4.424   1.922   4.551
 5482SOL     OW17344   3.565   3.545   1.828
 5482SOL    HW117345   3.515   3.500   1.753
 5482SOL    HW217346   3.537   3.506   1.915
 5483SOL     OW17347   0.578   1.998   5.477
 5483SOL    HW117348   0.582   1.949   5.564
 5483SOL    HW217349   0.643   2.074   5.478
 5484SOL     OW17350   5.363   0.377   4.405
 5484SOL    HW117351   5.355   0.313   4.482
 5484SOL    HW217352   5.457   0.411   4.400
 5485SOL     OW17353   3.005   0.096   5.452
 5485SOL    HW117354   3.100   0.114   5.480
 5485SOL    HW217355   2.949   0.176   5.474
 5486SOL     OW17356   1.766   5.560   4.845
 5486SOL    HW117357   1.724   5.518   4.765
 5486SOL    HW217358   1.696   5.603   4.901
 5487SOL     OW17359   5.053   3.116   6.672
 5487SOL    HW117360   5.109   3.198   6.687
 5487SOL    HW217361   5.113   3.036   6.665
 5488SOL     OW17362   5.236   1.017   0.912
 5488SOL    HW117363   5.257   0.928   0.953
 5488SOL    HW217364   5.316   1.050   0.862
 5489SOL     OW17365   1.381   5.222   0.904
 5489SOL    HW117366   1.452   5.160   0.938
 5489SOL    HW217367   1.352   5.284   0.977
 5490SOL     OW17368   3.715   6.996   0.355
 5490SOL    HW117369   3.652   6.947   0.415
 5490SOL    HW217370   3.730   0.067   0.390
 5491SOL     OW17371   1.814   4.363   0.340
 5491SOL    HW117372   1.866   4.398   0.263
 5491SOL    HW217373   1.857   4.392   0.426
 5492SOL     OW17374   0.652   2.080   6.506
 5492SOL    HW117375   0.723   2.075   6.436
 5492SOL    HW217376   0.660   2.167   6.555
 5493SOL     OW17377   4.128   3.608   3.580
 5493SOL    HW117378   4.081   3.618   3.493
 5493SOL    HW217379   4.227   3.608   3.564
 5494SOL     OW17380   6.924   2.723   6.435
 5494SOL    HW117381   6.973   2.655   6.489
 5494SOL    HW217382   6.931   2.701   6.338
 5495SOL     OW17383   3.642   2.716   1.530
 5495SOL    HW117384   3.662   2.634   1.477
 5495SOL    HW217385   3.629   2.692   1.626
 5496SOL     OW17386   2.484   0.335   3.245
 5496SOL    HW117387   2.582   0.316   3.242
 5496SOL    HW217388   2.439   0.298   3.164
 5497SOL     OW17389   0.433   2.008   4.074
 5497SOL    HW117390   0.526   2.024   4.107
 5497SOL    HW217391   0.434   1.931   4.010
 5498SOL     OW17392   5.158   6.888   1.491
 5498SOL    HW117393   5.119   6.887   1.583
 5498SOL    HW217394   5.238   6.948   1.489
 5499SOL     OW17395   0.078   1.397   4.156
 5499SOL    HW117396   0.135   1.315   4.169
 5499SOL    HW217397   7.007   1.378   4.189
 5500SOL     OW17398   1.730   7.005   0.529
 5500SOL    HW117399   1.766   6.921   0.569
 5500SOL    HW217400   1.797   0.021   0.465
 5501SOL     OW17401   3.872   6.796   0.558
 5501SOL    HW117402   3.889   6.886   0.518
 5501SOL    HW217403   3.797   6.801   0.623
 5502SOL     OW17404   5.920   3.444   0.053
 5502SOL    HW117405   5.873   3.412   6.992
 5502SOL    HW217406   5.934   3.542   0.047
 5503SOL     OW17407   0.312   5.391   2.917
 5503SOL    HW117408   0.257   5.470   2.890
 5503SOL    HW217409   0.408   5.408   2.895
 5504SOL     OW17410   3.905   1.303   4.928
 5504SOL    HW117411   3.870   1.392   4.900
 5504SOL    HW217412   4.003   1.310   4.948
 5505SOL     OW17413   1.372   5.897   4.807
 5505SOL    HW117414   1.453   5.900   4.748
 5505SOL    HW217415   1.399   5.874   4.900
 5506SOL     OW17416   1.347   1.701   6.308
 5506SOL    HW117417   1.313   1.655   6.390
 5506SOL    HW217418   1.288   1.779   6.286
 5507SOL     OW17419   2.882   0.077   3.896
 5507SOL    HW117420   2.926   0.048   3.981
 5507SOL    HW217421   2.801   0.131   3.916
 5508SOL     OW17422   2.220   0.781   6.443
 5508SOL    HW117423   2.152   0.853   6.452
 5508SOL    HW217424   2.176   0.697   6.410
 5509SOL     OW17425   0.805   6.471   0.829
 5509SOL    HW117426   0.838   6.443   0.738
 5509SOL    HW217427   0.767   6.563   0.823
 5510SOL     OW17428   4.636   6.000   1.001
 5510SOL    HW117429   4.652   5.902   0.991
 5510SOL    HW217430   4.559   6.014   1.063
 5511SOL     OW17431   2.563   0.863   4.306
 5511SOL    HW117432   2.569   0.854   4.405
 5511SOL    HW217433   2.542   0.774   4.266
 5512SOL     OW17434   5.785   2.122   1.771
 5512SOL    HW117435   5.697   2.075   1.781
 5512SOL    HW217436   5.772   2.221   1.779
 5513SOL     OW17437   4.172   4.747   6.499
 5513SOL    HW117438   4.270   4.742   6.480
 5513SOL    HW217439   4.134   4.828   6.455
 5514SOL     OW17440   4.554   6.303   3.536
 5514SOL    HW117441   4.567   6.332   3.630
 5514SOL    HW217442   4.538   6.383   3.478
 5515SOL     OW17443   0.091   4.779   1.321
 5515SOL    HW117444   0.131   4.729   1.244
 5515SOL    HW217445   0.099   4.724   1.404
 5516SOL     OW17446   1.086   3.528   6.245
 5516SOL    HW117447   1.007   3.590   6.241
 5516SOL    HW217448   1.097   3.482   6.157
 5517SOL     OW17449   2.098   3.149   2.027
 5517SOL    HW117450   2.148   3.236   2.032
 5517SOL    HW217451   2.122   3.092   2.106
 5518SOL     OW17452   6.318   6.768   6.723
 5518SOL    HW117453   6.313   6.714   6.638
 5518SOL    HW217454   6.251   6.842   6.720
 5519SOL     OW17455   5.258   3.006   3.124
 5519SOL    HW117456   5.298   2.940   3.188
 5519SOL    HW217457   5.162   3.021   3.147
 5520SOL     OW17458   6.763   5.945   1.800
 5520SOL    HW117459   6.716   5.938   1.712
 5520SOL    HW217460   6.696   5.953   1.874
 5521SOL     OW17461   5.239   6.685   1.713
 5521SOL    HW117462   5.145   6.719   1.713
 5521SOL    HW217463   5.301   6.760   1.687
 5522SOL     OW17464   6.591   5.377   0.754
 5522SOL    HW117465   6.668   5.314   0.766
 5522SOL    HW217466   6.611   5.463   0.801
 5523SOL     OW17467   3.990   0.053   2.281
 5523SOL    HW117468   3.996   0.002   2.366
 5523SOL    HW217469   4.002   0.151   2.300
 5524SOL     OW17470   5.305   5.438   4.780
 5524SOL    HW117471   5.267   5.500   4.849
 5524SOL    HW217472   5.242   5.361   4.767
 5525SOL     OW17473   0.152   2.886   0.204
 5525SOL    HW117474   0.186   2.824   0.133
 5525SOL    HW217475   0.172   2.846   0.294
 5526SOL     OW17476   4.833   4.852   4.675
 5526SOL    HW117477   4.790   4.942   4.666
 5526SOL    HW217478   4.782   4.796   4.739
 5527SOL     OW17479   6.202   3.980   4.349
 5527SOL    HW117480   6.121   3.931   4.315
 5527SOL    HW217481   6.266   3.995   4.273
 5528SOL     OW17482   1.306   1.705   6.924
 5528SOL    HW117483   1.357   1.672   6.844
 5528SOL    HW217484   1.228   1.759   6.894
 5529SOL     OW17485   2.312   0.138   3.423
 5529SOL    HW117486   2.341   0.214   3.365
 5529SOL    HW217487   2.326   0.161   3.519
 5530SOL     OW17488   6.292   1.952   2.418
 5530SOL    HW117489   6.195   1.954   2.394
 5530SOL    HW217490   6.313   1.864   2.461
 5531SOL     OW17491   3.892   2.913   2.366
 5531SOL    HW117492   3.819   2.857   2.326
 5531SOL    HW217493   3.886   2.909   2.466
 5532SOL     OW17494   1.311   2.570   0.693
 5532SOL    HW117495   1.397   2.521   0.681
 5532SOL    HW217496   1.323   2.640   0.764
 5533SOL     OW17497   3.398   1.174   3.268
 5533SOL    HW117498   3.322   1.111   3.251
 5533SOL    HW217499   3.479   1.141   3.220
 5534SOL     OW17500   1.062   2.027   6.023
 5534SOL    HW117501   1.033   2.096   5.956
 5534SOL    HW217502   1.018   1.940   6.002
 5535SOL     OW17503   0.223   3.486   3.670
 5535SOL    HW117504   0.310   3.521   3.635
 5535SOL    HW217505   0.180   3.428   3.600
 5536SOL     OW17506   3.076   1.219   3.929
 5536SOL    HW117507   3.023   1.147   3.883
 5536SOL    HW217508   3.154   1.177   3.976
 5537SOL     OW17509   2.655   0.869   2.939
 5537SOL    HW117510   2.556   0.858   2.924
 5537SOL    HW217511   2.700   0.887   2.851
 5538SOL     OW17512   2.855   6.851   5.503
 5538SOL    HW117513   2.792   6.848   5.426
 5538SOL    HW217514   2.833   6.928   5.562
 5539SOL     OW17515   1.146   3.629   0.700
 5539SOL    HW117516   1.186   3.673   0.781
 5539SOL    HW217517   1.050   3.606   0.719
 5540SOL     OW17518   5.847   3.657   3.652
 5540SOL    HW117519   5.817   3.745   3.688
 5540SOL    HW217520   5.946   3.648   3.665
 5541SOL     OW17521   6.066   0.449   6.159
 5541SOL    HW117522   6.019   0.517   6.103
 5541SOL    HW217523   6.018   0.361   6.152
 5542SOL     OW17524   6.306   5.159   6.188
 5542SOL    HW117525   6.281   5.244   6.143
 5542SOL    HW217526   6.252   5.148   6.272
 5543SOL     OW17527   3.340   5.442   5.972
 5543SOL    HW117528   3.252   5.488   5.987
 5543SOL    HW217529   3.341   5.403   5.880
 5544SOL     OW17530   5.536   6.377   6.249
 5544SOL    HW117531   5.628   6.359   6.282
 5544SOL    HW217532   5.540   6.405   6.153
 5545SOL     OW17533   4.151   1.702   2.290
 5545SOL    HW117534   4.244   1.697   2.254
 5545SOL    HW217535   4.125   1.797   2.303
 5546SOL     OW17536   0.536   6.335   4.720
 5546SOL    HW117537   0.498   6.243   4.713
 5546SOL    HW217538   0.463   6.402   4.721
 5547SOL     OW17539   3.650   0.216   4.873
 5547SOL    HW117540   3.737   0.180   4.907
 5547SOL    HW217541   3.666   0.275   4.794
 5548SOL     OW17542   5.576   3.284   5.799
 5548SOL    HW117543   5.547   3.363   5.745
 5548SOL    HW217544   5.515   3.274   5.878
 5549SOL     OW17545   4.704   4.063   0.747
 5549SOL    HW117546   4.747   4.062   0.838
 5549SOL    HW217547   4.653   3.978   0.735
 5550SOL     OW17548   2.055   4.238   2.020
 5550SOL    HW117549   1.986   4.263   1.954
 5550SOL    HW217550   2.145   4.233   1.975
 5551SOL     OW17551   1.925   6.555   3.373
 5551SOL    HW117552   1.901   6.652   3.369
 5551SOL    HW217553   1.968   6.528   3.287
 5552SOL     OW17554   6.715   0.127   0.079
 5552SOL    HW117555   6.616   0.132   0.092
 5552SOL    HW217556   6.760   0.127   0.168
 5553SOL     OW17557   5.122   6.065   6.700
 5553SOL    HW117558   5.124   6.019   6.789
 5553SOL    HW217559   5.133   5.998   6.628
 5554SOL     OW17560   4.797   1.584   5.406
 5554SOL    HW117561   4.830   1.508   5.462
 5554SOL    HW217562   4.697   1.587   5.409
 5555SOL     OW17563   2.129   4.432   3.945
 5555SOL    HW117564   2.175   4.348   3.975
 5555SOL    HW217565   2.066   4.410   3.870
 5556SOL     OW17566   6.982   1.251   3.534
 5556SOL    HW117567   0.052   1.261   3.572
 5556SOL    HW217568   6.988   1.212   3.443
 5557SOL     OW17569   3.763   6.873   2.799
 5557SOL    HW117570   3.679   6.927   2.790
 5557SOL    HW217571   3.799   6.852   2.708
 5558SOL     OW17572   4.828   3.628   5.991
 5558SOL    HW117573   4.800   3.573   6.070
 5558SOL    HW217574   4.804   3.579   5.906
 5559SOL     OW17575   2.184   0.462   2.077
 5559SOL    HW117576   2.106   0.499   2.127
 5559SOL    HW217577   2.173   0.479   1.979
 5560SOL     OW17578   1.433   6.403   2.979
 5560SOL    HW117579   1.440   6.333   2.908
 5560SOL    HW217580   1.521   6.413   3.026
 5561SOL     OW17581   1.331   1.957   4.278
 5561SOL    HW117582   1.413   2.006   4.250
 5561SOL    HW217583   1.343   1.920   4.369
 5562SOL     OW17584   3.403   2.200   6.860
 5562SOL    HW117585   3.373   2.146   6.781
 5562SOL    HW217586   3.326   2.211   6.923
 5563SOL     OW17587   4.359   5.686   2.783
 5563SOL    HW117588   4.387   5.594   2.810
 5563SOL    HW217589   4.285   5.717   2.844
 5564SOL     OW17590   4.262   0.957   1.647
 5564SOL    HW117591   4.295   0.863   1.647
 5564SOL    HW217592   4.229   0.982   1.738
 5565SOL     OW17593   4.654   1.795   5.924
 5565SOL    HW117594   4.749   1.789   5.893
 5565SOL    HW217595   4.594   1.810   5.845
 5566SOL     OW17596   1.744   5.220   0.050
 5566SOL    HW117597   1.788   5.231   6.983
 5566SOL    HW217598   1.776   5.135   0.092
 5567SOL     OW17599   7.004   3.241   1.845
 5567SOL    HW117600   7.016   3.214   1.750
 5567SOL    HW217601   6.988   3.339   1.850
 5568SOL     OW17602   4.279   1.744   3.785
 5568SOL    HW117603   4.309   1.838   3.802
 5568SOL    HW217604   4.338   1.681   3.835
 5569SOL     OW17605   1.558   1.607   2.206
 5569SOL    HW117606   1.637   1.556   2.173
 5569SOL    HW217607   1.497   1.546   2.257
 5570SOL     OW17608   6.382   4.509   4.444
 5570SOL    HW117609   6.320   4.563   4.501
 5570SOL    HW217610   6.331   4.438   4.396
 5571SOL     OW17611   0.022   5.515   0.718
 5571SOL    HW117612   0.016   5.539   0.815
 5571SOL    HW217613   0.032   5.598   0.663
 5572SOL     OW17614   1.129   2.076   5.124
 5572SOL    HW117615   1.089   2.144   5.062
 5572SOL    HW217616   1.068   1.997   5.130
 5573SOL     OW17617   2.156   4.175   6.420
 5573SOL    HW117618   2.250   4.207   6.431
 5573SOL    HW217619   2.093   4.252   6.427
 5574SOL     OW17620   6.453   1.408   2.800
 5574SOL    HW117621   6.501   1.393   2.887
 5574SOL    HW217622   6.453   1.324   2.747
 5575SOL     OW17623   6.599   1.488   1.220
 5575SOL    HW117624   6.564   1.527   1.305
 5575SOL    HW217625   6.533   1.501   1.146
 5576SOL     OW17626   1.399   5.497   2.309
 5576SOL    HW117627   1.356   5.587   2.304
 5576SOL    HW217628   1.427   5.468   2.217
 5577SOL     OW17629   2.648   2.698   5.372
 5577SOL    HW117630   2.721   2.750   5.417
 5577SOL    HW217631   2.675   2.601   5.367
 5578SOL     OW17632   3.939   4.028   0.006
 5578SOL    HW117633   3.871   4.047   6.958
 5578SOL    HW217634   3.904   3.959   0.070
 5579SOL     OW17635   0.653   3.513   5.869
 5579SOL    HW117636   0.663   3.509   5.968
 5579SOL    HW217637   0.590   3.442   5.839
 5580SOL     OW17638   5.366   2.850   6.198
 5580SOL    HW117639   5.356   2.929   6.258
 5580SOL    HW217640   5.331   2.871   6.107
 5581SOL     OW17641   2.700   0.674   1.838
 5581SOL    HW117642   2.785   0.678   1.891
 5581SOL    HW217643   2.651   0.590   1.860
 5582SOL     OW17644   3.707   3.430   4.378
 5582SOL    HW117645   3.735   3.377   4.299
 5582SOL    HW217646   3.640   3.499   4.350
 5583SOL     OW17647   4.118   0.797   3.004
 5583SOL    HW117648   4.093   0.887   2.967
 5583SOL    HW217649   4.208   0.802   3.047
 5584SOL     OW17650   5.577   4.266   3.723
 5584SOL    HW117651   5.542   4.327   3.794
 5584SOL    HW217652   5.554   4.171   3.745
 5585SOL     OW17653   4.935   6.533   4.351
 5585SOL    HW117654   4.970   6.462   4.412
 5585SOL    HW217655   5.006   6.557   4.284
 5586SOL     OW17656   0.214   2.220   0.073
 5586SOL    HW117657   0.313   2.224   0.085
 5586SOL    HW217658   0.189   2.131   0.035
 5587SOL     OW17659   3.809   6.037   2.444
 5587SOL    HW117660   3.771   5.947   2.464
 5587SOL    HW217661   3.881   6.058   2.510
 5588SOL     OW17662   1.827   6.888   2.771
 5588SOL    HW117663   1.799   6.967   2.717
 5588SOL    HW217664   1.807   6.904   2.867
 5589SOL     OW17665   5.923   3.707   5.648
 5589SOL    HW117666   5.873   3.629   5.611
 5589SOL    HW217667   5.952   3.687   5.741
 5590SOL     OW17668   6.593   5.199   3.609
 5590SOL    HW117669   6.554   5.165   3.523
 5590SOL    HW217670   6.688   5.170   3.616
 5591SOL     OW17671   6.020   1.187   6.717
 5591SOL    HW117672   6.083   1.238   6.659
 5591SOL    HW217673   6.038   1.089   6.708
 5592SOL     OW17674   0.312   4.355   2.719
 5592SOL    HW117675   0.330   4.258   2.737
 5592SOL    HW217676   0.259   4.364   2.634
 5593SOL     OW17677   0.312   2.372   5.743
 5593SOL    HW117678   0.354   2.303   5.802
 5593SOL    HW217679   0.286   2.330   5.657
 5594SOL     OW17680   3.359   1.252   6.610
 5594SOL    HW117681   3.443   1.305   6.617
 5594SOL    HW217682   3.303   1.265   6.691
 5595SOL     OW17683   6.427   0.423   5.278
 5595SOL    HW117684   6.500   0.427   5.210
 5595SOL    HW217685   6.339   0.407   5.233
 5596SOL     OW17686   4.840   0.238   2.819
 5596SOL    HW117687   4.798   0.270   2.734
 5596SOL    HW217688   4.891   0.154   2.801
 5597SOL     OW17689   6.488   1.680   5.542
 5597SOL    HW117690   6.407   1.734   5.519
 5597SOL    HW217691   6.491   1.598   5.485
 5598SOL     OW17692   6.416   3.134   4.096
 5598SOL    HW117693   6.422   3.210   4.161
 5598SOL    HW217694   6.382   3.053   4.143
 5599SOL     OW17695   0.494   2.288   2.007
 5599SOL    HW117696   0.511   2.221   1.935
 5599SOL    HW217697   0.415   2.344   1.981
 5600SOL     OW17698   2.533   0.204   2.604
 5600SOL    HW117699   2.595   0.272   2.564
 5600SOL    HW217700   2.543   0.117   2.556
 5601SOL     OW17701   2.781   1.048   6.442
 5601SOL    HW117702   2.706   1.097   6.397
 5601SOL    HW217703   2.743   0.982   6.507
 5602SOL     OW17704   0.606   0.048   1.912
 5602SOL    HW117705   0.657   0.121   1.867
 5602SOL    HW217706   0.648   0.029   2.002
 5603SOL     OW17707   5.457   1.915   6.951
 5603SOL    HW117708   5.432   1.866   0.013
 5603SOL    HW217709   5.444   2.013   6.964
 5604SOL     OW17710   0.094   2.153   5.291
 5604SOL    HW117711   0.103   2.057   5.264
 5604SOL    HW217712   0.171   2.206   5.254
 5605SOL     OW17713   1.413   0.580   4.756
 5605SOL    HW117714   1.486   0.637   4.794
 5605SOL    HW217715   1.427   0.569   4.657
 5606SOL     OW17716   6.011   0.959   0.745
 5606SOL    HW117717   6.021   1.058   0.754
 5606SOL    HW217718   5.914   0.935   0.753
 5607SOL     OW17719   5.668   1.379   4.179
 5607SOL    HW117720   5.768   1.373   4.180
 5607SOL    HW217721   5.630   1.315   4.246
 5608SOL     OW17722   6.055   1.152   3.267
 5608SOL    HW117723   6.058   1.252   3.273
 5608SOL    HW217724   5.993   1.117   3.338
 5609SOL     OW17725   4.460   5.837   1.746
 5609SOL    HW117726   4.464   5.751   1.694
 5609SOL    HW217727   4.366   5.872   1.744
 5610SOL     OW17728   5.002   4.238   1.289
 5610SOL    HW117729   4.970   4.323   1.330
 5610SOL    HW217730   5.102   4.240   1.281
 5611SOL     OW17731   0.818   4.965   2.884
 5611SOL    HW117732   0.810   5.064   2.884
 5611SOL    HW217733   0.758   4.926   2.953
 5612SOL     OW17734   4.535   3.280   0.133
 5612SOL    HW117735   4.497   3.187   0.134
 5612SOL    HW217736   4.502   3.330   0.213
 5613SOL     OW17737   5.376   5.546   5.333
 5613SOL    HW117738   5.386   5.579   5.427
 5613SOL    HW217739   5.299   5.483   5.327
 5614SOL     OW17740   5.198   3.513   4.950
 5614SOL    HW117741   5.164   3.567   5.027
 5614SOL    HW217742   5.140   3.433   4.936
 5615SOL     OW17743   6.711   1.682   4.080
 5615SOL    HW117744   6.791   1.729   4.042
 5615SOL    HW217745   6.698   1.595   4.033
 5616SOL     OW17746   2.094   2.745   4.934
 5616SOL    HW117747   2.148   2.814   4.886
 5616SOL    HW217748   2.148   2.662   4.945
 5617SOL     OW17749   1.702   4.554   5.180
 5617SOL    HW117750   1.608   4.550   5.215
 5617SOL    HW217751   1.700   4.553   5.080
 5618SOL     OW17752   6.833   5.095   3.647
 5618SOL    HW117753   6.823   5.025   3.717
 5618SOL    HW217754   6.907   5.070   3.585
 5619SOL     OW17755   3.371   3.565   3.916
 5619SOL    HW117756   3.358   3.639   3.982
 5619SOL    HW217757   3.469   3.552   3.899
 5620SOL     OW17758   4.244   3.970   0.188
 5620SOL    HW117759   4.195   3.981   0.102
 5620SOL    HW217760   4.323   3.911   0.175
 5621SOL     OW17761   1.438   3.063   0.032
 5621SOL    HW117762   1.487   3.149   0.045
 5621SOL    HW217763   1.340   3.080   0.034
 5622SOL     OW17764   5.169   0.542   5.851
 5622SOL    HW117765   5.264   0.564   5.870
 5622SOL    HW217766   5.159   0.512   5.756
 5623SOL     OW17767   4.456   6.425   4.904
 5623SOL    HW117768   4.457   6.325   4.897
 5623SOL    HW217769   4.534   6.463   4.856
 5624SOL     OW17770   0.610   4.506   4.125
 5624SOL    HW117771   0.707   4.512   4.146
 5624SOL    HW217772   0.560   4.478   4.208
 5625SOL     OW17773   0.179   6.667   5.778
 5625SOL    HW117774   0.199   6.640   5.684
 5625SOL    HW217775   0.081   6.659   5.795
 5626SOL     OW17776   2.406   5.173   3.786
 5626SOL    HW117777   2.418   5.208   3.878
 5626SOL    HW217778   2.485   5.118   3.761
 5627SOL     OW17779   0.364   5.125   6.455
 5627SOL    HW117780   0.386   5.032   6.484
 5627SOL    HW217781   0.430   5.189   6.493
 5628SOL     OW17782   1.842   2.992   1.554
 5628SOL    HW117783   1.810   3.066   1.613
 5628SOL    HW217784   1.780   2.914   1.562
 5629SOL     OW17785   4.812   3.166   1.772
 5629SOL    HW117786   4.753   3.228   1.720
 5629SOL    HW217787   4.755   3.103   1.826
 5630SOL     OW17788   1.449   4.529   7.010
 5630SOL    HW117789   1.453   4.602   0.056
 5630SOL    HW217790   1.361   4.532   6.962
 5631SOL     OW17791   4.605   1.900   1.672
 5631SOL    HW117792   4.600   1.839   1.751
 5631SOL    HW217793   4.534   1.969   1.678
 5632SOL     OW17794   3.051   2.166   5.295
 5632SOL    HW117795   3.056   2.200   5.389
 5632SOL    HW217796   3.088   2.235   5.232
 5633SOL     OW17797   6.146   5.013   4.447
 5633SOL    HW117798   6.104   5.087   4.396
 5633SOL    HW217799   6.121   5.021   4.544
 5634SOL     OW17800   2.204   5.194   4.707
 5634SOL    HW117801   2.118   5.183   4.756
 5634SOL    HW217802   2.187   5.244   4.622
 5635SOL     OW17803   1.383   6.262   6.723
 5635SOL    HW117804   1.422   6.316   6.649
 5635SOL    HW217805   1.285   6.249   6.707
 5636SOL     OW17806   6.320   6.982   5.124
 5636SOL    HW117807   6.255   6.940   5.061
 5636SOL    HW217808   6.278   6.992   5.214
 5637SOL     OW17809   3.949   6.383   3.597
 5637SOL    HW117810   3.923   6.361   3.691
 5637SOL    HW217811   3.887   6.453   3.561
 5638SOL     OW17812   6.482   3.925   1.236
 5638SOL    HW117813   6.440   3.909   1.146
 5638SOL    HW217814   6.472   3.843   1.292
 5639SOL     OW17815   2.683   0.411   2.501
 5639SOL    HW117816   2.678   0.413   2.401
 5639SOL    HW217817   2.684   0.504   2.537
 5640SOL     OW17818   3.614   0.967   2.382
 5640SOL    HW117819   3.710   0.994   2.371
 5640SOL    HW217820   3.554   1.039   2.347
 5641SOL     OW17821   1.012   4.663   5.591
 5641SOL    HW117822   1.080   4.704   5.530
 5641SOL    HW217823   0.979   4.732   5.656
 5642SOL     OW17824   0.290   5.802   5.147
 5642SOL    HW117825   0.227   5.744   5.095
 5642SOL    HW217826   0.247   5.827   5.234
 5643SOL     OW17827   3.666   0.884   4.368
 5643SOL    HW117828   3.758   0.920   4.376
 5643SOL    HW217829   3.599   0.957   4.385
 5644SOL     OW17830   3.683   6.946   4.672
 5644SOL    HW117831   3.627   0.005   4.652
 5644SOL    HW217832   3.769   6.975   4.714
 5645SOL     OW17833   5.542   4.577   2.939
 5645SOL    HW117834   5.527   4.629   3.023
 5645SOL    HW217835   5.640   4.561   2.926
 5646SOL     OW17836   1.061   5.647   3.111
 5646SOL    HW117837   1.007   5.566   3.086
 5646SOL    HW217838   1.059   5.713   3.037
 5647SOL     OW17839   5.163   0.297   0.575
 5647SOL    HW117840   5.247   0.350   0.562
 5647SOL    HW217841   5.164   0.217   0.515
 5648SOL     OW17842   1.714   0.211   3.849
 5648SOL    HW117843   1.696   0.142   3.919
 5648SOL    HW217844   1.644   0.282   3.853
 5649SOL     OW17845   0.221   0.233   5.001
 5649SOL    HW117846   0.257   0.165   4.937
 5649SOL    HW217847   0.133   0.266   4.967
 5650SOL     OW17848   1.375   5.335   0.639
 5650SOL    HW117849   1.410   5.427   0.621
 5650SOL    HW217850   1.370   5.321   0.738
 5651SOL     OW17851   0.736   1.159   1.500
 5651SOL    HW117852   0.650   1.110   1.485
 5651SOL    HW217853   0.730   1.250   1.459
 5652SOL     OW17854   6.598   6.986   2.013
 5652SOL    HW117855   6.534   0.030   2.052
 5652SOL    HW217856   6.692   7.016   2.031
 5653SOL     OW17857   0.512   6.275   6.811
 5653SOL    HW117858   0.602   6.233   6.813
 5653SOL    HW217859   0.464   6.248   6.727
 5654SOL     OW17860   6.590   0.375   5.732
 5654SOL    HW117861   6.552   0.386   5.640
 5654SOL    HW217862   6.674   0.429   5.741
 5655SOL     OW17863   1.553   3.740   4.727
 5655SOL    HW117864   1.577   3.676   4.800
 5655SOL    HW217865   1.590   3.831   4.748
 5656SOL     OW17866   0.169   3.729   0.012
 5656SOL    HW117867   0.260   3.766   7.013
 5656SOL    HW217868   0.102   3.803   0.011
 5657SOL     OW17869   5.581   1.574   0.282
 5657SOL    HW117870   5.670   1.612   0.259
 5657SOL    HW217871   5.593   1.481   0.317
 5658SOL     OW17872   3.696   4.524   5.860
 5658SOL    HW117873   3.719   4.427   5.853
 5658SOL    HW217874   3.642   4.540   5.943
 5659SOL     OW17875   3.732   3.225   4.184
 5659SOL    HW117876   3.635   3.245   4.177
 5659SOL    HW217877   3.748   3.128   4.169
 5660SOL     OW17878   5.747   0.904   0.742
 5660SOL    HW117879   5.762   0.805   0.740
 5660SOL    HW217880   5.649   0.923   0.742
 5661SOL     OW17881   1.367   4.945   5.397
 5661SOL    HW117882   1.335   5.022   5.342
 5661SOL    HW217883   1.457   4.965   5.434
 5662SOL     OW17884   2.662   5.533   3.199
 5662SOL    HW117885   2.743   5.579   3.160
 5662SOL    HW217886   2.580   5.571   3.157
 5663SOL     OW17887   2.193   3.319   0.628
 5663SOL    HW117888   2.129   3.247   0.652
 5663SOL    HW217889   2.255   3.336   0.705
 5664SOL     OW17890   6.561   4.368   4.608
 5664SOL    HW117891   6.498   4.402   4.539
 5664SOL    HW217892   6.608   4.287   4.573
 5665SOL     OW17893   1.540   1.216   0.457
 5665SOL    HW117894   1.559   1.233   0.554
 5665SOL    HW217895   1.624   1.228   0.404
 5666SOL     OW17896   5.985   6.063   2.041
 5666SOL    HW117897   5.983   5.966   2.066
 5666SOL    HW217898   6.012   6.118   2.120
 5667SOL     OW17899   1.250   5.027   4.779
 5667SOL    HW117900   1.175   5.039   4.714
 5667SOL    HW217901   1.315   4.960   4.743
 5668SOL     OW17902   5.405   2.146   4.713
 5668SOL    HW117903   5.350   2.068   4.684
 5668SOL    HW217904   5.350   2.206   4.772
 5669SOL     OW17905   0.212   3.157   6.470
 5669SOL    HW117906   0.248   3.215   6.397
 5669SOL    HW217907   0.206   3.210   6.555
 5670SOL     OW17908   6.633   2.722   3.314
 5670SOL    HW117909   6.642   2.820   3.302
 5670SOL    HW217910   6.723   2.679   3.302
 5671SOL     OW17911   0.083   6.430   0.320
 5671SOL    HW117912   0.169   6.440   0.269
 5671SOL    HW217913   0.092   6.475   0.409
 5672SOL     OW17914   3.558   4.512   6.093
 5672SOL    HW117915   3.562   4.416   6.123
 5672SOL    HW217916   3.599   4.570   6.163
 5673SOL     OW17917   0.859   0.184   2.526
 5673SOL    HW117918   0.834   0.164   2.431
 5673SOL    HW217919   0.954   0.157   2.542
 5674SOL     OW17920   0.198   5.080   4.832
 5674SOL    HW117921   0.283   5.046   4.873
 5674SOL    HW217922   0.152   5.005   4.784
 5675SOL     OW17923   3.753   2.061   5.913
 5675SOL    HW117924   3.770   2.063   5.815
 5675SOL    HW217925   3.706   1.977   5.937
 5676SOL     OW17926   1.520   2.832   1.802
 5676SOL    HW117927   1.574   2.824   1.886
 5676SOL    HW217928   1.457   2.909   1.811
 5677SOL     OW17929   0.268   1.069   1.351
 5677SOL    HW117930   0.350   1.068   1.409
 5677SOL    HW217931   0.292   1.042   1.258
 5678SOL     OW17932   4.084   6.164   2.849
 5678SOL    HW117933   4.178   6.131   2.850
 5678SOL    HW217934   4.082   6.262   2.868
 5679SOL     OW17935   0.920   1.181   3.816
 5679SOL    HW117936   0.941   1.273   3.784
 5679SOL    HW217937   0.845   1.186   3.883
 5680SOL     OW17938   1.234   4.886   6.401
 5680SOL    HW117939   1.213   4.798   6.445
 5680SOL    HW217940   1.211   4.961   6.463
 5681SOL     OW17941   0.089   4.749   0.530
 5681SOL    HW117942   0.124   4.832   0.486
 5681SOL    HW217943   0.002   4.770   0.577
 5682SOL     OW17944   2.393   4.355   5.730
 5682SOL    HW117945   2.368   4.299   5.651
 5682SOL    HW217946   2.360   4.448   5.716
 5683SOL     OW17947   3.865   0.766   6.163
 5683SOL    HW117948   3.831   0.770   6.257
 5683SOL    HW217949   3.856   0.673   6.128
 5684SOL     OW17950   2.444   3.295   6.031
 5684SOL    HW117951   2.538   3.314   6.004
 5684SOL    HW217952   2.401   3.379   6.064
 5685SOL     OW17953   1.641   2.970   2.321
 5685SOL    HW117954   1.609   2.999   2.231
 5685SOL    HW217955   1.576   2.904   2.359
 5686SOL     OW17956   3.389   1.367   5.754
 5686SOL    HW117957   3.428   1.353   5.844
 5686SOL    HW217958   3.291   1.385   5.763
 5687SOL     OW17959   0.638   4.888   6.384
 5687SOL    HW117960   0.561   4.869   6.444
 5687SOL    HW217961   0.631   4.981   6.349
 5688SOL     OW17962   0.428   2.370   1.117
 5688SOL    HW117963   0.395   2.442   1.179
 5688SOL    HW217964   0.508   2.326   1.157
 5689SOL     OW17965   3.970   1.453   0.788
 5689SOL    HW117966   4.009   1.544   0.786
 5689SOL    HW217967   3.925   1.438   0.876
 5690SOL     OW17968   2.479   6.261   0.430
 5690SOL    HW117969   2.526   6.205   0.498
 5690SOL    HW217970   2.497   6.358   0.447
 5691SOL     OW17971   2.910   0.380   2.058
 5691SOL    HW117972   2.991   0.343   2.015
 5691SOL    HW217973   2.906   0.479   2.044
 5692SOL     OW17974   5.972   3.336   0.540
 5692SOL    HW117975   6.023   3.372   0.618
 5692SOL    HW217976   5.926   3.411   0.493
 5693SOL     OW17977   5.672   2.026   2.431
 5693SOL    HW117978   5.638   2.104   2.379
 5693SOL    HW217979   5.736   1.974   2.373
 5694SOL     OW17980   0.786   1.918   3.403
 5694SOL    HW117981   0.752   1.928   3.309
 5694SOL    HW217982   0.825   1.827   3.415
 5695SOL     OW17983   1.346   2.751   2.830
 5695SOL    HW117984   1.267   2.737   2.890
 5695SOL    HW217985   1.424   2.701   2.866
 5696SOL     OW17986   1.437   1.384   2.920
 5696SOL    HW117987   1.457   1.306   2.979
 5696SOL    HW217988   1.429   1.353   2.825
 5697SOL     OW17989   6.023   2.423   1.986
 5697SOL    HW117990   5.925   2.423   2.003
 5697SOL    HW217991   6.061   2.333   2.008
 5698SOL     OW17992   0.759   3.468   3.710
 5698SOL    HW117993   0.853   3.462   3.676
 5698SOL    HW217994   0.738   3.387   3.765
 5699SOL     OW17995   0.483   2.134   3.256
 5699SOL    HW117996   0.483   2.227   3.290
 5699SOL    HW217997   0.453   2.071   3.328
 5700SOL     OW17998   7.004   6.810   3.829
 5700SOL    HW117999   7.021   6.793   3.732
 5700SOL    HW218000   0.030   6.742   3.885
 5701SOL     OW18001   1.484   0.664   2.077
 5701SOL    HW118002   1.460   0.619   2.162
 5701SOL    HW218003   1.571   0.626   2.043
 5702SOL     OW18004   2.951   6.285   5.092
 5702SOL    HW118005   2.916   6.366   5.138
 5702SOL    HW218006   2.902   6.271   5.006
 5703SOL     OW18007   6.724   4.563   1.401
 5703SOL    HW118008   6.769   4.650   1.420
 5703SOL    HW218009   6.792   4.490   1.403
 5704SOL     OW18010   4.732   4.420   2.344
 5704SOL    HW118011   4.820   4.468   2.340
 5704SOL    HW218012   4.660   4.478   2.306
 5705SOL     OW18013   5.005   1.035   0.624
 5705SOL    HW118014   4.943   1.062   0.550
 5705SOL    HW218015   5.055   1.114   0.657
 5706SOL     OW18016   6.723   3.861   0.678
 5706SOL    HW118017   6.790   3.888   0.609
 5706SOL    HW218018   6.682   3.944   0.717
 5707SOL     OW18019   0.071   6.549   0.775
 5707SOL    HW118020   0.095   6.472   0.716
 5707SOL    HW218021   0.149   6.612   0.780
 5708SOL     OW18022   5.272   6.077   1.710
 5708SOL    HW118023   5.312   6.053   1.622
 5708SOL    HW218024   5.219   6.162   1.701
 5709SOL     OW18025   1.307   0.305   2.462
 5709SOL    HW118026   1.295   0.267   2.554
 5709SOL    HW218027   1.378   0.255   2.414
 5710SOL     OW18028   2.906   3.104   0.447
 5710SOL    HW118029   2.952   3.041   0.510
 5710SOL    HW218030   2.936   3.085   0.354
 5711SOL     OW18031   5.003   1.247   2.565
 5711SOL    HW118032   5.017   1.342   2.537
 5711SOL    HW218033   4.910   1.237   2.601
 5712SOL     OW18034   0.134   6.402   6.772
 5712SOL    HW118035   0.160   6.340   6.845
 5712SOL    HW218036   0.050   6.450   6.796
 5713SOL     OW18037   3.019   2.819   1.542
 5713SOL    HW118038   2.972   2.751   1.597
 5713SOL    HW218039   3.117   2.800   1.542
 5714SOL     OW18040   0.087   5.705   0.192
 5714SOL    HW118041   0.009   5.734   0.136
 5714SOL    HW218042   0.128   5.623   0.153
 5715SOL     OW18043   0.870   6.997   3.474
 5715SOL    HW118044   0.964   6.987   3.504
 5715SOL    HW218045   0.868   0.001   3.377
 5716SOL     OW18046   1.281   3.737   0.209
 5716SOL    HW118047   1.199   3.795   0.208
 5716SOL    HW218048   1.342   3.764   0.135
 5717SOL     OW18049   2.404   5.450   0.496
 5717SOL    HW118050   2.309   5.444   0.464
 5717SOL    HW218051   2.433   5.545   0.496
 5718SOL     OW18052   0.269   2.759   5.564
 5718SOL    HW118053   0.279   2.822   5.641
 5718SOL    HW218054   0.324   2.678   5.580
 5719SOL     OW18055   2.683   1.958   6.523
 5719SOL    HW118056   2.661   1.880   6.465
 5719SOL    HW218057   2.782   1.973   6.523
 5720SOL     OW18058   1.790   5.202   4.861
 5720SOL    HW118059   1.880   5.178   4.899
 5720SOL    HW218060   1.777   5.301   4.866
 5721SOL     OW18061   0.062   3.691   1.380
 5721SOL    HW118062   7.014   3.620   1.376
 5721SOL    HW218063   0.079   3.716   1.475
 5722SOL     OW18064   6.494   1.343   5.152
 5722SOL    HW118065   6.479   1.385   5.242
 5722SOL    HW218066   6.478   1.244   5.159
 5723SOL     OW18067   4.369   3.608   0.576
 5723SOL    HW118068   4.409   3.605   0.667
 5723SOL    HW218069   4.440   3.586   0.508
 5724SOL     OW18070   5.672   3.231   5.030
 5724SOL    HW118071   5.730   3.153   5.004
 5724SOL    HW218072   5.618   3.259   4.951
 5725SOL     OW18073   4.947   4.955   3.896
 5725SOL    HW118074   5.025   4.984   3.952
 5725SOL    HW218075   4.868   4.939   3.955
 5726SOL     OW18076   0.402   4.965   4.953
 5726SOL    HW118077   0.430   4.939   4.861
 5726SOL    HW218078   0.465   4.926   5.020
 5727SOL     OW18079   6.637   1.406   4.002
 5727SOL    HW118080   6.656   1.328   4.062
 5727SOL    HW218081   6.664   1.383   3.908
 5728SOL     OW18082   3.918   0.775   6.444
 5728SOL    HW118083   3.893   0.868   6.472
 5728SOL    HW218084   3.867   0.709   6.499
 5729SOL     OW18085   1.185   1.194   0.716
 5729SOL    HW118086   1.156   1.234   0.803
 5729SOL    HW218087   1.110   1.200   0.651
 5730SOL     OW18088   4.776   5.239   6.256
 5730SOL    HW118089   4.687   5.203   6.229
 5730SOL    HW218090   4.826   5.270   6.175
 5731SOL     OW18091   0.583   6.968   3.892
 5731SOL    HW118092   0.624   0.032   3.922
 5731SOL    HW218093   0.488   6.963   3.923
 5732SOL     OW18094   6.654   5.438   4.359
 5732SOL    HW118095   6.593   5.416   4.284
 5732SOL    HW218096   6.667   5.357   4.417
 5733SOL     OW18097   3.707   6.655   5.177
 5733SOL    HW118098   3.629   6.693   5.128
 5733SOL    HW218099   3.785   6.718   5.171
 5734SOL     OW18100   1.279   6.557   5.595
 5734SOL    HW118101   1.228   6.586   5.515
 5734SOL    HW218102   1.329   6.635   5.633
 5735SOL     OW18103   4.032   2.243   1.922
 5735SOL    HW118104   3.939   2.280   1.928
 5735SOL    HW218105   4.031   2.146   1.943
 5736SOL     OW18106   6.149   4.303   0.156
 5736SOL    HW118107   6.181   4.398   0.152
 5736SOL    HW218108   6.089   4.292   0.236
 5737SOL     OW18109   4.994   6.296   0.709
 5737SOL    HW118110   4.930   6.255   0.774
 5737SOL    HW218111   5.063   6.348   0.760
 5738SOL     OW18112   2.731   3.374   6.039
 5738SOL    HW118113   2.696   3.409   5.952
 5738SOL    HW218114   2.758   3.451   6.097
 5739SOL     OW18115   1.476   0.564   5.431
 5739SOL    HW118116   1.551   0.500   5.414
 5739SOL    HW218117   1.395   0.536   5.380
 5740SOL     OW18118   4.119   3.645   1.429
 5740SOL    HW118119   4.120   3.706   1.349
 5740SOL    HW218120   4.171   3.687   1.503
 5741SOL     OW18121   0.083   3.851   4.379
 5741SOL    HW118122   0.058   3.936   4.333
 5741SOL    HW218123   0.173   3.861   4.421
 5742SOL     OW18124   4.972   6.700   2.859
 5742SOL    HW118125   4.939   6.754   2.937
 5742SOL    HW218126   4.898   6.687   2.794
 5743SOL     OW18127   2.502   5.228   5.576
 5743SOL    HW118128   2.440   5.207   5.499
 5743SOL    HW218129   2.556   5.147   5.597
 5744SOL     OW18130   5.302   1.262   1.813
 5744SOL    HW118131   5.324   1.285   1.718
 5744SOL    HW218132   5.206   1.280   1.831
 5745SOL     OW18133   2.191   0.524   3.998
 5745SOL    HW118134   2.120   0.454   3.983
 5745SOL    HW218135   2.147   0.610   4.023
 5746SOL     OW18136   5.664   6.653   1.346
 5746SOL    HW118137   5.752   6.685   1.380
 5746SOL    HW218138   5.613   6.730   1.307
 5747SOL     OW18139   6.926   4.283   2.899
 5747SOL    HW118140   6.853   4.215   2.894
 5747SOL    HW218141   6.988   4.260   2.974
 5748SOL     OW18142   1.424   5.633   0.583
 5748SOL    HW118143   1.370   5.675   0.510
 5748SOL    HW218144   1.426   5.693   0.663
 5749SOL     OW18145   1.801   6.397   4.575
 5749SOL    HW118146   1.757   6.383   4.664
 5749SOL    HW218147   1.781   6.319   4.516
 5750SOL     OW18148   6.321   6.264   4.463
 5750SOL    HW118149   6.303   6.356   4.429
 5750SOL    HW218150   6.307   6.261   4.562
 5751SOL     OW18151   3.007   2.223   4.656
 5751SOL    HW118152   2.988   2.153   4.587
 5751SOL    HW218153   2.936   2.294   4.651
 5752SOL     OW18154   6.352   0.914   0.225
 5752SOL    HW118155   6.325   0.949   0.315
 5752SOL    HW218156   6.304   0.828   0.207
 5753SOL     OW18157   4.115   3.238   4.703
 5753SOL    HW118158   4.025   3.215   4.739
 5753SOL    HW218159   4.145   3.167   4.639
 5754SOL     OW18160   6.426   4.632   1.139
 5754SOL    HW118161   6.439   4.533   1.129
 5754SOL    HW218162   6.360   4.649   1.212
 5755SOL     OW18163   2.032   3.365   6.022
 5755SOL    HW118164   1.954   3.418   5.988
 5755SOL    HW218165   2.096   3.347   5.947
 5756SOL     OW18166   6.410   6.727   3.455
 5756SOL    HW118167   6.391   6.821   3.483
 5756SOL    HW218168   6.397   6.665   3.533
 5757SOL     OW18169   6.626   6.336   2.747
 5757SOL    HW118170   6.559   6.262   2.745
 5757SOL    HW218171   6.686   6.328   2.667
 5758SOL     OW18172   2.757   1.059   4.857
 5758SOL    HW118173   2.726   1.057   4.762
 5758SOL    HW218174   2.708   1.131   4.906
 5759SOL     OW18175   4.803   1.354   6.645
 5759SOL    HW118176   4.877   1.347   6.578
 5759SOL    HW218177   4.773   1.263   6.672
 5760SOL     OW18178   0.071   4.411   0.892
 5760SOL    HW118179   0.130   4.486   0.864
 5760SOL    HW218180   0.127   4.330   0.911
 5761SOL     OW18181   5.455   6.325   6.516
 5761SOL    HW118182   5.465   6.394   6.587
 5761SOL    HW218183   5.429   6.369   6.430
 5762SOL     OW18184   4.961   5.585   0.172
 5762SOL    HW118185   4.978   5.612   0.267
 5762SOL    HW218186   4.890   5.515   0.170
 5763SOL     OW18187   0.030   0.111   0.196
 5763SOL    HW118188   0.093   0.126   0.272
 5763SOL    HW218189   0.074   0.139   0.110
 5764SOL     OW18190   4.780   5.161   5.559
 5764SOL    HW118191   4.845   5.210   5.501
 5764SOL    HW218192   4.786   5.197   5.652
 5765SOL     OW18193   6.210   3.707   0.094
 5765SOL    HW118194   6.127   3.679   0.045
 5765SOL    HW218195   6.190   3.716   0.192
 5766SOL     OW18196   2.018   2.722   0.021
 5766SOL    HW118197   1.921   2.745   0.026
 5766SOL    HW218198   2.049   2.731   6.948
 5767SOL     OW18199   1.950   0.765   0.766
 5767SOL    HW118200   1.941   0.718   0.678
 5767SOL    HW218201   2.024   0.722   0.819
 5768SOL     OW18202   0.624   6.258   3.097
 5768SOL    HW118203   0.620   6.341   3.042
 5768SOL    HW218204   0.536   6.244   3.143
 5769SOL     OW18205   2.225   5.816   4.188
 5769SOL    HW118206   2.227   5.915   4.176
 5769SOL    HW218207   2.142   5.790   4.238
 5770SOL     OW18208   5.731   0.039   0.359
 5770SOL    HW118209   5.800   0.061   0.291
 5770SOL    HW218210   5.653   7.017   0.314
 5771SOL     OW18211   1.825   6.452   3.603
 5771SOL    HW118212   1.861   6.471   3.511
 5771SOL    HW218213   1.744   6.508   3.619
 5772SOL     OW18214   6.408   1.881   1.053
 5772SOL    HW118215   6.315   1.908   1.079
 5772SOL    HW218216   6.425   1.903   0.957
 5773SOL     OW18217   4.621   0.982   3.841
 5773SOL    HW118218   4.606   0.984   3.742
 5773SOL    HW218219   4.533   0.975   3.888
 5774SOL     OW18220   2.910   5.458   3.570
 5774SOL    HW118221   2.961   5.518   3.509
 5774SOL    HW218222   2.869   5.513   3.643
 5775SOL     OW18223   1.556   1.071   1.812
 5775SOL    HW118224   1.568   0.975   1.784
 5775SOL    HW218225   1.604   1.131   1.748
 5776SOL     OW18226   6.867   0.791   6.020
 5776SOL    HW118227   6.876   0.827   5.927
 5776SOL    HW218228   6.949   0.812   6.072
 5777SOL     OW18229   6.574   0.273   5.086
 5777SOL    HW118230   6.499   0.228   5.038
 5777SOL    HW218231   6.658   0.219   5.075
 5778SOL     OW18232   1.638   0.385   1.572
 5778SOL    HW118233   1.656   0.289   1.551
 5778SOL    HW218234   1.540   0.402   1.570
 5779SOL     OW18235   4.296   1.796   0.890
 5779SOL    HW118236   4.373   1.788   0.953
 5779SOL    HW218237   4.304   1.881   0.837
 5780SOL     OW18238   6.422   5.108   2.853
 5780SOL    HW118239   6.445   5.094   2.757
 5780SOL    HW218240   6.443   5.025   2.905
 5781SOL     OW18241   0.138   3.956   4.706
 5781SOL    HW118242   0.159   3.900   4.786
 5781SOL    HW218243   0.195   4.038   4.707
 5782SOL     OW18244   0.973   0.913   0.754
 5782SOL    HW118245   1.007   0.945   0.842
 5782SOL    HW218246   0.928   0.824   0.767
 5783SOL     OW18247   1.766   0.592   1.703
 5783SOL    HW118248   1.787   0.660   1.633
 5783SOL    HW218249   1.707   0.521   1.663
 5784SOL     OW18250   6.693   6.739   0.251
 5784SOL    HW118251   6.768   6.690   0.206
 5784SOL    HW218252   6.614   6.742   0.189
 5785SOL     OW18253   1.858   1.695   0.957
 5785SOL    HW118254   1.762   1.674   0.938
 5785SOL    HW218255   1.915   1.661   0.882
 5786SOL     OW18256   0.539   3.694   0.739
 5786SOL    HW118257   0.562   3.749   0.820
 5786SOL    HW218258   0.471   3.625   0.763
 5787SOL     OW18259   4.170   2.965   5.429
 5787SOL    HW118260   4.101   2.949   5.500
 5787SOL    HW218261   4.234   2.888   5.427
 5788SOL     OW18262   2.897   1.434   1.219
 5788SOL    HW118263   2.977   1.399   1.268
 5788SOL    HW218264   2.923   1.454   1.124
 5789SOL     OW18265   3.245   4.027   6.329
 5789SOL    HW118266   3.176   3.977   6.277
 5789SOL    HW218267   3.207   4.114   6.360
 5790SOL     OW18268   0.428   4.558   4.857
 5790SOL    HW118269   0.477   4.571   4.943
 5790SOL    HW218270   0.489   4.578   4.780
 5791SOL     OW18271   3.037   1.882   2.159
 5791SOL    HW118272   3.090   1.955   2.203
 5791SOL    HW218273   3.000   1.916   2.073
 5792SOL     OW18274   5.321   2.618   2.273
 5792SOL    HW118275   5.382   2.597   2.197
 5792SOL    HW218276   5.290   2.712   2.267
 5793SOL     OW18277   5.913   1.029   4.145
 5793SOL    HW118278   5.950   1.117   4.175
 5793SOL    HW218279   5.864   1.040   4.059
 5794SOL     OW18280   2.520   0.175   6.148
 5794SOL    HW118281   2.547   0.223   6.232
 5794SOL    HW218282   2.428   0.136   6.161
 5795SOL     OW18283   0.086   6.291   1.261
 5795SOL    HW118284   0.063   6.357   1.332
 5795SOL    HW218285   0.185   6.275   1.261
 5796SOL     OW18286   4.402   1.129   6.539
 5796SOL    HW118287   4.473   1.083   6.486
 5796SOL    HW218288   4.382   1.218   6.498
 5797SOL     OW18289   5.001   1.862   0.408
 5797SOL    HW118290   4.976   1.925   0.482
 5797SOL    HW218291   4.977   1.769   0.434
 5798SOL     OW18292   0.123   5.354   4.881
 5798SOL    HW118293   0.166   5.264   4.869
 5798SOL    HW218294   0.031   5.342   4.918
 5799SOL     OW18295   0.309   0.937   4.605
 5799SOL    HW118296   0.279   0.930   4.509
 5799SOL    HW218297   0.328   0.845   4.640
 5800SOL     OW18298   0.903   6.969   2.093
 5800SOL    HW118299   0.957   6.920   2.161
 5800SOL    HW218300   0.901   6.917   2.008
 5801SOL     OW18301   1.904   2.134   3.472
 5801SOL    HW118302   1.815   2.177   3.489
 5801SOL    HW218303   1.941   2.167   3.385
 5802SOL     OW18304   6.333   3.112   2.424
 5802SOL    HW118305   6.250   3.084   2.376
 5802SOL    HW218306   6.405   3.044   2.408
 5803SOL     OW18307   1.774   5.879   3.003
 5803SOL    HW118308   1.853   5.832   2.963
 5803SOL    HW218309   1.717   5.916   2.929
 5804SOL     OW18310   0.409   5.591   3.094
 5804SOL    HW118311   0.393   5.618   3.189
 5804SOL    HW218312   0.374   5.499   3.079
 5805SOL     OW18313   1.348   3.283   0.850
 5805SOL    HW118314   1.401   3.338   0.914
 5805SOL    HW218315   1.303   3.342   0.784
 5806SOL     OW18316   6.868   5.129   4.834
 5806SOL    HW118317   6.908   5.130   4.742
 5806SOL    HW218318   6.816   5.045   4.847
 5807SOL     OW18319   0.964   5.723   0.301
 5807SOL    HW118320   0.898   5.659   0.338
 5807SOL    HW218321   1.056   5.685   0.309
 5808SOL     OW18322   6.915   6.507   4.322
 5808SOL    HW118323   7.010   6.534   4.333
 5808SOL    HW218324   6.910   6.423   4.268
 5809SOL     OW18325   6.775   1.488   5.281
 5809SOL    HW118326   6.803   1.583   5.268
 5809SOL    HW218327   6.756   1.446   5.192
 5810SOL     OW18328   5.151   1.058   5.610
 5810SOL    HW118329   5.101   1.133   5.566
 5810SOL    HW218330   5.249   1.081   5.611
 5811SOL     OW18331   3.436   1.368   4.837
 5811SOL    HW118332   3.455   1.332   4.928
 5811SOL    HW218333   3.344   1.340   4.809
 5812SOL     OW18334   5.139   3.360   6.133
 5812SOL    HW118335   5.194   3.277   6.146
 5812SOL    HW218336   5.093   3.356   6.045
 5813SOL     OW18337   2.759   0.739   0.834
 5813SOL    HW118338   2.808   0.771   0.915
 5813SOL    HW218339   2.756   0.639   0.834
 5814SOL     OW18340   6.783   3.057   2.150
 5814SOL    HW118341   6.875   3.070   2.113
 5814SOL    HW218342   6.715   3.079   2.081
 5815SOL     OW18343   4.155   1.439   4.028
 5815SOL    HW118344   4.182   1.433   4.124
 5815SOL    HW218345   4.104   1.524   4.013
 5816SOL     OW18346   5.112   4.205   7.006
 5816SOL    HW118347   5.177   4.257   0.039
 5816SOL    HW218348   5.069   4.266   6.939
 5817SOL     OW18349   6.291   4.888   5.242
 5817SOL    HW118350   6.195   4.908   5.263
 5817SOL    HW218351   6.342   4.974   5.233
 5818SOL     OW18352   6.750   5.465   5.896
 5818SOL    HW118353   6.725   5.474   5.800
 5818SOL    HW218354   6.678   5.413   5.944
 5819SOL     OW18355   3.929   6.960   6.774
 5819SOL    HW118356   3.835   6.940   6.747
 5819SOL    HW218357   3.950   6.912   6.859
 5820SOL     OW18358   4.364   4.637   2.974
 5820SOL    HW118359   4.424   4.566   3.011
 5820SOL    HW218360   4.277   4.637   3.024
 5821SOL     OW18361   6.693   0.797   1.729
 5821SOL    HW118362   6.656   0.806   1.822
 5821SOL    HW218363   6.786   0.833   1.727
 5822SOL     OW18364   1.876   2.685   1.505
 5822SOL    HW118365   1.781   2.666   1.529
 5822SOL    HW218366   1.920   2.600   1.476
 5823SOL     OW18367   3.109   0.043   4.553
 5823SOL    HW118368   3.117   0.083   4.644
 5823SOL    HW218369   3.125   6.966   4.559
 5824SOL     OW18370   0.192   6.051   2.961
 5824SOL    HW118371   0.114   6.113   2.958
 5824SOL    HW218372   0.232   6.052   3.053
 5825SOL     OW18373   0.174   6.850   4.547
 5825SOL    HW118374   0.235   6.929   4.541
 5825SOL    HW218375   0.100   6.870   4.612
 5826SOL     OW18376   0.206   5.692   6.439
 5826SOL    HW118377   0.252   5.603   6.434
 5826SOL    HW218378   0.112   5.680   6.471
 5827SOL     OW18379   1.838   3.545   4.538
 5827SOL    HW118380   1.777   3.466   4.534
 5827SOL    HW218381   1.808   3.613   4.470
 5828SOL     OW18382   5.039   1.500   2.509
 5828SOL    HW118383   4.957   1.543   2.472
 5828SOL    HW218384   5.102   1.479   2.434
 5829SOL     OW18385   1.702   0.530   4.554
 5829SOL    HW118386   1.708   0.532   4.654
 5829SOL    HW218387   1.606   0.532   4.526
 5830SOL     OW18388   5.816   0.134   5.906
 5830SOL    HW118389   5.746   0.182   5.854
 5830SOL    HW218390   5.776   0.053   5.950
 5831SOL     OW18391   1.320   0.952   6.089
 5831SOL    HW118392   1.232   0.904   6.083
 5831SOL    HW218393   1.333   0.986   6.182
 5832SOL     OW18394   3.180   4.603   0.033
 5832SOL    HW118395   3.278   4.586   0.029
 5832SOL    HW218396   3.137   4.534   0.092
 5833SOL     OW18397   4.106   3.744   5.160
 5833SOL    HW118398   4.106   3.667   5.224
 5833SOL    HW218399   4.156   3.821   5.200
 5834SOL     OW18400   6.973   4.299   6.539
 5834SOL    HW118401   0.032   4.287   6.482
 5834SOL    HW218402   6.959   4.217   6.595
 5835SOL     OW18403   5.575   2.181   3.108
 5835SOL    HW118404   5.550   2.132   3.191
 5835SOL    HW218405   5.493   2.222   3.067
 5836SOL     OW18406   3.002   0.303   1.496
 5836SOL    HW118407   2.990   0.234   1.425
 5836SOL    HW218408   2.915   0.320   1.542
 5837SOL     OW18409   3.561   3.048   0.059
 5837SOL    HW118410   3.515   2.994   0.129
 5837SOL    HW218411   3.627   2.992   0.010
 5838SOL     OW18412   2.838   1.780   0.950
 5838SOL    HW118413   2.846   1.812   0.855
 5838SOL    HW218414   2.917   1.811   1.003
 5839SOL     OW18415   0.611   2.219   1.316
 5839SOL    HW118416   0.645   2.129   1.289
 5839SOL    HW218417   0.539   2.208   1.386
 5840SOL     OW18418   1.308   3.837   6.191
 5840SOL    HW118419   1.386   3.799   6.142
 5840SOL    HW218420   1.340   3.887   6.271
 5841SOL     OW18421   5.299   1.449   2.013
 5841SOL    HW118422   5.318   1.374   1.950
 5841SOL    HW218423   5.267   1.528   1.963
 5842SOL     OW18424   4.716   3.004   1.424
 5842SOL    HW118425   4.736   2.935   1.494
 5842SOL    HW218426   4.791   3.070   1.420
 5843SOL     OW18427   1.231   4.657   1.739
 5843SOL    HW118428   1.151   4.706   1.703
 5843SOL    HW218429   1.298   4.648   1.666
 5844SOL     OW18430   1.682   6.300   5.905
 5844SOL    HW118431   1.590   6.265   5.889
 5844SOL    HW218432   1.708   6.282   6.000
 5845SOL     OW18433   0.681   0.370   1.611
 5845SOL    HW118434   0.701   0.289   1.556
 5845SOL    HW218435   0.584   0.390   1.608
 5846SOL     OW18436   6.431   3.641   5.973
 5846SOL    HW118437   6.380   3.557   5.952
 5846SOL    HW218438   6.390   3.718   5.924
 5847SOL     OW18439   2.606   2.368   2.177
 5847SOL    HW118440   2.679   2.396   2.116
 5847SOL    HW218441   2.590   2.270   2.167
 5848SOL     OW18442   1.560   5.466   2.973
 5848SOL    HW118443   1.506   5.492   2.892
 5848SOL    HW218444   1.658   5.473   2.951
 5849SOL     OW18445   1.887   0.498   5.427
 5849SOL    HW118446   1.952   0.573   5.411
 5849SOL    HW218447   1.823   0.524   5.499
 5850SOL     OW18448   6.914   3.404   2.189
 5850SOL    HW118449   6.831   3.377   2.142
 5850SOL    HW218450   6.934   3.500   2.170
 5851SOL     OW18451   5.158   3.705   3.547
 5851SOL    HW118452   5.095   3.705   3.469
 5851SOL    HW218453   5.251   3.687   3.515
 5852SOL     OW18454   5.537   6.440   3.153
 5852SOL    HW118455   5.475   6.395   3.088
 5852SOL    HW218456   5.631   6.411   3.134
 5853SOL     OW18457   4.095   5.184   5.584
 5853SOL    HW118458   4.162   5.227   5.524
 5853SOL    HW218459   4.012   5.240   5.588
 5854SOL     OW18460   4.490   3.990   5.654
 5854SOL    HW118461   4.418   4.040   5.701
 5854SOL    HW218462   4.562   3.966   5.719
 5855SOL     OW18463   1.795   0.882   4.553
 5855SOL    HW118464   1.890   0.854   4.540
 5855SOL    HW218465   1.779   0.969   4.506
 5856SOL     OW18466   1.724   5.702   3.655
 5856SOL    HW118467   1.753   5.791   3.620
 5856SOL    HW218468   1.637   5.712   3.703
 5857SOL     OW18469   6.137   3.716   5.452
 5857SOL    HW118470   6.196   3.637   5.471
 5857SOL    HW218471   6.072   3.728   5.528
 5858SOL     OW18472   2.643   2.312   2.481
 5858SOL    HW118473   2.663   2.387   2.418
 5858SOL    HW218474   2.545   2.294   2.481
 5859SOL     OW18475   6.448   6.127   1.528
 5859SOL    HW118476   6.407   6.218   1.533
 5859SOL    HW218477   6.535   6.132   1.480
 5860SOL     OW18478   0.313   4.568   3.188
 5860SOL    HW118479   0.227   4.569   3.240
 5860SOL    HW218480   0.385   4.610   3.243
 5861SOL     OW18481   5.843   0.875   4.369
 5861SOL    HW118482   5.840   0.906   4.275
 5861SOL    HW218483   5.757   0.900   4.415
 5862SOL     OW18484   5.943   5.486   0.804
 5862SOL    HW118485   5.912   5.466   0.711
 5862SOL    HW218486   6.039   5.512   0.802
 5863SOL     OW18487   2.855   2.325   5.111
 5863SOL    HW118488   2.851   2.246   5.050
 5863SOL    HW218489   2.949   2.340   5.140
 5864SOL     OW18490   3.585   4.022   2.410
 5864SOL    HW118491   3.633   4.037   2.324
 5864SOL    HW218492   3.636   3.957   2.466
 5865SOL     OW18493   5.824   0.438   5.369
 5865SOL    HW118494   5.835   0.436   5.270
 5865SOL    HW218495   5.892   0.498   5.409
 5866SOL     OW18496   3.865   3.263   0.737
 5866SOL    HW118497   3.947   3.261   0.680
 5866SOL    HW218498   3.879   3.326   0.814
 5867SOL     OW18499   2.203   3.483   1.253
 5867SOL    HW118500   2.173   3.388   1.246
 5867SOL    HW218501   2.300   3.487   1.273
 5868SOL     OW18502   1.911   1.604   5.681
 5868SOL    HW118503   1.907   1.639   5.587
 5868SOL    HW218504   1.997   1.553   5.693
 5869SOL     OW18505   1.837   6.131   3.171
 5869SOL    HW118506   1.784   6.146   3.254
 5869SOL    HW218507   1.811   6.044   3.130
 5870SOL     OW18508   5.225   6.052   4.878
 5870SOL    HW118509   5.304   5.994   4.857
 5870SOL    HW218510   5.256   6.137   4.920
 5871SOL     OW18511   3.624   3.180   1.722
 5871SOL    HW118512   3.569   3.139   1.795
 5871SOL    HW218513   3.596   3.275   1.709
 5872SOL     OW18514   4.754   6.669   1.383
 5872SOL    HW118515   4.727   6.574   1.363
 5872SOL    HW218516   4.841   6.688   1.336
 5873SOL     OW18517   3.585   0.873   1.949
 5873SOL    HW118518   3.518   0.813   1.994
 5873SOL    HW218519   3.581   0.859   1.850
 5874SOL     OW18520   2.108   4.575   5.448
 5874SOL    HW118521   2.180   4.587   5.379
 5874SOL    HW218522   2.148   4.580   5.539
 5875SOL     OW18523   4.344   1.511   6.695
 5875SOL    HW118524   4.425   1.485   6.642
 5875SOL    HW218525   4.372   1.571   6.770
 5876SOL     OW18526   3.875   3.149   1.644
 5876SOL    HW118527   3.875   3.056   1.608
 5876SOL    HW218528   3.788   3.167   1.690
 5877SOL     OW18529   6.761   6.487   1.227
 5877SOL    HW118530   6.789   6.444   1.142
 5877SOL    HW218531   6.827   6.467   1.299
 5878SOL     OW18532   0.196   5.546   4.129
 5878SOL    HW118533   0.137   5.531   4.050
 5878SOL    HW218534   0.142   5.585   4.204
 5879SOL     OW18535   1.060   4.044   6.818
 5879SOL    HW118536   1.119   3.977   6.863
 5879SOL    HW218537   1.052   4.022   6.721
 5880SOL     OW18538   4.342   4.158   6.690
 5880SOL    HW118539   4.352   4.062   6.662
 5880SOL    HW218540   4.285   4.162   6.772
 5881SOL     OW18541   0.805   6.791   2.765
 5881SOL    HW118542   0.828   6.876   2.812
 5881SOL    HW218543   0.706   6.786   2.754
 5882SOL     OW18544   0.183   5.845   1.485
 5882SOL    HW118545   0.116   5.771   1.496
 5882SOL    HW218546   0.246   5.845   1.562
 5883SOL     OW18547   1.061   1.145   6.512
 5883SOL    HW118548   1.008   1.061   6.526
 5883SOL    HW218549   1.004   1.224   6.532
 5884SOL     OW18550   3.000   1.457   4.623
 5884SOL    HW118551   2.987   1.553   4.646
 5884SOL    HW218552   2.941   1.432   4.546
 5885SOL     OW18553   0.444   0.357   3.322
 5885SOL    HW118554   0.533   0.343   3.365
 5885SOL    HW218555   0.443   0.313   3.232
 5886SOL     OW18556   0.988   1.752   4.772
 5886SOL    HW118557   0.997   1.850   4.758
 5886SOL    HW218558   0.940   1.734   4.858
 5887SOL     OW18559   2.568   1.867   2.901
 5887SOL    HW118560   2.531   1.869   2.994
 5887SOL    HW218561   2.520   1.798   2.847
 5888SOL     OW18562   3.029   0.962   1.679
 5888SOL    HW118563   3.048   0.889   1.613
 5888SOL    HW218564   2.980   1.036   1.633
 5889SOL     OW18565   1.329   6.698   0.489
 5889SOL    HW118566   1.376   6.769   0.541
 5889SOL    HW218567   1.231   6.713   0.492
 5890SOL     OW18568   2.417   0.986   3.728
 5890SOL    HW118569   2.506   0.942   3.739
 5890SOL    HW218570   2.376   0.958   3.640
 5891SOL     OW18571   3.598   3.082   5.987
 5891SOL    HW118572   3.656   3.121   6.059
 5891SOL    HW218573   3.503   3.111   6.002
 5892SOL     OW18574   0.776   5.144   1.348
 5892SOL    HW118575   0.839   5.125   1.273
 5892SOL    HW218576   0.720   5.223   1.324
 5893SOL     OW18577   2.127   3.794   4.120
 5893SOL    HW118578   2.118   3.708   4.170
 5893SOL    HW218579   2.153   3.775   4.025
 5894SOL     OW18580   7.008   4.963   4.215
 5894SOL    HW118581   0.062   4.975   4.279
 5894SOL    HW218582   0.013   4.999   4.125
 5895SOL     OW18583   5.416   4.384   3.905
 5895SOL    HW118584   5.453   4.423   3.989
 5895SOL    HW218585   5.380   4.293   3.923
 5896SOL     OW18586   3.831   0.822   0.213
 5896SOL    HW118587   3.856   0.795   0.306
 5896SOL    HW218588   3.880   0.906   0.188
 5897SOL     OW18589   3.908   0.537   1.404
 5897SOL    HW118590   3.994   0.584   1.423
 5897SOL    HW218591   3.900   0.456   1.461
 5898SOL     OW18592   1.939   6.825   3.268
 5898SOL    HW118593   1.945   6.909   3.323
 5898SOL    HW218594   1.879   6.841   3.190
 5899SOL     OW18595   5.323   5.833   5.902
 5899SOL    HW118596   5.305   5.787   5.815
 5899SOL    HW218597   5.260   5.910   5.913
 5900SOL     OW18598   5.689   5.033   3.553
 5900SOL    HW118599   5.616   4.965   3.556
 5900SOL    HW218600   5.756   5.007   3.484
 5901SOL     OW18601   2.342   0.706   0.665
 5901SOL    HW118602   2.387   0.620   0.641
 5901SOL    HW218603   2.305   0.749   0.583
 5902SOL     OW18604   6.618   2.529   5.748
 5902SOL    HW118605   6.518   2.532   5.747
 5902SOL    HW218606   6.650   2.509   5.840
 5903SOL     OW18607   4.500   4.802   6.851
 5903SOL    HW118608   4.552   4.756   6.778
 5903SOL    HW218609   4.475   4.735   6.921
 5904SOL     OW18610   1.291   4.683   1.459
 5904SOL    HW118611   1.199   4.720   1.446
 5904SOL    HW218612   1.308   4.610   1.393
 5905SOL     OW18613   5.969   6.111   3.589
 5905SOL    HW118614   5.971   6.043   3.515
 5905SOL    HW218615   5.876   6.145   3.600
 5906SOL     OW18616   3.677   2.053   3.668
 5906SOL    HW118617   3.675   2.068   3.767
 5906SOL    HW218618   3.626   1.970   3.646
 5907SOL     OW18619   0.727   5.215   0.788
 5907SOL    HW118620   0.738   5.313   0.809
 5907SOL    HW218621   0.688   5.206   0.696
 5908SOL     OW18622   0.456   2.643   6.636
 5908SOL    HW118623   0.408   2.690   6.562
 5908SOL    HW218624   0.531   2.700   6.669
 5909SOL     OW18625   6.615   5.733   0.564
 5909SOL    HW118626   6.515   5.732   0.566
 5909SOL    HW218627   6.647   5.826   0.584
 5910SOL     OW18628   6.809   3.494   3.932
 5910SOL    HW118629   6.802   3.503   4.031
 5910SOL    HW218630   6.727   3.449   3.896
 5911SOL     OW18631   6.586   6.444   6.852
 5911SOL    HW118632   6.497   6.404   6.827
 5911SOL    HW218633   6.589   6.459   6.951
 5912SOL     OW18634   6.494   1.263   5.929
 5912SOL    HW118635   6.582   1.270   5.883
 5912SOL    HW218636   6.485   1.338   5.996
 5913SOL     OW18637   4.962   3.050   6.125
 5913SOL    HW118638   4.945   3.128   6.065
 5913SOL    HW218639   4.943   3.077   6.220
 5914SOL     OW18640   1.389   4.773   6.069
 5914SOL    HW118641   1.439   4.860   6.071
 5914SOL    HW218642   1.406   4.723   6.154
 5915SOL     OW18643   4.495   5.550   1.153
 5915SOL    HW118644   4.544   5.507   1.228
 5915SOL    HW218645   4.445   5.630   1.187
 5916SOL     OW18646   5.920   6.525   4.157
 5916SOL    HW118647   5.852   6.586   4.116
 5916SOL    HW218648   5.925   6.440   4.105
 5917SOL     OW18649   2.908   3.445   4.256
 5917SOL    HW118650   2.897   3.346   4.248
 5917SOL    HW218651   2.929   3.469   4.351
 5918SOL     OW18652   1.788   3.896   5.767
 5918SOL    HW118653   1.820   3.833   5.697
 5918SOL    HW218654   1.821   3.865   5.857
 5919SOL     OW18655   3.727   3.141   3.125
 5919SOL    HW118656   3.775   3.088   3.195
 5919SOL    HW218657   3.773   3.229   3.112
 5920SOL     OW18658   4.541   1.027   6.306
 5920SOL    HW118659   4.543   1.055   6.210
 5920SOL    HW218660   4.632   0.997   6.334
 5921SOL     OW18661   3.467   5.632   6.511
 5921SOL    HW118662   3.467   5.540   6.472
 5921SOL    HW218663   3.430   5.628   6.604
 5922SOL     OW18664   4.983   4.582   2.738
 5922SOL    HW118665   4.970   4.495   2.691
 5922SOL    HW218666   5.066   4.579   2.794
 5923SOL     OW18667   6.682   1.708   1.877
 5923SOL    HW118668   6.681   1.681   1.780
 5923SOL    HW218669   6.772   1.689   1.915
 5924SOL     OW18670   6.541   0.201   2.918
 5924SOL    HW118671   6.464   0.249   2.960
 5924SOL    HW218672   6.521   0.103   2.912
 5925SOL     OW18673   4.136   6.842   2.114
 5925SOL    HW118674   4.085   6.924   2.140
 5925SOL    HW218675   4.127   6.773   2.186
 5926SOL     OW18676   3.962   5.323   1.900
 5926SOL    HW118677   3.898   5.287   1.967
 5926SOL    HW218678   3.912   5.372   1.829
 5927SOL     OW18679   1.433   4.254   2.355
 5927SOL    HW118680   1.389   4.271   2.443
 5927SOL    HW218681   1.364   4.258   2.282
 5928SOL     OW18682   3.860   0.147   1.175
 5928SOL    HW118683   3.789   0.217   1.188
 5928SOL    HW218684   3.830   0.061   1.214
 5929SOL     OW18685   6.838   7.007   6.371
 5929SOL    HW118686   6.908   7.006   6.299
 5929SOL    HW218687   6.749   0.004   6.330
 5930SOL     OW18688   6.316   4.014   2.754
 5930SOL    HW118689   6.236   3.987   2.700
 5930SOL    HW218690   6.343   4.107   2.728
 5931SOL     OW18691   0.902   5.487   2.644
 5931SOL    HW118692   0.904   5.432   2.560
 5931SOL    HW218693   0.808   5.490   2.679
 5932SOL     OW18694   3.224   0.301   0.523
 5932SOL    HW118695   3.306   0.288   0.579
 5932SOL    HW218696   3.244   0.365   0.449
 5933SOL     OW18697   6.951   5.016   3.238
 5933SOL    HW118698   6.997   4.943   3.187
 5933SOL    HW218699   6.917   5.084   3.173
 5934SOL     OW18700   3.587   3.163   4.944
 5934SOL    HW118701   3.585   3.178   5.043
 5934SOL    HW218702   3.589   3.251   4.897
 5935SOL     OW18703   5.782   4.999   6.458
 5935SOL    HW118704   5.723   4.972   6.381
 5935SOL    HW218705   5.813   5.093   6.444
 5936SOL     OW18706   3.132   2.380   1.453
 5936SOL    HW118707   3.192   2.452   1.487
 5936SOL    HW218708   3.066   2.355   1.524
 5937SOL     OW18709   6.365   3.659   2.172
 5937SOL    HW118710   6.348   3.606   2.088
 5937SOL    HW218711   6.399   3.750   2.148
 5938SOL     OW18712   6.725   5.671   2.949
 5938SOL    HW118713   6.777   5.638   3.028
 5938SOL    HW218714   6.654   5.605   2.926
 5939SOL     OW18715   2.304   6.511   3.103
 5939SOL    HW118716   2.378   6.577   3.090
 5939SOL    HW218717   2.295   6.489   3.200
 5940SOL     OW18718   4.543   5.641   2.137
 5940SOL    HW118719   4.610   5.649   2.210
 5940SOL    HW218720   4.451   5.643   2.175
 5941SOL     OW18721   5.689   3.255   2.491
 5941SOL    HW118722   5.750   3.227   2.565
 5941SOL    HW218723   5.686   3.354   2.485
 5942SOL     OW18724   5.883   3.792   0.276
 5942SOL    HW118725   5.798   3.837   0.249
 5942SOL    HW218726   5.865   3.731   0.353
 5943SOL     OW18727   2.871   4.483   5.870
 5943SOL    HW118728   2.771   4.485   5.876
 5943SOL    HW218729   2.908   4.571   5.897
 5944SOL     OW18730   6.902   2.619   1.299
 5944SOL    HW118731   6.954   2.599   1.216
 5944SOL    HW218732   6.806   2.631   1.276
 5945SOL     OW18733   6.801   4.876   4.976
 5945SOL    HW118734   6.702   4.879   4.991
 5945SOL    HW218735   6.847   4.923   5.051
 5946SOL     OW18736   4.038   3.483   5.857
 5946SOL    HW118737   4.031   3.387   5.832
 5946SOL    HW218738   3.976   3.502   5.933
 5947SOL     OW18739   3.261   3.400   2.071
 5947SOL    HW118740   3.292   3.307   2.092
 5947SOL    HW218741   3.187   3.425   2.134
 5948SOL     OW18742   4.098   4.753   3.094
 5948SOL    HW118743   4.172   4.818   3.114
 5948SOL    HW218744   4.056   4.777   3.007
 5949SOL     OW18745   4.925   4.002   1.414
 5949SOL    HW118746   4.938   4.094   1.376
 5949SOL    HW218747   4.866   3.949   1.354
 5950SOL     OW18748   5.084   0.858   5.403
 5950SOL    HW118749   5.084   0.925   5.477
 5950SOL    HW218750   5.033   0.895   5.325
 5951SOL     OW18751   1.141   5.727   3.735
 5951SOL    HW118752   1.050   5.748   3.773
 5951SOL    HW218753   1.136   5.644   3.680
 5952SOL     OW18754   5.477   4.650   3.343
 5952SOL    HW118755   5.484   4.736   3.392
 5952SOL    HW218756   5.383   4.636   3.311
 5953SOL     OW18757   6.158   3.212   5.587
 5953SOL    HW118758   6.086   3.248   5.647
 5953SOL    HW218759   6.227   3.282   5.571
 5954SOL     OW18760   6.314   5.235   5.225
 5954SOL    HW118761   6.220   5.203   5.214
 5954SOL    HW218762   6.351   5.264   5.136
 5955SOL     OW18763   4.683   5.705   2.367
 5955SOL    HW118764   4.602   5.669   2.412
 5955SOL    HW218765   4.671   5.803   2.349
 5956SOL     OW18766   4.765   1.915   5.018
 5956SOL    HW118767   4.701   1.871   5.082
 5956SOL    HW218768   4.739   1.892   4.924
 5957SOL     OW18769   3.728   1.226   5.137
 5957SOL    HW118770   3.786   1.252   5.060
 5957SOL    HW218771   3.775   1.246   5.223
 5958SOL     OW18772   5.531   5.912   2.967
 5958SOL    HW118773   5.468   5.849   3.012
 5958SOL    HW218774   5.487   5.952   2.887
 5959SOL     OW18775   4.454   3.151   5.332
 5959SOL    HW118776   4.417   3.235   5.292
 5959SOL    HW218777   4.396   3.124   5.409
 5960SOL     OW18778   3.764   5.391   5.253
 5960SOL    HW118779   3.712   5.382   5.167
 5960SOL    HW218780   3.701   5.404   5.329
 5961SOL     OW18781   4.725   1.793   2.751
 5961SOL    HW118782   4.716   1.839   2.663
 5961SOL    HW218783   4.636   1.756   2.779
 5962SOL     OW18784   5.888   6.769   0.279
 5962SOL    HW118785   5.941   6.849   0.252
 5962SOL    HW218786   5.937   6.686   0.252
 5963SOL     OW18787   4.079   3.531   6.619
 5963SOL    HW118788   4.012   3.605   6.616
 5963SOL    HW218789   4.137   3.543   6.699
 5964SOL     OW18790   1.005   6.126   5.191
 5964SOL    HW118791   0.945   6.046   5.192
 5964SOL    HW218792   1.002   6.171   5.280
 5965SOL     OW18793   1.834   1.389   0.099
 5965SOL    HW118794   1.777   1.411   0.020
 5965SOL    HW218795   1.921   1.438   0.093
 5966SOL     OW18796   2.016   6.357   5.188
 5966SOL    HW118797   2.038   6.427   5.120
 5966SOL    HW218798   2.096   6.339   5.245
 5967SOL     OW18799   3.516   0.139   6.229
 5967SOL    HW118800   3.482   0.198   6.156
 5967SOL    HW218801   3.463   0.157   6.313
 5968SOL     OW18802   5.293   2.453   0.321
 5968SOL    HW118803   5.279   2.523   0.392
 5968SOL    HW218804   5.230   2.377   0.337
 5969SOL     OW18805   6.523   0.060   6.525
 5969SOL    HW118806   6.539   0.008   6.609
 5969SOL    HW218807   6.558   0.153   6.536
 5970SOL     OW18808   0.160   3.985   2.665
 5970SOL    HW118809   0.246   4.030   2.691
 5970SOL    HW218810   0.181   3.901   2.615
 5971SOL     OW18811   0.360   1.252   2.576
 5971SOL    HW118812   0.327   1.190   2.506
 5971SOL    HW218813   0.284   1.307   2.611
 5972SOL     OW18814   5.825   5.635   6.533
 5972SOL    HW118815   5.782   5.719   6.500
 5972SOL    HW218816   5.839   5.572   6.457
 5973SOL     OW18817   1.436   3.361   2.490
 5973SOL    HW118818   1.467   3.266   2.500
 5973SOL    HW218819   1.389   3.389   2.573
 5974SOL     OW18820   5.512   6.023   6.922
 5974SOL    HW118821   5.596   6.033   6.975
 5974SOL    HW218822   5.509   5.932   6.881
 5975SOL     OW18823   4.367   0.228   0.663
 5975SOL    HW118824   4.346   0.149   0.604
 5975SOL    HW218825   4.358   0.200   0.759
 5976SOL     OW18826   3.798   2.653   6.187
 5976SOL    HW118827   3.796   2.731   6.125
 5976SOL    HW218828   3.709   2.643   6.231
 5977SOL     OW18829   1.408   5.747   6.477
 5977SOL    HW118830   1.422   5.801   6.395
 5977SOL    HW218831   1.496   5.730   6.522
 5978SOL     OW18832   4.204   5.635   1.944
 5978SOL    HW118833   4.230   5.589   2.029
 5978SOL    HW218834   4.255   5.596   1.868
 5979SOL     OW18835   5.250   0.434   3.229
 5979SOL    HW118836   5.164   0.475   3.202
 5979SOL    HW218837   5.297   0.494   3.295
 5980SOL     OW18838   3.115   3.722   0.999
 5980SOL    HW118839   3.162   3.706   1.085
 5980SOL    HW218840   3.158   3.798   0.951
 5981SOL     OW18841   5.720   1.942   1.434
 5981SOL    HW118842   5.686   1.952   1.528
 5981SOL    HW218843   5.780   1.862   1.429
 5982SOL     OW18844   5.885   2.760   2.178
 5982SOL    HW118845   5.907   2.750   2.275
 5982SOL    HW218846   5.920   2.848   2.145
 5983SOL     OW18847   1.560   1.614   3.840
 5983SOL    HW118848   1.500   1.571   3.773
 5983SOL    HW218849   1.655   1.604   3.811
 5984SOL     OW18850   6.552   5.517   3.635
 5984SOL    HW118851   6.608   5.478   3.561
 5984SOL    HW218852   6.458   5.529   3.603
 5985SOL     OW18853   6.697   3.138   4.052
 5985SOL    HW118854   6.751   3.085   3.987
 5985SOL    HW218855   6.611   3.091   4.070
 5986SOL     OW18856   3.536   4.133   4.238
 5986SOL    HW118857   3.635   4.130   4.246
 5986SOL    HW218858   3.496   4.157   4.327
 5987SOL     OW18859   5.721   0.119   4.107
 5987SOL    HW118860   5.769   0.052   4.052
 5987SOL    HW218861   5.784   0.159   4.173
 5988SOL     OW18862   4.668   0.429   6.124
 5988SOL    HW118863   4.717   0.406   6.208
 5988SOL    HW218864   4.726   0.408   6.045
 5989SOL     OW18865   2.450   5.630   6.728
 5989SOL    HW118866   2.510   5.549   6.730
 5989SOL    HW218867   2.399   5.631   6.642
 5990SOL     OW18868   3.464   3.456   0.625
 5990SOL    HW118869   3.478   3.521   0.700
 5990SOL    HW218870   3.550   3.410   0.605
 5991SOL     OW18871   3.721   5.339   6.851
 5991SOL    HW118872   3.775   5.323   6.934
 5991SOL    HW218873   3.759   5.287   6.775
 5992SOL     OW18874   3.760   0.366   2.186
 5992SOL    HW118875   3.840   0.331   2.234
 5992SOL    HW218876   3.750   0.318   2.099
 5993SOL     OW18877   3.833   5.003   5.871
 5993SOL    HW118878   3.861   4.913   5.838
 5993SOL    HW218879   3.910   5.049   5.915
 5994SOL     OW18880   6.141   2.672   2.037
 5994SOL    HW118881   6.088   2.710   2.113
 5994SOL    HW218882   6.110   2.580   2.017
 5995SOL     OW18883   4.880   3.467   2.284
 5995SOL    HW118884   4.862   3.556   2.243
 5995SOL    HW218885   4.862   3.395   2.217
 5996SOL     OW18886   1.146   6.118   1.236
 5996SOL    HW118887   1.050   6.147   1.231
 5996SOL    HW218888   1.199   6.189   1.284
 5997SOL     OW18889   0.160   5.543   2.576
 5997SOL    HW118890   0.139   5.550   2.674
 5997SOL    HW218891   0.170   5.447   2.551
 5998SOL     OW18892   6.115   1.485   3.556
 5998SOL    HW118893   6.144   1.568   3.509
 5998SOL    HW218894   6.016   1.473   3.545
 5999SOL     OW18895   2.256   2.903   1.528
 5999SOL    HW118896   2.249   2.852   1.614
 5999SOL    HW218897   2.191   2.980   1.530
 6000SOL     OW18898   2.500   0.074   0.543
 6000SOL    HW118899   2.558   0.135   0.597
 6000SOL    HW218900   2.557   0.019   0.482
 6001SOL     OW18901   0.459   4.247   6.588
 6001SOL    HW118902   0.519   4.186   6.640
 6001SOL    HW218903   0.438   4.327   6.645
 6002SOL     OW18904   6.058   1.222   0.777
 6002SOL    HW118905   5.994   1.276   0.831
 6002SOL    HW218906   6.092   1.277   0.700
 6003SOL     OW18907   6.273   1.891   4.426
 6003SOL    HW118908   6.334   1.967   4.450
 6003SOL    HW218909   6.295   1.857   4.335
 6004SOL     OW18910   6.877   3.682   2.871
 6004SOL    HW118911   6.929   3.604   2.905
 6004SOL    HW218912   6.931   3.766   2.882
 6005SOL     OW18913   4.642   5.205   3.787
 6005SOL    HW118914   4.621   5.238   3.879
 6005SOL    HW218915   4.619   5.108   3.779
 6006SOL     OW18916   2.472   1.219   5.300
 6006SOL    HW118917   2.444   1.199   5.206
 6006SOL    HW218918   2.402   1.187   5.363
 6007SOL     OW18919   5.356   4.460   5.440
 6007SOL    HW118920   5.443   4.452   5.488
 6007SOL    HW218921   5.357   4.404   5.358
 6008SOL     OW18922   2.315   4.608   5.286
 6008SOL    HW118923   2.370   4.537   5.242
 6008SOL    HW218924   2.375   4.671   5.335
 6009SOL     OW18925   2.452   1.309   3.328
 6009SOL    HW118926   2.464   1.408   3.321
 6009SOL    HW218927   2.435   1.271   3.237
 6010SOL     OW18928   1.473   4.633   4.217
 6010SOL    HW118929   1.375   4.641   4.196
 6010SOL    HW218930   1.517   4.722   4.203
 6011SOL     OW18931   5.114   2.733   3.165
 6011SOL    HW118932   5.099   2.819   3.214
 6011SOL    HW218933   5.026   2.688   3.147
 6012SOL     OW18934   5.735   1.132   0.567
 6012SOL    HW118935   5.790   1.131   0.484
 6012SOL    HW218936   5.760   1.055   0.625
 6013SOL     OW18937   5.083   1.945   2.599
 6013SOL    HW118938   5.029   1.992   2.530
 6013SOL    HW218939   5.098   2.005   2.678
 6014SOL     OW18940   4.114   3.591   2.887
 6014SOL    HW118941   4.119   3.538   2.802
 6014SOL    HW218942   4.183   3.557   2.951
 6015SOL     OW18943   6.365   3.920   3.987
 6015SOL    HW118944   6.373   4.006   4.037
 6015SOL    HW218945   6.269   3.893   3.981
 6016SOL     OW18946   6.740   1.539   5.555
 6016SOL    HW118947   6.742   1.508   5.459
 6016SOL    HW218948   6.670   1.609   5.566
 6017SOL     OW18949   6.888   4.632   3.479
 6017SOL    HW118950   6.964   4.572   3.504
 6017SOL    HW218951   6.820   4.632   3.552
 6018SOL     OW18952   4.252   0.503   6.469
 6018SOL    HW118953   4.207   0.583   6.508
 6018SOL    HW218954   4.321   0.469   6.532
 6019SOL     OW18955   0.229   2.615   4.277
 6019SOL    HW118956   0.195   2.693   4.330
 6019SOL    HW218957   0.241   2.641   4.182
 6020SOL     OW18958   1.058   5.322   0.757
 6020SOL    HW118959   1.101   5.248   0.705
 6020SOL    HW218960   0.960   5.325   0.734
 6021SOL     OW18961   4.562   0.346   2.937
 6021SOL    HW118962   4.579   0.444   2.927
 6021SOL    HW218963   4.601   0.297   2.859
 6022SOL     OW18964   5.414   1.310   4.057
 6022SOL    HW118965   5.480   1.267   4.119
 6022SOL    HW218966   5.358   1.239   4.015
 6023SOL     OW18967   5.669   1.073   1.379
 6023SOL    HW118968   5.695   0.978   1.394
 6023SOL    HW218969   5.579   1.090   1.419
 6024SOL     OW18970   1.820   4.829   2.912
 6024SOL    HW118971   1.756   4.775   2.857
 6024SOL    HW218972   1.848   4.910   2.861
 6025SOL     OW18973   3.699   1.757   3.337
 6025SOL    HW118974   3.644   1.787   3.415
 6025SOL    HW218975   3.789   1.798   3.342
 6026SOL     OW18976   6.838   4.452   5.347
 6026SOL    HW118977   6.938   4.458   5.356
 6026SOL    HW218978   6.809   4.503   5.266
 6027SOL     OW18979   0.172   3.480   5.500
 6027SOL    HW118980   0.217   3.554   5.451
 6027SOL    HW218981   0.195   3.485   5.597
 6028SOL     OW18982   6.925   5.094   0.433
 6028SOL    HW118983   6.900   5.185   0.465
 6028SOL    HW218984   6.933   5.032   0.512
 6029SOL     OW18985   2.299   6.919   4.860
 6029SOL    HW118986   2.267   6.876   4.775
 6029SOL    HW218987   2.308   7.018   4.846
 6030SOL     OW18988   4.139   5.441   2.434
 6030SOL    HW118989   4.136   5.536   2.404
 6030SOL    HW218990   4.051   5.397   2.417
 6031SOL     OW18991   2.827   5.367   3.971
 6031SOL    HW118992   2.833   5.426   3.891
 6031SOL    HW218993   2.736   5.375   4.012
 6032SOL     OW18994   2.184   4.555   2.518
 6032SOL    HW118995   2.117   4.622   2.550
 6032SOL    HW218996   2.173   4.470   2.569
 6033SOL     OW18997   2.841   2.120   2.536
 6033SOL    HW118998   2.791   2.056   2.594
 6033SOL    HW218999   2.778   2.190   2.502
 6034SOL     OW19000   1.372   6.677   5.306
 6034SOL    HW119001   1.309   6.602   5.285
 6034SOL    HW219002   1.465   6.642   5.307
 6035SOL     OW19003   0.288   1.035   2.397
 6035SOL    HW119004   0.192   1.046   2.372
 6035SOL    HW219005   0.344   1.028   2.315
 6036SOL     OW19006   5.072   4.322   3.007
 6036SOL    HW119007   5.114   4.413   3.008
 6036SOL    HW219008   4.973   4.331   3.000
 6037SOL     OW19009   4.507   5.743   0.052
 6037SOL    HW119010   4.534   5.800   0.130
 6037SOL    HW219011   4.421   5.777   0.015
 6038SOL     OW19012   1.861   2.907   5.897
 6038SOL    HW119013   1.882   2.812   5.874
 6038SOL    HW219014   1.792   2.910   5.970
 6039SOL     OW19015   3.117   3.143   2.872
 6039SOL    HW119016   3.086   3.150   2.777
 6039SOL    HW219017   3.167   3.057   2.885
 6040SOL     OW19018   1.063   1.622   0.571
 6040SOL    HW119019   1.063   1.610   0.670
 6040SOL    HW219020   1.156   1.610   0.536
 6041SOL     OW19021   2.855   0.350   4.683
 6041SOL    HW119022   2.857   0.294   4.765
 6041SOL    HW219023   2.809   0.300   4.609
 6042SOL     OW19024   4.461   6.339   2.224
 6042SOL    HW119025   4.559   6.320   2.223
 6042SOL    HW219026   4.422   6.313   2.313
 6043SOL     OW19027   1.020   5.209   6.118
 6043SOL    HW119028   1.053   5.115   6.126
 6043SOL    HW219029   1.090   5.272   6.151
 6044SOL     OW19030   1.390   2.817   1.398
 6044SOL    HW119031   1.365   2.902   1.443
 6044SOL    HW219032   1.431   2.837   1.309
 6045SOL     OW19033   5.721   4.207   2.449
 6045SOL    HW119034   5.673   4.134   2.496
 6045SOL    HW219035   5.815   4.213   2.484
 6046SOL     OW19036   3.815   2.035   6.879
 6046SOL    HW119037   3.752   2.014   6.954
 6046SOL    HW219038   3.909   2.036   6.914
 6047SOL     OW19039   4.969   1.662   2.032
 6047SOL    HW119040   4.933   1.569   2.042
 6047SOL    HW219041   4.894   1.725   2.018
 6048SOL     OW19042   4.887   5.363   5.379
 6048SOL    HW119043   4.796   5.394   5.352
 6048SOL    HW219044   4.941   5.342   5.298
 6049SOL     OW19045   5.004   3.305   0.150
 6049SOL    HW119046   5.001   3.334   0.054
 6049SOL    HW219047   4.917   3.263   0.175
 6050SOL     OW19048   3.588   5.646   5.563
 6050SOL    HW119049   3.685   5.671   5.553
 6050SOL    HW219050   3.547   5.638   5.472
 6051SOL     OW19051   2.257   6.541   3.646
 6051SOL    HW119052   2.346   6.576   3.619
 6051SOL    HW219053   2.192   6.616   3.654
 6052SOL     OW19054   6.059   1.007   0.199
 6052SOL    HW119055   6.079   1.054   0.113
 6052SOL    HW219056   6.099   1.058   0.275
 6053SOL     OW19057   3.782   1.241   6.757
 6053SOL    HW119058   3.804   1.171   6.689
 6053SOL    HW219059   3.866   1.269   6.804
 6054SOL     OW19060   2.246   3.173   0.227
 6054SOL    HW119061   2.201   3.085   0.211
 6054SOL    HW219062   2.195   3.225   0.296
 6055SOL     OW19063   5.295   6.939   5.143
 6055SOL    HW119064   5.347   6.911   5.063
 6055SOL    HW219065   5.247   0.003   5.124
 6056SOL     OW19066   4.953   3.419   4.317
 6056SOL    HW119067   4.992   3.428   4.225
 6056SOL    HW219068   4.883   3.348   4.317
 6057SOL     OW19069   5.977   2.024   3.294
 6057SOL    HW119070   5.940   2.103   3.344
 6057SOL    HW219071   6.075   2.036   3.280
 6058SOL     OW19072   4.554   3.722   1.538
 6058SOL    HW119073   4.614   3.663   1.592
 6058SOL    HW219074   4.595   3.738   1.448
 6059SOL     OW19075   4.950   4.956   5.484
 6059SOL    HW119076   4.870   5.012   5.504
 6059SOL    HW219077   5.013   4.957   5.561
 6060SOL     OW19078   2.627   3.480   6.780
 6060SOL    HW119079   2.709   3.425   6.794
 6060SOL    HW219080   2.649   3.577   6.794
 6061SOL     OW19081   3.499   2.773   0.787
 6061SOL    HW119082   3.582   2.823   0.762
 6061SOL    HW219083   3.455   2.819   0.864
 6062SOL     OW19084   2.556   0.778   5.126
 6062SOL    HW119085   2.551   0.798   5.224
 6062SOL    HW219086   2.652   0.765   5.100
 6063SOL     OW19087   4.381   2.989   5.839
 6063SOL    HW119088   4.361   3.019   5.745
 6063SOL    HW219089   4.296   2.969   5.887
 6064SOL     OW19090   1.649   6.071   1.035
 6064SOL    HW119091   1.691   6.059   1.124
 6064SOL    HW219092   1.669   5.992   0.977
 6065SOL     OW19093   0.231   6.870   2.448
 6065SOL    HW119094   0.215   6.797   2.382
 6065SOL    HW219095   0.154   6.934   2.446
 6066SOL     OW19096   4.936   1.401   5.908
 6066SOL    HW119097   4.987   1.467   5.852
 6066SOL    HW219098   4.964   1.410   6.003
 6067SOL     OW19099   5.733   0.999   5.410
 6067SOL    HW119100   5.726   1.092   5.447
 6067SOL    HW219101   5.716   1.002   5.312
 6068SOL     OW19102   5.081   3.442   4.544
 6068SOL    HW119103   5.038   3.417   4.457
 6068SOL    HW219104   5.018   3.421   4.619
 6069SOL     OW19105   6.171   3.792   5.191
 6069SOL    HW119106   6.187   3.726   5.265
 6069SOL    HW219107   6.255   3.842   5.172
 6070SOL     OW19108   2.881   2.422   0.962
 6070SOL    HW119109   2.923   2.331   0.963
 6070SOL    HW219110   2.931   2.481   1.026
 6071SOL     OW19111   5.074   5.661   4.317
 6071SOL    HW119112   5.109   5.592   4.254
 6071SOL    HW219113   5.089   5.630   4.411
 6072SOL     OW19114   6.779   0.443   1.590
 6072SOL    HW119115   6.693   0.464   1.544
 6072SOL    HW219116   6.807   0.349   1.570
 6073SOL     OW19117   6.081   3.025   0.144
 6073SOL    HW119118   5.998   3.008   0.092
 6073SOL    HW219119   6.141   2.946   0.139
 6074SOL     OW19120   0.625   6.519   2.578
 6074SOL    HW119121   0.568   6.498   2.499
 6074SOL    HW219122   0.578   6.584   2.638
 6075SOL     OW19123   6.207   0.751   6.149
 6075SOL    HW119124   6.213   0.692   6.068
 6075SOL    HW219125   6.263   0.832   6.136
 6076SOL     OW19126   3.293   5.609   4.268
 6076SOL    HW119127   3.244   5.688   4.233
 6076SOL    HW219128   3.349   5.637   4.347
 6077SOL     OW19129   6.029   5.788   0.913
 6077SOL    HW119130   6.089   5.730   0.967
 6077SOL    HW219131   6.068   5.880   0.908
 6078SOL     OW19132   4.755   4.807   0.620
 6078SOL    HW119133   4.716   4.866   0.550
 6078SOL    HW219134   4.854   4.804   0.610
 6079SOL     OW19135   4.110   3.983   5.941
 6079SOL    HW119136   4.124   3.887   5.916
 6079SOL    HW219137   4.088   3.989   6.039
 6080SOL     OW19138   0.403   6.534   1.437
 6080SOL    HW119139   0.347   6.609   1.473
 6080SOL    HW219140   0.352   6.486   1.365
 6081SOL     OW19141   6.679   2.754   5.130
 6081SOL    HW119142   6.757   2.751   5.192
 6081SOL    HW219143   6.628   2.838   5.145
 6082SOL     OW19144   1.954   1.412   3.899
 6082SOL    HW119145   1.970   1.346   3.825
 6082SOL    HW219146   1.930   1.363   3.983
 6083SOL     OW19147   6.344   5.658   6.914
 6083SOL    HW119148   6.312   5.699   7.000
 6083SOL    HW219149   6.343   5.559   6.922
 6084SOL     OW19150   0.771   6.877   3.705
 6084SOL    HW119151   0.802   6.935   3.630
 6084SOL    HW219152   0.705   6.927   3.761
 6085SOL     OW19153   0.098   5.769   0.595
 6085SOL    HW119154   0.033   5.768   0.519
 6085SOL    HW219155   0.191   5.766   0.559
 6086SOL     OW19156   3.672   0.763   5.855
 6086SOL    HW119157   3.637   0.758   5.761
 6086SOL    HW219158   3.600   0.795   5.916
 6087SOL     OW19159   3.360   5.532   1.030
 6087SOL    HW119160   3.305   5.473   1.089
 6087SOL    HW219161   3.299   5.586   0.972
 6088SOL     OW19162   5.142   5.921   4.260
 6088SOL    HW119163   5.107   5.830   4.280
 6088SOL    HW219164   5.228   5.913   4.209
 6089SOL     OW19165   5.170   3.100   1.574
 6089SOL    HW119166   5.173   3.157   1.656
 6089SOL    HW219167   5.135   3.009   1.597
 6090SOL     OW19168   1.911   5.658   5.273
 6090SOL    HW119169   1.901   5.580   5.335
 6090SOL    HW219170   1.994   5.709   5.297
 6091SOL     OW19171   1.973   1.031   0.352
 6091SOL    HW119172   1.927   0.944   0.334
 6091SOL    HW219173   2.064   1.030   0.310
 6092SOL     OW19174   4.227   6.897   2.720
 6092SOL    HW119175   4.254   6.954   2.797
 6092SOL    HW219176   4.306   6.881   2.660
 6093SOL     OW19177   1.923   3.472   1.966
 6093SOL    HW119178   1.862   3.398   1.994
 6093SOL    HW219179   2.018   3.444   1.981
 6094SOL     OW19180   2.512   6.604   2.118
 6094SOL    HW119181   2.472   6.517   2.145
 6094SOL    HW219182   2.471   6.635   2.032
 6095SOL     OW19183   4.938   4.222   0.456
 6095SOL    HW119184   4.923   4.124   0.452
 6095SOL    HW219185   5.034   4.243   0.436
 6096SOL     OW19186   6.178   6.687   3.967
 6096SOL    HW119187   6.240   6.644   4.033
 6096SOL    HW219188   6.099   6.724   4.015
 6097SOL     OW19189   2.056   6.120   2.087
 6097SOL    HW119190   2.085   6.089   2.178
 6097SOL    HW219191   2.135   6.116   2.025
 6098SOL     OW19192   1.921   1.888   5.202
 6098SOL    HW119193   1.901   1.986   5.192
 6098SOL    HW219194   1.842   1.835   5.170
 6099SOL     OW19195   5.711   6.585   6.999
 6099SOL    HW119196   5.796   6.638   6.994
 6099SOL    HW219197   5.641   6.630   6.943
 6100SOL     OW19198   5.332   5.647   0.707
 6100SOL    HW119199   5.319   5.737   0.749
 6100SOL    HW219200   5.334   5.657   0.608
 6101SOL     OW19201   6.439   3.028   3.670
 6101SOL    HW119202   6.479   3.102   3.617
 6101SOL    HW219203   6.391   3.066   3.749
 6102SOL     OW19204   3.477   6.620   2.931
 6102SOL    HW119205   3.488   6.617   2.832
 6102SOL    HW219206   3.563   6.647   2.973
 6103SOL     OW19207   6.631   1.885   1.660
 6103SOL    HW119208   6.662   1.883   1.755
 6103SOL    HW219209   6.532   1.899   1.658
 6104SOL     OW19210   6.192   0.962   5.519
 6104SOL    HW119211   6.157   1.012   5.597
 6104SOL    HW219212   6.245   1.024   5.460
 6105SOL     OW19213   3.255   6.373   6.548
 6105SOL    HW119214   3.254   6.459   6.600
 6105SOL    HW219215   3.349   6.342   6.538
 6106SOL     OW19216   1.525   3.908   6.790
 6106SOL    HW119217   1.552   3.834   6.728
 6106SOL    HW219218   1.480   3.981   6.737
 6107SOL     OW19219   3.926   5.497   4.519
 6107SOL    HW119220   3.981   5.517   4.438
 6107SOL    HW219221   3.830   5.489   4.494
 6108SOL     OW19222   1.809   3.217   2.063
 6108SOL    HW119223   1.880   3.173   2.009
 6108SOL    HW219224   1.722   3.171   2.047
 6109SOL     OW19225   5.760   2.157   5.142
 6109SOL    HW119226   5.661   2.145   5.150
 6109SOL    HW219227   5.786   2.156   5.045
 6110SOL     OW19228   3.775   4.141   0.640
 6110SOL    HW119229   3.731   4.057   0.608
 6110SOL    HW219230   3.874   4.134   0.623
 6111SOL     OW19231   1.840   4.061   2.289
 6111SOL    HW119232   1.822   3.963   2.303
 6111SOL    HW219233   1.807   4.113   2.367
 6112SOL     OW19234   3.778   0.175   2.534
 6112SOL    HW119235   3.735   0.194   2.622
 6112SOL    HW219236   3.859   0.233   2.524
 6113SOL     OW19237   2.498   1.055   6.706
 6113SOL    HW119238   2.483   0.990   6.781
 6113SOL    HW219239   2.473   1.147   6.736
 6114SOL     OW19240   5.140   5.191   1.454
 6114SOL    HW119241   5.225   5.173   1.405
 6114SOL    HW219242   5.159   5.209   1.550
 6115SOL     OW19243   5.454   6.638   4.272
 6115SOL    HW119244   5.475   6.728   4.234
 6115SOL    HW219245   5.467   6.568   4.201
 6116SOL     OW19246   3.767   1.194   6.295
 6116SOL    HW119247   3.673   1.230   6.292
 6116SOL    HW219248   3.829   1.265   6.328
 6117SOL     OW19249   1.661   1.292   3.924
 6117SOL    HW119250   1.703   1.322   4.009
 6117SOL    HW219251   1.693   1.350   3.849
 6118SOL     OW19252   0.014   1.007   2.390
 6118SOL    HW119253   6.957   1.063   2.416
 6118SOL    HW219254   0.034   0.943   2.464
 6119SOL     OW19255   0.809   3.868   6.385
 6119SOL    HW119256   0.750   3.807   6.331
 6119SOL    HW219257   0.764   3.957   6.395
 6120SOL     OW19258   3.475   6.297   4.899
 6120SOL    HW119259   3.401   6.286   4.965
 6120SOL    HW219260   3.497   6.394   4.889
 6121SOL     OW19261   0.680   3.329   5.440
 6121SOL    HW119262   0.780   3.327   5.430
 6121SOL    HW219263   0.646   3.419   5.413
 6122SOL     OW19264   3.874   5.250   0.536
 6122SOL    HW119265   3.788   5.200   0.539
 6122SOL    HW219266   3.921   5.243   0.624
 6123SOL     OW19267   5.389   0.061   6.794
 6123SOL    HW119268   5.432   0.050   6.704
 6123SOL    HW219269   5.460   0.069   6.864
 6124SOL     OW19270   2.179   0.067   6.294
 6124SOL    HW119271   2.255   0.004   6.276
 6124SOL    HW219272   2.101   0.015   6.327
 6125SOL     OW19273   2.153   5.081   0.449
 6125SOL    HW119274   2.136   5.121   0.359
 6125SOL    HW219275   2.100   5.130   0.519
 6126SOL     OW19276   1.251   0.163   4.622
 6126SOL    HW119277   1.216   0.120   4.705
 6126SOL    HW219278   1.255   0.262   4.635
 6127SOL     OW19279   3.509   0.299   0.665
 6127SOL    HW119280   3.581   0.367   0.652
 6127SOL    HW219281   3.462   0.317   0.752
 6128SOL     OW19282   5.877   4.125   0.471
 6128SOL    HW119283   5.844   4.053   0.411
 6128SOL    HW219284   5.927   4.085   0.548
 6129SOL     OW19285   6.922   3.256   3.300
 6129SOL    HW119286   6.942   3.188   3.370
 6129SOL    HW219287   6.913   3.346   3.342
 6130SOL     OW19288   5.973   2.420   3.306
 6130SOL    HW119289   5.975   2.497   3.369
 6130SOL    HW219290   6.056   2.421   3.250
 6131SOL     OW19291   0.601   1.549   5.261
 6131SOL    HW119292   0.673   1.480   5.273
 6131SOL    HW219293   0.514   1.512   5.296
 6132SOL     OW19294   5.043   2.482   6.788
 6132SOL    HW119295   5.036   2.497   6.886
 6132SOL    HW219296   4.959   2.438   6.754
 6133SOL     OW19297   1.830   3.159   1.754
 6133SOL    HW119298   1.872   3.243   1.719
 6133SOL    HW219299   1.738   3.179   1.788
 6134SOL     OW19300   3.925   4.624   6.387
 6134SOL    HW119301   3.917   4.534   6.431
 6134SOL    HW219302   3.986   4.682   6.440
 6135SOL     OW19303   0.499   1.003   1.501
 6135SOL    HW119304   0.515   0.904   1.504
 6135SOL    HW219305   0.445   1.031   1.580
 6136SOL     OW19306   1.156   2.826   2.127
 6136SOL    HW119307   1.126   2.769   2.204
 6136SOL    HW219308   1.188   2.767   2.053
 6137SOL     OW19309   6.345   3.037   2.705
 6137SOL    HW119310   6.437   3.057   2.740
 6137SOL    HW219311   6.347   3.038   2.605
 6138SOL     OW19312   3.478   6.245   2.651
 6138SOL    HW119313   3.575   6.237   2.672
 6138SOL    HW219314   3.426   6.255   2.736
 6139SOL     OW19315   1.277   0.013   5.818
 6139SOL    HW119316   1.217   7.014   5.741
 6139SOL    HW219317   1.369   7.000   5.800
 6140SOL     OW19318   0.454   6.239   1.471
 6140SOL    HW119319   0.448   6.302   1.393
 6140SOL    HW219320   0.466   6.291   1.555
 6141SOL     OW19321   0.237   6.600   6.304
 6141SOL    HW119322   0.220   6.534   6.377
 6141SOL    HW219323   0.289   6.677   6.340
 6142SOL     OW19324   1.299   6.319   0.055
 6142SOL    HW119325   1.241   6.399   0.040
 6142SOL    HW219326   1.391   6.337   0.021
 6143SOL     OW19327   6.896   3.487   1.519
 6143SOL    HW119328   6.847   3.473   1.433
 6143SOL    HW219329   6.934   3.400   1.550
 6144SOL     OW19330   5.699   4.539   3.197
 6144SOL    HW119331   5.626   4.559   3.263
 6144SOL    HW219332   5.687   4.445   3.163
 6145SOL     OW19333   4.821   5.037   3.177
 6145SOL    HW119334   4.860   5.095   3.250
 6145SOL    HW219335   4.840   4.941   3.198
 6146SOL     OW19336   3.233   5.681   3.754
 6146SOL    HW119337   3.277   5.596   3.726
 6146SOL    HW219338   3.193   5.669   3.845
 6147SOL     OW19339   2.307   2.101   4.750
 6147SOL    HW119340   2.374   2.040   4.709
 6147SOL    HW219341   2.290   2.075   4.845
 6148SOL     OW19342   5.864   6.405   4.455
 6148SOL    HW119343   5.775   6.404   4.500
 6148SOL    HW219344   5.866   6.476   4.385
 6149SOL     OW19345   2.614   5.771   0.759
 6149SOL    HW119346   2.572   5.714   0.829
 6149SOL    HW219347   2.576   5.748   0.669
 6150SOL     OW19348   4.149   5.478   6.806
 6150SOL    HW119349   4.232   5.452   6.855
 6150SOL    HW219350   4.073   5.486   6.871
 6151SOL     OW19351   5.718   4.247   6.285
 6151SOL    HW119352   5.717   4.237   6.186
 6151SOL    HW219353   5.710   4.157   6.328
 6152SOL     OW19354   6.418   5.394   4.555
 6152SOL    HW119355   6.451   5.487   4.536
 6152SOL    HW219356   6.475   5.328   4.507
 6153SOL     OW19357   4.973   4.734   1.402
 6153SOL    HW119358   4.915   4.779   1.470
 6153SOL    HW219359   5.008   4.802   1.338
 6154SOL     OW19360   5.827   1.694   2.785
 6154SOL    HW119361   5.805   1.693   2.882
 6154SOL    HW219362   5.756   1.743   2.735
 6155SOL     OW19363   1.632   1.677   4.102
 6155SOL    HW119364   1.595   1.593   4.143
 6155SOL    HW219365   1.603   1.683   4.007
 6156SOL     OW19366   3.838   4.512   1.083
 6156SOL    HW119367   3.838   4.421   1.125
 6156SOL    HW219368   3.792   4.577   1.145
 6157SOL     OW19369   0.165   0.816   4.923
 6157SOL    HW119370   0.162   0.761   5.006
 6157SOL    HW219371   0.074   0.821   4.883
 6158SOL     OW19372   3.318   2.118   5.562
 6158SOL    HW119373   3.264   2.194   5.525
 6158SOL    HW219374   3.372   2.077   5.488
 6159SOL     OW19375   5.248   2.873   2.221
 6159SOL    HW119376   5.262   2.900   2.126
 6159SOL    HW219377   5.153   2.891   2.247
 6160SOL     OW19378   4.974   1.509   6.200
 6160SOL    HW119379   4.968   1.608   6.186
 6160SOL    HW219380   4.932   1.485   6.287
 6161SOL     OW19381   4.553   1.625   5.325
 6161SOL    HW119382   4.564   1.646   5.228
 6161SOL    HW219383   4.492   1.693   5.367
 6162SOL     OW19384   0.877   6.336   3.202
 6162SOL    HW119385   0.782   6.317   3.180
 6162SOL    HW219386   0.929   6.350   3.118
 6163SOL     OW19387   6.045   0.022   0.871
 6163SOL    HW119388   6.044   0.079   0.953
 6163SOL    HW219389   6.134   0.030   0.826
 6164SOL     OW19390   4.039   3.674   2.350
 6164SOL    HW119391   4.107   3.606   2.376
 6164SOL    HW219392   3.956   3.662   2.405
 6165SOL     OW19393   4.606   1.309   0.069
 6165SOL    HW119394   4.688   1.272   0.025
 6165SOL    HW219395   4.525   1.259   0.036
 6166SOL     OW19396   5.242   1.347   6.437
 6166SOL    HW119397   5.269   1.268   6.493
 6166SOL    HW219398   5.309   1.420   6.448
 6167SOL     OW19399   1.347   5.543   3.588
 6167SOL    HW119400   1.384   5.456   3.556
 6167SOL    HW219401   1.293   5.586   3.516
 6168SOL     OW19402   1.088   4.087   1.864
 6168SOL    HW119403   1.073   4.002   1.814
 6168SOL    HW219404   1.001   4.119   1.903
 6169SOL     OW19405   1.114   2.236   1.103
 6169SOL    HW119406   1.181   2.306   1.078
 6169SOL    HW219407   1.145   2.187   1.184
 6170SOL     OW19408   0.649   3.795   5.482
 6170SOL    HW119409   0.701   3.732   5.540
 6170SOL    HW219410   0.592   3.741   5.420
 6171SOL     OW19411   0.685   2.725   0.937
 6171SOL    HW119412   0.741   2.648   0.967
 6171SOL    HW219413   0.693   2.735   0.838
 6172SOL     OW19414   1.898   2.802   2.632
 6172SOL    HW119415   1.907   2.706   2.607
 6172SOL    HW219416   1.801   2.825   2.638
 6173SOL     OW19417   6.747   5.557   1.556
 6173SOL    HW119418   6.708   5.596   1.639
 6173SOL    HW219419   6.678   5.503   1.508
 6174SOL     OW19420   5.595   4.974   3.182
 6174SOL    HW119421   5.504   4.940   3.158
 6174SOL    HW219422   5.588   5.041   3.256
 6175SOL     OW19423   4.344   0.532   3.630
 6175SOL    HW119424   4.398   0.549   3.547
 6175SOL    HW219425   4.353   0.435   3.655
 6176SOL     OW19426   4.840   4.137   6.187
 6176SOL    HW119427   4.859   4.174   6.096
 6176SOL    HW219428   4.845   4.037   6.184
 6177SOL     OW19429   5.414   1.250   0.887
 6177SOL    HW119430   5.434   1.221   0.981
 6177SOL    HW219431   5.498   1.278   0.842
 6178SOL     OW19432   4.610   4.828   2.494
 6178SOL    HW119433   4.695   4.795   2.536
 6178SOL    HW219434   4.543   4.754   2.492
 6179SOL     OW19435   6.416   4.462   3.197
 6179SOL    HW119436   6.391   4.524   3.122
 6179SOL    HW219437   6.514   4.469   3.214
 6180SOL     OW19438   3.381   3.977   0.117
 6180SOL    HW119439   3.369   3.938   0.026
 6180SOL    HW219440   3.318   4.053   0.130
 6181SOL     OW19441   4.365   6.695   0.993
 6181SOL    HW119442   4.354   6.607   0.948
 6181SOL    HW219443   4.335   6.688   1.088
 6182SOL     OW19444   5.288   3.777   5.296
 6182SOL    HW119445   5.345   3.736   5.226
 6182SOL    HW219446   5.266   3.871   5.271
 6183SOL     OW19447   1.138   2.229   3.037
 6183SOL    HW119448   1.188   2.297   3.091
 6183SOL    HW219449   1.116   2.151   3.095
 6184SOL     OW19450   2.118   6.984   6.579
 6184SOL    HW119451   2.033   6.949   6.618
 6184SOL    HW219452   2.177   6.908   6.554
 6185SOL     OW19453   0.767   3.657   5.702
 6185SOL    HW119454   0.848   3.609   5.670
 6185SOL    HW219455   0.711   3.595   5.757
 6186SOL     OW19456   0.113   0.255   6.995
 6186SOL    HW119457   0.210   0.270   7.012
 6186SOL    HW219458   0.067   0.342   6.981
 6187SOL     OW19459   4.992   4.313   3.781
 6187SOL    HW119460   4.991   4.407   3.748
 6187SOL    HW219461   4.985   4.312   3.881
 6188SOL     OW19462   2.215   1.021   0.248
 6188SOL    HW119463   2.256   1.086   0.312
 6188SOL    HW219464   2.200   1.066   0.160
 6189SOL     OW19465   4.596   4.462   2.854
 6189SOL    HW119466   4.624   4.557   2.842
 6189SOL    HW219467   4.557   4.428   2.769
 6190SOL     OW19468   0.953   4.181   5.325
 6190SOL    HW119469   0.950   4.089   5.287
 6190SOL    HW219470   1.016   4.184   5.402
 6191SOL     OW19471   2.983   1.775   0.039
 6191SOL    HW119472   2.932   1.838   0.098
 6191SOL    HW219473   2.919   1.711   7.019
 6192SOL     OW19474   3.429   2.696   5.581
 6192SOL    HW119475   3.335   2.662   5.582
 6192SOL    HW219476   3.427   2.795   5.567
 6193SOL     OW19477   4.801   0.386   1.861
 6193SOL    HW119478   4.887   0.430   1.835
 6193SOL    HW219479   4.780   0.407   1.956
 6194SOL     OW19480   1.494   0.252   1.262
 6194SOL    HW119481   1.509   0.283   1.168
 6194SOL    HW219482   1.444   0.165   1.260
 6195SOL     OW19483   4.062   6.311   5.714
 6195SOL    HW119484   4.030   6.259   5.794
 6195SOL    HW219485   3.985   6.332   5.655
 6196SOL     OW19486   5.490   3.199   1.623
 6196SOL    HW119487   5.432   3.173   1.700
 6196SOL    HW219488   5.434   3.216   1.543
 6197SOL     OW19489   3.605   4.729   0.800
 6197SOL    HW119490   3.526   4.673   0.827
 6197SOL    HW219491   3.684   4.671   0.785
 6198SOL     OW19492   4.288   6.695   1.291
 6198SOL    HW119493   4.358   6.649   1.344
 6198SOL    HW219494   4.264   6.782   1.335
 6199SOL     OW19495   0.670   1.331   0.546
 6199SOL    HW119496   0.679   1.254   0.609
 6199SOL    HW219497   0.652   1.297   0.454
 6200SOL     OW19498   1.184   1.240   5.753
 6200SOL    HW119499   1.261   1.300   5.735
 6200SOL    HW219500   1.218   1.151   5.786
 6201SOL     OW19501   0.560   4.133   4.842
 6201SOL    HW119502   0.557   4.057   4.777
 6201SOL    HW219503   0.643   4.126   4.898
 6202SOL     OW19504   4.193   1.258   2.196
 6202SOL    HW119505   4.101   1.285   2.226
 6202SOL    HW219506   4.200   1.271   2.097
 6203SOL     OW19507   6.737   5.649   2.375
 6203SOL    HW119508   6.670   5.575   2.389
 6203SOL    HW219509   6.723   5.720   2.444
 6204SOL     OW19510   0.187   4.961   4.398
 6204SOL    HW119511   0.184   5.015   4.482
 6204SOL    HW219512   0.280   4.928   4.382
 6205SOL     OW19513   6.286   5.474   0.111
 6205SOL    HW119514   6.225   5.395   0.108
 6205SOL    HW219515   6.381   5.443   0.110
 6206SOL     OW19516   5.714   1.620   3.397
 6206SOL    HW119517   5.687   1.578   3.310
 6206SOL    HW219518   5.743   1.715   3.380
 6207SOL     OW19519   0.644   5.072   5.084
 6207SOL    HW119520   0.649   5.143   5.154
 6207SOL    HW219521   0.691   4.990   5.116
 6208SOL     OW19522   5.344   2.304   5.591
 6208SOL    HW119523   5.432   2.263   5.564
 6208SOL    HW219524   5.270   2.258   5.543
 6209SOL     OW19525   3.961   5.800   6.627
 6209SOL    HW119526   4.042   5.752   6.594
 6209SOL    HW219527   3.905   5.829   6.550
 6210SOL     OW19528   5.618   3.671   3.866
 6210SOL    HW119529   5.670   3.616   3.801
 6210SOL    HW219530   5.622   3.628   3.957
 6211SOL     OW19531   2.978   6.404   5.661
 6211SOL    HW119532   3.009   6.378   5.753
 6211SOL    HW219533   3.029   6.352   5.593
 6212SOL     OW19534   2.462   5.099   4.506
 6212SOL    HW119535   2.455   5.017   4.449
 6212SOL    HW219536   2.387   5.099   4.572
 6213SOL     OW19537   6.800   0.854   0.275
 6213SOL    HW119538   6.786   0.929   0.340
 6213SOL    HW219539   6.739   0.866   0.197
 6214SOL     OW19540   4.324   5.284   4.087
 6214SOL    HW119541   4.423   5.268   4.086
 6214SOL    HW219542   4.278   5.214   4.032
 6215SOL     OW19543   4.269   2.078   0.223
 6215SOL    HW119544   4.173   2.058   0.241
 6215SOL    HW219545   4.281   2.176   0.209
 6216SOL     OW19546   6.440   1.363   2.439
 6216SOL    HW119547   6.383   1.365   2.356
 6216SOL    HW219548   6.496   1.446   2.443
 6217SOL     OW19549   0.541   3.391   2.520
 6217SOL    HW119550   0.468   3.443   2.565
 6217SOL    HW219551   0.502   3.330   2.452
 6218SOL     OW19552   3.838   6.145   6.723
 6218SOL    HW119553   3.837   6.045   6.719
 6218SOL    HW219554   3.888   6.181   6.645
 6219SOL     OW19555   1.783   1.964   4.628
 6219SOL    HW119556   1.849   2.011   4.687
 6219SOL    HW219557   1.826   1.944   4.541
 6220SOL     OW19558   2.848   1.381   4.406
 6220SOL    HW119559   2.751   1.360   4.423
 6220SOL    HW219560   2.857   1.429   4.319
 6221SOL     OW19561   5.580   5.921   0.325
 6221SOL    HW119562   5.498   5.975   0.307
 6221SOL    HW219563   5.640   5.970   0.388
 6222SOL     OW19564   1.082   6.431   1.706
 6222SOL    HW119565   1.003   6.438   1.645
 6222SOL    HW219566   1.160   6.479   1.665
 6223SOL     OW19567   1.552   4.798   3.649
 6223SOL    HW119568   1.555   4.778   3.747
 6223SOL    HW219569   1.641   4.830   3.619
 6224SOL     OW19570   3.330   1.678   6.066
 6224SOL    HW119571   3.404   1.614   6.048
 6224SOL    HW219572   3.281   1.650   6.149
 6225SOL     OW19573   4.117   3.297   6.264
 6225SOL    HW119574   4.168   3.278   6.348
 6225SOL    HW219575   4.165   3.368   6.211
 6226SOL     OW19576   0.290   1.722   5.608
 6226SOL    HW119577   0.255   1.802   5.657
 6226SOL    HW219578   0.387   1.710   5.628
 6227SOL     OW19579   3.467   5.328   5.173
 6227SOL    HW119580   3.523   5.335   5.090
 6227SOL    HW219581   3.372   5.315   5.148
 6228SOL     OW19582   0.803   3.435   2.308
 6228SOL    HW119583   0.773   3.350   2.265
 6228SOL    HW219584   0.745   3.455   2.387
 6229SOL     OW19585   1.238   1.845   3.776
 6229SOL    HW119586   1.175   1.921   3.791
 6229SOL    HW219587   1.201   1.784   3.706
 6230SOL     OW19588   0.897   2.065   3.782
 6230SOL    HW119589   0.848   1.982   3.807
 6230SOL    HW219590   0.943   2.052   3.694
 6231SOL     OW19591   6.109   6.697   0.555
 6231SOL    HW119592   6.153   6.675   0.642
 6231SOL    HW219593   6.021   6.651   0.550
 6232SOL     OW19594   6.468   1.290   0.986
 6232SOL    HW119595   6.502   1.218   1.046
 6232SOL    HW219596   6.471   1.259   0.891
 6233SOL     OW19597   6.539   2.015   1.279
 6233SOL    HW119598   6.478   1.976   1.210
 6233SOL    HW219599   6.591   1.943   1.323
 6234SOL     OW19600   6.866   1.206   5.381
 6234SOL    HW119601   6.916   1.187   5.296
 6234SOL    HW219602   6.928   1.246   5.448
 6235SOL     OW19603   0.077   0.070   1.163
 6235SOL    HW119604   0.134   7.011   1.178
 6235SOL    HW219605   0.109   0.144   1.221
 6236SOL     OW19606   0.638   4.009   1.147
 6236SOL    HW119607   0.723   4.010   1.200
 6236SOL    HW219608   0.636   4.088   1.086
 6237SOL     OW19609   3.992   0.133   6.058
 6237SOL    HW119610   4.043   0.219   6.051
 6237SOL    HW219611   4.054   0.061   6.092
 6238SOL     OW19612   4.192   5.389   2.680
 6238SOL    HW119613   4.202   5.404   2.582
 6238SOL    HW219614   4.123   5.451   2.717
 6239SOL     OW19615   3.215   0.957   1.436
 6239SOL    HW119616   3.250   0.918   1.521
 6239SOL    HW219617   3.287   0.953   1.366
 6240SOL     OW19618   2.590   3.787   5.641
 6240SOL    HW119619   2.492   3.774   5.661
 6240SOL    HW219620   2.602   3.802   5.543
 6241SOL     OW19621   3.226   0.291   1.696
 6241SOL    HW119622   3.270   0.204   1.716
 6241SOL    HW219623   3.212   0.300   1.597
 6242SOL     OW19624   4.058   0.626   3.865
 6242SOL    HW119625   3.974   0.679   3.877
 6242SOL    HW219626   4.137   0.684   3.883
 6243SOL     OW19627   6.609   6.858   5.288
 6243SOL    HW119628   6.695   6.909   5.285
 6243SOL    HW219629   6.564   6.864   5.199
 6244SOL     OW19630   5.983   2.502   2.680
 6244SOL    HW119631   5.945   2.416   2.648
 6244SOL    HW219632   6.081   2.492   2.694
 6245SOL     OW19633   1.630   3.653   0.155
 6245SOL    HW119634   1.727   3.635   0.138
 6245SOL    HW219635   1.576   3.614   0.080
 6246SOL     OW19636   1.379   2.186   5.775
 6246SOL    HW119637   1.474   2.165   5.795
 6246SOL    HW219638   1.355   2.151   5.684
 6247SOL     OW19639   0.563   5.534   4.033
 6247SOL    HW119640   0.642   5.476   4.012
 6247SOL    HW219641   0.563   5.557   4.130
 6248SOL     OW19642   3.396   3.240   6.960
 6248SOL    HW119643   3.304   3.208   6.936
 6248SOL    HW219644   3.450   3.162   6.994
 6249SOL     OW19645   0.041   4.407   0.611
 6249SOL    HW119646   0.043   4.392   0.710
 6249SOL    HW219647   0.040   4.319   0.564
 6250SOL     OW19648   6.646   0.558   0.648
 6250SOL    HW119649   6.678   0.577   0.555
 6250SOL    HW219650   6.630   0.460   0.658
 6251SOL     OW19651   3.741   6.088   5.900
 6251SOL    HW119652   3.835   6.108   5.928
 6251SOL    HW219653   3.679   6.109   5.976
 6252SOL     OW19654   2.363   6.062   5.396
 6252SOL    HW119655   2.319   6.146   5.366
 6252SOL    HW219656   2.346   6.049   5.494
 6253SOL     OW19657   2.528   4.957   4.147
 6253SOL    HW119658   2.624   4.984   4.158
 6253SOL    HW219659   2.506   4.888   4.216
 6254SOL     OW19660   5.785   1.379   1.711
 6254SOL    HW119661   5.729   1.456   1.679
 6254SOL    HW219662   5.811   1.322   1.633
 6255SOL     OW19663   2.833   0.540   0.505
 6255SOL    HW119664   2.882   0.482   0.571
 6255SOL    HW219665   2.885   0.545   0.420
 6256SOL     OW19666   3.478   5.227   1.476
 6256SOL    HW119667   3.576   5.247   1.481
 6256SOL    HW219668   3.465   5.133   1.445
 6257SOL     OW19669   4.939   1.983   0.938
 6257SOL    HW119670   4.951   2.029   1.027
 6257SOL    HW219671   4.841   1.974   0.919
 6258SOL     OW19672   3.046   0.871   3.638
 6258SOL    HW119673   3.079   0.959   3.603
 6258SOL    HW219674   3.124   0.810   3.653
 6259SOL     OW19675   1.661   2.712   6.873
 6259SOL    HW119676   1.721   2.633   6.858
 6259SOL    HW219677   1.698   2.768   6.947
 6260SOL     OW19678   3.698   5.892   0.502
 6260SOL    HW119679   3.752   5.924   0.424
 6260SOL    HW219680   3.640   5.966   0.535
 6261SOL     OW19681   3.989   1.298   7.020
 6261SOL    HW119682   3.917   1.278   0.064
 6261SOL    HW219683   4.033   1.385   0.022
 6262SOL     OW19684   2.320   6.020   1.615
 6262SOL    HW119685   2.233   6.062   1.587
 6262SOL    HW219686   2.302   5.950   1.684
 6263SOL     OW19687   0.069   6.854   4.276
 6263SOL    HW119688   0.126   6.837   4.356
 6263SOL    HW219689   0.016   6.772   4.255
 6264SOL     OW19690   1.902   0.326   1.685
 6264SOL    HW119691   1.818   0.344   1.634
 6264SOL    HW219692   1.982   0.345   1.627
 6265SOL     OW19693   3.660   3.544   0.257
 6265SOL    HW119694   3.655   3.451   0.222
 6265SOL    HW219695   3.661   3.609   0.181
 6266SOL     OW19696   4.061   0.965   3.710
 6266SOL    HW119697   3.990   1.033   3.693
 6266SOL    HW219698   4.073   0.953   3.808
 6267SOL     OW19699   2.154   0.015   5.586
 6267SOL    HW119700   2.089   6.990   5.527
 6267SOL    HW219701   2.122   0.108   5.603
 6268SOL     OW19702   2.737   0.647   3.137
 6268SOL    HW119703   2.690   0.641   3.050
 6268SOL    HW219704   2.725   0.738   3.176
 6269SOL     OW19705   0.230   6.800   2.036
 6269SOL    HW119706   0.149   6.749   2.007
 6269SOL    HW219707   0.203   6.888   2.075
 6270SOL     OW19708   1.435   0.453   6.032
 6270SOL    HW119709   1.458   0.433   6.127
 6270SOL    HW219710   1.336   0.448   6.020
 6271SOL     OW19711   6.373   2.487   6.191
 6271SOL    HW119712   6.426   2.572   6.187
 6271SOL    HW219713   6.294   2.494   6.130
 6272SOL     OW19714   0.847   2.672   0.189
 6272SOL    HW119715   0.921   2.679   0.256
 6272SOL    HW219716   0.881   2.697   0.098
 6273SOL     OW19717   1.027   6.664   2.655
 6273SOL    HW119718   0.947   6.723   2.666
 6273SOL    HW219719   1.039   6.642   2.558
 6274SOL     OW19720   3.380   6.142   5.734
 6274SOL    HW119721   3.427   6.054   5.733
 6274SOL    HW219722   3.293   6.134   5.685
 6275SOL     OW19723   2.226   6.737   6.448
 6275SOL    HW119724   2.238   6.807   6.378
 6275SOL    HW219725   2.312   6.690   6.465
 6276SOL     OW19726   1.922   4.780   3.876
 6276SOL    HW119727   1.898   4.684   3.859
 6276SOL    HW219728   1.980   4.814   3.803
 6277SOL     OW19729   5.021   2.991   0.893
 6277SOL    HW119730   5.021   2.933   0.975
 6277SOL    HW219731   5.086   3.066   0.905
 6278SOL     OW19732   5.466   6.862   4.909
 6278SOL    HW119733   5.541   6.798   4.893
 6278SOL    HW219734   5.414   6.873   4.825
 6279SOL     OW19735   4.171   6.632   0.092
 6279SOL    HW119736   4.221   6.570   0.031
 6279SOL    HW219737   4.073   6.616   0.083
 6280SOL     OW19738   0.748   1.608   5.894
 6280SOL    HW119739   0.648   1.608   5.901
 6280SOL    HW219740   0.782   1.514   5.897
 6281SOL     OW19741   0.474   5.031   4.123
 6281SOL    HW119742   0.453   4.960   4.056
 6281SOL    HW219743   0.406   5.104   4.117
 6282SOL     OW19744   0.007   5.390   5.908
 6282SOL    HW119745   6.933   5.391   5.877
 6282SOL    HW219746   0.027   5.303   5.951
 6283SOL     OW19747   6.995   3.548   4.862
 6283SOL    HW119748   6.988   3.632   4.916
 6283SOL    HW219749   7.000   3.470   4.924
 6284SOL     OW19750   1.164   4.998   5.052
 6284SOL    HW119751   1.204   5.072   5.105
 6284SOL    HW219752   1.210   4.991   4.963
 6285SOL     OW19753   0.194   3.413   4.279
 6285SOL    HW119754   0.199   3.338   4.345
 6285SOL    HW219755   0.252   3.392   4.200
 6286SOL     OW19756   6.224   2.072   4.160
 6286SOL    HW119757   6.242   2.149   4.221
 6286SOL    HW219758   6.283   1.995   4.186
 6287SOL     OW19759   3.180   4.905   4.742
 6287SOL    HW119760   3.109   4.953   4.691
 6287SOL    HW219761   3.262   4.897   4.685
 6288SOL     OW19762   5.170   4.311   2.263
 6288SOL    HW119763   5.086   4.297   2.210
 6288SOL    HW219764   5.248   4.277   2.210
 6289SOL     OW19765   2.408   4.867   0.315
 6289SOL    HW119766   2.360   4.780   0.330
 6289SOL    HW219767   2.446   4.900   0.402
 6290SOL     OW19768   6.389   5.271   5.796
 6290SOL    HW119769   6.460   5.318   5.743
 6290SOL    HW219770   6.309   5.330   5.803
 6291SOL     OW19771   4.035   3.638   3.828
 6291SOL    HW119772   4.064   3.635   3.732
 6291SOL    HW219773   3.954   3.581   3.840
 6292SOL     OW19774   1.850   1.713   4.762
 6292SOL    HW119775   1.862   1.801   4.715
 6292SOL    HW219776   1.793   1.653   4.707
 6293SOL     OW19777   4.663   1.298   1.003
 6293SOL    HW119778   4.750   1.281   0.955
 6293SOL    HW219779   4.630   1.212   1.043
 6294SOL     OW19780   3.683   6.662   4.184
 6294SOL    HW119781   3.637   6.659   4.095
 6294SOL    HW219782   3.763   6.602   4.182
 6295SOL     OW19783   5.476   4.489   5.022
 6295SOL    HW119784   5.450   4.543   5.101
 6295SOL    HW219785   5.418   4.514   4.944
 6296SOL     OW19786   0.231   5.977   5.768
 6296SOL    HW119787   0.202   6.026   5.850
 6296SOL    HW219788   0.186   5.888   5.764
 6297SOL     OW19789   5.591   0.763   5.171
 6297SOL    HW119790   5.628   0.788   5.081
 6297SOL    HW219791   5.548   0.842   5.213
 6298SOL     OW19792   1.356   3.425   0.217
 6298SOL    HW119793   1.381   3.361   0.290
 6298SOL    HW219794   1.357   3.519   0.253
 6299SOL     OW19795   6.265   2.206   1.739
 6299SOL    HW119796   6.358   2.225   1.770
 6299SOL    HW219797   6.226   2.288   1.697
 6300SOL     OW19798   0.257   1.708   7.004
 6300SOL    HW119799   0.323   1.633   7.007
 6300SOL    HW219800   0.167   1.675   0.010
 6301SOL     OW19801   3.883   0.339   0.091
 6301SOL    HW119802   3.848   0.316   7.022
 6301SOL    HW219803   3.983   0.334   0.090
 6302SOL     OW19804   1.388   0.601   3.609
 6302SOL    HW119805   1.442   0.650   3.540
 6302SOL    HW219806   1.432   0.609   3.698
 6303SOL     OW19807   1.329   0.929   3.957
 6303SOL    HW119808   1.410   0.972   3.918
 6303SOL    HW219809   1.356   0.852   4.015
 6304SOL     OW19810   2.592   1.127   1.260
 6304SOL    HW119811   2.583   1.223   1.286
 6304SOL    HW219812   2.502   1.085   1.254
 6305SOL     OW19813   6.032   6.750   0.848
 6305SOL    HW119814   6.014   6.849   0.845
 6305SOL    HW219815   6.130   6.734   0.843
 6306SOL     OW19816   0.324   4.178   4.593
 6306SOL    HW119817   0.315   4.225   4.505
 6306SOL    HW219818   0.420   4.177   4.621
 6307SOL     OW19819   3.692   4.085   4.596
 6307SOL    HW119820   3.694   4.144   4.677
 6307SOL    HW219821   3.786   4.067   4.566
 6308SOL     OW19822   2.141   2.190   4.551
 6308SOL    HW119823   2.185   2.208   4.463
 6308SOL    HW219824   2.210   2.168   4.620
 6309SOL     OW19825   6.094   4.965   5.001
 6309SOL    HW119826   6.050   4.979   5.090
 6309SOL    HW219827   6.104   5.053   4.955
 6310SOL     OW19828   2.137   5.659   2.791
 6310SOL    HW119829   2.180   5.616   2.870
 6310SOL    HW219830   2.060   5.716   2.822
 6311SOL     OW19831   5.406   1.341   5.520
 6311SOL    HW119832   5.412   1.241   5.529
 6311SOL    HW219833   5.436   1.384   5.605
 6312SOL     OW19834   6.943   6.641   5.610
 6312SOL    HW119835   6.899   6.718   5.564
 6312SOL    HW219836   7.002   6.592   5.546
 6313SOL     OW19837   0.044   6.128   3.856
 6313SOL    HW119838   0.017   6.128   3.760
 6313SOL    HW219839   0.096   6.045   3.876
 6314SOL     OW19840   4.032   0.081   1.601
 6314SOL    HW119841   3.985   0.156   1.554
 6314SOL    HW219842   4.031   0.097   1.699
 6315SOL     OW19843   2.475   2.401   5.362
 6315SOL    HW119844   2.419   2.430   5.440
 6315SOL    HW219845   2.571   2.419   5.381
 6316SOL     OW19846   5.250   2.147   6.571
 6316SOL    HW119847   5.301   2.222   6.613
 6316SOL    HW219848   5.215   2.175   6.482
 6317SOL     OW19849   4.681   5.028   1.468
 6317SOL    HW119850   4.588   5.063   1.477
 6317SOL    HW219851   4.700   5.008   1.372
 6318SOL     OW19852   4.225   6.972   5.843
 6318SOL    HW119853   4.197   6.975   5.939
 6318SOL    HW219854   4.292   0.022   5.826
 6319SOL     OW19855   6.632   1.919   4.898
 6319SOL    HW119856   6.593   1.833   4.931
 6319SOL    HW219857   6.730   1.922   4.921
 6320SOL     OW19858   6.348   6.413   5.133
 6320SOL    HW119859   6.252   6.392   5.150
 6320SOL    HW219860   6.355   6.485   5.064
 6321SOL     OW19861   3.798   4.081   0.918
 6321SOL    HW119862   3.891   4.045   0.911
 6321SOL    HW219863   3.761   4.098   0.827
 6322SOL     OW19864   1.650   2.925   0.687
 6322SOL    HW119865   1.727   2.865   0.708
 6322SOL    HW219866   1.598   2.943   0.770
 6323SOL     OW19867   2.443   2.093   1.342
 6323SOL    HW119868   2.515   2.029   1.370
 6323SOL    HW219869   2.420   2.078   1.246
 6324SOL     OW19870   4.902   1.192   0.893
 6324SOL    HW119871   4.984   1.212   0.839
 6324SOL    HW219872   4.924   1.123   0.963
 6325SOL     OW19873   1.801   3.063   2.502
 6325SOL    HW119874   1.721   3.034   2.448
 6325SOL    HW219875   1.868   2.989   2.505
 6326SOL     OW19876   5.273   4.929   1.544
 6326SOL    HW119877   5.277   4.869   1.464
 6326SOL    HW219878   5.188   4.912   1.594
 6327SOL     OW19879   0.774   1.122   5.165
 6327SOL    HW119880   0.704   1.156   5.103
 6327SOL    HW219881   0.823   1.200   5.205
 6328SOL     OW19882   3.318   3.377   0.217
 6328SOL    HW119883   3.377   3.340   0.145
 6328SOL    HW219884   3.309   3.476   0.207
 6329SOL     OW19885   1.834   2.869   3.246
 6329SOL    HW119886   1.768   2.924   3.297
 6329SOL    HW219887   1.872   2.924   3.172
 6330SOL     OW19888   5.495   0.140   1.554
 6330SOL    HW119889   5.550   0.057   1.541
 6330SOL    HW219890   5.473   0.180   1.465
 6331SOL     OW19891   6.216   2.861   5.223
 6331SOL    HW119892   6.256   2.772   5.245
 6331SOL    HW219893   6.121   2.864   5.254
 6332SOL     OW19894   0.051   2.678   1.088
 6332SOL    HW119895   0.079   2.626   1.007
 6332SOL    HW219896   6.991   2.731   1.066
 6333SOL     OW19897   4.717   6.558   5.125
 6333SOL    HW119898   4.784   6.552   5.051
 6333SOL    HW219899   4.736   6.488   5.193
 6334SOL     OW19900   2.616   1.206   2.547
 6334SOL    HW119901   2.606   1.274   2.620
 6334SOL    HW219902   2.561   1.233   2.469
 6335SOL     OW19903   4.160   0.892   0.615
 6335SOL    HW119904   4.152   0.878   0.516
 6335SOL    HW219905   4.214   0.817   0.655
 6336SOL     OW19906   1.350   2.590   6.772
 6336SOL    HW119907   1.361   2.571   6.870
 6336SOL    HW219908   1.404   2.671   6.748
 6337SOL     OW19909   4.830   5.029   5.106
 6337SOL    HW119910   4.753   4.989   5.156
 6337SOL    HW219911   4.798   5.064   5.018
 6338SOL     OW19912   3.218   2.070   4.151
 6338SOL    HW119913   3.258   2.072   4.243
 6338SOL    HW219914   3.121   2.095   4.156
 6339SOL     OW19915   1.064   3.989   3.569
 6339SOL    HW119916   1.101   4.070   3.614
 6339SOL    HW219917   1.078   3.996   3.471
 6340SOL     OW19918   1.446   5.248   1.576
 6340SOL    HW119919   1.490   5.198   1.501
 6340SOL    HW219920   1.362   5.200   1.603
 6341SOL     OW19921   6.798   4.119   4.493
 6341SOL    HW119922   6.765   4.034   4.451
 6341SOL    HW219923   6.818   4.103   4.590
 6342SOL     OW19924   2.653   0.937   1.906
 6342SOL    HW119925   2.681   0.951   2.001
 6342SOL    HW219926   2.664   0.841   1.882
 6343SOL     OW19927   4.688   1.414   6.040
 6343SOL    HW119928   4.777   1.399   5.998
 6343SOL    HW219929   4.616   1.391   5.974
 6344SOL     OW19930   5.078   2.120   4.735
 6344SOL    HW119931   5.046   2.086   4.646
 6344SOL    HW219932   5.084   2.219   4.732
 6345SOL     OW19933   5.488   3.008   2.636
 6345SOL    HW119934   5.586   2.997   2.652
 6345SOL    HW219935   5.440   2.928   2.670
 6346SOL     OW19936   6.803   5.692   4.075
 6346SOL    HW119937   6.795   5.792   4.068
 6346SOL    HW219938   6.712   5.651   4.073
 6347SOL     OW19939   2.198   0.765   1.290
 6347SOL    HW119940   2.290   0.778   1.252
 6347SOL    HW219941   2.131   0.807   1.229
 6348SOL     OW19942   1.561   2.879   5.838
 6348SOL    HW119943   1.501   2.806   5.870
 6348SOL    HW219944   1.601   2.927   5.916
 6349SOL     OW19945   2.075   0.520   1.297
 6349SOL    HW119946   2.120   0.609   1.293
 6349SOL    HW219947   2.106   0.470   1.378
 6350SOL     OW19948   0.696   5.149   3.979
 6350SOL    HW119949   0.724   5.241   4.005
 6350SOL    HW219950   0.666   5.098   4.060
 6351SOL     OW19951   5.916   3.391   3.789
 6351SOL    HW119952   5.905   3.372   3.692
 6351SOL    HW219953   6.013   3.404   3.810
 6352SOL     OW19954   3.260   6.808   4.596
 6352SOL    HW119955   3.280   6.878   4.664
 6352SOL    HW219956   3.344   6.758   4.573
 6353SOL     OW19957   1.346   6.689   6.041
 6353SOL    HW119958   1.400   6.638   5.974
 6353SOL    HW219959   1.251   6.658   6.037
 6354SOL     OW19960   2.941   4.951   3.383
 6354SOL    HW119961   2.921   4.857   3.353
 6354SOL    HW219962   3.012   4.950   3.453
 6355SOL     OW19963   1.646   5.183   6.783
 6355SOL    HW119964   1.577   5.185   6.711
 6355SOL    HW219965   1.602   5.204   6.871
 6356SOL     OW19966   4.907   6.027   1.782
 6356SOL    HW119967   4.929   5.986   1.693
 6356SOL    HW219968   4.919   6.126   1.776
 6357SOL     OW19969   6.440   3.776   2.687
 6357SOL    HW119970   6.350   3.734   2.698
 6357SOL    HW219971   6.430   3.875   2.681
 6358SOL     OW19972   0.359   2.139   6.811
 6358SOL    HW119973   0.307   2.054   6.823
 6358SOL    HW219974   0.339   2.177   6.720
 6359SOL     OW19975   6.336   0.585   0.409
 6359SOL    HW119976   6.436   0.584   0.399
 6359SOL    HW219977   6.295   0.631   0.330
 6360SOL     OW19978   1.318   4.142   4.601
 6360SOL    HW119979   1.267   4.183   4.527
 6360SOL    HW219980   1.324   4.205   4.678
 6361SOL     OW19981   1.258   6.572   0.925
 6361SOL    HW119982   1.200   6.608   0.852
 6361SOL    HW219983   1.201   6.534   0.998
 6362SOL     OW19984   0.360   5.853   0.261
 6362SOL    HW119985   0.365   5.945   0.223
 6362SOL    HW219986   0.269   5.815   0.245
 6363SOL     OW19987   2.211   5.447   3.569
 6363SOL    HW119988   2.167   5.371   3.617
 6363SOL    HW219989   2.141   5.508   3.532
 6364SOL     OW19990   2.552   1.829   5.582
 6364SOL    HW119991   2.542   1.881   5.497
 6364SOL    HW219992   2.635   1.858   5.630
 6365SOL     OW19993   5.403   6.905   4.199
 6365SOL    HW119994   5.380   6.908   4.102
 6365SOL    HW219995   5.345   6.968   4.250
 6366SOL     OW19996   0.906   5.863   5.226
 6366SOL    HW119997   0.851   5.840   5.306
 6366SOL    HW219998   0.857   5.835   5.143
 6367SOL     OW19999   3.823   1.548   4.823
 6367SOL    HW120000   3.728   1.578   4.813
 6367SOL    HW220001   3.882   1.607   4.769
 6368SOL     OW20002   3.573   4.984   3.414
 6368SOL    HW120003   3.520   4.950   3.491
 6368SOL    HW220004   3.556   5.082   3.402
 6369SOL     OW20005   2.537   6.812   4.305
 6369SOL    HW120006   2.479   6.740   4.267
 6369SOL    HW220007   2.486   6.898   4.310
 6370SOL     OW20008   0.035   2.780   3.508
 6370SOL    HW120009   0.091   2.835   3.570
 6370SOL    HW220010   6.971   2.829   3.489
 6371SOL     OW20011   4.951   4.800   2.946
 6371SOL    HW120012   5.001   4.722   2.910
 6371SOL    HW220013   4.926   4.861   2.871
 6372SOL     OW20014   1.805   1.195   1.341
 6372SOL    HW120015   1.790   1.154   1.251
 6372SOL    HW220016   1.769   1.135   1.412
 6373SOL     OW20017   4.397   4.574   2.526
 6373SOL    HW120018   4.302   4.564   2.495
 6373SOL    HW220019   4.455   4.511   2.475
 6374SOL     OW20020   4.042   3.818   3.038
 6374SOL    HW120021   4.062   3.736   2.985
 6374SOL    HW220022   3.976   3.874   2.989
 6375SOL     OW20023   0.115   1.509   3.106
 6375SOL    HW120024   0.070   1.582   3.054
 6375SOL    HW220025   0.046   1.455   3.155
 6376SOL     OW20026   5.282   2.504   5.314
 6376SOL    HW120027   5.353   2.439   5.341
 6376SOL    HW220028   5.223   2.523   5.392
 6377SOL     OW20029   0.367   1.258   5.190
 6377SOL    HW120030   0.418   1.217   5.266
 6377SOL    HW220031   0.327   1.187   5.133
 6378SOL     OW20032   4.502   4.459   3.754
 6378SOL    HW120033   4.459   4.462   3.843
 6378SOL    HW220034   4.540   4.549   3.731
 6379SOL     OW20035   1.638   4.012   4.765
 6379SOL    HW120036   1.671   4.025   4.671
 6379SOL    HW220037   1.705   4.050   4.829
 6380SOL     OW20038   0.521   1.716   5.052
 6380SOL    HW120039   0.543   1.642   5.115
 6380SOL    HW220040   0.541   1.686   4.958
 6381SOL     OW20041   4.167   3.038   1.500
 6381SOL    HW120042   4.115   2.984   1.433
 6381SOL    HW220043   4.264   3.018   1.491
 6382SOL     OW20044   2.822   1.785   0.683
 6382SOL    HW120045   2.912   1.741   0.674
 6382SOL    HW220046   2.751   1.717   0.667
 6383SOL     OW20047   2.319   2.371   2.957
 6383SOL    HW120048   2.265   2.432   2.900
 6383SOL    HW220049   2.359   2.423   3.033
 6384SOL     OW20050   5.922   3.866   3.056
 6384SOL    HW120051   6.018   3.892   3.053
 6384SOL    HW220052   5.883   3.868   2.964
 6385SOL     OW20053   7.006   3.957   3.367
 6385SOL    HW120054   7.004   3.959   3.467
 6385SOL    HW220055   0.041   4.033   3.333
 6386SOL     OW20056   1.937   4.005   6.283
 6386SOL    HW120057   2.021   4.027   6.332
 6386SOL    HW220058   1.920   4.075   6.213
 6387SOL     OW20059   6.506   1.733   6.383
 6387SOL    HW120060   6.435   1.769   6.444
 6387SOL    HW220061   6.567   1.673   6.435
 6388SOL     OW20062   4.015   6.561   1.895
 6388SOL    HW120063   4.033   6.659   1.885
 6388SOL    HW220064   4.101   6.511   1.894
 6389SOL     OW20065   6.989   5.510   2.043
 6389SOL    HW120066   0.013   5.439   2.097
 6389SOL    HW220067   6.949   5.578   2.104
 6390SOL     OW20068   0.642   0.730   6.028
 6390SOL    HW120069   0.676   0.807   5.973
 6390SOL    HW220070   0.547   0.746   6.053
 6391SOL     OW20071   2.361   0.289   5.841
 6391SOL    HW120072   2.380   0.383   5.868
 6391SOL    HW220073   2.345   0.233   5.922
 6392SOL     OW20074   2.623   5.713   2.912
 6392SOL    HW120075   2.681   5.722   2.831
 6392SOL    HW220076   2.594   5.618   2.921
 6393SOL     OW20077   0.250   5.895   1.747
 6393SOL    HW120078   0.267   5.934   1.837
 6393SOL    HW220079   0.159   5.854   1.745
 6394SOL     OW20080   2.682   5.448   0.546
 6394SOL    HW120081   2.717   5.516   0.481
 6394SOL    HW220082   2.583   5.443   0.537
 6395SOL     OW20083   0.016   2.572   1.756
 6395SOL    HW120084   0.067   2.488   1.734
 6395SOL    HW220085   0.009   2.629   1.674
 6396SOL     OW20086   5.363   3.492   6.950
 6396SOL    HW120087   5.409   3.517   0.013
 6396SOL    HW220088   5.291   3.558   6.931
 6397SOL     OW20089   5.857   1.246   1.503
 6397SOL    HW120090   5.794   1.197   1.442
 6397SOL    HW220091   5.913   1.309   1.450
 6398SOL     OW20092   2.584   6.629   1.626
 6398SOL    HW120093   2.635   6.557   1.672
 6398SOL    HW220094   2.610   6.632   1.529
 6399SOL     OW20095   1.815   6.874   6.556
 6399SOL    HW120096   1.775   6.965   6.548
 6399SOL    HW220097   1.746   6.808   6.585
 6400SOL     OW20098   2.839   5.382   1.993
 6400SOL    HW120099   2.794   5.376   1.904
 6400SOL    HW220100   2.935   5.356   1.984
 6401SOL     OW20101   5.453   5.947   3.589
 6401SOL    HW120102   5.525   5.911   3.649
 6401SOL    HW220103   5.364   5.924   3.628
 6402SOL     OW20104   2.829   2.299   2.907
 6402SOL    HW120105   2.745   2.318   2.857
 6402SOL    HW220106   2.908   2.316   2.848
 6403SOL     OW20107   7.016   5.346   6.464
 6403SOL    HW120108   0.034   5.255   6.472
 6403SOL    HW220109   7.000   5.367   6.367
 6404SOL     OW20110   3.987   0.815   2.641
 6404SOL    HW120111   3.959   0.838   2.734
 6404SOL    HW220112   3.945   0.728   2.615
 6405SOL     OW20113   3.439   0.245   4.017
 6405SOL    HW120114   3.355   0.259   3.964
 6405SOL    HW220115   3.481   0.159   3.990
 6406SOL     OW20116   0.728   2.790   2.828
 6406SOL    HW120117   0.684   2.778   2.740
 6406SOL    HW220118   0.690   2.872   2.873
 6407SOL     OW20119   2.758   6.828   3.926
 6407SOL    HW120120   2.775   6.921   3.892
 6407SOL    HW220121   2.682   6.829   3.991
 6408SOL     OW20122   5.561   1.311   0.439
 6408SOL    HW120123   5.480   1.268   0.477
 6408SOL    HW220124   5.643   1.274   0.484
 6409SOL     OW20125   6.317   4.249   3.796
 6409SOL    HW120126   6.226   4.288   3.808
 6409SOL    HW220127   6.361   4.289   3.716
 6410SOL     OW20128   1.918   1.439   6.506
 6410SOL    HW120129   1.839   1.411   6.560
 6410SOL    HW220130   1.904   1.532   6.472
 6411SOL     OW20131   0.609   3.062   3.437
 6411SOL    HW120132   0.615   3.138   3.372
 6411SOL    HW220133   0.540   2.997   3.406
 6412SOL     OW20134   1.205   2.144   4.858
 6412SOL    HW120135   1.284   2.128   4.917
 6412SOL    HW220136   1.157   2.227   4.887
 6413SOL     OW20137   3.822   4.934   3.488
 6413SOL    HW120138   3.728   4.943   3.456
 6413SOL    HW220139   3.875   4.879   3.422
 6414SOL     OW20140   5.704   1.073   0.145
 6414SOL    HW120141   5.736   1.009   0.215
 6414SOL    HW220142   5.754   1.159   0.153
 6415SOL     OW20143   2.112   3.198   3.031
 6415SOL    HW120144   2.147   3.282   3.073
 6415SOL    HW220145   2.071   3.219   2.942
 6416SOL     OW20146   1.055   0.970   6.793
 6416SOL    HW120147   1.004   1.037   6.848
 6416SOL    HW220148   1.067   0.886   6.846
 6417SOL     OW20149   5.839   5.197   0.647
 6417SOL    HW120150   5.824   5.132   0.572
 6417SOL    HW220151   5.885   5.150   0.723
 6418SOL     OW20152   4.854   3.621   1.910
 6418SOL    HW120153   4.864   3.632   2.009
 6418SOL    HW220154   4.928   3.670   1.863
 6419SOL     OW20155   1.528   4.487   3.073
 6419SOL    HW120156   1.512   4.474   3.170
 6419SOL    HW220157   1.509   4.582   3.049
 6420SOL     OW20158   2.529   6.072   4.042
 6420SOL    HW120159   2.607   6.099   3.985
 6420SOL    HW220160   2.451   6.050   3.983
 6421SOL     OW20161   4.859   0.093   3.120
 6421SOL    HW120162   4.780   0.148   3.149
 6421SOL    HW220163   4.883   0.116   3.026
 6422SOL     OW20164   6.953   1.116   4.665
 6422SOL    HW120165   6.924   1.199   4.618
 6422SOL    HW220166   0.030   1.118   4.680
 6423SOL     OW20167   5.174   5.225   3.268
 6423SOL    HW120168   5.079   5.230   3.298
 6423SOL    HW220169   5.177   5.209   3.169
 6424SOL     OW20170   0.025   4.984   5.842
 6424SOL    HW120171   0.039   5.045   5.921
 6424SOL    HW220172   0.038   4.889   5.871
 6425SOL     OW20173   6.443   5.732   3.185
 6425SOL    HW120174   6.402   5.693   3.102
 6425SOL    HW220175   6.374   5.736   3.257
 6426SOL     OW20176   1.366   4.894   3.298
 6426SOL    HW120177   1.438   4.964   3.295
 6426SOL    HW220178   1.277   4.938   3.305
 6427SOL     OW20179   3.430   4.200   4.472
 6427SOL    HW120180   3.385   4.169   4.556
 6427SOL    HW220181   3.517   4.242   4.494
 6428SOL     OW20182   6.046   3.595   6.153
 6428SOL    HW120183   5.946   3.594   6.144
 6428SOL    HW220184   6.075   3.521   6.213
 6429SOL     OW20185   1.044   2.206   5.815
 6429SOL    HW120186   1.100   2.132   5.779
 6429SOL    HW220187   1.067   2.292   5.770
 6430SOL     OW20188   5.981   1.189   3.569
 6430SOL    HW120189   6.076   1.195   3.599
 6430SOL    HW220190   5.941   1.280   3.566
 6431SOL     OW20191   5.050   6.762   4.194
 6431SOL    HW120192   4.987   6.823   4.243
 6431SOL    HW220193   5.032   6.770   4.095
 6432SOL     OW20194   4.473   4.640   5.790
 6432SOL    HW120195   4.475   4.602   5.882
 6432SOL    HW220196   4.380   4.672   5.769
 6433SOL     OW20197   1.338   5.601   5.752
 6433SOL    HW120198   1.330   5.552   5.838
 6433SOL    HW220199   1.390   5.686   5.767
 6434SOL     OW20200   2.546   5.177   6.445
 6434SOL    HW120201   2.590   5.089   6.465
 6434SOL    HW220202   2.449   5.163   6.430
 6435SOL     OW20203   5.100   6.647   1.063
 6435SOL    HW120204   5.042   6.714   1.015
 6435SOL    HW220205   5.196   6.672   1.051
 6436SOL     OW20206   1.339   3.092   3.069
 6436SOL    HW120207   1.304   3.052   2.984
 6436SOL    HW220208   1.307   3.038   3.147
 6437SOL     OW20209   2.289   1.103   0.497
 6437SOL    HW120210   2.318   1.063   0.584
 6437SOL    HW220211   2.369   1.132   0.445
 6438SOL     OW20212   6.254   4.349   5.527
 6438SOL    HW120213   6.340   4.371   5.482
 6438SOL    HW220214   6.185   4.326   5.458
 6439SOL     OW20215   5.726   1.204   1.962
 6439SOL    HW120216   5.710   1.257   1.879
 6439SOL    HW220217   5.639   1.180   2.004
 6440SOL     OW20218   2.147   1.705   6.269
 6440SOL    HW120219   2.053   1.714   6.300
 6440SOL    HW220220   2.158   1.752   6.181
 6441SOL     OW20221   6.805   6.764   2.069
 6441SOL    HW120222   6.709   6.792   2.061
 6441SOL    HW220223   6.863   6.834   2.029
 6442SOL     OW20224   2.565   1.239   4.382
 6442SOL    HW120225   2.579   1.191   4.295
 6442SOL    HW220226   2.492   1.306   4.372
 6443SOL     OW20227   3.865   2.315   5.539
 6443SOL    HW120228   3.820   2.227   5.560
 6443SOL    HW220229   3.860   2.332   5.441
 6444SOL     OW20230   5.218   3.146   4.775
 6444SOL    HW120231   5.173   3.192   4.852
 6444SOL    HW220232   5.258   3.214   4.714
 6445SOL     OW20233   3.662   3.029   4.736
 6445SOL    HW120234   3.580   2.995   4.690
 6445SOL    HW220235   3.637   3.074   4.821
 6446SOL     OW20236   1.153   1.100   0.284
 6446SOL    HW120237   1.238   1.152   0.271
 6446SOL    HW220238   1.086   1.158   0.331
 6447SOL     OW20239   5.414   4.817   3.951
 6447SOL    HW120240   5.454   4.897   3.996
 6447SOL    HW220241   5.319   4.805   3.980
 6448SOL     OW20242   4.208   5.889   1.824
 6448SOL    HW120243   4.127   5.933   1.862
 6448SOL    HW220244   4.226   5.803   1.873
 6449SOL     OW20245   3.533   6.084   1.042
 6449SOL    HW120246   3.539   6.011   1.110
 6449SOL    HW220247   3.576   6.167   1.078
 6450SOL     OW20248   0.873   4.015   1.306
 6450SOL    HW120249   0.837   3.926   1.332
 6450SOL    HW220250   0.970   4.006   1.283
 6451SOL     OW20251   2.393   0.641   4.898
 6451SOL    HW120252   2.309   0.597   4.865
 6451SOL    HW220253   2.455   0.572   4.934
 6452SOL     OW20254   4.666   5.353   3.308
 6452SOL    HW120255   4.642   5.440   3.350
 6452SOL    HW220256   4.623   5.278   3.358
 6453SOL     OW20257   2.467   6.205   1.758
 6453SOL    HW120258   2.375   6.242   1.750
 6453SOL    HW220259   2.479   6.132   1.691
 6454SOL     OW20260   1.190   2.410   2.810
 6454SOL    HW120261   1.284   2.439   2.828
 6454SOL    HW220262   1.166   2.336   2.874
 6455SOL     OW20263   6.603   3.282   3.843
 6455SOL    HW120264   6.644   3.198   3.881
 6455SOL    HW220265   6.507   3.286   3.867
 6456SOL     OW20266   1.244   0.838   3.345
 6456SOL    HW120267   1.327   0.788   3.323
 6456SOL    HW220268   1.233   0.842   3.444
 6457SOL     OW20269   5.268   1.592   1.592
 6457SOL    HW120270   5.186   1.622   1.543
 6457SOL    HW220271   5.248   1.587   1.690
 6458SOL     OW20272   0.996   6.172   4.576
 6458SOL    HW120273   0.920   6.231   4.548
 6458SOL    HW220274   1.072   6.229   4.607
 6459SOL     OW20275   6.061   2.887   1.077
 6459SOL    HW120276   5.985   2.899   1.013
 6459SOL    HW220277   6.103   2.975   1.097
 6460SOL     OW20278   5.448   6.089   6.220
 6460SOL    HW120279   5.378   6.090   6.292
 6460SOL    HW220280   5.480   6.182   6.203
 6461SOL     OW20281   2.241   4.458   6.283
 6461SOL    HW120282   2.247   4.469   6.184
 6461SOL    HW220283   2.145   4.459   6.311
 6462SOL     OW20284   2.383   2.471   4.366
 6462SOL    HW120285   2.382   2.547   4.301
 6462SOL    HW220286   2.401   2.506   4.458
 6463SOL     OW20287   6.020   2.344   6.993
 6463SOL    HW120288   6.040   2.441   6.979
 6463SOL    HW220289   6.001   2.301   6.905
 6464SOL     OW20290   1.273   5.180   5.297
 6464SOL    HW120291   1.174   5.172   5.311
 6464SOL    HW220292   1.291   5.257   5.236
 6465SOL     OW20293   6.798   2.893   2.931
 6465SOL    HW120294   6.847   2.891   3.018
 6465SOL    HW220295   6.863   2.895   2.855
 6466SOL     OW20296   0.399   0.850   6.094
 6466SOL    HW120297   0.463   0.927   6.095
 6466SOL    HW220298   0.398   0.807   6.185
 6467SOL     OW20299   3.773   1.577   0.155
 6467SOL    HW120300   3.725   1.568   0.243
 6467SOL    HW220301   3.720   1.532   0.083
 6468SOL     OW20302   3.171   6.846   0.812
 6468SOL    HW120303   3.259   6.838   0.766
 6468SOL    HW220304   3.098   6.850   0.744
 6469SOL     OW20305   4.533   1.623   3.857
 6469SOL    HW120306   4.522   1.579   3.768
 6469SOL    HW220307   4.572   1.714   3.844
 6470SOL     OW20308   5.893   2.839   0.838
 6470SOL    HW120309   5.878   2.746   0.871
 6470SOL    HW220310   5.958   2.838   0.762
 6471SOL     OW20311   6.931   6.453   6.280
 6471SOL    HW120312   6.929   6.540   6.328
 6471SOL    HW220313   7.015   6.447   6.225
 6472SOL     OW20314   0.310   5.696   2.086
 6472SOL    HW120315   0.245   5.673   2.013
 6472SOL    HW220316   0.315   5.621   2.152
 6473SOL     OW20317   3.308   1.563   4.559
 6473SOL    HW120318   3.280   1.470   4.583
 6473SOL    HW220319   3.275   1.627   4.629
 6474SOL     OW20320   2.814   4.979   5.896
 6474SOL    HW120321   2.795   5.053   5.831
 6474SOL    HW220322   2.855   5.017   5.979
 6475SOL     OW20323   5.694   4.936   3.930
 6475SOL    HW120324   5.751   4.886   3.865
 6475SOL    HW220325   5.730   5.028   3.942
 6476SOL     OW20326   4.251   3.721   1.084
 6476SOL    HW120327   4.302   3.650   1.133
 6476SOL    HW220328   4.184   3.678   1.024
 6477SOL     OW20329   5.896   4.662   0.955
 6477SOL    HW120330   5.797   4.652   0.947
 6477SOL    HW220331   5.941   4.582   0.914
 6478SOL     OW20332   3.493   0.571   1.987
 6478SOL    HW120333   3.477   0.616   2.075
 6478SOL    HW220334   3.452   0.479   1.989
 6479SOL     OW20335   4.479   5.150   3.445
 6479SOL    HW120336   4.391   5.130   3.402
 6479SOL    HW220337   4.525   5.065   3.468
 6480SOL     OW20338   2.925   1.148   6.645
 6480SOL    HW120339   2.884   1.133   6.555
 6480SOL    HW220340   2.968   1.238   6.647
 6481SOL     OW20341   3.587   2.003   2.127
 6481SOL    HW120342   3.493   2.022   2.099
 6481SOL    HW220343   3.649   2.068   2.084
 6482SOL     OW20344   6.839   1.077   5.734
 6482SOL    HW120345   6.785   1.161   5.727
 6482SOL    HW220346   6.895   1.079   5.817
 6483SOL     OW20347   1.138   6.505   2.844
 6483SOL    HW120348   1.197   6.442   2.795
 6483SOL    HW220349   1.099   6.571   2.780
 6484SOL     OW20350   3.028   0.223   0.820
 6484SOL    HW120351   3.018   0.232   0.721
 6484SOL    HW220352   3.044   0.313   0.861
 6485SOL     OW20353   2.162   5.191   3.689
 6485SOL    HW120354   2.110   5.217   3.771
 6485SOL    HW220355   2.260   5.186   3.712
 6486SOL     OW20356   2.013   4.461   3.302
 6486SOL    HW120357   1.919   4.489   3.282
 6486SOL    HW220358   2.073   4.541   3.298
 6487SOL     OW20359   0.490   6.683   5.243
 6487SOL    HW120360   0.445   6.750   5.303
 6487SOL    HW220361   0.531   6.611   5.299
 6488SOL     OW20362   3.448   5.741   4.436
 6488SOL    HW120363   3.402   5.818   4.480
 6488SOL    HW220364   3.538   5.770   4.404
 6489SOL     OW20365   3.161   2.776   6.029
 6489SOL    HW120366   3.256   2.748   6.020
 6489SOL    HW220367   3.127   2.750   6.119
 6490SOL     OW20368   3.766   0.827   6.884
 6490SOL    HW120369   3.860   0.847   6.855
 6490SOL    HW220370   3.753   0.728   6.887
 6491SOL     OW20371   4.026   1.064   0.770
 6491SOL    HW120372   4.072   0.997   0.710
 6491SOL    HW220373   3.979   1.131   0.714
 6492SOL     OW20374   3.895   4.423   6.598
 6492SOL    HW120375   3.854   4.475   6.673
 6492SOL    HW220376   3.894   4.325   6.621
 6493SOL     OW20377   1.584   4.074   5.074
 6493SOL    HW120378   1.672   4.091   5.029
 6493SOL    HW220379   1.574   4.136   5.152
 6494SOL     OW20380   6.686   0.239   3.711
 6494SOL    HW120381   6.644   0.175   3.775
 6494SOL    HW220382   6.783   0.215   3.699
 6495SOL     OW20383   6.230   0.352   4.501
 6495SOL    HW120384   6.254   0.387   4.410
 6495SOL    HW220385   6.190   0.261   4.492
 6496SOL     OW20386   6.283   1.028   3.215
 6496SOL    HW120387   6.332   0.960   3.270
 6496SOL    HW220388   6.210   1.069   3.270
 6497SOL     OW20389   1.065   1.557   0.835
 6497SOL    HW120390   1.080   1.463   0.864
 6497SOL    HW220391   1.119   1.618   0.893
 6498SOL     OW20392   1.781   3.264   4.140
 6498SOL    HW120393   1.802   3.213   4.057
 6498SOL    HW220394   1.852   3.332   4.157
 6499SOL     OW20395   5.518   3.545   5.371
 6499SOL    HW120396   5.559   3.587   5.452
 6499SOL    HW220397   5.586   3.490   5.323
 6500SOL     OW20398   6.879   3.796   4.548
 6500SOL    HW120399   6.896   3.779   4.645
 6500SOL    HW220400   6.966   3.808   4.501
 6501SOL     OW20401   0.015   1.828   6.694
 6501SOL    HW120402   0.110   1.857   6.699
 6501SOL    HW220403   7.013   1.777   6.777
 6502SOL     OW20404   6.521   1.903   2.244
 6502SOL    HW120405   6.506   1.970   2.172
 6502SOL    HW220406   6.451   1.912   2.315
 6503SOL     OW20407   5.336   0.603   3.440
 6503SOL    HW120408   5.353   0.701   3.426
 6503SOL    HW220409   5.299   0.589   3.532
 6504SOL     OW20410   4.404   6.227   5.336
 6504SOL    HW120411   4.401   6.307   5.277
 6504SOL    HW220412   4.483   6.234   5.398
 6505SOL     OW20413   5.278   5.870   6.933
 6505SOL    HW120414   5.350   5.925   6.976
 6505SOL    HW220415   5.308   5.842   6.842
 6506SOL     OW20416   6.799   2.541   2.848
 6506SOL    HW120417   6.772   2.616   2.907
 6506SOL    HW220418   6.805   2.573   2.753
 6507SOL     OW20419   1.339   5.372   5.930
 6507SOL    HW120420   1.277   5.409   6.000
 6507SOL    HW220421   1.324   5.274   5.921
 6508SOL     OW20422   1.806   0.408   2.555
 6508SOL    HW120423   1.905   0.400   2.566
 6508SOL    HW220424   1.775   0.494   2.597
 6509SOL     OW20425   3.603   1.861   4.641
 6509SOL    HW120426   3.653   1.809   4.710
 6509SOL    HW220427   3.517   1.893   4.679
 6510SOL     OW20428   6.222   5.204   0.121
 6510SOL    HW120429   6.219   5.150   0.037
 6510SOL    HW220430   6.303   5.179   0.174
 6511SOL     OW20431   4.202   1.753   4.455
 6511SOL    HW120432   4.158   1.843   4.464
 6511SOL    HW220433   4.219   1.716   4.546
 6512SOL     OW20434   4.136   6.655   2.322
 6512SOL    HW120435   4.231   6.632   2.346
 6512SOL    HW220436   4.076   6.580   2.350
 6513SOL     OW20437   2.437   4.969   2.966
 6513SOL    HW120438   2.435   5.034   3.042
 6513SOL    HW220439   2.400   5.012   2.884
 6514SOL     OW20440   6.513   0.884   3.764
 6514SOL    HW120441   6.432   0.942   3.763
 6514SOL    HW220442   6.525   0.845   3.855
 6515SOL     OW20443   0.404   4.722   4.073
 6515SOL    HW120444   0.421   4.787   3.999
 6515SOL    HW220445   0.480   4.657   4.079
 6516SOL     OW20446   0.294   3.556   1.497
 6516SOL    HW120447   0.334   3.621   1.561
 6516SOL    HW220448   0.204   3.589   1.468
 6517SOL     OW20449   6.206   0.881   1.440
 6517SOL    HW120450   6.205   0.921   1.349
 6517SOL    HW220451   6.135   0.924   1.497
 6518SOL     OW20452   0.148   0.743   0.150
 6518SOL    HW120453   0.120   0.838   0.138
 6518SOL    HW220454   0.187   0.731   0.241
 6519SOL     OW20455   1.279   2.405   3.266
 6519SOL    HW120456   1.261   2.455   3.352
 6519SOL    HW220457   1.337   2.461   3.207
 6520SOL     OW20458   5.792   5.620   1.593
 6520SOL    HW120459   5.861   5.548   1.594
 6520SOL    HW220460   5.758   5.633   1.500
 6521SOL     OW20461   2.017   2.524   3.623
 6521SOL    HW120462   2.101   2.509   3.570
 6521SOL    HW220463   1.981   2.436   3.653
 6522SOL     OW20464   3.014   5.245   6.373
 6522SOL    HW120465   2.956   5.275   6.448
 6522SOL    HW220466   3.053   5.155   6.395
 6523SOL     OW20467   3.614   1.366   6.592
 6523SOL    HW120468   3.653   1.366   6.500
 6523SOL    HW220469   3.677   1.321   6.655
 6524SOL     OW20470   3.826   3.614   1.522
 6524SOL    HW120471   3.914   3.601   1.476
 6524SOL    HW220472   3.761   3.656   1.459
 6525SOL     OW20473   2.713   5.051   2.680
 6525SOL    HW120474   2.670   5.122   2.625
 6525SOL    HW220475   2.657   4.967   2.676
 6526SOL     OW20476   2.063   0.258   6.629
 6526SOL    HW120477   2.114   0.327   6.578
 6526SOL    HW220478   2.082   0.167   6.591
 6527SOL     OW20479   0.490   1.733   4.626
 6527SOL    HW120480   0.588   1.727   4.643
 6527SOL    HW220481   0.468   1.821   4.585
 6528SOL     OW20482   0.121   0.474   6.036
 6528SOL    HW120483   0.080   0.398   5.984
 6528SOL    HW220484   0.131   0.554   5.977
 6529SOL     OW20485   1.763   0.576   2.960
 6529SOL    HW120486   1.782   0.672   2.978
 6529SOL    HW220487   1.671   0.567   2.921
 6530SOL     OW20488   6.824   2.756   0.702
 6530SOL    HW120489   6.832   2.811   0.619
 6530SOL    HW220490   6.777   2.670   0.681
 6531SOL     OW20491   5.428   3.080   5.136
 6531SOL    HW120492   5.355   3.147   5.146
 6531SOL    HW220493   5.515   3.127   5.121
 6532SOL     OW20494   6.838   1.420   1.116
 6532SOL    HW120495   6.822   1.323   1.097
 6532SOL    HW220496   6.752   1.463   1.146
 6533SOL     OW20497   4.789   6.878   0.910
 6533SOL    HW120498   4.812   6.880   0.813
 6533SOL    HW220499   4.769   6.970   0.942
 6534SOL     OW20500   4.180   4.672   1.431
 6534SOL    HW120501   4.148   4.703   1.342
 6534SOL    HW220502   4.199   4.574   1.428
 6535SOL     OW20503   6.208   3.645   4.198
 6535SOL    HW120504   6.157   3.587   4.135
 6535SOL    HW220505   6.170   3.738   4.197
 6536SOL     OW20506   1.013   0.843   5.761
 6536SOL    HW120507   0.935   0.854   5.822
 6536SOL    HW220508   1.088   0.903   5.790
 6537SOL     OW20509   6.851   5.535   0.165
 6537SOL    HW120510   6.826   5.559   0.259
 6537SOL    HW220511   6.849   5.617   0.108
 6538SOL     OW20512   2.481   3.838   6.431
 6538SOL    HW120513   2.466   3.936   6.435
 6538SOL    HW220514   2.415   3.797   6.367
 6539SOL     OW20515   4.124   0.406   6.046
 6539SOL    HW120516   4.153   0.431   5.954
 6539SOL    HW220517   4.201   0.368   6.097
 6540SOL     OW20518   4.510   2.188   5.591
 6540SOL    HW120519   4.545   2.099   5.620
 6540SOL    HW220520   4.542   2.258   5.656
 6541SOL     OW20521   4.368   2.359   4.698
 6541SOL    HW120522   4.335   2.269   4.724
 6541SOL    HW220523   4.316   2.429   4.746
 6542SOL     OW20524   6.199   3.427   3.821
 6542SOL    HW120525   6.155   3.450   3.908
 6542SOL    HW220526   6.283   3.481   3.812
 6543SOL     OW20527   5.077   2.592   5.774
 6543SOL    HW120528   5.068   2.619   5.679
 6543SOL    HW220529   5.050   2.668   5.833
 6544SOL     OW20530   1.199   6.207   3.387
 6544SOL    HW120531   1.198   6.111   3.361
 6544SOL    HW220532   1.214   6.264   3.305
 6545SOL     OW20533   3.990   2.077   0.266
 6545SOL    HW120534   3.962   1.989   0.227
 6545SOL    HW220535   3.977   2.074   0.365
 6546SOL     OW20536   2.505   4.393   0.131
 6546SOL    HW120537   2.451   4.420   0.052
 6546SOL    HW220538   2.489   4.297   0.152
 6547SOL     OW20539   4.642   1.066   5.727
 6547SOL    HW120540   4.560   1.116   5.757
 6547SOL    HW220541   4.633   0.970   5.751
 6548SOL     OW20542   0.699   3.863   0.559
 6548SOL    HW120543   0.634   3.808   0.612
 6548SOL    HW220544   0.693   3.958   0.587
 6549SOL     OW20545   5.132   0.939   1.605
 6549SOL    HW120546   5.100   1.027   1.641
 6549SOL    HW220547   5.134   0.943   1.505
 6550SOL     OW20548   0.203   6.342   4.101
 6550SOL    HW120549   0.106   6.318   4.107
 6550SOL    HW220550   0.227   6.361   4.006
 6551SOL     OW20551   1.897   4.671   2.134
 6551SOL    HW120552   1.935   4.762   2.121
 6551SOL    HW220553   1.932   4.632   2.219
 6552SOL     OW20554   1.674   0.024   6.834
 6552SOL    HW120555   1.694   0.042   6.738
 6552SOL    HW220556   1.679   0.109   6.886
 6553SOL     OW20557   0.134   1.858   3.254
 6553SOL    HW120558   0.040   1.874   3.285
 6553SOL    HW220559   0.154   1.919   3.177
 6554SOL     OW20560   0.531   0.529   4.570
 6554SOL    HW120561   0.511   0.434   4.592
 6554SOL    HW220562   0.613   0.533   4.512
 6555SOL     OW20563   5.991   1.779   3.073
 6555SOL    HW120564   5.894   1.761   3.055
 6555SOL    HW220565   6.007   1.878   3.070
 6556SOL     OW20566   5.350   4.618   4.801
 6556SOL    HW120567   5.405   4.609   4.718
 6556SOL    HW220568   5.277   4.684   4.785
 6557SOL     OW20569   3.276   6.670   2.537
 6557SOL    HW120570   3.319   6.723   2.464
 6557SOL    HW220571   3.346   6.627   2.594
 6558SOL     OW20572   6.972   5.267   0.193
 6558SOL    HW120573   6.897   5.203   0.174
 6558SOL    HW220574   6.938   5.361   0.187
 6559SOL     OW20575   0.596   3.143   6.397
 6559SOL    HW120576   0.649   3.161   6.480
 6559SOL    HW220577   0.503   3.117   6.423
 6560SOL     OW20578   4.414   5.366   1.491
 6560SOL    HW120579   4.506   5.401   1.472
 6560SOL    HW220580   4.419   5.266   1.499
 6561SOL     OW20581   3.300   3.817   1.291
 6561SOL    HW120582   3.206   3.805   1.322
 6561SOL    HW220583   3.336   3.730   1.258
 6562SOL     OW20584   5.761   3.416   0.721
 6562SOL    HW120585   5.747   3.406   0.820
 6562SOL    HW220586   5.844   3.367   0.695
 6563SOL     OW20587   5.473   6.497   6.729
 6563SOL    HW120588   5.462   6.591   6.763
 6563SOL    HW220589   5.465   6.433   6.805
 6564SOL     OW20590   6.759   4.546   3.095
 6564SOL    HW120591   6.691   4.562   3.024
 6564SOL    HW220592   6.850   4.539   3.053
 6565SOL     OW20593   5.488   1.605   3.561
 6565SOL    HW120594   5.508   1.543   3.637
 6565SOL    HW220595   5.569   1.616   3.505
 6566SOL     OW20596   3.571   6.167   2.419
 6566SOL    HW120597   3.654   6.112   2.429
 6566SOL    HW220598   3.542   6.200   2.508
 6567SOL     OW20599   4.282   0.910   2.666
 6567SOL    HW120600   4.229   0.985   2.628
 6567SOL    HW220601   4.234   0.823   2.651
 6568SOL     OW20602   3.416   0.975   3.483
 6568SOL    HW120603   3.440   0.885   3.448
 6568SOL    HW220604   3.428   1.043   3.411
 6569SOL     OW20605   3.077   3.543   6.161
 6569SOL    HW120606   3.117   3.635   6.161
 6569SOL    HW220607   3.027   3.529   6.075
 6570SOL     OW20608   4.038   0.797   2.101
 6570SOL    HW120609   4.089   0.765   2.181
 6570SOL    HW220610   3.947   0.826   2.130
 6571SOL     OW20611   2.992   5.694   1.512
 6571SOL    HW120612   2.966   5.635   1.435
 6571SOL    HW220613   3.051   5.643   1.575
 6572SOL     OW20614   6.406   4.998   5.793
 6572SOL    HW120615   6.421   5.097   5.794
 6572SOL    HW220616   6.342   4.974   5.720
 6573SOL     OW20617   1.967   1.546   2.061
 6573SOL    HW120618   1.942   1.628   2.009
 6573SOL    HW220619   1.885   1.492   2.080
 6574SOL     OW20620   3.190   5.601   2.090
 6574SOL    HW120621   3.234   5.638   2.008
 6574SOL    HW220622   3.249   5.531   2.130
 6575SOL     OW20623   1.176   6.847   3.138
 6575SOL    HW120624   1.214   6.939   3.141
 6575SOL    HW220625   1.208   6.799   3.056
 6576SOL     OW20626   2.149   5.806   6.409
 6576SOL    HW120627   2.140   5.896   6.453
 6576SOL    HW220628   2.075   5.794   6.343
 6577SOL     OW20629   0.721   0.957   4.542
 6577SOL    HW120630   0.765   0.915   4.622
 6577SOL    HW220631   0.731   0.896   4.464
 6578SOL     OW20632   1.250   5.336   3.202
 6578SOL    HW120633   1.292   5.338   3.111
 6578SOL    HW220634   1.159   5.296   3.195
 6579SOL     OW20635   6.789   3.487   4.701
 6579SOL    HW120636   6.807   3.525   4.611
 6579SOL    HW220637   6.860   3.517   4.765
 6580SOL     OW20638   0.773   2.792   1.293
 6580SOL    HW120639   0.737   2.723   1.356
 6580SOL    HW220640   0.873   2.787   1.291
 6581SOL     OW20641   2.858   0.500   6.885
 6581SOL    HW120642   2.844   0.505   6.984
 6581SOL    HW220643   2.786   0.443   6.844
 6582SOL     OW20644   0.984   1.407   2.000
 6582SOL    HW120645   1.017   1.348   1.927
 6582SOL    HW220646   0.951   1.493   1.960
 6583SOL     OW20647   4.549   0.897   4.978
 6583SOL    HW120648   4.570   0.803   5.004
 6583SOL    HW220649   4.553   0.906   4.879
 6584SOL     OW20650   4.428   2.962   1.380
 6584SOL    HW120651   4.528   2.971   1.381
 6584SOL    HW220652   4.403   2.878   1.331
 6585SOL     OW20653   5.532   6.965   0.005
 6585SOL    HW120654   5.589   0.024   7.010
 6585SOL    HW220655   5.508   6.961   0.102
 6586SOL     OW20656   0.283   1.861   4.985
 6586SOL    HW120657   0.368   1.876   5.036
 6586SOL    HW220658   0.240   1.776   5.017
 6587SOL     OW20659   1.958   6.741   4.717
 6587SOL    HW120660   2.040   6.690   4.743
 6587SOL    HW220661   1.930   6.714   4.625
 6588SOL     OW20662   0.805   3.572   1.524
 6588SOL    HW120663   0.865   3.555   1.602
 6588SOL    HW220664   0.773   3.484   1.487
 6589SOL     OW20665   5.381   1.550   0.074
 6589SOL    HW120666   5.445   1.548   0.150
 6589SOL    HW220667   5.387   1.465   0.022
 6590SOL     OW20668   0.979   1.098   6.234
 6590SOL    HW120669   0.998   1.130   6.327
 6590SOL    HW220670   1.058   1.116   6.176
 6591SOL     OW20671   5.378   5.169   2.777
 6591SOL    HW120672   5.445   5.230   2.820
 6591SOL    HW220673   5.336   5.215   2.699
 6592SOL     OW20674   5.647   0.084   3.692
 6592SOL    HW120675   5.734   0.037   3.699
 6592SOL    HW220676   5.615   0.111   3.783
 6593SOL     OW20677   2.019   2.354   2.295
 6593SOL    HW120678   2.013   2.380   2.198
 6593SOL    HW220679   2.068   2.425   2.345
 6594SOL     OW20680   3.354   1.919   0.081
 6594SOL    HW120681   3.330   1.829   0.118
 6594SOL    HW220682   3.286   1.986   0.109
 6595SOL     OW20683   0.592   3.742   6.661
 6595SOL    HW120684   0.640   3.746   6.573
 6595SOL    HW220685   0.621   3.661   6.712
 6596SOL     OW20686   3.348   6.315   4.272
 6596SOL    HW120687   3.288   6.354   4.342
 6596SOL    HW220688   3.311   6.334   4.182
 6597SOL     OW20689   1.795   5.245   1.742
 6597SOL    HW120690   1.754   5.276   1.827
 6597SOL    HW220691   1.731   5.184   1.694
 6598SOL     OW20692   1.728   6.167   4.448
 6598SOL    HW120693   1.726   6.166   4.348
 6598SOL    HW220694   1.707   6.076   4.483
 6599SOL     OW20695   4.740   6.878   6.323
 6599SOL    HW120696   4.674   6.904   6.394
 6599SOL    HW220697   4.833   6.892   6.357
 6600SOL     OW20698   5.160   5.014   4.885
 6600SOL    HW120699   5.134   5.101   4.842
 6600SOL    HW220700   5.237   5.030   4.947
 6601SOL     OW20701   1.289   2.098   5.513
 6601SOL    HW120702   1.190   2.092   5.500
 6601SOL    HW220703   1.322   2.017   5.562
 6602SOL     OW20704   1.270   0.998   2.261
 6602SOL    HW120705   1.188   1.039   2.220
 6602SOL    HW220706   1.331   0.965   2.188
 6603SOL     OW20707   6.824   2.549   3.727
 6603SOL    HW120708   6.807   2.569   3.631
 6603SOL    HW220709   6.851   2.633   3.774
 6604SOL     OW20710   2.094   0.025   0.758
 6604SOL    HW120711   2.088   6.951   0.731
 6604SOL    HW220712   2.002   0.064   0.760
 6605SOL     OW20713   5.302   4.086   1.739
 6605SOL    HW120714   5.338   4.177   1.758
 6605SOL    HW220715   5.370   4.017   1.766
 6606SOL     OW20716   6.849   6.331   1.627
 6606SOL    HW120717   6.787   6.385   1.685
 6606SOL    HW220718   6.933   6.311   1.677
 6607SOL     OW20719   1.830   3.349   2.525
 6607SOL    HW120720   1.820   3.393   2.435
 6607SOL    HW220721   1.790   3.257   2.522
 6608SOL     OW20722   5.810   6.421   1.098
 6608SOL    HW120723   5.874   6.354   1.059
 6608SOL    HW220724   5.761   6.379   1.175
 6609SOL     OW20725   4.862   0.684   5.742
 6609SOL    HW120726   4.887   0.665   5.647
 6609SOL    HW220727   4.930   0.745   5.783
 6610SOL     OW20728   3.108   0.006   6.667
 6610SOL    HW120729   3.088   6.944   6.617
 6610SOL    HW220730   3.083   7.016   6.763
 6611SOL     OW20731   4.888   2.471   3.754
 6611SOL    HW120732   4.892   2.405   3.829
 6611SOL    HW220733   4.796   2.510   3.748
 6612SOL     OW20734   5.908   2.255   5.802
 6612SOL    HW120735   5.928   2.157   5.810
 6612SOL    HW220736   5.838   2.281   5.868
 6613SOL     OW20737   6.622   6.415   5.168
 6613SOL    HW120738   6.528   6.444   5.187
 6613SOL    HW220739   6.620   6.338   5.104
 6614SOL     OW20740   5.450   6.504   0.759
 6614SOL    HW120741   5.487   6.493   0.851
 6614SOL    HW220742   5.469   6.597   0.726
 6615SOL     OW20743   1.425   4.898   2.586
 6615SOL    HW120744   1.335   4.864   2.557
 6615SOL    HW220745   1.418   4.995   2.609
 6616SOL     OW20746   4.083   0.945   6.087
 6616SOL    HW120747   4.118   0.922   5.996
 6616SOL    HW220748   4.003   0.887   6.107
 6617SOL     OW20749   4.495   4.851   3.384
 6617SOL    HW120750   4.572   4.788   3.371
 6617SOL    HW220751   4.441   4.854   3.300
 6618SOL     OW20752   1.372   2.509   2.471
 6618SOL    HW120753   1.295   2.543   2.525
 6618SOL    HW220754   1.341   2.435   2.411
 6619SOL     OW20755   6.087   6.764   3.607
 6619SOL    HW120756   6.149   6.687   3.618
 6619SOL    HW220757   6.140   6.845   3.580
 6620SOL     OW20758   1.932   3.057   5.318
 6620SOL    HW120759   1.991   3.036   5.240
 6620SOL    HW220760   1.882   2.974   5.344
 6621SOL     OW20761   3.139   3.085   6.031
 6621SOL    HW120762   3.150   2.986   6.027
 6621SOL    HW220763   3.119   3.120   5.939
 6622SOL     OW20764   5.702   0.044   1.092
 6622SOL    HW120765   5.752   6.998   1.145
 6622SOL    HW220766   5.693   0.129   1.145
 6623SOL     OW20767   3.113   2.972   5.583
 6623SOL    HW120768   3.039   3.037   5.566
 6623SOL    HW220769   3.197   3.022   5.606
 6624SOL     OW20770   0.277   5.129   6.197
 6624SOL    HW120771   0.299   5.127   6.294
 6624SOL    HW220772   0.344   5.186   6.149
 6625SOL     OW20773   5.212   1.768   5.495
 6625SOL    HW120774   5.124   1.761   5.449
 6625SOL    HW220775   5.199   1.769   5.594
 6626SOL     OW20776   4.617   4.891   5.256
 6626SOL    HW120777   4.650   4.865   5.346
 6626SOL    HW220778   4.552   4.822   5.223
 6627SOL     OW20779   2.086   6.209   4.751
 6627SOL    HW120780   2.104   6.267   4.671
 6627SOL    HW220781   1.987   6.203   4.766
 6628SOL     OW20782   4.658   4.741   4.843
 6628SOL    HW120783   4.700   4.712   4.929
 6628SOL    HW220784   4.559   4.727   4.848
 6629SOL     OW20785   4.638   6.140   6.914
 6629SOL    HW120786   4.711   6.132   6.846
 6629SOL    HW220787   4.596   6.231   6.908
 6630SOL     OW20788   4.104   1.367   1.649
 6630SOL    HW120789   4.106   1.433   1.574
 6630SOL    HW220790   4.011   1.359   1.684
 6631SOL     OW20791   2.628   5.468   3.492
 6631SOL    HW120792   2.728   5.462   3.490
 6631SOL    HW220793   2.598   5.537   3.426
 6632SOL     OW20794   0.435   0.154   1.459
 6632SOL    HW120795   0.436   0.212   1.540
 6632SOL    HW220796   0.438   0.058   1.488
 6633SOL     OW20797   1.053   4.647   6.039
 6633SOL    HW120798   1.030   4.628   6.135
 6633SOL    HW220799   1.100   4.567   6.000
 6634SOL     OW20800   5.352   2.088   4.292
 6634SOL    HW120801   5.415   2.108   4.217
 6634SOL    HW220802   5.266   2.136   4.277
 6635SOL     OW20803   4.604   4.660   3.224
 6635SOL    HW120804   4.656   4.733   3.180
 6635SOL    HW220805   4.577   4.593   3.156
 6636SOL     OW20806   4.940   2.016   6.055
 6636SOL    HW120807   4.913   2.079   6.127
 6636SOL    HW220808   5.010   2.059   5.997
 6637SOL     OW20809   1.435   0.267   6.700
 6637SOL    HW120810   1.372   0.199   6.661
 6637SOL    HW220811   1.471   0.232   6.787
 6638SOL     OW20812   3.202   3.708   3.782
 6638SOL    HW120813   3.259   3.630   3.808
 6638SOL    HW220814   3.250   3.763   3.714
 6639SOL     OW20815   5.069   4.742   6.249
 6639SOL    HW120816   5.057   4.839   6.229
 6639SOL    HW220817   5.147   4.707   6.196
 6640SOL     OW20818   1.737   1.729   5.035
 6640SOL    HW120819   1.791   1.706   4.953
 6640SOL    HW220820   1.640   1.721   5.014
 6641SOL     OW20821   1.844   2.176   6.484
 6641SOL    HW120822   1.854   2.267   6.524
 6641SOL    HW220823   1.910   2.113   6.526
 6642SOL     OW20824   2.250   5.697   6.914
 6642SOL    HW120825   2.341   5.683   6.876
 6642SOL    HW220826   2.195   5.614   6.903
 6643SOL     OW20827   6.149   4.993   0.477
 6643SOL    HW120828   6.211   4.915   0.464
 6643SOL    HW220829   6.103   4.985   0.566
 6644SOL     OW20830   2.303   5.455   1.770
 6644SOL    HW120831   2.305   5.357   1.791
 6644SOL    HW220832   2.359   5.504   1.837
 6645SOL     OW20833   6.630   4.961   0.596
 6645SOL    HW120834   6.582   4.874   0.609
 6645SOL    HW220835   6.568   5.036   0.617
 6646SOL     OW20836   4.663   0.641   4.546
 6646SOL    HW120837   4.662   0.614   4.449
 6646SOL    HW220838   4.725   0.582   4.597
 6647SOL     OW20839   5.058   1.197   1.575
 6647SOL    HW120840   5.078   1.264   1.504
 6647SOL    HW220841   4.961   1.202   1.598
 6648SOL     OW20842   4.633   6.383   3.779
 6648SOL    HW120843   4.670   6.311   3.838
 6648SOL    HW220844   4.685   6.468   3.794
 6649SOL     OW20845   4.752   1.030   6.492
 6649SOL    HW120846   4.735   1.043   6.590
 6649SOL    HW220847   4.736   1.116   6.444
 6650SOL     OW20848   3.977   1.593   5.074
 6650SOL    HW120849   3.924   1.565   5.154
 6650SOL    HW220850   3.921   1.582   4.992
 6651SOL     OW20851   2.128   1.914   5.600
 6651SOL    HW120852   2.055   1.862   5.555
 6651SOL    HW220853   2.119   2.011   5.577
 6652SOL     OW20854   0.976   4.306   0.882
 6652SOL    HW120855   1.015   4.346   0.965
 6652SOL    HW220856   1.043   4.246   0.839
 6653SOL     OW20857   3.031   3.918   2.538
 6653SOL    HW120858   2.956   3.968   2.583
 6653SOL    HW220859   2.999   3.883   2.450
 6654SOL     OW20860   1.401   4.853   1.241
 6654SOL    HW120861   1.378   4.801   1.322
 6654SOL    HW220862   1.462   4.800   1.182
 6655SOL     OW20863   0.836   6.745   3.950
 6655SOL    HW120864   0.927   6.718   3.919
 6655SOL    HW220865   0.790   6.797   3.879
 6656SOL     OW20866   5.837   1.848   4.102
 6656SOL    HW120867   5.859   1.823   4.197
 6656SOL    HW220868   5.910   1.905   4.065
 6657SOL     OW20869   5.871   5.481   6.306
 6657SOL    HW120870   5.952   5.456   6.253
 6657SOL    HW220871   5.814   5.543   6.253
 6658SOL     OW20872   6.881   1.303   4.295
 6658SOL    HW120873   6.828   1.347   4.368
 6658SOL    HW220874   6.819   1.257   4.232
 6659SOL     OW20875   2.089   2.603   0.535
 6659SOL    HW120876   2.004   2.654   0.525
 6659SOL    HW220877   2.085   2.520   0.479
 6660SOL     OW20878   1.044   4.761   1.421
 6660SOL    HW120879   1.015   4.857   1.414
 6660SOL    HW220880   0.968   4.701   1.397
 6661SOL     OW20881   1.007   6.242   4.893
 6661SOL    HW120882   0.966   6.180   4.960
 6661SOL    HW220883   1.072   6.191   4.837
 6662SOL     OW20884   1.178   0.415   6.764
 6662SOL    HW120885   1.250   0.348   6.746
 6662SOL    HW220886   1.215   0.507   6.752
 6663SOL     OW20887   6.605   4.661   4.041
 6663SOL    HW120888   6.674   4.734   4.045
 6663SOL    HW220889   6.627   4.598   3.966
 6664SOL     OW20890   2.016   6.318   0.521
 6664SOL    HW120891   1.950   6.328   0.446
 6664SOL    HW220892   1.983   6.250   0.585
 6665SOL     OW20893   1.892   5.800   4.595
 6665SOL    HW120894   1.956   5.745   4.650
 6665SOL    HW220895   1.821   5.837   4.655
 6666SOL     OW20896   6.280   0.234   5.464
 6666SOL    HW120897   6.306   0.328   5.446
 6666SOL    HW220898   6.359   0.174   5.450
 6667SOL     OW20899   6.537   6.070   6.788
 6667SOL    HW120900   6.487   6.122   6.718
 6667SOL    HW220901   6.633   6.097   6.787
 6668SOL     OW20902   0.061   5.073   1.145
 6668SOL    HW120903   0.073   4.974   1.145
 6668SOL    HW220904   0.050   5.105   1.239
 6669SOL     OW20905   1.894   2.599   3.145
 6669SOL    HW120906   1.907   2.695   3.169
 6669SOL    HW220907   1.844   2.553   3.219
 6670SOL     OW20908   3.316   1.768   5.453
 6670SOL    HW120909   3.373   1.696   5.415
 6670SOL    HW220910   3.372   1.850   5.469
 6671SOL     OW20911   6.095   6.139   0.596
 6671SOL    HW120912   6.189   6.108   0.585
 6671SOL    HW220913   6.036   6.088   0.534
 6672SOL     OW20914   6.510   2.091   6.728
 6672SOL    HW120915   6.410   2.087   6.735
 6672SOL    HW220916   6.536   2.161   6.661
 6673SOL     OW20917   4.827   5.176   4.223
 6673SOL    HW120918   4.778   5.105   4.273
 6673SOL    HW220919   4.857   5.247   4.286
 6674SOL     OW20920   0.540   4.544   6.214
 6674SOL    HW120921   0.504   4.512   6.126
 6674SOL    HW220922   0.628   4.590   6.199
 6675SOL     OW20923   4.441   3.555   1.301
 6675SOL    HW120924   4.412   3.556   1.397
 6675SOL    HW220925   4.519   3.616   1.289
 6676SOL     OW20926   0.111   3.575   5.178
 6676SOL    HW120927   0.107   3.487   5.131
 6676SOL    HW220928   0.024   3.623   5.166
 6677SOL     OW20929   1.632   1.220   6.374
 6677SOL    HW120930   1.637   1.260   6.466
 6677SOL    HW220931   1.694   1.270   6.313
 6678SOL     OW20932   3.543   3.217   6.376
 6678SOL    HW120933   3.443   3.205   6.376
 6678SOL    HW220934   3.581   3.174   6.458
 6679SOL     OW20935   3.276   1.076   4.048
 6679SOL    HW120936   3.330   1.139   3.992
 6679SOL    HW220937   3.317   1.068   4.139
 6680SOL     OW20938   4.833   6.652   7.009
 6680SOL    HW120939   4.907   6.590   6.986
 6680SOL    HW220940   4.846   6.686   0.080
 6681SOL     OW20941   3.530   6.386   1.416
 6681SOL    HW120942   3.590   6.418   1.489
 6681SOL    HW220943   3.435   6.402   1.441
 6682SOL     OW20944   0.450   4.685   2.416
 6682SOL    HW120945   0.437   4.780   2.445
 6682SOL    HW220946   0.494   4.633   2.490
 6683SOL     OW20947   5.718   3.402   5.255
 6683SOL    HW120948   5.711   3.364   5.163
 6683SOL    HW220949   5.690   3.333   5.322
 6684SOL     OW20950   2.736   0.442   1.542
 6684SOL    HW120951   2.725   0.344   1.557
 6684SOL    HW220952   2.651   0.490   1.565
 6685SOL     OW20953   6.873   3.663   5.736
 6685SOL    HW120954   6.944   3.638   5.803
 6685SOL    HW220955   6.808   3.726   5.779
 6686SOL     OW20956   5.493   5.822   4.465
 6686SOL    HW120957   5.444   5.766   4.531
 6686SOL    HW220958   5.427   5.876   4.412
 6687SOL     OW20959   1.002   3.490   0.355
 6687SOL    HW120960   0.911   3.519   0.328
 6687SOL    HW220961   1.002   3.461   0.451
 6688SOL     OW20962   6.734   3.956   2.422
 6688SOL    HW120963   6.770   4.048   2.441
 6688SOL    HW220964   6.764   3.894   2.495
 6689SOL     OW20965   4.383   2.902   0.515
 6689SOL    HW120966   4.409   2.999   0.520
 6689SOL    HW220967   4.440   2.857   0.447
 6690SOL     OW20968   1.871   1.309   0.574
 6690SOL    HW120969   1.852   1.240   0.644
 6690SOL    HW220970   1.841   1.276   0.485
 6691SOL     OW20971   2.714   6.209   1.924
 6691SOL    HW120972   2.743   6.123   1.966
 6691SOL    HW220973   2.620   6.201   1.893
 6692SOL     OW20974   3.984   3.967   5.035
 6692SOL    HW120975   3.987   3.948   4.937
 6692SOL    HW220976   4.031   3.893   5.085
 6693SOL     OW20977   4.085   3.511   4.798
 6693SOL    HW120978   4.101   3.470   4.888
 6693SOL    HW220979   4.070   3.440   4.730
 6694SOL     OW20980   3.513   5.681   1.227
 6694SOL    HW120981   3.442   5.673   1.297
 6694SOL    HW220982   3.483   5.636   1.143
 6695SOL     OW20983   3.036   1.920   0.480
 6695SOL    HW120984   3.015   1.824   0.462
 6695SOL    HW220985   3.070   1.931   0.573
 6696SOL     OW20986   2.458   3.059   5.716
 6696SOL    HW120987   2.366   3.071   5.679
 6696SOL    HW220988   2.523   3.108   5.657
 6697SOL     OW20989   4.447   2.323   2.649
 6697SOL    HW120990   4.519   2.260   2.619
 6697SOL    HW220991   4.486   2.415   2.657
 6698SOL     OW20992   2.672   2.546   1.524
 6698SOL    HW120993   2.688   2.643   1.507
 6698SOL    HW220994   2.578   2.522   1.498
 6699SOL     OW20995   2.527   5.837   6.047
 6699SOL    HW120996   2.464   5.915   6.056
 6699SOL    HW220997   2.486   5.756   6.089
 6700SOL     OW20998   6.997   6.464   1.447
 6700SOL    HW120999   7.012   6.556   1.482
 6700SOL    HW221000   6.926   6.419   1.500
 6701SOL     OW21001   5.541   3.350   1.963
 6701SOL    HW121002   5.523   3.335   2.060
 6701SOL    HW221003   5.636   3.326   1.943
 6702SOL     OW21004   3.288   1.769   1.830
 6702SOL    HW121005   3.251   1.729   1.914
 6702SOL    HW221006   3.230   1.845   1.800
 6703SOL     OW21007   6.074   1.971   6.634
 6703SOL    HW121008   6.131   2.047   6.665
 6703SOL    HW221009   6.000   1.956   6.700
 6704SOL     OW21010   3.091   1.690   3.279
 6704SOL    HW121011   3.152   1.613   3.294
 6704SOL    HW221012   3.098   1.721   3.184
 6705SOL     OW21013   6.619   3.015   1.700
 6705SOL    HW121014   6.596   3.078   1.626
 6705SOL    HW221015   6.542   2.954   1.718
 6706SOL     OW21016   1.250   3.648   2.053
 6706SOL    HW121017   1.253   3.593   2.136
 6706SOL    HW221018   1.323   3.717   2.056
 6707SOL     OW21019   6.894   5.984   3.154
 6707SOL    HW121020   6.962   5.931   3.103
 6707SOL    HW221021   6.806   5.937   3.151
 6708SOL     OW21022   6.268   5.623   1.969
 6708SOL    HW121023   6.299   5.539   1.925
 6708SOL    HW221024   6.169   5.622   1.977
 6709SOL     OW21025   2.680   6.274   3.246
 6709SOL    HW121026   2.709   6.232   3.332
 6709SOL    HW221027   2.633   6.207   3.189
 6710SOL     OW21028   3.537   1.014   5.953
 6710SOL    HW121029   3.566   1.057   5.868
 6710SOL    HW221030   3.454   1.059   5.987
 6711SOL     OW21031   4.522   5.426   6.088
 6711SOL    HW121032   4.554   5.338   6.122
 6711SOL    HW221033   4.593   5.468   6.031
 6712SOL     OW21034   5.529   4.189   7.013
 6712SOL    HW121035   5.610   4.241   0.018
 6712SOL    HW221036   5.543   4.092   0.008
 6713SOL     OW21037   2.094   0.153   2.446
 6713SOL    HW121038   2.165   0.223   2.445
 6713SOL    HW221039   2.124   0.075   2.500
 6714SOL     OW21040   5.983   0.942   6.167
 6714SOL    HW121041   6.018   1.007   6.099
 6714SOL    HW221042   6.032   0.856   6.158
 6715SOL     OW21043   0.395   0.002   0.146
 6715SOL    HW121044   0.478   0.023   0.198
 6715SOL    HW221045   0.380   6.925   0.146
 6716SOL     OW21046   0.488   6.002   1.640
 6716SOL    HW121047   0.407   5.962   1.684
 6716SOL    HW221048   0.480   5.994   1.541
 6717SOL     OW21049   4.206   3.184   6.735
 6717SOL    HW121050   4.204   3.235   6.822
 6717SOL    HW221051   4.246   3.094   6.750
 6718SOL     OW21052   4.852   0.650   0.153
 6718SOL    HW121053   4.756   0.672   0.165
 6718SOL    HW221054   4.869   0.556   0.184
 6719SOL     OW21055   2.600   0.501   6.474
 6719SOL    HW121056   2.543   0.532   6.550
 6719SOL    HW221057   2.688   0.469   6.509
 6720SOL     OW21058   1.160   6.924   4.220
 6720SOL    HW121059   1.249   6.905   4.177
 6720SOL    HW221060   1.100   6.845   4.209
 6721SOL     OW21061   6.737   0.252   6.589
 6721SOL    HW121062   6.824   0.208   6.567
 6721SOL    HW221063   6.725   0.334   6.533
 6722SOL     OW21064   6.581   2.794   1.405
 6722SOL    HW121065   6.607   2.706   1.365
 6722SOL    HW221066   6.594   2.790   1.505
 6723SOL     OW21067   2.594   6.686   3.336
 6723SOL    HW121068   2.548   6.695   3.248
 6723SOL    HW221069   2.651   6.604   3.336
 6724SOL     OW21070   1.421   3.430   5.709
 6724SOL    HW121071   1.335   3.417   5.659
 6724SOL    HW221072   1.468   3.342   5.718
 6725SOL     OW21073   0.290   3.954   1.615
 6725SOL    HW121074   0.268   4.038   1.665
 6725SOL    HW221075   0.382   3.963   1.575
 6726SOL     OW21076   0.733   1.928   5.017
 6726SOL    HW121077   0.678   2.003   4.980
 6726SOL    HW221078   0.672   1.857   5.052
 6727SOL     OW21079   6.668   4.315   5.523
 6727SOL    HW121080   6.624   4.258   5.454
 6727SOL    HW221081   6.738   4.373   5.479
 6728SOL     OW21082   3.757   1.702   3.042
 6728SOL    HW121083   3.789   1.722   3.135
 6728SOL    HW221084   3.663   1.734   3.032
 6729SOL     OW21085   7.000   0.894   3.057
 6729SOL    HW121086   6.917   0.846   3.028
 6729SOL    HW221087   7.007   0.891   3.156
 6730SOL     OW21088   2.655   6.820   0.078
 6730SOL    HW121089   2.734   6.817   0.016
 6730SOL    HW221090   2.591   6.890   0.047
 6731SOL     OW21091   0.627   6.023   1.951
 6731SOL    HW121092   0.697   5.952   1.946
 6731SOL    HW221093   0.552   5.993   2.010
 6732SOL     OW21094   5.777   5.040   5.337
 6732SOL    HW121095   5.712   5.015   5.265
 6732SOL    HW221096   5.750   4.996   5.423
 6733SOL     OW21097   4.070   5.135   0.200
 6733SOL    HW121098   4.147   5.148   0.138
 6733SOL    HW221099   4.097   5.161   0.293
 6734SOL     OW21100   6.205   2.090   5.006
 6734SOL    HW121101   6.165   2.050   4.924
 6734SOL    HW221102   6.292   2.134   4.983
 6735SOL     OW21103   6.569   4.577   4.818
 6735SOL    HW121104   6.608   4.515   4.750
 6735SOL    HW221105   6.545   4.663   4.774
 6736SOL     OW21106   3.463   3.466   6.878
 6736SOL    HW121107   3.442   3.372   6.903
 6736SOL    HW221108   3.442   3.480   6.781
 6737SOL     OW21109   2.290   2.317   0.766
 6737SOL    HW121110   2.272   2.322   0.864
 6737SOL    HW221111   2.314   2.407   0.731
 6738SOL     OW21112   1.760   5.161   2.317
 6738SOL    HW121113   1.722   5.225   2.383
 6738SOL    HW221114   1.686   5.116   2.267
 6739SOL     OW21115   3.749   6.023   5.384
 6739SOL    HW121116   3.661   5.974   5.384
 6739SOL    HW221117   3.732   6.121   5.391
 6740SOL     OW21118   1.931   0.554   4.398
 6740SOL    HW121119   1.981   0.637   4.422
 6740SOL    HW221120   1.849   0.547   4.455
 6741SOL     OW21121   4.261   1.176   5.440
 6741SOL    HW121122   4.302   1.096   5.483
 6741SOL    HW221123   4.317   1.206   5.363
 6742SOL     OW21124   6.537   5.977   3.018
 6742SOL    HW121125   6.497   5.897   3.063
 6742SOL    HW221126   6.494   5.990   2.929
 6743SOL     OW21127   3.665   4.572   0.511
 6743SOL    HW121128   3.727   4.526   0.447
 6743SOL    HW221129   3.715   4.644   0.559
 6744SOL     OW21130   5.650   4.356   6.652
 6744SOL    HW121131   5.558   4.396   6.656
 6744SOL    HW221132   5.716   4.428   6.630
 6745SOL     OW21133   6.944   0.329   2.780
 6745SOL    HW121134   6.996   0.292   2.857
 6745SOL    HW221135   6.958   0.428   2.774
 6746SOL     OW21136   1.193   1.115   3.106
 6746SOL    HW121137   1.277   1.064   3.088
 6746SOL    HW221138   1.181   1.125   3.205
 6747SOL     OW21139   5.864   1.221   4.979
 6747SOL    HW121140   5.886   1.285   4.905
 6747SOL    HW221141   5.947   1.171   5.005
 6748SOL     OW21142   1.634   0.643   3.464
 6748SOL    HW121143   1.618   0.728   3.513
 6748SOL    HW221144   1.656   0.571   3.529
 6749SOL     OW21145   2.639   6.576   0.202
 6749SOL    HW121146   2.630   6.663   0.153
 6749SOL    HW221147   2.583   6.506   0.158
 6750SOL     OW21148   4.033   2.176   5.183
 6750SOL    HW121149   3.946   2.182   5.232
 6750SOL    HW221150   4.064   2.268   5.159
 6751SOL     OW21151   4.337   0.263   3.663
 6751SOL    HW121152   4.434   0.241   3.664
 6751SOL    HW221153   4.290   0.206   3.595
 6752SOL     OW21154   0.582   2.489   2.732
 6752SOL    HW121155   0.512   2.559   2.747
 6752SOL    HW221156   0.658   2.529   2.680
 6753SOL     OW21157   4.111   1.139   6.588
 6753SOL    HW121158   4.088   1.226   6.631
 6753SOL    HW221159   4.210   1.133   6.575
 6754SOL     OW21160   0.417   1.687   0.390
 6754SOL    HW121161   0.395   1.591   0.371
 6754SOL    HW221162   0.390   1.743   0.313
 6755SOL     OW21163   3.747   0.469   3.457
 6755SOL    HW121164   3.742   0.516   3.369
 6755SOL    HW221165   3.719   0.531   3.530
 6756SOL     OW21166   3.942   5.414   5.451
 6756SOL    HW121167   3.890   5.380   5.373
 6756SOL    HW221168   4.010   5.480   5.419
 6757SOL     OW21169   4.206   0.640   1.960
 6757SOL    HW121170   4.229   0.579   2.036
 6757SOL    HW221171   4.125   0.694   1.984
 6758SOL     OW21172   6.742   2.429   1.559
 6758SOL    HW121173   6.708   2.508   1.611
 6758SOL    HW221174   6.691   2.348   1.585
 6759SOL     OW21175   1.020   4.409   4.087
 6759SOL    HW121176   0.954   4.455   4.147
 6759SOL    HW221177   1.002   4.311   4.086
 6760SOL     OW21178   6.702   4.477   3.350
 6760SOL    HW121179   6.788   4.476   3.402
 6760SOL    HW221180   6.714   4.531   3.267
 6761SOL     OW21181   6.322   2.148   5.995
 6761SOL    HW121182   6.419   2.174   5.992
 6761SOL    HW221183   6.302   2.110   6.086
 6762SOL     OW21184   0.349   5.301   3.260
 6762SOL    HW121185   0.303   5.218   3.290
 6762SOL    HW221186   0.339   5.372   3.329
 6763SOL     OW21187   0.333   4.612   2.887
 6763SOL    HW121188   0.315   4.525   2.842
 6763SOL    HW221189   0.319   4.602   2.986
 6764SOL     OW21190   2.311   5.214   6.680
 6764SOL    HW121191   2.311   5.128   6.730
 6764SOL    HW221192   2.383   5.273   6.715
 6765SOL     OW21193   5.089   4.531   3.638
 6765SOL    HW121194   5.063   4.628   3.644
 6765SOL    HW221195   5.186   4.521   3.664
 6766SOL     OW21196   5.087   6.739   6.267
 6766SOL    HW121197   5.183   6.751   6.242
 6766SOL    HW221198   5.057   6.813   6.327
 6767SOL     OW21199   1.390   2.054   0.622
 6767SOL    HW121200   1.351   2.026   0.534
 6767SOL    HW221201   1.382   1.979   0.687
 6768SOL     OW21202   0.960   6.274   3.501
 6768SOL    HW121203   0.914   6.343   3.446
 6768SOL    HW221204   1.055   6.265   3.472
 6769SOL     OW21205   2.514   0.085   5.754
 6769SOL    HW121206   2.492   0.004   5.808
 6769SOL    HW221207   2.454   0.160   5.780
 6770SOL     OW21208   5.515   1.893   3.629
 6770SOL    HW121209   5.464   1.851   3.705
 6770SOL    HW221210   5.555   1.821   3.572
 6771SOL     OW21211   3.907   1.131   2.064
 6771SOL    HW121212   3.874   1.216   2.024
 6771SOL    HW221213   3.940   1.071   1.991
 6772SOL     OW21214   4.644   2.129   2.619
 6772SOL    HW121215   4.648   2.058   2.548
 6772SOL    HW221216   4.653   2.086   2.709
 6773SOL     OW21217   0.036   6.643   1.925
 6773SOL    HW121218   6.999   6.598   1.992
 6773SOL    HW221219   0.005   6.736   1.911
 6774SOL     OW21220   1.318   3.207   4.576
 6774SOL    HW121221   1.384   3.132   4.587
 6774SOL    HW221222   1.361   3.283   4.528
 6775SOL     OW21223   0.983   2.321   3.380
 6775SOL    HW121224   1.077   2.306   3.409
 6775SOL    HW221225   0.972   2.290   3.285
 6776SOL     OW21226   4.053   4.185   1.143
 6776SOL    HW121227   3.967   4.235   1.146
 6776SOL    HW221228   4.039   4.094   1.104
 6777SOL     OW21229   4.038   5.521   0.876
 6777SOL    HW121230   4.053   5.612   0.838
 6777SOL    HW221231   4.074   5.517   0.969
 6778SOL     OW21232   5.924   3.754   2.118
 6778SOL    HW121233   5.959   3.672   2.073
 6778SOL    HW221234   5.989   3.829   2.105
 6779SOL     OW21235   5.352   4.265   5.949
 6779SOL    HW121236   5.321   4.329   5.879
 6779SOL    HW221237   5.292   4.271   6.028
 6780SOL     OW21238   0.528   3.232   3.214
 6780SOL    HW121239   0.551   3.270   3.124
 6780SOL    HW221240   0.433   3.254   3.237
 6781SOL     OW21241   0.065   2.160   4.263
 6781SOL    HW121242   6.997   2.171   4.306
 6781SOL    HW221243   0.084   2.240   4.206
 6782SOL     OW21244   0.880   1.087   3.323
 6782SOL    HW121245   0.889   1.186   3.314
 6782SOL    HW221246   0.900   1.060   3.417
 6783SOL     OW21247   0.844   2.868   6.298
 6783SOL    HW121248   0.835   2.891   6.201
 6783SOL    HW221249   0.881   2.946   6.347
 6784SOL     OW21250   2.454   3.661   0.765
 6784SOL    HW121251   2.355   3.643   0.767
 6784SOL    HW221252   2.502   3.584   0.809
 6785SOL     OW21253   5.675   5.056   5.032
 6785SOL    HW121254   5.723   5.052   4.944
 6785SOL    HW221255   5.618   4.975   5.042
 6786SOL     OW21256   1.002   2.728   6.997
 6786SOL    HW121257   1.020   2.669   6.918
 6786SOL    HW221258   1.007   2.824   6.969
 6787SOL     OW21259   3.378   2.374   1.112
 6787SOL    HW121260   3.332   2.461   1.129
 6787SOL    HW221261   3.382   2.321   1.197
 6788SOL     OW21262   0.008   4.543   1.802
 6788SOL    HW121263   0.086   4.517   1.859
 6788SOL    HW221264   6.970   4.464   1.788
 6789SOL     OW21265   0.477   4.368   3.919
 6789SOL    HW121266   0.519   4.423   3.991
 6789SOL    HW221267   0.378   4.375   3.924
 6790SOL     OW21268   0.715   4.041   6.941
 6790SOL    HW121269   0.749   3.947   6.941
 6790SOL    HW221270   0.790   4.103   6.963
 6791SOL     OW21271   4.031   1.965   2.319
 6791SOL    HW121272   3.994   1.935   2.407
 6791SOL    HW221273   4.085   2.048   2.332
 6792SOL     OW21274   5.420   0.168   5.917
 6792SOL    HW121275   5.440   0.070   5.920
 6792SOL    HW221276   5.321   0.182   5.925
 6793SOL     OW21277   3.729   0.641   6.561
 6793SOL    HW121278   3.717   0.660   6.658
 6793SOL    HW221279   3.648   0.671   6.511
 6794SOL     OW21280   5.668   1.069   5.139
 6794SOL    HW121281   5.582   1.086   5.091
 6794SOL    HW221282   5.744   1.102   5.084
 6795SOL     OW21283   1.047   5.963   0.434
 6795SOL    HW121284   1.072   6.017   0.354
 6795SOL    HW221285   0.989   5.886   0.406
 6796SOL     OW21286   6.091   6.915   2.352
 6796SOL    HW121287   6.166   6.980   2.339
 6796SOL    HW221288   6.018   6.935   2.288
 6797SOL     OW21289   6.320   1.559   1.233
 6797SOL    HW121290   6.308   1.613   1.317
 6797SOL    HW221291   6.314   1.462   1.254
 6798SOL     OW21292   6.398   0.163   1.923
 6798SOL    HW121293   6.313   0.209   1.950
 6798SOL    HW221294   6.383   0.065   1.918
 6799SOL     OW21295   6.150   6.804   2.607
 6799SOL    HW121296   6.066   6.750   2.617
 6799SOL    HW221297   6.152   6.847   2.516
 6800SOL     OW21298   2.395   2.477   2.080
 6800SOL    HW121299   2.384   2.469   1.981
 6800SOL    HW221300   2.492   2.469   2.104
 6801SOL     OW21301   0.774   6.909   4.153
 6801SOL    HW121302   0.678   6.927   4.174
 6801SOL    HW221303   0.780   6.840   4.081
 6802SOL     OW21304   3.255   6.346   1.255
 6802SOL    HW121305   3.233   6.340   1.158
 6802SOL    HW221306   3.307   6.430   1.272
 6803SOL     OW21307   3.850   4.174   6.702
 6803SOL    HW121308   3.905   4.091   6.692
 6803SOL    HW221309   3.780   4.159   6.773
 6804SOL     OW21310   4.127   5.107   3.002
 6804SOL    HW121311   4.190   5.161   3.057
 6804SOL    HW221312   4.036   5.111   3.041
 6805SOL     OW21313   0.470   5.351   6.593
 6805SOL    HW121314   0.514   5.432   6.554
 6805SOL    HW221315   0.531   5.309   6.660
 6806SOL     OW21316   6.781   0.781   4.356
 6806SOL    HW121317   6.734   0.839   4.289
 6806SOL    HW221318   6.776   0.824   4.446
 6807SOL     OW21319   3.433   3.665   2.566
 6807SOL    HW121320   3.382   3.748   2.590
 6807SOL    HW221321   3.379   3.585   2.592
 6808SOL     OW21322   0.021   1.477   5.437
 6808SOL    HW121323   6.947   1.455   5.419
 6808SOL    HW221324   0.070   1.487   5.351
 6809SOL     OW21325   6.325   3.259   0.907
 6809SOL    HW121326   6.409   3.218   0.872
 6809SOL    HW221327   6.249   3.239   0.845
 6810SOL     OW21328   2.759   1.016   2.144
 6810SOL    HW121329   2.833   1.022   2.211
 6810SOL    HW221330   2.715   1.105   2.135
 6811SOL     OW21331   6.205   3.539   2.347
 6811SOL    HW121332   6.256   3.470   2.398
 6811SOL    HW221333   6.264   3.580   2.277
 6812SOL     OW21334   3.774   4.160   4.844
 6812SOL    HW121335   3.815   4.236   4.895
 6812SOL    HW221336   3.838   4.083   4.841
 6813SOL     OW21337   5.860   3.199   2.710
 6813SOL    HW121338   5.843   3.296   2.725
 6813SOL    HW221339   5.958   3.180   2.718
 6814SOL     OW21340   4.759   1.898   6.332
 6814SOL    HW121341   4.727   1.991   6.312
 6814SOL    HW221342   4.737   1.875   6.427
 6815SOL     OW21343   2.433   6.572   6.530
 6815SOL    HW121344   2.429   6.580   6.629
 6815SOL    HW221345   2.460   6.479   6.505
 6816SOL     OW21346   0.231   1.350   5.558
 6816SOL    HW121347   0.209   1.275   5.621
 6816SOL    HW221348   0.147   1.383   5.515
 6817SOL     OW21349   2.186   2.817   3.939
 6817SOL    HW121350   2.182   2.833   4.038
 6817SOL    HW221351   2.133   2.736   3.916
 6818SOL     OW21352   2.105   6.670   0.335
 6818SOL    HW121353   2.006   6.674   0.340
 6818SOL    HW221354   2.134   6.575   0.323
 6819SOL     OW21355   4.389   1.457   3.054
 6819SOL    HW121356   4.465   1.434   3.115
 6819SOL    HW221357   4.409   1.425   2.962
 6820SOL     OW21358   1.393   5.895   1.803
 6820SOL    HW121359   1.391   5.821   1.871
 6820SOL    HW221360   1.425   5.860   1.716
 6821SOL     OW21361   4.236   2.700   5.430
 6821SOL    HW121362   4.309   2.670   5.491
 6821SOL    HW221363   4.167   2.627   5.423
 6822SOL     OW21364   5.775   2.439   5.599
 6822SOL    HW121365   5.785   2.413   5.503
 6822SOL    HW221366   5.814   2.367   5.657
 6823SOL     OW21367   5.683   4.419   6.034
 6823SOL    HW121368   5.625   4.486   5.987
 6823SOL    HW221369   5.752   4.466   6.089
 6824SOL     OW21370   1.424   1.350   0.724
 6824SOL    HW121371   1.345   1.290   0.712
 6824SOL    HW221372   1.400   1.443   0.695
 6825SOL     OW21373   6.052   0.281   0.308
 6825SOL    HW121374   6.114   0.345   0.262
 6825SOL    HW221375   6.099   0.194   0.324
 6826SOL     OW21376   1.803   3.790   3.546
 6826SOL    HW121377   1.731   3.821   3.607
 6826SOL    HW221378   1.885   3.845   3.560
 6827SOL     OW21379   5.384   5.264   6.685
 6827SOL    HW121380   5.483   5.266   6.699
 6827SOL    HW221381   5.338   5.276   6.773
 6828SOL     OW21382   4.006   1.584   2.498
 6828SOL    HW121383   3.937   1.655   2.486
 6828SOL    HW221384   4.071   1.588   2.422
 6829SOL     OW21385   5.591   6.626   5.078
 6829SOL    HW121386   5.669   6.566   5.057
 6829SOL    HW221387   5.590   6.646   5.175
 6830SOL     OW21388   4.950   0.477   3.686
 6830SOL    HW121389   4.894   0.395   3.691
 6830SOL    HW221390   4.892   0.556   3.665
 6831SOL     OW21391   1.875   1.165   5.704
 6831SOL    HW121392   1.779   1.139   5.699
 6831SOL    HW221393   1.884   1.246   5.763
 6832SOL     OW21394   2.188   4.092   0.562
 6832SOL    HW121395   2.135   4.081   0.478
 6832SOL    HW221396   2.282   4.061   0.546
 6833SOL     OW21397   2.129   4.778   6.394
 6833SOL    HW121398   2.222   4.757   6.364
 6833SOL    HW221399   2.132   4.851   6.462
 6834SOL     OW21400   6.416   6.908   0.627
 6834SOL    HW121401   6.349   6.889   0.555
 6834SOL    HW221402   6.373   6.963   0.699
 6835SOL     OW21403   3.651   1.294   4.606
 6835SOL    HW121404   3.746   1.324   4.611
 6835SOL    HW221405   3.602   1.326   4.687
 6836SOL     OW21406   2.579   4.274   6.510
 6836SOL    HW121407   2.547   4.188   6.551
 6836SOL    HW221408   2.653   4.312   6.566
 6837SOL     OW21409   0.784   2.262   3.176
 6837SOL    HW121410   0.773   2.185   3.239
 6837SOL    HW221411   0.792   2.227   3.083
 6838SOL     OW21412   2.940   4.638   6.418
 6838SOL    HW121413   2.955   4.726   6.373
 6838SOL    HW221414   2.919   4.653   6.514
 6839SOL     OW21415   5.375   1.131   5.125
 6839SOL    HW121416   5.322   1.054   5.090
 6839SOL    HW221417   5.378   1.128   5.225
 6840SOL     OW21418   3.192   6.578   5.311
 6840SOL    HW121419   3.096   6.572   5.339
 6840SOL    HW221420   3.238   6.651   5.363
 6841SOL     OW21421   3.648   4.995   0.806
 6841SOL    HW121422   3.645   4.896   0.794
 6841SOL    HW221423   3.560   5.028   0.840
 6842SOL     OW21424   2.443   2.888   0.165
 6842SOL    HW121425   2.373   2.903   0.234
 6842SOL    HW221426   2.403   2.898   0.074
 6843SOL     OW21427   5.481   0.100   1.928
 6843SOL    HW121428   5.530   0.159   1.864
 6843SOL    HW221429   5.536   0.018   1.946
 6844SOL     OW21430   5.974   6.608   3.792
 6844SOL    HW121431   5.988   6.667   3.712
 6844SOL    HW221432   6.059   6.602   3.844
 6845SOL     OW21433   5.365   4.144   2.423
 6845SOL    HW121434   5.269   4.155   2.396
 6845SOL    HW221435   5.408   4.075   2.366
 6846SOL     OW21436   4.062   3.371   1.422
 6846SOL    HW121437   4.062   3.322   1.335
 6846SOL    HW221438   4.100   3.462   1.409
 6847SOL     OW21439   6.854   4.561   2.458
 6847SOL    HW121440   6.906   4.560   2.373
 6847SOL    HW221441   6.913   4.531   2.534
 6848SOL     OW21442   3.090   6.200   3.250
 6848SOL    HW121443   3.119   6.293   3.230
 6848SOL    HW221444   3.068   6.153   3.164
 6849SOL     OW21445   3.006   5.595   4.894
 6849SOL    HW121446   2.946   5.579   4.816
 6849SOL    HW221447   2.992   5.522   4.962
 6850SOL     OW21448   5.338   3.459   2.430
 6850SOL    HW121449   5.355   3.401   2.351
 6850SOL    HW221450   5.293   3.405   2.502
 6851SOL     OW21451   1.469   3.067   3.598
 6851SOL    HW121452   1.532   3.114   3.660
 6851SOL    HW221453   1.426   2.990   3.647
 6852SOL     OW21454   1.759   4.878   0.902
 6852SOL    HW121455   1.758   4.812   0.978
 6852SOL    HW221456   1.810   4.959   0.930
 6853SOL     OW21457   0.025   3.921   6.836
 6853SOL    HW121458   6.991   3.986   6.785
 6853SOL    HW221459   0.100   3.888   6.778
 6854SOL     OW21460   6.074   2.046   5.952
 6854SOL    HW121461   6.099   1.949   5.952
 6854SOL    HW221462   6.157   2.102   5.956
 6855SOL     OW21463   3.231   5.897   2.678
 6855SOL    HW121464   3.225   5.962   2.602
 6855SOL    HW221465   3.148   5.842   2.681
 6856SOL     OW21466   5.301   4.789   5.602
 6856SOL    HW121467   5.278   4.717   5.538
 6856SOL    HW221468   5.311   4.750   5.694
 6857SOL     OW21469   3.237   1.702   0.211
 6857SOL    HW121470   3.246   1.682   0.308
 6857SOL    HW221471   3.144   1.735   0.193
 6858SOL     OW21472   3.904   3.390   4.006
 6858SOL    HW121473   3.813   3.422   3.978
 6858SOL    HW221474   3.894   3.329   4.085
 6859SOL     OW21475   1.372   6.988   1.272
 6859SOL    HW121476   1.347   6.892   1.262
 6859SOL    HW221477   1.295   0.024   1.245
 6860SOL     OW21478   5.783   5.460   1.328
 6860SOL    HW121479   5.819   5.367   1.318
 6860SOL    HW221480   5.846   5.525   1.284
 6861SOL     OW21481   5.910   4.354   0.843
 6861SOL    HW121482   5.930   4.258   0.864
 6861SOL    HW221483   5.815   4.374   0.866
 6862SOL     OW21484   2.032   4.873   5.086
 6862SOL    HW121485   2.006   4.787   5.041
 6862SOL    HW221486   2.121   4.862   5.129
 6863SOL     OW21487   6.382   1.597   4.834
 6863SOL    HW121488   6.325   1.675   4.863
 6863SOL    HW221489   6.473   1.606   4.873
 6864SOL     OW21490   3.598   5.868   4.049
 6864SOL    HW121491   3.524   5.934   4.039
 6864SOL    HW221492   3.578   5.787   3.994
 6865SOL     OW21493   0.118   5.573   2.853
 6865SOL    HW121494   0.108   5.670   2.874
 6865SOL    HW221495   0.028   5.531   2.844
 6866SOL     OW21496   6.628   4.616   2.229
 6866SOL    HW121497   6.593   4.547   2.292
 6866SOL    HW221498   6.726   4.601   2.213
 6867SOL     OW21499   1.674   5.104   1.432
 6867SOL    HW121500   1.592   5.116   1.376
 6867SOL    HW221501   1.753   5.087   1.372
 6868SOL     OW21502   0.856   5.356   5.968
 6868SOL    HW121503   0.893   5.441   5.931
 6868SOL    HW221504   0.929   5.305   6.015
 6869SOL     OW21505   6.194   1.128   5.074
 6869SOL    HW121506   6.265   1.183   5.028
 6869SOL    HW221507   6.179   1.044   5.023
 6870SOL     OW21508   6.902   5.148   2.044
 6870SOL    HW121509   6.821   5.193   2.081
 6870SOL    HW221510   6.952   5.102   2.118
 6871SOL     OW21511   5.929   4.300   2.743
 6871SOL    HW121512   5.965   4.264   2.657
 6871SOL    HW221513   5.836   4.266   2.758
 6872SOL     OW21514   0.776   3.353   1.040
 6872SOL    HW121515   0.826   3.291   1.101
 6872SOL    HW221516   0.825   3.360   0.953
 6873SOL     OW21517   6.467   4.141   4.871
 6873SOL    HW121518   6.484   4.082   4.792
 6873SOL    HW221519   6.546   4.200   4.886
 6874SOL     OW21520   0.784   4.823   2.643
 6874SOL    HW121521   0.800   4.903   2.701
 6874SOL    HW221522   0.816   4.741   2.690
 6875SOL     OW21523   1.223   2.524   3.535
 6875SOL    HW121524   1.265   2.557   3.620
 6875SOL    HW221525   1.124   2.533   3.541
 6876SOL     OW21526   4.130   6.376   5.143
 6876SOL    HW121527   4.158   6.282   5.126
 6876SOL    HW221528   4.198   6.439   5.105
 6877SOL     OW21529   2.582   4.753   6.779
 6877SOL    HW121530   2.536   4.664   6.780
 6877SOL    HW221531   2.679   4.739   6.759
 6878SOL     OW21532   2.756   2.440   5.344
 6878SOL    HW121533   2.842   2.472   5.382
 6878SOL    HW221534   2.770   2.413   5.249
 6879SOL     OW21535   1.004   2.211   0.330
 6879SOL    HW121536   1.034   2.297   0.289
 6879SOL    HW221537   1.032   2.208   0.426
 6880SOL     OW21538   1.803   3.437   5.130
 6880SOL    HW121539   1.902   3.434   5.142
 6880SOL    HW221540   1.782   3.445   5.033
 6881SOL     OW21541   0.787   3.914   2.391
 6881SOL    HW121542   0.794   3.844   2.462
 6881SOL    HW221543   0.878   3.951   2.372
 6882SOL     OW21544   3.393   0.337   6.084
 6882SOL    HW121545   3.312   0.335   6.025
 6882SOL    HW221546   3.462   0.396   6.042
 6883SOL     OW21547   3.919   2.012   0.536
 6883SOL    HW121548   3.839   2.063   0.568
 6883SOL    HW221549   3.891   1.919   0.511
 6884SOL     OW21550   1.806   3.925   4.550
 6884SOL    HW121551   1.832   3.866   4.627
 6884SOL    HW221552   1.869   3.911   4.474
 6885SOL     OW21553   4.151   6.293   4.654
 6885SOL    HW121554   4.053   6.281   4.669
 6885SOL    HW221555   4.200   6.213   4.688
 6886SOL     OW21556   6.850   0.413   4.040
 6886SOL    HW121557   6.802   0.331   4.071
 6886SOL    HW221558   6.794   0.460   3.972
 6887SOL     OW21559   5.496   6.930   5.338
 6887SOL    HW121560   5.419   6.905   5.279
 6887SOL    HW221561   5.568   6.861   5.330
 6888SOL     OW21562   5.181   6.339   6.724
 6888SOL    HW121563   5.126   6.267   6.682
 6888SOL    HW221564   5.254   6.298   6.779
 6889SOL     OW21565   1.673   2.828   5.227
 6889SOL    HW121566   1.720   2.753   5.180
 6889SOL    HW221567   1.686   2.819   5.325
 6890SOL     OW21568   3.812   0.112   0.915
 6890SOL    HW121569   3.848   0.184   0.855
 6890SOL    HW221570   3.851   0.123   1.006
 6891SOL     OW21571   2.196   4.670   4.347
 6891SOL    HW121572   2.134   4.637   4.275
 6891SOL    HW221573   2.181   4.617   4.430
 6892SOL     OW21574   3.469   1.651   3.260
 6892SOL    HW121575   3.569   1.650   3.270
 6892SOL    HW221576   3.435   1.743   3.279
 6893SOL     OW21577   5.357   4.968   6.823
 6893SOL    HW121578   5.379   5.031   6.898
 6893SOL    HW221579   5.268   4.991   6.785
 6894SOL     OW21580   6.365   4.705   0.337
 6894SOL    HW121581   6.358   4.720   0.239
 6894SOL    HW221582   6.454   4.665   0.358
 6895SOL     OW21583   2.379   5.581   6.462
 6895SOL    HW121584   2.306   5.513   6.454
 6895SOL    HW221585   2.347   5.669   6.427
 6896SOL     OW21586   1.517   6.801   3.917
 6896SOL    HW121587   1.446   6.837   3.857
 6896SOL    HW221588   1.549   6.713   3.881
 6897SOL     OW21589   2.653   3.364   0.082
 6897SOL    HW121590   2.603   3.317   0.155
 6897SOL    HW221591   2.732   3.310   0.054
 6898SOL     OW21592   3.949   1.384   2.258
 6898SOL    HW121593   3.969   1.473   2.218
 6898SOL    HW221594   3.851   1.367   2.256
 6899SOL     OW21595   4.992   6.791   1.279
 6899SOL    HW121596   5.022   6.749   1.193
 6899SOL    HW221597   5.073   6.818   1.332
 6900SOL     OW21598   6.454   0.544   5.538
 6900SOL    HW121599   6.465   0.529   5.440
 6900SOL    HW221600   6.380   0.610   5.554
 6901SOL     OW21601   0.381   6.839   5.742
 6901SOL    HW121602   0.303   6.778   5.755
 6901SOL    HW221603   0.458   6.806   5.796
 6902SOL     OW21604   5.784   6.800   0.535
 6902SOL    HW121605   5.808   6.817   0.439
 6902SOL    HW221606   5.793   6.884   0.588
 6903SOL     OW21607   4.129   5.452   4.701
 6903SOL    HW121608   4.216   5.466   4.654
 6903SOL    HW221609   4.054   5.486   4.644
 6904SOL     OW21610   6.002   2.070   4.012
 6904SOL    HW121611   5.947   2.147   4.045
 6904SOL    HW221612   6.096   2.079   4.045
 6905SOL     OW21613   5.951   6.716   6.956
 6905SOL    HW121614   6.004   6.637   6.987
 6905SOL    HW221615   6.006   6.799   6.968
 6906SOL     OW21616   4.666   0.956   4.138
 6906SOL    HW121617   4.666   1.003   4.050
 6906SOL    HW221618   4.596   0.885   4.137
 6907SOL     OW21619   5.200   2.005   0.998
 6907SOL    HW121620   5.282   1.995   0.940
 6907SOL    HW221621   5.119   2.007   0.940
 6908SOL     OW21622   1.220   6.127   6.293
 6908SOL    HW121623   1.184   6.048   6.342
 6908SOL    HW221624   1.213   6.111   6.194
 6909SOL     OW21625   6.016   4.243   1.676
 6909SOL    HW121626   6.082   4.169   1.671
 6909SOL    HW221627   5.982   4.251   1.770
 6910SOL     OW21628   0.351   2.229   3.917
 6910SOL    HW121629   0.384   2.167   3.988
 6910SOL    HW221630   0.381   2.197   3.827
 6911SOL     OW21631   5.021   6.208   3.718
 6911SOL    HW121632   5.048   6.166   3.632
 6911SOL    HW221633   5.025   6.307   3.710
 6912SOL     OW21634   3.633   5.110   0.537
 6912SOL    HW121635   3.605   5.146   0.626
 6912SOL    HW221636   3.588   5.022   0.522
 6913SOL     OW21637   5.316   5.004   5.111
 6913SOL    HW121638   5.387   5.025   5.179
 6913SOL    HW221639   5.227   5.001   5.156
 6914SOL     OW21640   5.412   4.554   0.038
 6914SOL    HW121641   5.485   4.562   6.992
 6914SOL    HW221642   5.405   4.640   0.089
 6915SOL     OW21643   6.196   4.040   1.609
 6915SOL    HW121644   6.240   4.071   1.525
 6915SOL    HW221645   6.108   3.998   1.587
 6916SOL     OW21646   6.476   3.767   0.014
 6916SOL    HW121647   6.477   3.841   6.969
 6916SOL    HW221648   6.383   3.751   0.047
 6917SOL     OW21649   3.155   5.664   0.908
 6917SOL    HW121650   3.138   5.748   0.857
 6917SOL    HW221651   3.139   5.680   1.005
 6918SOL     OW21652   0.694   3.120   4.186
 6918SOL    HW121653   0.678   3.214   4.158
 6918SOL    HW221654   0.703   3.115   4.285
 6919SOL     OW21655   0.781   6.307   2.792
 6919SOL    HW121656   0.724   6.372   2.842
 6919SOL    HW221657   0.763   6.313   2.694
 6920SOL     OW21658   4.295   5.667   5.642
 6920SOL    HW121659   4.240   5.714   5.712
 6920SOL    HW221660   4.289   5.568   5.656
 6921SOL     OW21661   5.438   6.263   3.459
 6921SOL    HW121662   5.490   6.347   3.440
 6921SOL    HW221663   5.463   6.193   3.393
 6922SOL     OW21664   1.987   5.590   6.526
 6922SOL    HW121665   2.048   5.511   6.517
 6922SOL    HW221666   2.036   5.673   6.498
 6923SOL     OW21667   4.909   5.217   3.352
 6923SOL    HW121668   4.866   5.170   3.429
 6923SOL    HW221669   4.841   5.274   3.306
 6924SOL     OW21670   1.088   4.392   6.753
 6924SOL    HW121671   1.021   4.398   6.826
 6924SOL    HW221672   1.122   4.298   6.747
 6925SOL     OW21673   3.874   6.231   4.737
 6925SOL    HW121674   3.836   6.248   4.828
 6925SOL    HW221675   3.803   6.195   4.677
 6926SOL     OW21676   2.866   3.583   2.125
 6926SOL    HW121677   2.848   3.610   2.030
 6926SOL    HW221678   2.783   3.597   2.179
 6927SOL     OW21679   5.630   3.309   6.478
 6927SOL    HW121680   5.595   3.402   6.474
 6927SOL    HW221681   5.695   3.294   6.403
 6928SOL     OW21682   5.944   6.400   0.498
 6928SOL    HW121683   5.905   6.475   0.553
 6928SOL    HW221684   5.977   6.329   0.559
 6929SOL     OW21685   4.847   5.393   1.160
 6929SOL    HW121686   4.875   5.348   1.244
 6929SOL    HW221687   4.856   5.492   1.171
 6930SOL     OW21688   6.789   0.245   2.561
 6930SOL    HW121689   6.854   0.279   2.630
 6930SOL    HW221690   6.727   0.319   2.535
 6931SOL     OW21691   2.070   0.632   2.356
 6931SOL    HW121692   2.155   0.686   2.359
 6931SOL    HW221693   2.068   0.570   2.434
 6932SOL     OW21694   3.707   6.887   0.764
 6932SOL    HW121695   3.773   6.948   0.806
 6932SOL    HW221696   3.614   6.923   0.778
 6933SOL     OW21697   3.205   5.999   4.952
 6933SOL    HW121698   3.252   5.981   4.866
 6933SOL    HW221699   3.256   6.067   5.005
 6934SOL     OW21700   4.942   4.181   5.934
 6934SOL    HW121701   4.963   4.271   5.973
 6934SOL    HW221702   4.982   4.174   5.843
 6935SOL     OW21703   4.361   6.081   3.548
 6935SOL    HW121704   4.438   6.138   3.577
 6935SOL    HW221705   4.275   6.127   3.570
 6936SOL     OW21706   6.783   2.492   3.449
 6936SOL    HW121707   6.847   2.518   3.377
 6936SOL    HW221708   6.690   2.503   3.416
 6937SOL     OW21709   0.014   6.167   0.614
 6937SOL    HW121710   7.009   6.129   0.702
 6937SOL    HW221711   6.955   6.204   0.568
 6938SOL     OW21712   5.036   3.763   5.870
 6938SOL    HW121713   5.112   3.700   5.857
 6938SOL    HW221714   4.961   3.715   5.917
 6939SOL     OW21715   6.918   4.349   1.380
 6939SOL    HW121716   6.921   4.288   1.301
 6939SOL    HW221717   7.011   4.377   1.403
 6940SOL     OW21718   4.503   1.482   0.866
 6940SOL    HW121719   4.431   1.427   0.825
 6940SOL    HW221720   4.569   1.422   0.912
 6941SOL     OW21721   3.449   3.167   3.277
 6941SOL    HW121722   3.542   3.160   3.241
 6941SOL    HW221723   3.417   3.076   3.303
 6942SOL     OW21724   6.102   2.495   1.098
 6942SOL    HW121725   6.143   2.580   1.133
 6942SOL    HW221726   6.065   2.442   1.174
 6943SOL     OW21727   4.810   6.032   6.544
 6943SOL    HW121728   4.883   5.995   6.486
 6943SOL    HW221729   4.747   6.085   6.488
 6944SOL     OW21730   1.782   3.788   6.415
 6944SOL    HW121731   1.755   3.845   6.337
 6944SOL    HW221732   1.880   3.799   6.431
 6945SOL     OW21733   6.262   3.124   6.137
 6945SOL    HW121734   6.233   3.097   6.228
 6945SOL    HW221735   6.327   3.200   6.143
 6946SOL     OW21736   6.099   6.647   1.330
 6946SOL    HW121737   6.055   6.705   1.261
 6946SOL    HW221738   6.042   6.643   1.412
 6947SOL     OW21739   3.521   6.368   5.644
 6947SOL    HW121740   3.547   6.400   5.735
 6947SOL    HW221741   3.447   6.302   5.652
 6948SOL     OW21742   6.288   0.238   6.477
 6948SOL    HW121743   6.369   0.180   6.471
 6948SOL    HW221744   6.282   0.295   6.395
 6949SOL     OW21745   4.880   6.817   3.424
 6949SOL    HW121746   4.913   6.848   3.334
 6949SOL    HW221747   4.794   6.863   3.445
 6950SOL     OW21748   2.375   0.127   3.715
 6950SOL    HW121749   2.427   0.041   3.710
 6950SOL    HW221750   2.435   0.200   3.746
 6951SOL     OW21751   6.391   6.558   5.858
 6951SOL    HW121752   6.434   6.610   5.785
 6951SOL    HW221753   6.429   6.465   5.860
 6952SOL     OW21754   0.031   5.737   3.791
 6952SOL    HW121755   0.016   5.668   3.861
 6952SOL    HW221756   0.129   5.747   3.773
 6953SOL     OW21757   4.549   0.629   6.858
 6953SOL    HW121758   4.480   0.641   6.787
 6953SOL    HW221759   4.542   0.536   6.896
 6954SOL     OW21760   0.153   3.619   3.965
 6954SOL    HW121761   0.103   3.639   4.049
 6954SOL    HW221762   0.099   3.648   3.886
 6955SOL     OW21763   6.118   0.665   1.588
 6955SOL    HW121764   6.076   0.598   1.526
 6955SOL    HW221765   6.133   0.751   1.538
 6956SOL     OW21766   4.764   6.157   3.473
 6956SOL    HW121767   4.689   6.217   3.502
 6956SOL    HW221768   4.850   6.194   3.507
 6957SOL     OW21769   6.061   4.957   0.755
 6957SOL    HW121770   5.999   4.917   0.822
 6957SOL    HW221771   6.132   5.009   0.803
 6958SOL     OW21772   3.001   4.028   4.957
 6958SOL    HW121773   2.979   3.977   4.874
 6958SOL    HW221774   3.100   4.035   4.966
 6959SOL     OW21775   2.613   1.200   4.664
 6959SOL    HW121776   2.611   1.187   4.565
 6959SOL    HW221777   2.588   1.295   4.686
 6960SOL     OW21778   1.504   5.778   1.548
 6960SOL    HW121779   1.547   5.817   1.466
 6960SOL    HW221780   1.479   5.682   1.530
 6961SOL     OW21781   6.437   2.634   4.150
 6961SOL    HW121782   6.425   2.594   4.240
 6961SOL    HW221783   6.364   2.603   4.089
 6962SOL     OW21784   5.723   5.791   1.952
 6962SOL    HW121785   5.673   5.759   1.872
 6962SOL    HW221786   5.820   5.801   1.929
 6963SOL     OW21787   6.355   5.357   0.858
 6963SOL    HW121788   6.304   5.415   0.794
 6963SOL    HW221789   6.453   5.367   0.840
 6964SOL     OW21790   3.534   6.558   4.884
 6964SOL    HW121791   3.558   6.593   4.794
 6964SOL    HW221792   3.463   6.617   4.925
 6965SOL     OW21793   0.281   3.239   6.728
 6965SOL    HW121794   0.361   3.299   6.731
 6965SOL    HW221795   0.254   3.217   6.822
 6966SOL     OW21796   6.851   1.879   3.434
 6966SOL    HW121797   6.823   1.813   3.365
 6966SOL    HW221798   6.785   1.954   3.437
 6967SOL     OW21799   1.632   0.378   5.647
 6967SOL    HW121800   1.625   0.475   5.670
 6967SOL    HW221801   1.639   0.368   5.548
 6968SOL     OW21802   4.733   6.610   2.703
 6968SOL    HW121803   4.666   6.615   2.778
 6968SOL    HW221804   4.741   6.515   2.672
 6969SOL     OW21805   2.445   2.521   1.275
 6969SOL    HW121806   2.517   2.492   1.211
 6969SOL    HW221807   2.422   2.445   1.336
 6970SOL     OW21808   3.168   3.852   6.610
 6970SOL    HW121809   3.112   3.935   6.613
 6970SOL    HW221810   3.260   3.875   6.579
 6971SOL     OW21811   6.242   4.661   1.329
 6971SOL    HW121812   6.177   4.734   1.350
 6971SOL    HW221813   6.197   4.572   1.337
 6972SOL     OW21814   5.803   4.822   3.245
 6972SOL    HW121815   5.712   4.849   3.215
 6972SOL    HW221816   5.806   4.723   3.257
 6973SOL     OW21817   0.573   3.191   5.185
 6973SOL    HW121818   0.642   3.223   5.250
 6973SOL    HW221819   0.485   3.184   5.231
 6974SOL     OW21820   3.313   2.908   2.998
 6974SOL    HW121821   3.307   2.895   2.900
 6974SOL    HW221822   3.408   2.926   3.024
 6975SOL     OW21823   1.756   5.874   6.341
 6975SOL    HW121824   1.763   5.884   6.440
 6975SOL    HW221825   1.660   5.880   6.313
 6976SOL     OW21826   4.556   5.646   4.825
 6976SOL    HW121827   4.492   5.655   4.749
 6976SOL    HW221828   4.519   5.582   4.893
 6977SOL     OW21829   4.327   2.558   1.725
 6977SOL    HW121830   4.424   2.556   1.699
 6977SOL    HW221831   4.290   2.650   1.708
 6978SOL     OW21832   4.407   1.699   2.458
 6978SOL    HW121833   4.358   1.611   2.455
 6978SOL    HW221834   4.431   1.727   2.365
 6979SOL     OW21835   1.365   4.143   1.251
 6979SOL    HW121836   1.301   4.213   1.283
 6979SOL    HW221837   1.363   4.140   1.151
 6980SOL     OW21838   1.290   1.268   3.648
 6980SOL    HW121839   1.249   1.235   3.733
 6980SOL    HW221840   1.374   1.218   3.629
 6981SOL     OW21841   4.021   3.212   5.796
 6981SOL    HW121842   4.052   3.128   5.840
 6981SOL    HW221843   3.929   3.199   5.760
 6982SOL     OW21844   1.462   0.564   4.466
 6982SOL    HW121845   1.399   0.519   4.403
 6982SOL    HW221846   1.453   0.663   4.457
 6983SOL     OW21847   4.468   1.969   4.106
 6983SOL    HW121848   4.436   1.965   4.012
 6983SOL    HW221849   4.546   1.908   4.118
 6984SOL     OW21850   2.298   1.598   3.890
 6984SOL    HW121851   2.266   1.693   3.895
 6984SOL    HW221852   2.396   1.596   3.906
 6985SOL     OW21853   4.186   5.868   1.523
 6985SOL    HW121854   4.096   5.828   1.538
 6985SOL    HW221855   4.218   5.910   1.609
 6986SOL     OW21856   2.309   6.562   6.167
 6986SOL    HW121857   2.257   6.524   6.091
 6986SOL    HW221858   2.373   6.493   6.201
 6987SOL     OW21859   0.529   1.831   6.564
 6987SOL    HW121860   0.543   1.794   6.472
 6987SOL    HW221861   0.576   1.919   6.572
 6988SOL     OW21862   0.019   1.336   5.838
 6988SOL    HW121863   0.021   1.239   5.861
 6988SOL    HW221864   7.019   1.390   5.919
 6989SOL     OW21865   0.436   3.800   3.719
 6989SOL    HW121866   0.425   3.710   3.677
 6989SOL    HW221867   0.395   3.800   3.810
 6990SOL     OW21868   5.085   2.327   1.783
 6990SOL    HW121869   5.063   2.380   1.701
 6990SOL    HW221870   5.060   2.232   1.769
 6991SOL     OW21871   3.484   5.001   4.012
 6991SOL    HW121872   3.385   5.003   4.004
 6991SOL    HW221873   3.525   4.989   3.922
 6992SOL     OW21874   5.355   6.672   5.501
 6992SOL    HW121875   5.402   6.746   5.453
 6992SOL    HW221876   5.404   6.586   5.485
 6993SOL     OW21877   6.499   0.863   3.352
 6993SOL    HW121878   6.546   0.809   3.283
 6993SOL    HW221879   6.565   0.919   3.402
 6994SOL     OW21880   0.430   2.400   4.672
 6994SOL    HW121881   0.340   2.421   4.635
 6994SOL    HW221882   0.469   2.322   4.623
 6995SOL     OW21883   6.811   4.535   5.967
 6995SOL    HW121884   6.782   4.522   5.872
 6995SOL    HW221885   6.908   4.512   5.975
 6996SOL     OW21886   2.418   0.854   6.972
 6996SOL    HW121887   2.495   0.805   6.931
 6996SOL    HW221888   2.336   0.796   6.970
 6997SOL     OW21889   6.122   6.097   5.409
 6997SOL    HW121890   6.098   6.099   5.506
 6997SOL    HW221891   6.109   6.188   5.369
 6998SOL     OW21892   1.680   1.752   1.404
 6998SOL    HW121893   1.720   1.801   1.481
 6998SOL    HW221894   1.738   1.761   1.324
 6999SOL     OW21895   2.489   2.885   5.946
 6999SOL    HW121896   2.472   2.938   5.863
 6999SOL    HW221897   2.404   2.880   6.000
 7000SOL     OW21898   6.470   6.049   1.773
 7000SOL    HW121899   6.405   5.975   1.790
 7000SOL    HW221900   6.474   6.069   1.675
 7001SOL     OW21901   2.381   3.197   5.390
 7001SOL    HW121902   2.420   3.138   5.319
 7001SOL    HW221903   2.315   3.145   5.445
 7002SOL     OW21904   2.684   4.891   3.483
 7002SOL    HW121905   2.620   4.968   3.485
 7002SOL    HW221906   2.775   4.924   3.457
 7003SOL     OW21907   3.375   5.647   0.034
 7003SOL    HW121908   3.319   5.610   6.981
 7003SOL    HW221909   3.472   5.637   0.010
 7004SOL     OW21910   1.575   4.649   2.285
 7004SOL    HW121911   1.633   4.607   2.216
 7004SOL    HW221912   1.484   4.664   2.248
 7005SOL     OW21913   1.288   6.618   0.233
 7005SOL    HW121914   1.323   6.657   0.318
 7005SOL    HW221915   1.259   6.692   0.172
 7006SOL     OW21916   4.534   4.784   4.208
 7006SOL    HW121917   4.559   4.833   4.291
 7006SOL    HW221918   4.437   4.795   4.190
 7007SOL     OW21919   4.669   7.012   4.101
 7007SOL    HW121920   4.578   6.998   4.141
 7007SOL    HW221921   4.670   6.975   4.008
 7008SOL     OW21922   1.135   4.419   4.715
 7008SOL    HW121923   1.139   4.415   4.815
 7008SOL    HW221924   1.162   4.510   4.685
 7009SOL     OW21925   6.339   6.036   2.125
 7009SOL    HW121926   6.303   6.034   2.032
 7009SOL    HW221927   6.337   5.943   2.163
 7010SOL     OW21928   5.482   4.806   4.962
 7010SOL    HW121929   5.466   4.715   4.924
 7010SOL    HW221930   5.401   4.837   5.011
 7011SOL     OW21931   3.895   6.647   6.207
 7011SOL    HW121932   3.871   6.696   6.124
 7011SOL    HW221933   3.897   6.710   6.285
 7012SOL     OW21934   1.867   1.737   1.925
 7012SOL    HW121935   1.859   1.705   1.831
 7012SOL    HW221936   1.892   1.834   1.926
 7013SOL     OW21937   0.634   0.584   0.812
 7013SOL    HW121938   0.606   0.652   0.880
 7013SOL    HW221939   0.706   0.623   0.754
 7014SOL     OW21940   4.116   3.241   1.172
 7014SOL    HW121941   4.027   3.225   1.129
 7014SOL    HW221942   4.169   3.157   1.174
 7015SOL     OW21943   5.569   4.454   1.978
 7015SOL    HW121944   5.585   4.406   2.064
 7015SOL    HW221945   5.657   4.479   1.937
 7016SOL     OW21946   3.427   4.691   1.610
 7016SOL    HW121947   3.466   4.637   1.685
 7016SOL    HW221948   3.407   4.784   1.643
 7017SOL     OW21949   2.947   5.761   2.021
 7017SOL    HW121950   3.026   5.703   2.040
 7017SOL    HW221951   2.932   5.764   1.922
 7018SOL     OW21952   6.047   4.337   3.793
 7018SOL    HW121953   5.977   4.321   3.723
 7018SOL    HW221954   6.059   4.436   3.805
 7019SOL     OW21955   2.448   4.075   6.625
 7019SOL    HW121956   2.455   3.985   6.668
 7019SOL    HW221957   2.403   4.138   6.688
 7020SOL     OW21958   5.799   6.882   6.782
 7020SOL    HW121959   5.758   6.801   6.741
 7020SOL    HW221960   5.805   6.871   6.881
 7021SOL     OW21961   1.469   1.194   6.120
 7021SOL    HW121962   1.432   1.101   6.118
 7021SOL    HW221963   1.522   1.208   6.203
 7022SOL     OW21964   4.557   6.308   0.213
 7022SOL    HW121965   4.622   6.233   0.200
 7022SOL    HW221966   4.465   6.271   0.223
 7023SOL     OW21967   0.546   1.954   3.582
 7023SOL    HW121968   0.616   1.936   3.513
 7023SOL    HW221969   0.456   1.957   3.538
 7024SOL     OW21970   1.829   4.023   5.293
 7024SOL    HW121971   1.853   4.092   5.224
 7024SOL    HW221972   1.814   4.068   5.381
 7025SOL     OW21973   2.647   0.744   6.842
 7025SOL    HW121974   2.629   0.646   6.850
 7025SOL    HW221975   2.746   0.759   6.842
 7026SOL     OW21976   3.475   2.142   1.832
 7026SOL    HW121977   3.562   2.190   1.844
 7026SOL    HW221978   3.439   2.116   1.921
 7027SOL     OW21979   2.781   5.065   4.225
 7027SOL    HW121980   2.833   4.998   4.277
 7027SOL    HW221981   2.789   5.155   4.268
 7028SOL     OW21982   4.448   0.440   3.987
 7028SOL    HW121983   4.530   0.384   3.973
 7028SOL    HW221984   4.435   0.457   4.085
 7029SOL     OW21985   5.092   5.153   5.924
 7029SOL    HW121986   5.187   5.178   5.940
 7029SOL    HW221987   5.083   5.111   5.834
 7030SOL     OW21988   1.162   1.561   4.931
 7030SOL    HW121989   1.205   1.530   4.846
 7030SOL    HW221990   1.150   1.660   4.928
 7031SOL     OW21991   2.429   6.704   4.966
 7031SOL    HW121992   2.529   6.704   4.965
 7031SOL    HW221993   2.395   6.791   4.929
 7032SOL     OW21994   3.647   0.670   2.813
 7032SOL    HW121995   3.606   0.613   2.884
 7032SOL    HW221996   3.577   0.727   2.771
 7033SOL     OW21997   1.758   2.482   3.345
 7033SOL    HW121998   1.681   2.546   3.352
 7033SOL    HW221999   1.745   2.407   3.410
 7034SOL     OW22000   5.812   0.699   2.924
 7034SOL    HW122001   5.827   0.761   2.847
 7034SOL    HW222002   5.870   0.726   3.001
 7035SOL     OW22003   2.002   6.631   1.537
 7035SOL    HW122004   2.044   6.700   1.479
 7035SOL    HW222005   2.064   6.607   1.612
 7036SOL     OW22006   0.598   0.370   2.702
 7036SOL    HW122007   0.522   0.434   2.693
 7036SOL    HW222008   0.565   0.282   2.737
 7037SOL     OW22009   1.948   0.900   6.208
 7037SOL    HW122010   1.927   0.805   6.232
 7037SOL    HW222011   1.863   0.948   6.184
 7038SOL     OW22012   1.733   3.303   4.629
 7038SOL    HW122013   1.787   3.349   4.699
 7038SOL    HW222014   1.649   3.268   4.671
 7039SOL     OW22015   2.892   4.791   1.457
 7039SOL    HW122016   2.989   4.813   1.441
 7039SOL    HW222017   2.874   4.792   1.556
 7040SOL     OW22018   6.615   2.091   4.700
 7040SOL    HW122019   6.616   2.038   4.785
 7040SOL    HW222020   6.702   2.140   4.691
 7041SOL     OW22021   0.224   1.972   1.917
 7041SOL    HW122022   0.134   1.930   1.931
 7041SOL    HW222023   0.239   2.042   1.987
 7042SOL     OW22024   5.524   4.953   5.513
 7042SOL    HW122025   5.434   4.912   5.531
 7042SOL    HW222026   5.536   5.032   5.573
 7043SOL     OW22027   2.063   3.252   2.752
 7043SOL    HW122028   2.093   3.172   2.701
 7043SOL    HW222029   2.103   3.335   2.712
 7044SOL     OW22030   4.454   4.755   3.643
 7044SOL    HW122031   4.485   4.769   3.549
 7044SOL    HW222032   4.355   4.763   3.647
 7045SOL     OW22033   5.479   5.523   3.288
 7045SOL    HW122034   5.392   5.571   3.292
 7045SOL    HW222035   5.463   5.425   3.270
 7046SOL     OW22036   3.505   1.839   2.998
 7046SOL    HW122037   3.442   1.831   3.076
 7046SOL    HW222038   3.528   1.936   2.985
 7047SOL     OW22039   0.673   2.726   2.552
 7047SOL    HW122040   0.764   2.711   2.513
 7047SOL    HW222041   0.608   2.661   2.511
 7048SOL     OW22042   6.449   6.099   2.769
 7048SOL    HW122043   6.427   6.073   2.675
 7048SOL    HW222044   6.391   6.176   2.797
 7049SOL     OW22045   3.565   1.736   1.136
 7049SOL    HW122046   3.524   1.795   1.067
 7049SOL    HW222047   3.652   1.775   1.166
 7050SOL     OW22048   3.951   3.885   1.853
 7050SOL    HW122049   3.879   3.951   1.875
 7050SOL    HW222050   3.909   3.799   1.824
 7051SOL     OW22051   6.841   0.540   1.853
 7051SOL    HW122052   6.815   0.518   1.759
 7051SOL    HW222053   6.804   0.630   1.877
 7052SOL     OW22054   5.486   2.468   4.098
 7052SOL    HW122055   5.576   2.509   4.112
 7052SOL    HW222056   5.450   2.496   4.009
 7053SOL     OW22057   0.536   3.134   4.733
 7053SOL    HW122058   0.632   3.164   4.726
 7053SOL    HW222059   0.532   3.034   4.729
 7054SOL     OW22060   0.387   6.966   0.701
 7054SOL    HW122061   0.305   0.001   0.713
 7054SOL    HW222062   0.462   7.004   0.755
 7055SOL     OW22063   3.254   6.794   5.491
 7055SOL    HW122064   3.190   6.828   5.560
 7055SOL    HW222065   3.331   6.750   5.536
 7056SOL     OW22066   6.872   5.747   2.109
 7056SOL    HW122067   6.822   5.732   2.194
 7056SOL    HW222068   6.954   5.802   2.127
 7057SOL     OW22069   1.275   5.834   3.953
 7057SOL    HW122070   1.229   5.788   3.877
 7057SOL    HW222071   1.310   5.766   4.016
 7058SOL     OW22072   6.254   5.380   6.068
 7058SOL    HW122073   6.258   5.466   6.119
 7058SOL    HW222074   6.231   5.400   5.972
 7059SOL     OW22075   6.851   1.054   3.846
 7059SOL    HW122076   6.816   1.055   3.752
 7059SOL    HW222077   6.905   1.138   3.861
 7060SOL     OW22078   4.042   6.859   1.870
 7060SOL    HW122079   4.078   6.859   1.963
 7060SOL    HW222080   4.012   6.951   1.846
 7061SOL     OW22081   1.551   2.940   4.053
 7061SOL    HW122082   1.523   3.036   4.055
 7061SOL    HW222083   1.514   2.896   3.972
 7062SOL     OW22084   4.566   1.161   5.087
 7062SOL    HW122085   4.610   1.118   5.166
 7062SOL    HW222086   4.518   1.092   5.034
 7063SOL     OW22087   1.130   0.506   2.188
 7063SOL    HW122088   1.133   0.595   2.233
 7063SOL    HW222089   1.221   0.483   2.153
 7064SOL     OW22090   3.674   2.432   1.427
 7064SOL    HW122091   3.576   2.433   1.448
 7064SOL    HW222092   3.687   2.426   1.328
 7065SOL     OW22093   3.861   3.549   6.079
 7065SOL    HW122094   3.910   3.634   6.098
 7065SOL    HW222095   3.764   3.569   6.068
 7066SOL     OW22096   4.451   0.441   0.544
 7066SOL    HW122097   4.421   0.364   0.600
 7066SOL    HW222098   4.546   0.462   0.567
 7067SOL     OW22099   2.200   1.534   5.221
 7067SOL    HW122100   2.188   1.619   5.171
 7067SOL    HW222101   2.273   1.480   5.179
 7068SOL     OW22102   0.518   4.177   4.178
 7068SOL    HW122103   0.507   4.236   4.098
 7068SOL    HW222104   0.567   4.094   4.150
 7069SOL     OW22105   5.796   1.559   4.688
 7069SOL    HW122106   5.725   1.502   4.728
 7069SOL    HW222107   5.879   1.505   4.675
 7070SOL     OW22108   0.022   5.920   5.087
 7070SOL    HW122109   6.992   6.002   5.064
 7070SOL    HW222110   6.981   5.843   5.100
 7071SOL     OW22111   2.507   5.985   6.770
 7071SOL    HW122112   2.563   5.902   6.777
 7071SOL    HW222113   2.446   5.978   6.691
 7072SOL     OW22114   1.423   6.053   6.901
 7072SOL    HW122115   1.337   6.010   6.927
 7072SOL    HW222116   1.407   6.150   6.881
 7073SOL     OW22117   5.256   6.943   4.707
 7073SOL    HW122118   5.188   7.015   4.726
 7073SOL    HW222119   5.323   6.977   4.641
 7074SOL     OW22120   4.389   2.349   2.366
 7074SOL    HW122121   4.364   2.330   2.461
 7074SOL    HW222122   4.360   2.442   2.342
 7075SOL     OW22123   1.962   4.652   4.940
 7075SOL    HW122124   1.990   4.695   4.854
 7075SOL    HW222125   1.924   4.562   4.921
 7076SOL     OW22126   5.490   1.812   6.573
 7076SOL    HW122127   5.529   1.872   6.502
 7076SOL    HW222128   5.392   1.828   6.580
 7077SOL     OW22129   2.469   4.634   4.232
 7077SOL    HW122130   2.370   4.644   4.238
 7077SOL    HW222131   2.492   4.555   4.176
 7078SOL     OW22132   0.070   0.201   1.880
 7078SOL    HW122133   0.115   0.139   1.815
 7078SOL    HW222134   0.139   0.248   1.935
 7079SOL     OW22135   6.792   6.522   4.903
 7079SOL    HW122136   6.769   6.469   4.985
 7079SOL    HW222137   6.891   6.534   4.898
 7080SOL     OW22138   2.794   1.998   4.394
 7080SOL    HW122139   2.780   1.962   4.302
 7080SOL    HW222140   2.727   1.956   4.456
 7081SOL     OW22141   3.256   0.139   0.004
 7081SOL    HW122142   3.181   0.077   7.004
 7081SOL    HW222143   3.312   0.153   6.944
 7082SOL     OW22144   6.587   4.379   6.738
 7082SOL    HW122145   6.648   4.446   6.781
 7082SOL    HW222146   6.496   4.419   6.726
 7083SOL     OW22147   2.666   0.224   0.688
 7083SOL    HW122148   2.621   0.310   0.714
 7083SOL    HW222149   2.757   0.244   0.651
 7084SOL     OW22150   0.304   6.079   6.097
 7084SOL    HW122151   0.294   6.009   6.167
 7084SOL    HW222152   0.214   6.103   6.061
 7085SOL     OW22153   0.670   1.771   1.955
 7085SOL    HW122154   0.590   1.798   2.009
 7085SOL    HW222155   0.751   1.770   2.013
 7086SOL     OW22156   5.576   0.652   5.521
 7086SOL    HW122157   5.663   0.701   5.526
 7086SOL    HW222158   5.592   0.560   5.485
 7087SOL     OW22159   6.090   2.899   4.112
 7087SOL    HW122160   6.058   2.973   4.171
 7087SOL    HW222161   6.106   2.817   4.167
 7088SOL     OW22162   5.501   3.019   3.651
 7088SOL    HW122163   5.448   3.004   3.567
 7088SOL    HW222164   5.572   3.087   3.635
 7089SOL     OW22165   3.185   2.146   4.848
 7089SOL    HW122166   3.182   2.196   4.934
 7089SOL    HW222167   3.128   2.194   4.780
 7090SOL     OW22168   2.474   0.443   0.116
 7090SOL    HW122169   2.494   0.358   0.166
 7090SOL    HW222170   2.376   0.453   0.106
 7091SOL     OW22171   0.658   1.562   6.995
 7091SOL    HW122172   0.670   1.596   6.901
 7091SOL    HW222173   0.747   1.561   0.019
 7092SOL     OW22174   4.847   2.954   5.791
 7092SOL    HW122175   4.813   2.942   5.698
 7092SOL    HW222176   4.773   2.986   5.850
 7093SOL     OW22177   2.995   3.714   3.233
 7093SOL    HW122178   3.013   3.655   3.311
 7093SOL    HW222179   2.999   3.810   3.262
 7094SOL     OW22180   7.007   6.122   6.174
 7094SOL    HW122181   6.991   6.023   6.162
 7094SOL    HW222182   0.028   6.159   6.091
 7095SOL     OW22183   3.562   4.026   5.657
 7095SOL    HW122184   3.581   4.107   5.602
 7095SOL    HW222185   3.483   4.044   5.717
 7096SOL     OW22186   6.290   0.606   3.643
 7096SOL    HW122187   6.316   0.511   3.660
 7096SOL    HW222188   6.317   0.662   3.721
 7097SOL     OW22189   6.064   1.556   1.059
 7097SOL    HW122190   5.995   1.628   1.059
 7097SOL    HW222191   6.152   1.593   1.090
 7098SOL     OW22192   1.617   6.593   5.258
 7098SOL    HW122193   1.672   6.532   5.202
 7098SOL    HW222194   1.637   6.688   5.233
 7099SOL     OW22195   3.607   1.075   5.426
 7099SOL    HW122196   3.658   1.037   5.504
 7099SOL    HW222197   3.574   1.166   5.451
 7100SOL     OW22198   5.220   2.525   1.269
 7100SOL    HW122199   5.149   2.464   1.234
 7100SOL    HW222200   5.279   2.553   1.193
 7101SOL     OW22201   2.264   0.749   4.646
 7101SOL    HW122202   2.263   0.821   4.715
 7101SOL    HW222203   2.355   0.707   4.643
 7102SOL     OW22204   5.367   6.955   0.703
 7102SOL    HW122205   5.411   6.873   0.666
 7102SOL    HW222206   5.434   0.007   0.709
 7103SOL     OW22207   4.587   4.615   1.567
 7103SOL    HW122208   4.636   4.540   1.523
 7103SOL    HW222209   4.508   4.579   1.617
 7104SOL     OW22210   0.285   2.464   3.643
 7104SOL    HW122211   0.343   2.382   3.642
 7104SOL    HW222212   0.191   2.437   3.664
 7105SOL     OW22213   2.852   2.829   5.493
 7105SOL    HW122214   2.813   2.841   5.584
 7105SOL    HW222215   2.951   2.841   5.497
 7106SOL     OW22216   3.751   4.105   2.699
 7106SOL    HW122217   3.678   4.152   2.649
 7106SOL    HW222218   3.737   4.006   2.693
 7107SOL     OW22219   3.964   1.652   0.551
 7107SOL    HW122220   4.018   1.684   0.629
 7107SOL    HW222221   3.899   1.583   0.582
 7108SOL     OW22222   4.692   5.736   3.104
 7108SOL    HW122223   4.598   5.730   3.136
 7108SOL    HW222224   4.697   5.707   3.009
 7109SOL     OW22225   3.068   0.561   6.026
 7109SOL    HW122226   3.091   0.554   6.123
 7109SOL    HW222227   2.982   0.610   6.015
 7110SOL     OW22228   3.009   5.977   4.454
 7110SOL    HW122229   2.955   6.038   4.512
 7110SOL    HW222230   2.979   5.882   4.467
 7111SOL     OW22231   1.559   2.378   4.736
 7111SOL    HW122232   1.644   2.432   4.730
 7111SOL    HW222233   1.572   2.304   4.802
 7112SOL     OW22234   1.443   5.191   4.868
 7112SOL    HW122235   1.529   5.147   4.843
 7112SOL    HW222236   1.367   5.131   4.846
 7113SOL     OW22237   4.048   3.731   4.648
 7113SOL    HW122238   4.035   3.695   4.555
 7113SOL    HW222239   4.085   3.659   4.707
 7114SOL     OW22240   3.905   6.825   1.609
 7114SOL    HW122241   3.973   6.897   1.594
 7114SOL    HW222242   3.911   6.793   1.703
 7115SOL     OW22243   5.531   2.762   1.376
 7115SOL    HW122244   5.587   2.839   1.406
 7115SOL    HW222245   5.590   2.685   1.352
 7116SOL     OW22246   6.363   4.255   3.354
 7116SOL    HW122247   6.391   4.317   3.280
 7116SOL    HW222248   6.272   4.281   3.386
 7117SOL     OW22249   0.426   6.333   5.165
 7117SOL    HW122250   0.436   6.410   5.103
 7117SOL    HW222251   0.370   6.262   5.121
 7118SOL     OW22252   2.398   3.866   1.122
 7118SOL    HW122253   2.409   3.769   1.101
 7118SOL    HW222254   2.434   3.921   1.047
 7119SOL     OW22255   5.020   2.121   3.292
 7119SOL    HW122256   4.990   2.156   3.203
 7119SOL    HW222257   5.081   2.042   3.277
 7120SOL     OW22258   3.609   1.610   2.294
 7120SOL    HW122259   3.514   1.634   2.311
 7120SOL    HW222260   3.667   1.690   2.312
 7121SOL     OW22261   1.128   6.982   3.472
 7121SOL    HW122262   1.123   6.883   3.462
 7121SOL    HW222263   1.171   7.022   3.391
 7122SOL     OW22264   0.629   0.184   6.045
 7122SOL    HW122265   0.646   0.282   6.050
 7122SOL    HW222266   0.580   0.163   5.960
 7123SOL     OW22267   1.751   4.542   3.300
 7123SOL    HW122268   1.679   4.472   3.293
 7123SOL    HW222269   1.722   4.625   3.254
 7124SOL     OW22270   6.971   2.368   1.437
 7124SOL    HW122271   6.894   2.401   1.491
 7124SOL    HW222272   6.960   2.397   1.342
 7125SOL     OW22273   7.011   6.735   1.440
 7125SOL    HW122274   6.946   6.733   1.365
 7125SOL    HW222275   7.007   6.824   1.486
 7126SOL     OW22276   3.495   4.789   6.884
 7126SOL    HW122277   3.453   4.871   6.922
 7126SOL    HW222278   3.553   4.746   6.954
 7127SOL     OW22279   1.503   5.156   5.724
 7127SOL    HW122280   1.404   5.143   5.730
 7127SOL    HW222281   1.546   5.071   5.692
 7128SOL     OW22282   3.184   4.830   0.350
 7128SOL    HW122283   3.099   4.792   0.313
 7128SOL    HW222284   3.252   4.757   0.357
 7129SOL     OW22285   2.037   1.795   6.681
 7129SOL    HW122286   2.045   1.891   6.655
 7129SOL    HW222287   1.998   1.788   6.773
 7130SOL     OW22288   4.227   5.856   5.463
 7130SOL    HW122289   4.208   5.950   5.493
 7130SOL    HW222290   4.252   5.800   5.542
 7131SOL     OW22291   2.709   0.440   1.246
 7131SOL    HW122292   2.780   0.445   1.315
 7131SOL    HW222293   2.638   0.376   1.276
 7132SOL     OW22294   3.344   4.190   6.834
 7132SOL    HW122295   3.290   4.212   6.753
 7132SOL    HW222296   3.348   4.090   6.845
 7133SOL     OW22297   5.246   5.647   6.117
 7133SOL    HW122298   5.297   5.663   6.202
 7133SOL    HW222299   5.274   5.714   6.048
 7134SOL     OW22300   5.458   6.902   2.341
 7134SOL    HW122301   5.415   6.949   2.418
 7134SOL    HW222302   5.393   6.895   2.265
 7135SOL     OW22303   1.521   3.206   3.224
 7135SOL    HW122304   1.470   3.158   3.154
 7135SOL    HW222305   1.474   3.291   3.247
 7136SOL     OW22306   2.705   2.990   1.111
 7136SOL    HW122307   2.617   2.957   1.145
 7136SOL    HW222308   2.700   3.088   1.095
 7137SOL     OW22309   3.684   6.956   6.657
 7137SOL    HW122310   3.673   6.868   6.610
 7137SOL    HW222311   3.622   6.960   6.735
 7138SOL     OW22312   1.656   2.385   0.221
 7138SOL    HW122313   1.569   2.382   0.173
 7138SOL    HW222314   1.644   2.431   0.309
 7139SOL     OW22315   5.898   4.060   1.296
 7139SOL    HW122316   5.897   4.151   1.337
 7139SOL    HW222317   5.830   4.002   1.343
 7140SOL     OW22318   5.974   4.122   3.389
 7140SOL    HW122319   5.970   4.022   3.384
 7140SOL    HW222320   5.881   4.157   3.400
 7141SOL     OW22321   3.364   5.805   1.624
 7141SOL    HW122322   3.448   5.845   1.588
 7141SOL    HW222323   3.290   5.872   1.616
 7142SOL     OW22324   3.907   0.253   3.508
 7142SOL    HW122325   3.977   0.254   3.436
 7142SOL    HW222326   3.856   0.338   3.506
 7143SOL     OW22327   1.626   2.521   5.831
 7143SOL    HW122328   1.545   2.536   5.888
 7143SOL    HW222329   1.599   2.518   5.735
 7144SOL     OW22330   1.810   2.459   2.057
 7144SOL    HW122331   1.857   2.491   1.974
 7144SOL    HW222332   1.777   2.538   2.108
 7145SOL     OW22333   4.719   0.515   0.566
 7145SOL    HW122334   4.735   0.567   0.650
 7145SOL    HW222335   4.805   0.505   0.516
 7146SOL     OW22336   1.880   0.163   0.890
 7146SOL    HW122337   1.795   0.140   0.842
 7146SOL    HW222338   1.890   0.263   0.893
 7147SOL     OW22339   0.702   0.303   3.391
 7147SOL    HW122340   0.746   0.268   3.474
 7147SOL    HW222341   0.771   0.343   3.331
 7148SOL     OW22342   0.690   5.937   0.954
 7148SOL    HW122343   0.710   6.035   0.944
 7148SOL    HW222344   0.719   5.889   0.871
 7149SOL     OW22345   6.026   6.466   2.935
 7149SOL    HW122346   6.072   6.478   3.023
 7149SOL    HW222347   5.995   6.556   2.902
 7150SOL     OW22348   3.171   2.179   1.855
 7150SOL    HW122349   3.164   2.105   1.789
 7150SOL    HW222350   3.100   2.247   1.836
 7151SOL     OW22351   2.358   6.161   0.736
 7151SOL    HW122352   2.328   6.254   0.757
 7151SOL    HW222353   2.453   6.163   0.705
 7152SOL     OW22354   1.088   0.620   5.282
 7152SOL    HW122355   1.172   0.567   5.293
 7152SOL    HW222356   1.089   0.666   5.194
 7153SOL     OW22357   3.637   5.724   1.775
 7153SOL    HW122358   3.667   5.666   1.851
 7153SOL    HW222359   3.617   5.666   1.696
 7154SOL     OW22360   3.711   0.327   3.135
 7154SOL    HW122361   3.621   0.348   3.096
 7154SOL    HW222362   3.780   0.388   3.096
 7155SOL     OW22363   1.606   3.640   0.999
 7155SOL    HW122364   1.635   3.722   1.048
 7155SOL    HW222365   1.628   3.650   0.902
 7156SOL     OW22366   6.944   3.426   3.692
 7156SOL    HW122367   6.882   3.426   3.770
 7156SOL    HW222368   0.010   3.465   3.719
 7157SOL     OW22369   6.974   3.772   1.855
 7157SOL    HW122370   6.919   3.689   1.845
 7157SOL    HW222371   6.926   3.836   1.914
 7158SOL     OW22372   1.004   0.078   4.084
 7158SOL    HW122373   1.079   0.056   4.147
 7158SOL    HW222374   0.936   0.004   4.086
 7159SOL     OW22375   0.487   4.893   2.583
 7159SOL    HW122376   0.564   4.834   2.606
 7159SOL    HW222377   0.485   4.971   2.646
 7160SOL     OW22378   5.493   0.139   2.823
 7160SOL    HW122379   5.547   0.094   2.894
 7160SOL    HW222380   5.520   0.105   2.733
 7161SOL     OW22381   3.170   3.921   4.142
 7161SOL    HW122382   3.166   3.978   4.224
 7161SOL    HW222383   3.095   3.856   4.142
 7162SOL     OW22384   1.104   5.550   6.111
 7162SOL    HW122385   1.151   5.475   6.157
 7162SOL    HW222386   1.012   5.561   6.150
 7163SOL     OW22387   3.016   6.484   2.890
 7163SOL    HW122388   2.999   6.512   2.985
 7163SOL    HW222389   3.072   6.401   2.889
 7164SOL     OW22390   1.986   0.364   3.925
 7164SOL    HW122391   2.037   0.320   3.851
 7164SOL    HW222392   1.916   0.302   3.959
 7165SOL     OW22393   6.715   1.056   2.469
 7165SOL    HW122394   6.763   1.142   2.447
 7165SOL    HW222395   6.623   1.077   2.500
 7166SOL     OW22396   6.122   2.210   0.688
 7166SOL    HW122397   6.149   2.215   0.592
 7166SOL    HW222398   6.105   2.303   0.722
 7167SOL     OW22399   5.173   3.226   4.073
 7167SOL    HW122400   5.176   3.197   4.168
 7167SOL    HW222401   5.241   3.175   4.020
 7168SOL     OW22402   1.381   2.611   3.094
 7168SOL    HW122403   1.292   2.634   3.134
 7168SOL    HW222404   1.452   2.668   3.136
 7169SOL     OW22405   0.316   2.269   4.901
 7169SOL    HW122406   0.315   2.177   4.862
 7169SOL    HW222407   0.371   2.329   4.844
 7170SOL     OW22408   4.865   6.953   4.291
 7170SOL    HW122409   4.821   6.871   4.328
 7170SOL    HW222410   4.803   6.999   4.227
 7171SOL     OW22411   5.708   3.676   6.919
 7171SOL    HW122412   5.712   3.605   6.849
 7171SOL    HW222413   5.624   3.665   6.972
 7172SOL     OW22414   1.528   0.302   5.063
 7172SOL    HW122415   1.508   0.208   5.035
 7172SOL    HW222416   1.447   0.358   5.052
 7173SOL     OW22417   6.766   4.744   6.213
 7173SOL    HW122418   6.734   4.720   6.122
 7173SOL    HW222419   6.709   4.701   6.282
 7174SOL     OW22420   0.675   4.356   0.138
 7174SOL    HW122421   0.726   4.376   0.054
 7174SOL    HW222422   0.578   4.375   0.123
 7175SOL     OW22423   5.772   2.452   6.835
 7175SOL    HW122424   5.768   2.352   6.836
 7175SOL    HW222425   5.849   2.481   6.779
 7176SOL     OW22426   0.418   0.265   3.059
 7176SOL    HW122427   0.340   0.214   3.094
 7176SOL    HW222428   0.391   0.310   2.973
 7177SOL     OW22429   1.634   5.087   4.694
 7177SOL    HW122430   1.658   5.099   4.598
 7177SOL    HW222431   1.713   5.109   4.751
 7178SOL     OW22432   2.193   2.009   6.343
 7178SOL    HW122433   2.166   2.058   6.260
 7178SOL    HW222434   2.173   1.911   6.331
 7179SOL     OW22435   2.138   3.607   4.821
 7179SOL    HW122436   2.176   3.516   4.801
 7179SOL    HW222437   2.121   3.615   4.919
 7180SOL     OW22438   2.608   5.384   0.268
 7180SOL    HW122439   2.666   5.445   0.323
 7180SOL    HW222440   2.649   5.293   0.265
 7181SOL     OW22441   2.012   6.497   0.010
 7181SOL    HW122442   2.006   6.585   0.057
 7181SOL    HW222443   2.070   6.435   0.061
 7182SOL     OW22444   0.929   2.524   4.588
 7182SOL    HW122445   0.937   2.513   4.687
 7182SOL    HW222446   1.017   2.506   4.545
 7183SOL     OW22447   2.252   6.230   6.871
 7183SOL    HW122448   2.230   6.328   6.870
 7183SOL    HW222449   2.281   6.202   6.779
 7184SOL     OW22450   6.865   0.841   3.546
 7184SOL    HW122451   6.824   0.879   3.629
 7184SOL    HW222452   6.831   0.748   3.531
 7185SOL     OW22453   6.047   0.201   5.244
 7185SOL    HW122454   6.099   0.117   5.232
 7185SOL    HW222455   6.094   0.261   5.308
 7186SOL     OW22456   6.708   1.943   0.544
 7186SOL    HW122457   6.737   2.039   0.547
 7186SOL    HW222458   6.789   1.884   0.542
 7187SOL     OW22459   3.663   4.711   6.287
 7187SOL    HW122460   3.651   4.802   6.325
 7187SOL    HW222461   3.753   4.676   6.310
 7188SOL     OW22462   6.315   1.021   0.797
 7188SOL    HW122463   6.382   1.092   0.774
 7188SOL    HW222464   6.223   1.058   0.789
 7189SOL     OW22465   0.552   1.828   6.016
 7189SOL    HW122466   0.452   1.825   6.016
 7189SOL    HW222467   0.587   1.762   6.081
 7190SOL     OW22468   0.328   3.479   2.678
 7190SOL    HW122469   0.245   3.534   2.668
 7190SOL    HW222470   0.306   3.396   2.729
 7191SOL     OW22471   0.665   4.311   2.571
 7191SOL    HW122472   0.578   4.270   2.544
 7191SOL    HW222473   0.723   4.241   2.613
 7192SOL     OW22474   2.977   4.801   5.696
 7192SOL    HW122475   2.936   4.879   5.744
 7192SOL    HW222476   3.026   4.744   5.762
 7193SOL     OW22477   0.942   2.530   2.040
 7193SOL    HW122478   0.904   2.528   2.133
 7193SOL    HW222479   1.016   2.597   2.036
 7194SOL     OW22480   2.613   1.927   0.204
 7194SOL    HW122481   2.528   1.909   0.254
 7194SOL    HW222482   2.610   2.020   0.166
 7195SOL     OW22483   0.154   4.499   6.866
 7195SOL    HW122484   0.160   4.402   6.844
 7195SOL    HW222485   0.065   4.534   6.838
 7196SOL     OW22486   3.205   3.971   0.712
 7196SOL    HW122487   3.120   3.947   0.665
 7196SOL    HW222488   3.234   4.063   0.685
 7197SOL     OW22489   0.525   2.582   6.079
 7197SOL    HW122490   0.519   2.622   5.988
 7197SOL    HW222491   0.440   2.600   6.129
 7198SOL     OW22492   0.121   0.543   0.404
 7198SOL    HW122493   0.100   0.549   0.306
 7198SOL    HW222494   0.079   0.620   0.452
 7199SOL     OW22495   1.873   1.030   2.531
 7199SOL    HW122496   1.950   0.972   2.559
 7199SOL    HW222497   1.812   0.977   2.472
 7200SOL     OW22498   2.417   2.509   0.080
 7200SOL    HW122499   2.469   2.470   0.004
 7200SOL    HW222500   2.478   2.567   0.135
 7201SOL     OW22501   0.785   5.536   4.732
 7201SOL    HW122502   0.707   5.531   4.794
 7201SOL    HW222503   0.854   5.469   4.760
 7202SOL     OW22504   5.058   0.217   6.427
 7202SOL    HW122505   4.963   0.210   6.395
 7202SOL    HW222506   5.058   0.263   6.516
 7203SOL     OW22507   0.740   1.642   1.190
 7203SOL    HW122508   0.757   1.633   1.092
 7203SOL    HW222509   0.660   1.700   1.205
 7204SOL     OW22510   0.961   0.195   5.421
 7204SOL    HW122511   0.929   0.101   5.431
 7204SOL    HW222512   1.060   0.198   5.427
 7205SOL     OW22513   1.292   4.942   4.373
 7205SOL    HW122514   1.256   5.033   4.351
 7205SOL    HW222515   1.216   4.877   4.377
 7206SOL     OW22516   1.443   0.037   1.693
 7206SOL    HW122517   1.502   0.056   1.614
 7206SOL    HW222518   1.401   6.969   1.681
 7207SOL     OW22519   3.646   0.210   2.778
 7207SOL    HW122520   3.736   0.224   2.818
 7207SOL    HW222521   3.608   0.123   2.810
 7208SOL     OW22522   3.923   0.309   2.853
 7208SOL    HW122523   4.004   0.276   2.805
 7208SOL    HW222524   3.932   0.407   2.871
 7209SOL     OW22525   2.912   4.044   1.753
 7209SOL    HW122526   2.949   4.006   1.838
 7209SOL    HW222527   2.818   4.014   1.741
 7210SOL     OW22528   4.796   0.746   3.837
 7210SOL    HW122529   4.879   0.803   3.836
 7210SOL    HW222530   4.716   0.805   3.828
 7211SOL     OW22531   3.241   6.320   4.031
 7211SOL    HW122532   3.157   6.276   4.002
 7211SOL    HW222533   3.305   6.326   3.955
 7212SOL     OW22534   0.546   5.901   4.675
 7212SOL    HW122535   0.638   5.935   4.695
 7212SOL    HW222536   0.479   5.973   4.691
 7213SOL     OW22537   5.135   6.184   0.344
 7213SOL    HW122538   5.055   6.194   0.286
 7213SOL    HW222539   5.149   6.268   0.397
 7214SOL     OW22540   6.844   6.056   5.775
 7214SOL    HW122541   6.765   6.020   5.724
 7214SOL    HW222542   6.892   5.980   5.819
 7215SOL     OW22543   6.887   4.059   5.040
 7215SOL    HW122544   6.979   4.096   5.036
 7215SOL    HW222545   6.822   4.134   5.054
 7216SOL     OW22546   3.831   6.410   6.855
 7216SOL    HW122547   3.865   6.330   6.806
 7216SOL    HW222548   3.803   6.480   6.790
 7217SOL     OW22549   2.690   4.639   2.572
 7217SOL    HW122550   2.659   4.606   2.662
 7217SOL    HW222551   2.628   4.606   2.501
 7218SOL     OW22552   5.190   2.892   5.135
 7218SOL    HW122553   5.105   2.921   5.091
 7218SOL    HW222554   5.255   2.968   5.135
 7219SOL     OW22555   4.600   0.265   3.702
 7219SOL    HW122556   4.619   0.341   3.764
 7219SOL    HW222557   4.670   0.261   3.631
 7220SOL     OW22558   0.849   5.275   5.069
 7220SOL    HW122559   0.785   5.302   5.141
 7220SOL    HW222560   0.800   5.226   4.997
 7221SOL     OW22561   3.661   6.111   4.590
 7221SOL    HW122562   3.583   6.172   4.604
 7221SOL    HW222563   3.641   6.048   4.515
 7222SOL     OW22564   5.891   0.425   3.277
 7222SOL    HW122565   5.903   0.511   3.327
 7222SOL    HW222566   5.827   0.438   3.201
 7223SOL     OW22567   2.616   1.403   1.298
 7223SOL    HW122568   2.613   1.433   1.393
 7223SOL    HW222569   2.708   1.419   1.261
 7224SOL     OW22570   5.555   2.105   4.089
 7224SOL    HW122571   5.534   2.007   4.086
 7224SOL    HW222572   5.530   2.147   4.002
 7225SOL     OW22573   0.711   5.733   0.416
 7225SOL    HW122574   0.707   5.832   0.424
 7225SOL    HW222575   0.728   5.693   0.506
 7226SOL     OW22576   6.489   1.213   0.739
 7226SOL    HW122577   6.584   1.184   0.731
 7226SOL    HW222578   6.470   1.284   0.671
 7227SOL     OW22579   1.477   1.299   0.989
 7227SOL    HW122580   1.473   1.346   0.901
 7227SOL    HW222581   1.523   1.211   0.978
 7228SOL     OW22582   0.794   1.526   2.615
 7228SOL    HW122583   0.696   1.526   2.598
 7228SOL    HW222584   0.812   1.484   2.704
 7229SOL     OW22585   1.563   6.067   6.080
 7229SOL    HW122586   1.637   6.126   6.113
 7229SOL    HW222587   1.502   6.121   6.021
 7230SOL     OW22588   4.163   5.513   4.328
 7230SOL    HW122589   4.159   5.453   4.248
 7230SOL    HW222590   4.205   5.601   4.301
 7231SOL     OW22591   4.390   1.081   0.668
 7231SOL    HW122592   4.442   1.024   0.732
 7231SOL    HW222593   4.302   1.037   0.648
 7232SOL     OW22594   5.178   5.160   2.995
 7232SOL    HW122595   5.203   5.192   2.904
 7232SOL    HW222596   5.080   5.136   2.996
 7233SOL     OW22597   6.959   1.766   3.984
 7233SOL    HW122598   0.028   1.776   3.943
 7233SOL    HW222599   6.921   1.856   4.002
 7234SOL     OW22600   5.709   3.619   3.414
 7234SOL    HW122601   5.745   3.545   3.357
 7234SOL    HW222602   5.751   3.614   3.505
 7235SOL     OW22603   6.357   3.897   1.948
 7235SOL    HW122604   6.385   3.978   1.897
 7235SOL    HW222605   6.438   3.857   1.993
 7236SOL     OW22606   2.064   2.035   1.828
 7236SOL    HW122607   2.048   2.068   1.921
 7236SOL    HW222608   2.126   1.956   1.831
 7237SOL     OW22609   4.844   1.358   4.589
 7237SOL    HW122610   4.786   1.365   4.508
 7237SOL    HW222611   4.932   1.317   4.563
 7238SOL     OW22612   3.368   1.478   0.692
 7238SOL    HW122613   3.416   1.391   0.702
 7238SOL    HW222614   3.383   1.533   0.775
 7239SOL     OW22615   1.228   2.887   2.414
 7239SOL    HW122616   1.216   2.956   2.485
 7239SOL    HW222617   1.155   2.820   2.420
 7240SOL     OW22618   2.145   5.697   6.037
 7240SOL    HW122619   2.228   5.665   6.083
 7240SOL    HW222620   2.078   5.726   6.105
 7241SOL     OW22621   1.911   1.034   0.829
 7241SOL    HW122622   1.977   0.965   0.798
 7241SOL    HW222623   1.819   1.008   0.799
 7242SOL     OW22624   6.364   6.253   0.381
 7242SOL    HW122625   6.362   6.183   0.454
 7242SOL    HW222626   6.454   6.296   0.380
 7243SOL     OW22627   6.415   4.650   6.161
 7243SOL    HW122628   6.459   4.730   6.121
 7243SOL    HW222629   6.398   4.666   6.258
 7244SOL     OW22630   5.652   0.877   1.689
 7244SOL    HW122631   5.620   0.875   1.783
 7244SOL    HW222632   5.751   0.867   1.687
 7245SOL     OW22633   0.808   2.033   4.562
 7245SOL    HW122634   0.773   1.946   4.530
 7245SOL    HW222635   0.877   2.017   4.633
 7246SOL     OW22636   6.317   0.711   3.885
 7246SOL    HW122637   6.262   0.786   3.921
 7246SOL    HW222638   6.407   0.712   3.928
 7247SOL     OW22639   3.081   6.748   3.890
 7247SOL    HW122640   3.076   6.679   3.962
 7247SOL    HW222641   2.997   6.802   3.890
 7248SOL     OW22642   2.760   1.606   3.767
 7248SOL    HW122643   2.756   1.703   3.740
 7248SOL    HW222644   2.714   1.551   3.698
 7249SOL     OW22645   6.440   4.309   2.287
 7249SOL    HW122646   6.508   4.329   2.357
 7249SOL    HW222647   6.482   4.321   2.196
 7250SOL     OW22648   4.216   6.999   6.106
 7250SOL    HW122649   4.304   0.023   6.120
 7250SOL    HW222650   4.213   6.916   6.161
 7251SOL     OW22651   0.683   7.013   5.742
 7251SOL    HW122652   0.679   6.953   5.663
 7251SOL    HW222653   0.632   6.972   5.818
 7252SOL     OW22654   2.986   3.428   2.701
 7252SOL    HW122655   2.921   3.467   2.766
 7252SOL    HW222656   2.976   3.328   2.699
 7253SOL     OW22657   2.574   6.387   6.367
 7253SOL    HW122658   2.650   6.348   6.419
 7253SOL    HW222659   2.596   6.387   6.269
 7254SOL     OW22660   4.056   5.159   4.028
 7254SOL    HW122661   4.042   5.160   3.928
 7254SOL    HW222662   4.043   5.066   4.062
 7255SOL     OW22663   3.208   3.461   0.487
 7255SOL    HW122664   3.277   3.420   0.427
 7255SOL    HW222665   3.186   3.397   0.560
 7256SOL     OW22666   4.075   4.763   4.333
 7256SOL    HW122667   3.983   4.743   4.368
 7256SOL    HW222668   4.143   4.733   4.399
 7257SOL     OW22669   5.016   2.778   4.014
 7257SOL    HW122670   5.015   2.858   3.954
 7257SOL    HW222671   4.930   2.728   4.004
 7258SOL     OW22672   4.227   1.171   3.228
 7258SOL    HW122673   4.269   1.121   3.153
 7258SOL    HW222674   4.283   1.251   3.251
 7259SOL     OW22675   2.857   3.242   1.089
 7259SOL    HW122676   2.868   3.185   1.007
 7259SOL    HW222677   2.906   3.200   1.165
 7260SOL     OW22678   3.321   1.613   2.319
 7260SOL    HW122679   3.313   1.644   2.224
 7260SOL    HW222680   3.261   1.535   2.333
 7261SOL     OW22681   1.322   3.236   1.320
 7261SOL    HW122682   1.238   3.229   1.374
 7261SOL    HW222683   1.319   3.319   1.265
 7262SOL     OW22684   5.322   1.566   5.337
 7262SOL    HW122685   5.309   1.645   5.398
 7262SOL    HW222686   5.384   1.501   5.381
 7263SOL     OW22687   0.645   6.407   1.207
 7263SOL    HW122688   0.656   6.489   1.264
 7263SOL    HW222689   0.672   6.326   1.259
 7264SOL     OW22690   5.619   1.386   5.999
 7264SOL    HW122691   5.638   1.420   6.092
 7264SOL    HW222692   5.522   1.364   5.991
 7265SOL     OW22693   5.314   5.222   6.138
 7265SOL    HW122694   5.398   5.189   6.181
 7265SOL    HW222695   5.255   5.264   6.207
 7266SOL     OW22696   5.335   0.036   1.287
 7266SOL    HW122697   5.314   0.047   1.190
 7266SOL    HW222698   5.389   6.975   1.300
 7267SOL     OW22699   6.839   6.252   5.511
 7267SOL    HW122700   6.764   6.196   5.475
 7267SOL    HW222701   6.863   6.221   5.603
 7268SOL     OW22702   5.189   4.861   3.321
 7268SOL    HW122703   5.182   4.897   3.414
 7268SOL    HW222704   5.215   4.935   3.258
 7269SOL     OW22705   6.508   6.233   1.124
 7269SOL    HW122706   6.513   6.280   1.212
 7269SOL    HW222707   6.600   6.207   1.095
 7270SOL     OW22708   0.782   3.118   5.012
 7270SOL    HW122709   0.837   3.095   5.092
 7270SOL    HW222710   0.699   3.166   5.042
 7271SOL     OW22711   0.424   5.738   3.949
 7271SOL    HW122712   0.473   5.824   3.964
 7271SOL    HW222713   0.481   5.661   3.977
 7272SOL     OW22714   5.499   5.378   2.424
 7272SOL    HW122715   5.511   5.283   2.453
 7272SOL    HW222716   5.559   5.437   2.478
 7273SOL     OW22717   5.408   4.310   1.828
 7273SOL    HW122718   5.497   4.351   1.846
 7273SOL    HW222719   5.336   4.377   1.845
 7274SOL     OW22720   1.192   5.954   6.981
 7274SOL    HW122721   1.158   5.984   0.049
 7274SOL    HW222722   1.128   5.982   6.910
 7275SOL     OW22723   6.650   0.606   2.886
 7275SOL    HW122724   6.624   0.596   2.790
 7275SOL    HW222725   6.734   0.555   2.903
 7276SOL     OW22726   3.507   1.717   2.702
 7276SOL    HW122727   3.578   1.661   2.659
 7276SOL    HW222728   3.449   1.659   2.758
 7277SOL     OW22729   4.485   0.773   4.105
 7277SOL    HW122730   4.464   0.784   4.008
 7277SOL    HW222731   4.403   0.743   4.154
 7278SOL     OW22732   3.450   2.374   1.672
 7278SOL    HW122733   3.540   2.405   1.704
 7278SOL    HW222734   3.406   2.320   1.744
 7279SOL     OW22735   4.266   3.258   6.477
 7279SOL    HW122736   4.339   3.190   6.470
 7279SOL    HW222737   4.232   3.261   6.571
 7280SOL     OW22738   0.220   1.948   4.227
 7280SOL    HW122739   0.274   1.983   4.150
 7280SOL    HW222740   0.151   2.015   4.252
 7281SOL     OW22741   1.660   0.430   0.409
 7281SOL    HW122742   1.675   0.411   0.506
 7281SOL    HW222743   1.563   0.449   0.393
 7282SOL     OW22744   5.847   6.910   1.247
 7282SOL    HW122745   5.854   6.825   1.195
 7282SOL    HW222746   5.936   6.933   1.287
 7283SOL     OW22747   3.433   0.312   2.025
 7283SOL    HW122748   3.471   0.301   2.117
 7283SOL    HW222749   3.476   0.246   1.963
 7284SOL     OW22750   0.115   2.351   5.047
 7284SOL    HW122751   0.184   2.318   4.982
 7284SOL    HW222752   0.149   2.433   5.092
 7285SOL     OW22753   5.731   3.277   1.332
 7285SOL    HW122754   5.657   3.294   1.267
 7285SOL    HW222755   5.795   3.354   1.331
 7286SOL     OW22756   0.709   0.481   1.304
 7286SOL    HW122757   0.795   0.531   1.308
 7286SOL    HW222758   0.724   0.391   1.262
 7287SOL     OW22759   6.582   2.938   4.445
 7287SOL    HW122760   6.632   2.957   4.529
 7287SOL    HW222761   6.624   2.860   4.398
 7288SOL     OW22762   1.463   2.036   1.875
 7288SOL    HW122763   1.381   2.091   1.863
 7288SOL    HW222764   1.544   2.093   1.862
 7289SOL     OW22765   6.164   1.720   3.426
 7289SOL    HW122766   6.083   1.757   3.472
 7289SOL    HW222767   6.211   1.794   3.378
 7290SOL     OW22768   2.807   0.841   5.002
 7290SOL    HW122769   2.781   0.926   4.957
 7290SOL    HW222770   2.857   0.861   5.086
 7291SOL     OW22771   2.198   0.310   0.858
 7291SOL    HW122772   2.258   0.304   0.937
 7291SOL    HW222773   2.178   0.218   0.823
 7292SOL     OW22774   2.959   6.796   2.481
 7292SOL    HW122775   2.888   6.783   2.412
 7292SOL    HW222776   2.946   6.729   2.555
 7293SOL     OW22777   1.536   1.598   6.115
 7293SOL    HW122778   1.634   1.617   6.106
 7293SOL    HW222779   1.502   1.638   6.200
 7294SOL     OW22780   3.135   4.232   0.578
 7294SOL    HW122781   3.164   4.191   0.492
 7294SOL    HW222782   3.157   4.330   0.578
 7295SOL     OW22783   6.902   4.637   1.113
 7295SOL    HW122784   6.872   4.564   1.051
 7295SOL    HW222785   7.002   4.632   1.123
 7296SOL     OW22786   4.436   5.257   2.696
 7296SOL    HW122787   4.342   5.293   2.696
 7296SOL    HW222788   4.482   5.287   2.612
 7297SOL     OW22789   2.381   7.021   1.349
 7297SOL    HW122790   2.358   0.056   1.428
 7297SOL    HW222791   2.478   6.998   1.352
 7298SOL     OW22792   5.086   4.774   6.531
 7298SOL    HW122793   5.139   4.699   6.571
 7298SOL    HW222794   5.107   4.781   6.433
 7299SOL     OW22795   0.839   1.936   1.102
 7299SOL    HW122796   0.914   1.875   1.127
 7299SOL    HW222797   0.789   1.963   1.185
 7300SOL     OW22798   0.527   6.742   2.740
 7300SOL    HW122799   0.492   6.803   2.669
 7300SOL    HW222800   0.457   6.729   2.810
 7301SOL     OW22801   6.497   2.319   5.464
 7301SOL    HW122802   6.507   2.220   5.455
 7301SOL    HW222803   6.406   2.340   5.501
 7302SOL     OW22804   0.327   2.609   6.301
 7302SOL    HW122805   0.296   2.673   6.371
 7302SOL    HW222806   0.260   2.537   6.289
 7303SOL     OW22807   3.526   0.779   6.390
 7303SOL    HW122808   3.485   0.864   6.425
 7303SOL    HW222809   3.548   0.790   6.293
 7304SOL     OW22810   3.122   5.552   1.720
 7304SOL    HW122811   3.082   5.537   1.810
 7304SOL    HW222812   3.194   5.485   1.703
 7305SOL     OW22813   5.412   1.841   1.384
 7305SOL    HW122814   5.448   1.794   1.465
 7305SOL    HW222815   5.465   1.815   1.304
 7306SOL     OW22816   3.630   1.913   1.720
 7306SOL    HW122817   3.554   1.885   1.779
 7306SOL    HW222818   3.618   1.874   1.629
 7307SOL     OW22819   4.397   6.579   2.356
 7307SOL    HW122820   4.472   6.629   2.311
 7307SOL    HW222821   4.410   6.481   2.343
 7308SOL     OW22822   6.364   1.432   4.105
 7308SOL    HW122823   6.455   1.451   4.068
 7308SOL    HW222824   6.373   1.374   4.187
 7309SOL     OW22825   3.698   6.999   1.298
 7309SOL    HW122826   3.726   6.906   1.274
 7309SOL    HW222827   3.624   6.996   1.365
 7310SOL     OW22828   2.029   3.863   0.197
 7310SOL    HW122829   1.945   3.906   0.161
 7310SOL    HW222830   2.071   3.809   0.125
 7311SOL     OW22831   1.349   0.551   0.467
 7311SOL    HW122832   1.361   0.565   0.565
 7311SOL    HW222833   1.260   0.509   0.450
 7312SOL     OW22834   1.261   1.845   4.889
 7312SOL    HW122835   1.346   1.895   4.873
 7312SOL    HW222836   1.185   1.910   4.893
 7313SOL     OW22837   2.208   1.341   0.635
 7313SOL    HW122838   2.221   1.273   0.564
 7313SOL    HW222839   2.169   1.298   0.717
 7314SOL     OW22840   0.095   4.065   6.057
 7314SOL    HW122841   0.051   4.103   6.138
 7314SOL    HW222842   0.027   4.055   5.984
 7315SOL     OW22843   4.696   5.700   1.894
 7315SOL    HW122844   4.776   5.755   1.919
 7315SOL    HW222845   4.621   5.720   1.957
 7316SOL     OW22846   3.126   2.965   6.425
 7316SOL    HW122847   3.042   2.961   6.371
 7316SOL    HW222848   3.120   2.898   6.500
 7317SOL     OW22849   4.099   1.648   1.874
 7317SOL    HW122850   4.042   1.647   1.791
 7317SOL    HW222851   4.055   1.704   1.944
 7318SOL     OW22852   3.219   0.252   2.920
 7318SOL    HW122853   3.244   0.206   2.835
 7318SOL    HW222854   3.126   0.289   2.912
 7319SOL     OW22855   5.897   2.936   6.975
 7319SOL    HW122856   5.805   2.935   7.014
 7319SOL    HW222857   5.893   2.917   6.877
 7320SOL     OW22858   0.296   3.253   1.184
 7320SOL    HW122859   0.368   3.318   1.208
 7320SOL    HW222860   0.284   3.251   1.085
 7321SOL     OW22861   2.495   6.853   5.997
 7321SOL    HW122862   2.589   6.881   5.977
 7321SOL    HW222863   2.473   6.770   5.946
 7322SOL     OW22864   0.156   2.000   2.949
 7322SOL    HW122865   0.140   2.035   2.856
 7322SOL    HW222866   0.206   1.914   2.943
 7323SOL     OW22867   2.693   3.073   1.436
 7323SOL    HW122868   2.764   3.085   1.367
 7323SOL    HW222869   2.610   3.119   1.407
 7324SOL     OW22870   5.484   4.657   2.374
 7324SOL    HW122871   5.459   4.583   2.312
 7324SOL    HW222872   5.491   4.743   2.323
 7325SOL     OW22873   2.835   0.313   5.543
 7325SOL    HW122874   2.894   0.345   5.617
 7325SOL    HW222875   2.779   0.389   5.510
 7326SOL     OW22876   3.446   6.195   6.007
 7326SOL    HW122877   3.439   6.149   5.918
 7326SOL    HW222878   3.423   6.131   6.080
 7327SOL     OW22879   5.925   2.516   4.522
 7327SOL    HW122880   5.875   2.431   4.504
 7327SOL    HW222881   5.870   2.574   4.582
 7328SOL     OW22882   4.783   6.956   5.587
 7328SOL    HW122883   4.756   6.880   5.528
 7328SOL    HW222884   4.738   6.948   5.676
 7329SOL     OW22885   0.943   3.761   0.492
 7329SOL    HW122886   0.943   3.669   0.531
 7329SOL    HW222887   0.850   3.798   0.495
 7330SOL     OW22888   2.373   3.241   0.906
 7330SOL    HW122889   2.439   3.254   0.980
 7330SOL    HW222890   2.294   3.300   0.921
 7331SOL     OW22891   5.809   6.355   1.609
 7331SOL    HW122892   5.876   6.287   1.580
 7331SOL    HW222893   5.819   6.373   1.707
 7332SOL     OW22894   2.728   3.920   6.511
 7332SOL    HW122895   2.641   3.879   6.483
 7332SOL    HW222896   2.719   3.957   6.603
 7333SOL     OW22897   6.131   3.196   2.732
 7333SOL    HW122898   6.219   3.158   2.702
 7333SOL    HW222899   6.126   3.292   2.706
 7334SOL     OW22900   2.399   5.860   6.310
 7334SOL    HW122901   2.392   5.959   6.323
 7334SOL    HW222902   2.314   5.817   6.337
 7335SOL     OW22903   6.904   2.715   3.248
 7335SOL    HW122904   6.935   2.635   3.196
 7335SOL    HW222905   6.973   2.787   3.243
 7336SOL     OW22906   2.345   6.409   1.594
 7336SOL    HW122907   2.423   6.458   1.632
 7336SOL    HW222908   2.353   6.408   1.494
 7337SOL     OW22909   2.456   3.198   1.388
 7337SOL    HW122910   2.372   3.152   1.358
 7337SOL    HW222911   2.455   3.206   1.488
 7338SOL     OW22912   5.573   1.711   1.745
 7338SOL    HW122913   5.656   1.760   1.770
 7338SOL    HW222914   5.496   1.748   1.796
 7339SOL     OW22915   6.813   0.479   5.128
 7339SOL    HW122916   6.815   0.406   5.196
 7339SOL    HW222917   6.741   0.544   5.152
 7340SOL     OW22918   3.622   1.441   7.020
 7340SOL    HW122919   3.631   1.366   6.954
 7340SOL    HW222920   3.531   1.480   7.014
 7341SOL     OW22921   1.032   4.742   4.770
 7341SOL    HW122922   1.006   4.758   4.865
 7341SOL    HW222923   1.108   4.802   4.745
 7342SOL     OW22924   6.329   6.352   0.077
 7342SOL    HW122925   6.323   6.439   0.029
 7342SOL    HW222926   6.274   6.356   0.160
 7343SOL     OW22927   5.192   3.746   1.295
 7343SOL    HW122928   5.247   3.815   1.246
 7343SOL    HW222929   5.196   3.765   1.393
 7344SOL     OW22930   2.328   0.728   6.120
 7344SOL    HW122931   2.307   0.710   6.215
 7344SOL    HW222932   2.258   0.789   6.081
 7345SOL     OW22933   4.957   6.619   5.921
 7345SOL    HW122934   5.025   6.564   5.970
 7345SOL    HW222935   4.988   6.714   5.919
 7346SOL     OW22936   3.805   4.612   1.421
 7346SOL    HW122937   3.810   4.666   1.505
 7346SOL    HW222938   3.780   4.518   1.444
 7347SOL     OW22939   7.009   2.952   0.830
 7347SOL    HW122940   6.964   2.886   0.890
 7347SOL    HW222941   6.946   2.982   0.759
 7348SOL     OW22942   1.649   3.247   3.731
 7348SOL    HW122943   1.722   3.216   3.792
 7348SOL    HW222944   1.620   3.339   3.757
 7349SOL     OW22945   4.144   1.995   1.123
 7349SOL    HW122946   4.084   1.915   1.118
 7349SOL    HW222947   4.214   1.980   1.194
 7350SOL     OW22948   1.454   3.793   4.478
 7350SOL    HW122949   1.476   3.889   4.458
 7350SOL    HW222950   1.480   3.771   4.572
 7351SOL     OW22951   4.628   5.872   5.152
 7351SOL    HW122952   4.672   5.960   5.171
 7351SOL    HW222953   4.536   5.872   5.189
 7352SOL     OW22954   1.515   3.130   2.611
 7352SOL    HW122955   1.515   3.033   2.591
 7352SOL    HW222956   1.512   3.144   2.710
 7353SOL     OW22957   7.004   0.240   5.940
 7353SOL    HW122958   0.070   0.194   5.935
 7353SOL    HW222959   6.982   0.261   6.035
 7354SOL     OW22960   0.940   1.683   7.003
 7354SOL    HW122961   0.964   1.765   6.952
 7354SOL    HW222962   0.951   1.699   0.079
 7355SOL     OW22963   1.650   0.975   0.663
 7355SOL    HW122964   1.596   1.008   0.741
 7355SOL    HW222965   1.588   0.950   0.588
 7356SOL     OW22966   4.881   2.844   6.426
 7356SOL    HW122967   4.939   2.925   6.441
 7356SOL    HW222968   4.891   2.813   6.331
 7357SOL     OW22969   4.515   0.785   1.606
 7357SOL    HW122970   4.487   0.763   1.699
 7357SOL    HW222971   4.602   0.741   1.586
 7358SOL     OW22972   1.347   3.016   2.075
 7358SOL    HW122973   1.319   3.101   2.121
 7358SOL    HW222974   1.297   2.939   2.115
 7359SOL     OW22975   2.986   2.747   0.402
 7359SOL    HW122976   3.042   2.694   0.465
 7359SOL    HW222977   2.890   2.723   0.414
 7360SOL     OW22978   3.194   3.457   5.717
 7360SOL    HW122979   3.283   3.468   5.672
 7360SOL    HW222980   3.121   3.460   5.648
 7361SOL     OW22981   3.984   0.454   2.526
 7361SOL    HW122982   3.901   0.508   2.533
 7361SOL    HW222983   4.034   0.459   2.612
 7362SOL     OW22984   0.758   6.337   4.525
 7362SOL    HW122985   0.730   6.355   4.619
 7362SOL    HW222986   0.741   6.419   4.470
 7363SOL     OW22987   3.861   1.386   1.025
 7363SOL    HW122988   3.779   1.348   1.068
 7363SOL    HW222989   3.934   1.394   1.094
 7364SOL     OW22990   4.419   0.381   1.449
 7364SOL    HW122991   4.416   0.400   1.547
 7364SOL    HW222992   4.327   0.359   1.417
 7365SOL     OW22993   1.546   6.428   1.447
 7365SOL    HW122994   1.531   6.408   1.544
 7365SOL    HW222995   1.643   6.443   1.430
 7366SOL     OW22996   2.181   5.562   0.386
 7366SOL    HW122997   2.082   5.575   0.383
 7366SOL    HW222998   2.226   5.651   0.374
 7367SOL     OW22999   4.890   4.137   1.058
 7367SOL    HW123000   4.880   4.226   1.014
 7367SOL    HW223001   4.950   4.145   1.138
 7368SOL     OW23002   3.849   2.986   3.680
 7368SOL    HW123003   3.777   2.941   3.733
 7368SOL    HW223004   3.904   3.043   3.741
 7369SOL     OW23005   4.798   2.997   0.407
 7369SOL    HW123006   4.851   2.913   0.420
 7369SOL    HW223007   4.808   3.055   0.488
 7370SOL     OW23008   2.773   0.533   5.307
 7370SOL    HW123009   2.787   0.578   5.395
 7370SOL    HW223010   2.675   0.514   5.295
 7371SOL     OW23011   1.898   6.004   3.995
 7371SOL    HW123012   1.902   5.905   3.982
 7371SOL    HW223013   1.843   6.046   3.923
 7372SOL     OW23014   2.995   1.282   5.609
 7372SOL    HW123015   3.023   1.305   5.702
 7372SOL    HW223016   3.004   1.363   5.550
 7373SOL     OW23017   5.614   1.047   4.468
 7373SOL    HW123018   5.551   1.112   4.509
 7373SOL    HW223019   5.670   1.005   4.540
 7374SOL     OW23020   2.708   2.149   5.544
 7374SOL    HW123021   2.699   2.227   5.606
 7374SOL    HW223022   2.667   2.171   5.456
 7375SOL     OW23023   2.335   2.748   2.880
 7375SOL    HW123024   2.242   2.775   2.905
 7375SOL    HW223025   2.394   2.829   2.883
 7376SOL     OW23026   3.960   1.636   6.694
 7376SOL    HW123027   3.926   1.702   6.628
 7376SOL    HW223028   3.963   1.678   6.785
 7377SOL     OW23029   5.341   5.180   1.260
 7377SOL    HW123030   5.411   5.250   1.267
 7377SOL    HW223031   5.384   5.092   1.238
 7378SOL     OW23032   0.472   1.218   5.441
 7378SOL    HW123033   0.394   1.273   5.468
 7378SOL    HW223034   0.556   1.257   5.478
 7379SOL     OW23035   3.533   1.996   2.678
 7379SOL    HW123036   3.551   1.898   2.694
 7379SOL    HW223037   3.503   2.038   2.764
 7380SOL     OW23038   6.690   3.169   5.388
 7380SOL    HW123039   6.754   3.154   5.463
 7380SOL    HW223040   6.733   3.229   5.320
 7381SOL     OW23041   5.051   4.092   1.854
 7381SOL    HW123042   5.130   4.091   1.793
 7381SOL    HW223043   4.969   4.066   1.804
 7382SOL     OW23044   0.199   5.819   6.180
 7382SOL    HW123045   0.265   5.770   6.123
 7382SOL    HW223046   0.193   5.775   6.269
 7383SOL     OW23047   0.981   6.545   1.056
 7383SOL    HW123048   0.947   6.625   1.106
 7383SOL    HW223049   0.922   6.528   0.977
 7384SOL     OW23050   5.675   0.532   2.699
 7384SOL    HW123051   5.737   0.608   2.719
 7384SOL    HW223052   5.609   0.559   2.630
 7385SOL     OW23053   3.974   5.976   1.913
 7385SOL    HW123054   3.930   6.049   1.859
 7385SOL    HW223055   3.926   5.967   2.000
 7386SOL     OW23056   0.223   1.868   5.329
 7386SOL    HW123057   0.265   1.816   5.404
 7386SOL    HW223058   0.286   1.939   5.298
 7387SOL     OW23059   4.385   6.109   4.400
 7387SOL    HW123060   4.418   6.203   4.412
 7387SOL    HW223061   4.454   6.055   4.352
 7388SOL     OW23062   0.268   4.953   2.945
 7388SOL    HW123063   0.344   4.896   2.912
 7388SOL    HW223064   0.203   4.895   2.994
 7389SOL     OW23065   0.616   3.827   6.193
 7389SOL    HW123066   0.657   3.849   6.105
 7389SOL    HW223067   0.536   3.884   6.208
 7390SOL     OW23068   2.463   1.595   6.707
 7390SOL    HW123069   2.439   1.634   6.796
 7390SOL    HW223070   2.397   1.624   6.639
 7391SOL     OW23071   5.004   4.387   4.875
 7391SOL    HW123072   5.079   4.335   4.833
 7391SOL    HW223073   5.029   4.411   4.969
 7392SOL     OW23074   2.555   6.031   0.013
 7392SOL    HW123075   2.653   6.039   0.033
 7392SOL    HW223076   2.541   6.032   6.936
 7393SOL     OW23077   5.505   5.021   1.644
 7393SOL    HW123078   5.516   5.115   1.673
 7393SOL    HW223079   5.417   5.010   1.599
 7394SOL     OW23080   3.062   2.761   5.767
 7394SOL    HW123081   3.059   2.832   5.697
 7394SOL    HW223082   3.115   2.794   5.845
 7395SOL     OW23083   2.573   1.588   0.095
 7395SOL    HW123084   2.493   1.529   0.103
 7395SOL    HW223085   2.547   1.673   0.049
 7396SOL     OW23086   0.767   6.894   0.181
 7396SOL    HW123087   0.693   6.883   0.247
 7396SOL    HW223088   0.756   6.827   0.107
 7397SOL     OW23089   4.402   5.029   4.939
 7397SOL    HW123090   4.421   4.931   4.933
 7397SOL    HW223091   4.330   5.054   4.875
 7398SOL     OW23092   2.920   5.282   4.624
 7398SOL    HW123093   2.837   5.227   4.628
 7398SOL    HW223094   2.909   5.355   4.556
 7399SOL     OW23095   0.952   3.035   5.570
 7399SOL    HW123096   1.052   3.026   5.565
 7399SOL    HW223097   0.914   2.952   5.611
 7400SOL     OW23098   3.702   3.375   5.867
 7400SOL    HW123099   3.780   3.341   5.920
 7400SOL    HW223100   3.729   3.455   5.814
 7401SOL     OW23101   1.483   0.832   4.443
 7401SOL    HW123102   1.479   0.905   4.375
 7401SOL    HW223103   1.579   0.815   4.468
 7402SOL     OW23104   2.821   5.586   5.748
 7402SOL    HW123105   2.784   5.654   5.685
 7402SOL    HW223106   2.748   5.550   5.806
 7403SOL     OW23107   1.950   3.984   2.743
 7403SOL    HW123108   2.022   3.958   2.679
 7403SOL    HW223109   1.900   4.062   2.707
 7404SOL     OW23110   2.833   5.169   1.167
 7404SOL    HW123111   2.838   5.209   1.076
 7404SOL    HW223112   2.823   5.069   1.159
 7405SOL     OW23113   3.419   4.940   4.264
 7405SOL    HW123114   3.320   4.936   4.268
 7405SOL    HW223115   3.450   4.924   4.170
 7406SOL     OW23116   0.751   2.745   3.713
 7406SOL    HW123117   0.798   2.815   3.658
 7406SOL    HW223118   0.785   2.748   3.807
 7407SOL     OW23119   0.093   6.052   4.654
 7407SOL    HW123120   0.035   5.977   4.686
 7407SOL    HW223121   0.114   6.038   4.557
 7408SOL     OW23122   1.372   3.129   6.317
 7408SOL    HW123123   1.288   3.091   6.279
 7408SOL    HW223124   1.375   3.228   6.300
 7409SOL     OW23125   0.576   1.369   6.180
 7409SOL    HW123126   0.503   1.306   6.208
 7409SOL    HW223127   0.561   1.397   6.085
 7410SOL     OW23128   0.453   5.215   1.094
 7410SOL    HW123129   0.408   5.137   1.137
 7410SOL    HW223130   0.543   5.187   1.059
 7411SOL     OW23131   2.539   0.018   3.975
 7411SOL    HW123132   2.593   0.102   3.974
 7411SOL    HW223133   2.478   0.019   4.054
 7412SOL     OW23134   4.156   0.232   2.717
 7412SOL    HW123135   4.208   0.245   2.801
 7412SOL    HW223136   4.216   0.246   2.638
 7413SOL     OW23137   4.896   5.533   5.031
 7413SOL    HW123138   4.836   5.514   4.954
 7413SOL    HW223139   4.842   5.575   5.105
 7414SOL     OW23140   0.080   6.644   4.023
 7414SOL    HW123141   0.147   6.594   3.969
 7414SOL    HW223142   0.092   6.623   4.120
 7415SOL     OW23143   1.074   3.319   3.369
 7415SOL    HW123144   1.056   3.254   3.295
 7415SOL    HW223145   1.158   3.293   3.418
 7416SOL     OW23146   3.265   1.462   3.760
 7416SOL    HW123147   3.330   1.398   3.803
 7416SOL    HW223148   3.175   1.450   3.801
 7417SOL     OW23149   2.486   0.895   6.399
 7417SOL    HW123150   2.401   0.875   6.447
 7417SOL    HW223151   2.501   0.994   6.399
 7418SOL     OW23152   3.739   5.587   0.889
 7418SOL    HW123153   3.836   5.565   0.878
 7418SOL    HW223154   3.690   5.507   0.925
 7419SOL     OW23155   5.969   2.578   5.131
 7419SOL    HW123156   6.039   2.522   5.175
 7419SOL    HW223157   5.892   2.591   5.193
 7420SOL     OW23158   0.165   0.016   1.711
 7420SOL    HW123159   0.255   6.995   1.714
 7420SOL    HW223160   0.125   0.004   1.620
 7421SOL     OW23161   3.366   3.334   1.013
 7421SOL    HW123162   3.372   3.283   1.099
 7421SOL    HW223163   3.358   3.269   0.937
 7422SOL     OW23164   6.953   2.884   2.724
 7422SOL    HW123165   6.931   2.956   2.658
 7422SOL    HW223166   6.962   2.797   2.676
 7423SOL     OW23167   6.615   4.607   5.467
 7423SOL    HW123168   6.706   4.569   5.452
 7423SOL    HW223169   6.612   4.702   5.435
 7424SOL     OW23170   0.115   0.543   4.787
 7424SOL    HW123171   0.180   0.551   4.863
 7424SOL    HW223172   0.058   0.625   4.783
 7425SOL     OW23173   4.781   5.726   6.491
 7425SOL    HW123174   4.853   5.791   6.465
 7425SOL    HW223175   4.694   5.774   6.500
 7426SOL     OW23176   1.839   1.362   6.261
 7426SOL    HW123177   1.815   1.442   6.206
 7426SOL    HW223178   1.882   1.391   6.346
 7427SOL     OW23179   3.588   6.225   4.142
 7427SOL    HW123180   3.522   6.273   4.200
 7427SOL    HW223181   3.566   6.243   4.046
 7428SOL     OW23182   3.998   1.330   6.077
 7428SOL    HW123183   4.037   1.292   6.160
 7428SOL    HW223184   3.936   1.262   6.036
 7429SOL     OW23185   6.580   6.632   2.975
 7429SOL    HW123186   6.606   6.657   2.882
 7429SOL    HW223187   6.565   6.533   2.980
 7430SOL     OW23188   0.123   3.785   6.567
 7430SOL    HW123189   0.106   3.834   6.482
 7430SOL    HW223190   0.134   3.688   6.549
 7431SOL     OW23191   0.377   2.975   3.046
 7431SOL    HW123192   0.444   2.901   3.044
 7431SOL    HW223193   0.296   2.948   2.994
 7432SOL     OW23194   6.824   0.361   3.449
 7432SOL    HW123195   6.907   0.388   3.401
 7432SOL    HW223196   6.850   0.311   3.533
 7433SOL     OW23197   5.291   4.715   6.776
 7433SOL    HW123198   5.344   4.800   6.785
 7433SOL    HW223199   5.341   4.650   6.718
 7434SOL     OW23200   5.451   0.553   5.864
 7434SOL    HW123201   5.516   0.482   5.889
 7434SOL    HW223202   5.447   0.561   5.764
 7435SOL     OW23203   4.114   5.781   0.801
 7435SOL    HW123204   4.084   5.801   0.708
 7435SOL    HW223205   4.078   5.850   0.863
 7436SOL     OW23206   5.919   2.879   6.672
 7436SOL    HW123207   5.995   2.932   6.634
 7436SOL    HW223208   5.833   2.908   6.628
 7437SOL     OW23209   0.370   5.755   0.531
 7437SOL    HW123210   0.396   5.777   0.437
 7437SOL    HW223211   0.445   5.706   0.575
 7438SOL     OW23212   0.650   5.109   0.041
 7438SOL    HW123213   0.550   5.105   0.035
 7438SOL    HW223214   0.677   5.140   0.132
 7439SOL     OW23215   1.532   6.238   4.787
 7439SOL    HW123216   1.583   6.206   4.866
 7439SOL    HW223217   1.524   6.164   4.720
 7440SOL     OW23218   0.382   3.067   4.404
 7440SOL    HW123219   0.449   3.140   4.389
 7440SOL    HW223220   0.295   3.107   4.433
 7441SOL     OW23221   4.680   5.845   4.529
 7441SOL    HW123222   4.643   5.893   4.449
 7441SOL    HW223223   4.703   5.912   4.600
 7442SOL     OW23224   0.386   0.998   6.417
 7442SOL    HW123225   0.414   1.060   6.491
 7442SOL    HW223226   0.410   0.904   6.442
 7443SOL     OW23227   0.340   0.722   2.436
 7443SOL    HW123228   0.269   0.789   2.456
 7443SOL    HW223229   0.356   0.718   2.337
 7444SOL     OW23230   6.235   3.148   4.539
 7444SOL    HW123231   6.140   3.126   4.560
 7444SOL    HW223232   6.276   3.073   4.488
 7445SOL     OW23233   3.028   1.055   1.097
 7445SOL    HW123234   3.085   0.999   1.036
 7445SOL    HW223235   2.998   0.999   1.174
 7446SOL     OW23236   5.541   3.963   0.752
 7446SOL    HW123237   5.443   3.977   0.756
 7446SOL    HW223238   5.588   4.050   0.737
 7447SOL     OW23239   0.721   3.148   5.619
 7447SOL    HW123240   0.817   3.124   5.605
 7447SOL    HW223241   0.693   3.215   5.551
 7448SOL     OW23242   6.363   6.744   5.421
 7448SOL    HW123243   6.445   6.763   5.368
 7448SOL    HW223244   6.285   6.794   5.382
 7449SOL     OW23245   6.642   2.717   2.236
 7449SOL    HW123246   6.624   2.620   2.252
 7449SOL    HW223247   6.702   2.727   2.157
 7450SOL     OW23248   5.534   1.814   4.700
 7450SOL    HW123249   5.467   1.869   4.651
 7450SOL    HW223250   5.626   1.841   4.672
 7451SOL     OW23251   0.967   6.635   3.633
 7451SOL    HW123252   0.901   6.711   3.629
 7451SOL    HW223253   0.950   6.572   3.558
 7452SOL     OW23254   0.728   6.370   4.909
 7452SOL    HW123255   0.650   6.386   4.848
 7452SOL    HW223256   0.740   6.271   4.921
 7453SOL     OW23257   4.925   5.916   5.636
 7453SOL    HW123258   5.015   5.906   5.595
 7453SOL    HW223259   4.884   6.002   5.606
 7454SOL     OW23260   1.223   2.169   1.831
 7454SOL    HW123261   1.280   2.252   1.833
 7454SOL    HW223262   1.127   2.195   1.815
 7455SOL     OW23263   6.778   1.810   2.182
 7455SOL    HW123264   6.682   1.832   2.202
 7455SOL    HW223265   6.783   1.759   2.097
 7456SOL     OW23266   0.470   1.866   4.378
 7456SOL    HW123267   0.542   1.847   4.311
 7456SOL    HW223268   0.381   1.862   4.333
 7457SOL     OW23269   4.189   0.873   5.240
 7457SOL    HW123270   4.205   0.889   5.143
 7457SOL    HW223271   4.125   0.942   5.274
 7458SOL     OW23272   2.378   6.895   6.224
 7458SOL    HW123273   2.405   6.892   6.128
 7458SOL    HW223274   2.451   6.857   6.281
 7459SOL     OW23275   5.050   0.613   1.897
 7459SOL    HW123276   5.041   0.549   1.821
 7459SOL    HW223277   5.137   0.597   1.945
 7460SOL     OW23278   2.052   5.386   1.077
 7460SOL    HW123279   1.974   5.385   1.015
 7460SOL    HW223280   2.022   5.360   1.169
 7461SOL     OW23281   6.406   1.592   5.807
 7461SOL    HW123282   6.444   1.615   5.718
 7461SOL    HW223283   6.350   1.510   5.800
 7462SOL     OW23284   1.343   4.145   2.952
 7462SOL    HW123285   1.333   4.046   2.942
 7462SOL    HW223286   1.429   4.175   2.911
 7463SOL     OW23287   3.109   4.835   0.632
 7463SOL    HW123288   3.125   4.819   0.535
 7463SOL    HW223289   3.195   4.857   0.677
 7464SOL     OW23290   4.800   0.206   6.294
 7464SOL    HW123291   4.735   0.250   6.357
 7464SOL    HW223292   4.750   0.160   6.221
 7465SOL     OW23293   1.084   6.504   7.003
 7465SOL    HW123294   1.062   6.444   6.926
 7465SOL    HW223295   1.019   6.580   7.006
 7466SOL     OW23296   0.378   0.400   6.114
 7466SOL    HW123297   0.454   0.412   6.049
 7466SOL    HW223298   0.293   0.431   6.071
 7467SOL     OW23299   6.804   2.204   0.569
 7467SOL    HW123300   6.854   2.177   0.651
 7467SOL    HW223301   6.830   2.297   0.543
 7468SOL     OW23302   6.629   2.151   3.142
 7468SOL    HW123303   6.587   2.234   3.181
 7468SOL    HW223304   6.718   2.174   3.102
 7469SOL     OW23305   0.207   0.959   0.687
 7469SOL    HW123306   0.188   0.967   0.785
 7469SOL    HW223307   0.302   0.984   0.668
 7470SOL     OW23308   0.037   3.040   3.857
 7470SOL    HW123309   0.075   3.132   3.851
 7470SOL    HW223310   0.101   2.975   3.815
 7471SOL     OW23311   0.136   6.434   6.008
 7471SOL    HW123312   0.225   6.474   6.029
 7471SOL    HW223313   0.082   6.498   5.954
 7472SOL     OW23314   6.503   7.006   4.158
 7472SOL    HW123315   6.511   6.936   4.229
 7472SOL    HW223316   6.452   6.970   4.080
 7473SOL     OW23317   6.397   4.535   2.638
 7473SOL    HW123318   6.399   4.593   2.557
 7473SOL    HW223319   6.315   4.555   2.692
 7474SOL     OW23320   2.229   1.485   5.496
 7474SOL    HW123321   2.199   1.487   5.400
 7474SOL    HW223322   2.255   1.578   5.524
 7475SOL     OW23323   3.883   1.256   2.539
 7475SOL    HW123324   3.956   1.212   2.591
 7475SOL    HW223325   3.915   1.345   2.506
 7476SOL     OW23326   3.443   5.477   3.675
 7476SOL    HW123327   3.543   5.478   3.666
 7476SOL    HW223328   3.404   5.425   3.599
 7477SOL     OW23329   0.142   1.432   5.154
 7477SOL    HW123330   0.195   1.348   5.154
 7477SOL    HW223331   0.115   1.455   5.061
 7478SOL     OW23332   4.427   4.878   6.411
 7478SOL    HW123333   4.409   4.942   6.485
 7478SOL    HW223334   4.522   4.846   6.417
 7479SOL     OW23335   4.046   2.303   1.586
 7479SOL    HW123336   4.030   2.254   1.500
 7479SOL    HW223337   4.144   2.318   1.598
 7480SOL     OW23338   6.842   3.949   1.996
 7480SOL    HW123339   6.799   4.035   1.970
 7480SOL    HW223340   6.912   3.966   2.065
 7481SOL     OW23341   6.018   5.456   1.586
 7481SOL    HW123342   6.083   5.458   1.510
 7481SOL    HW223343   6.063   5.423   1.668
 7482SOL     OW23344   4.342   1.997   3.835
 7482SOL    HW123345   4.282   2.045   3.899
 7482SOL    HW223346   4.345   2.046   3.748
 7483SOL     OW23347   4.809   2.776   4.952
 7483SOL    HW123348   4.853   2.732   4.874
 7483SOL    HW223349   4.761   2.708   5.007
 7484SOL     OW23350   0.922   1.013   3.602
 7484SOL    HW123351   1.003   0.955   3.605
 7484SOL    HW223352   0.936   1.092   3.663
 7485SOL     OW23353   3.595   0.605   5.129
 7485SOL    HW123354   3.526   0.572   5.066
 7485SOL    HW223355   3.676   0.547   5.123
 7486SOL     OW23356   2.652   0.581   5.767
 7486SOL    HW123357   2.651   0.655   5.835
 7486SOL    HW223358   2.673   0.495   5.813
 7487SOL     OW23359   2.063   6.049   2.344
 7487SOL    HW123360   2.125   6.009   2.413
 7487SOL    HW223361   2.000   6.112   2.389
 7488SOL     OW23362   1.659   6.404   4.152
 7488SOL    HW123363   1.713   6.423   4.070
 7488SOL    HW223364   1.679   6.311   4.184
 7489SOL     OW23365   5.361   2.614   4.852
 7489SOL    HW123366   5.447   2.574   4.820
 7489SOL    HW223367   5.369   2.637   4.949
 7490SOL     OW23368   0.595   0.731   1.593
 7490SOL    HW123369   0.558   0.753   1.683
 7490SOL    HW223370   0.688   0.697   1.602
 7491SOL     OW23371   5.950   3.306   5.747
 7491SOL    HW123372   5.927   3.266   5.836
 7491SOL    HW223373   5.888   3.381   5.726
 7492SOL     OW23374   2.231   0.653   3.706
 7492SOL    HW123375   2.167   0.725   3.732
 7492SOL    HW223376   2.273   0.615   3.789
 7493SOL     OW23377   6.727   3.944   0.180
 7493SOL    HW123378   6.642   3.987   0.209
 7493SOL    HW223379   6.741   3.960   0.082
 7494SOL     OW23380   5.241   0.895   2.433
 7494SOL    HW123381   5.228   0.826   2.362
 7494SOL    HW223382   5.336   0.894   2.464
 7495SOL     OW23383   1.789   0.806   0.446
 7495SOL    HW123384   1.876   0.767   0.475
 7495SOL    HW223385   1.759   0.875   0.512
 7496SOL     OW23386   0.084   3.501   5.893
 7496SOL    HW123387   0.118   3.411   5.919
 7496SOL    HW223388   0.136   3.571   5.942
 7497SOL     OW23389   2.417   5.178   0.448
 7497SOL    HW123390   2.325   5.140   0.440
 7497SOL    HW223391   2.412   5.277   0.456
 7498SOL     OW23392   2.512   1.489   5.431
 7498SOL    HW123393   2.428   1.510   5.480
 7498SOL    HW223394   2.509   1.394   5.400
 7499SOL     OW23395   3.877   2.041   2.933
 7499SOL    HW123396   3.975   2.021   2.924
 7499SOL    HW223397   3.858   2.072   3.027
 7500SOL     OW23398   3.365   5.182   3.753
 7500SOL    HW123399   3.295   5.233   3.704
 7500SOL    HW223400   3.418   5.244   3.811
 7501SOL     OW23401   5.782   3.878   3.777
 7501SOL    HW123402   5.710   3.832   3.831
 7501SOL    HW223403   5.740   3.928   3.702
 7502SOL     OW23404   1.669   0.002   4.768
 7502SOL    HW123405   1.747   7.004   4.709
 7502SOL    HW223406   1.585   0.002   4.713
 7503SOL     OW23407   3.118   1.928   0.735
 7503SOL    HW123408   3.158   1.852   0.787
 7503SOL    HW223409   3.116   2.010   0.791
 7504SOL     OW23410   1.831   0.101   2.585
 7504SOL    HW123411   1.911   0.121   2.529
 7504SOL    HW223412   1.750   0.141   2.543
 7505SOL     OW23413   1.816   2.021   5.875
 7505SOL    HW123414   1.725   1.984   5.857
 7505SOL    HW223415   1.810   2.121   5.884
 7506SOL     OW23416   5.242   0.116   3.019
 7506SOL    HW123417   5.177   0.192   3.017
 7506SOL    HW223418   5.328   0.144   2.979
 7507SOL     OW23419   0.791   0.606   2.430
 7507SOL    HW123420   0.785   0.703   2.406
 7507SOL    HW223421   0.887   0.581   2.443
 7508SOL     OW23422   0.436   6.429   2.071
 7508SOL    HW123423   0.389   6.456   1.986
 7508SOL    HW223424   0.524   6.387   2.048
 7509SOL     OW23425   5.704   4.599   0.262
 7509SOL    HW123426   5.676   4.694   0.272
 7509SOL    HW223427   5.624   4.541   0.249
 7510SOL     OW23428   3.702   4.263   5.189
 7510SOL    HW123429   3.801   4.253   5.180
 7510SOL    HW223430   3.681   4.351   5.232
 7511SOL     OW23431   2.039   6.707   3.866
 7511SOL    HW123432   2.047   6.782   3.932
 7511SOL    HW223433   1.991   6.739   3.784
 7512SOL     OW23434   3.028   5.742   6.662
 7512SOL    HW123435   3.088   5.782   6.731
 7512SOL    HW223436   3.055   5.775   6.571
 7513SOL     OW23437   2.208   0.963   1.804
 7513SOL    HW123438   2.183   0.891   1.739
 7513SOL    HW223439   2.296   1.002   1.778
 7514SOL     OW23440   2.253   5.563   1.083
 7514SOL    HW123441   2.168   5.512   1.069
 7514SOL    HW223442   2.242   5.624   1.162
 7515SOL     OW23443   6.747   4.936   1.963
 7515SOL    HW123444   6.778   4.873   2.034
 7515SOL    HW223445   6.794   5.024   1.974
 7516SOL     OW23446   6.688   5.831   5.687
 7516SOL    HW123447   6.695   5.792   5.779
 7516SOL    HW223448   6.593   5.822   5.655
 7517SOL     OW23449   6.833   3.264   0.748
 7517SOL    HW123450   6.866   3.244   0.840
 7517SOL    HW223451   6.903   3.237   0.682
 7518SOL     OW23452   4.326   5.226   3.200
 7518SOL    HW123453   4.355   5.319   3.177
 7518SOL    HW223454   4.401   5.163   3.181
 7519SOL     OW23455   6.608   6.698   3.762
 7519SOL    HW123456   6.686   6.641   3.789
 7519SOL    HW223457   6.529   6.640   3.743
 7520SOL     OW23458   3.655   0.585   2.280
 7520SOL    HW123459   3.700   0.517   2.221
 7520SOL    HW223460   3.666   0.675   2.239
 7521SOL     OW23461   4.974   4.430   6.046
 7521SOL    HW123462   4.946   4.522   6.018
 7521SOL    HW223463   5.061   4.434   6.094
 7522SOL     OW23464   2.408   0.643   6.656
 7522SOL    HW123465   2.357   0.597   6.729
 7522SOL    HW223466   2.383   0.740   6.654
 7523SOL     OW23467   6.032   0.259   5.728
 7523SOL    HW123468   6.033   0.344   5.676
 7523SOL    HW223469   5.938   0.230   5.743
 7524SOL     OW23470   2.088   2.094   5.886
 7524SOL    HW123471   2.068   2.176   5.940
 7524SOL    HW223472   2.004   2.061   5.843
 7525SOL     OW23473   3.236   0.815   6.120
 7525SOL    HW123474   3.172   0.885   6.150
 7525SOL    HW223475   3.213   0.728   6.164
 7526SOL     OW23476   2.858   3.353   1.545
 7526SOL    HW123477   2.936   3.289   1.543
 7526SOL    HW223478   2.801   3.334   1.624
 7527SOL     OW23479   3.921   5.766   3.100
 7527SOL    HW123480   3.886   5.680   3.065
 7527SOL    HW223481   3.844   5.828   3.120
 7528SOL     OW23482   5.212   1.783   0.054
 7528SOL    HW123483   5.274   1.705   0.066
 7528SOL    HW223484   5.199   1.800   6.979
 7529SOL     OW23485   5.360   0.657   4.827
 7529SOL    HW123486   5.434   0.638   4.762
 7529SOL    HW223487   5.285   0.704   4.780
 7530SOL     OW23488   0.607   3.922   2.682
 7530SOL    HW123489   0.705   3.939   2.688
 7530SOL    HW223490   0.589   3.825   2.695
 7531SOL     OW23491   4.826   2.603   4.146
 7531SOL    HW123492   4.785   2.516   4.120
 7531SOL    HW223493   4.920   2.589   4.174
 7532SOL     OW23494   5.602   4.754   0.652
 7532SOL    HW123495   5.697   4.747   0.619
 7532SOL    HW223496   5.560   4.836   0.613
 7533SOL     OW23497   2.315   1.627   2.279
 7533SOL    HW123498   2.235   1.687   2.276
 7533SOL    HW223499   2.395   1.676   2.243
 7534SOL     OW23500   4.728   6.122   5.519
 7534SOL    HW123501   4.723   6.219   5.545
 7534SOL    HW223502   4.653   6.072   5.563
 7535SOL     OW23503   2.197   6.953   5.863
 7535SOL    HW123504   2.196   7.010   5.781
 7535SOL    HW223505   2.265   6.881   5.853
 7536SOL     OW23506   4.922   4.512   4.628
 7536SOL    HW123507   4.981   4.488   4.705
 7536SOL    HW223508   4.964   4.482   4.543
 7537SOL     OW23509   3.364   5.454   2.693
 7537SOL    HW123510   3.306   5.391   2.642
 7537SOL    HW223511   3.438   5.404   2.738
 7538SOL     OW23512   2.839   3.041   1.678
 7538SOL    HW123513   2.796   3.031   1.589
 7538SOL    HW223514   2.910   2.971   1.689
 7539SOL     OW23515   0.895   2.914   4.169
 7539SOL    HW123516   0.886   2.857   4.087
 7539SOL    HW223517   0.847   3.001   4.154
 7540SOL     OW23518   4.741   0.264   5.278
 7540SOL    HW123519   4.834   0.234   5.302
 7540SOL    HW223520   4.675   0.195   5.308
 7541SOL     OW23521   0.143   4.693   4.044
 7541SOL    HW123522   0.105   4.617   4.097
 7541SOL    HW223523   0.241   4.700   4.062
 7542SOL     OW23524   0.931   5.300   0.124
 7542SOL    HW123525   0.928   5.216   0.070
 7542SOL    HW223526   0.854   5.359   0.099
 7543SOL     OW23527   3.187   2.278   0.002
 7543SOL    HW123528   3.135   2.363   0.010
 7543SOL    HW223529   3.181   2.226   0.088
 7544SOL     OW23530   0.287   2.031   2.687
 7544SOL    HW123531   0.367   2.077   2.649
 7544SOL    HW223532   0.316   1.959   2.749
 7545SOL     OW23533   6.643   5.835   1.398
 7545SOL    HW123534   6.558   5.852   1.448
 7545SOL    HW223535   6.669   5.739   1.407
 7546SOL     OW23536   3.196   1.667   2.060
 7546SOL    HW123537   3.126   1.733   2.087
 7546SOL    HW223538   3.154   1.577   2.050
 7547SOL     OW23539   4.842   1.177   0.465
 7547SOL    HW123540   4.801   1.239   0.532
 7547SOL    HW223541   4.775   1.154   0.395
 7548SOL     OW23542   3.901   1.876   0.124
 7548SOL    HW123543   3.809   1.840   0.111
 7548SOL    HW223544   3.957   1.856   0.044
 7549SOL     OW23545   5.678   2.092   1.194
 7549SOL    HW123546   5.604   2.158   1.183
 7549SOL    HW223547   5.671   2.047   1.284
 7550SOL     OW23548   2.462   4.486   2.454
 7550SOL    HW123549   2.371   4.490   2.495
 7550SOL    HW223550   2.456   4.509   2.357
 7551SOL     OW23551   5.242   3.849   6.296
 7551SOL    HW123552   5.259   3.887   6.205
 7551SOL    HW223553   5.145   3.860   6.319
 7552SOL     OW23554   1.159   5.271   2.704
 7552SOL    HW123555   1.139   5.349   2.645
 7552SOL    HW223556   1.099   5.195   2.680
 7553SOL     OW23557   4.484   6.165   4.982
 7553SOL    HW123558   4.398   6.176   5.031
 7553SOL    HW223559   4.560   6.177   5.046
 7554SOL     OW23560   4.386   1.473   1.286
 7554SOL    HW123561   4.333   1.539   1.339
 7554SOL    HW223562   4.343   1.459   1.197
 7555SOL     OW23563   1.993   5.100   5.512
 7555SOL    HW123564   1.976   5.002   5.502
 7555SOL    HW223565   1.925   5.139   5.574
 7556SOL     OW23566   1.187   2.937   0.247
 7556SOL    HW123567   1.165   3.012   0.184
 7556SOL    HW223568   1.285   2.920   0.246
 7557SOL     OW23569   5.133   2.202   5.934
 7557SOL    HW123570   5.055   2.236   5.881
 7557SOL    HW223571   5.216   2.209   5.879
 7558SOL     OW23572   1.559   2.614   4.401
 7558SOL    HW123573   1.578   2.526   4.359
 7558SOL    HW223574   1.551   2.684   4.330
 7559SOL     OW23575   5.319   4.496   6.570
 7559SOL    HW123576   5.352   4.443   6.648
 7559SOL    HW223577   5.344   4.449   6.485
 7560SOL     OW23578   4.829   6.150   0.896
 7560SOL    HW123579   4.784   6.239   0.897
 7560SOL    HW223580   4.760   6.078   0.906
 7561SOL     OW23581   1.251   3.368   6.781
 7561SOL    HW123582   1.211   3.443   6.833
 7561SOL    HW223583   1.345   3.391   6.758
 7562SOL     OW23584   6.669   5.997   3.812
 7562SOL    HW123585   6.697   6.030   3.722
 7562SOL    HW223586   6.587   6.045   3.842
 7563SOL     OW23587   2.314   6.712   0.814
 7563SOL    HW123588   2.380   6.747   0.747
 7563SOL    HW223589   2.351   6.721   0.906
 7564SOL     OW23590   4.676   0.568   3.125
 7564SOL    HW123591   4.727   0.587   3.041
 7564SOL    HW223592   4.659   0.653   3.174
 7565SOL     OW23593   5.907   3.088   0.369
 7565SOL    HW123594   5.928   3.180   0.402
 7565SOL    HW223595   5.955   3.072   0.283
 7566SOL     OW23596   6.451   4.648   2.994
 7566SOL    HW123597   6.507   4.615   2.918
 7566SOL    HW223598   6.355   4.634   2.972
 7567SOL     OW23599   1.544   2.245   5.278
 7567SOL    HW123600   1.528   2.156   5.236
 7567SOL    HW223601   1.456   2.289   5.298
 7568SOL     OW23602   5.509   6.304   2.506
 7568SOL    HW123603   5.458   6.294   2.591
 7568SOL    HW223604   5.446   6.307   2.429
 7569SOL     OW23605   4.013   6.148   5.981
 7569SOL    HW123606   4.025   6.221   6.048
 7569SOL    HW223607   4.102   6.121   5.945
 7570SOL     OW23608   5.686   4.187   4.865
 7570SOL    HW123609   5.671   4.139   4.952
 7570SOL    HW223610   5.677   4.285   4.879
 7571SOL     OW23611   5.261   5.416   3.472
 7571SOL    HW123612   5.231   5.327   3.437
 7571SOL    HW223613   5.361   5.418   3.476
 7572SOL     OW23614   4.557   1.056   1.774
 7572SOL    HW123615   4.507   0.984   1.724
 7572SOL    HW223616   4.491   1.121   1.812
 7573SOL     OW23617   0.316   6.947   5.064
 7573SOL    HW123618   0.236   6.976   5.011
 7573SOL    HW223619   0.396   6.943   5.004
 7574SOL     OW23620   6.632   0.515   4.873
 7574SOL    HW123621   6.567   0.452   4.831
 7574SOL    HW223622   6.647   0.489   4.969
 7575SOL     OW23623   4.420   0.154   6.112
 7575SOL    HW123624   4.419   0.236   6.171
 7575SOL    HW223625   4.509   0.111   6.116
 7576SOL     OW23626   4.694   4.810   6.425
 7576SOL    HW123627   4.756   4.887   6.406
 7576SOL    HW223628   4.708   4.739   6.356
 7577SOL     OW23629   0.241   6.906   6.930
 7577SOL    HW123630   0.148   6.919   6.964
 7577SOL    HW223631   0.304   6.962   6.985
 7578SOL     OW23632   2.384   5.563   2.036
 7578SOL    HW123633   2.374   5.638   2.101
 7578SOL    HW223634   2.462   5.507   2.061
 7579SOL     OW23635   6.290   1.195   1.760
 7579SOL    HW123636   6.334   1.187   1.671
 7579SOL    HW223637   6.336   1.265   1.815
 7580SOL     OW23638   1.117   3.721   3.631
 7580SOL    HW123639   1.033   3.671   3.651
 7580SOL    HW223640   1.095   3.814   3.602
 7581SOL     OW23641   6.788   0.875   0.989
 7581SOL    HW123642   6.807   0.815   0.911
 7581SOL    HW223643   6.763   0.820   1.069
 7582SOL     OW23644   3.391   1.205   1.140
 7582SOL    HW123645   3.312   1.262   1.161
 7582SOL    HW223646   3.360   1.116   1.106
 7583SOL     OW23647   6.193   2.721   1.225
 7583SOL    HW123648   6.155   2.785   1.159
 7583SOL    HW223649   6.133   2.713   1.304
 7584SOL     OW23650   2.621   6.924   1.652
 7584SOL    HW123651   2.631   6.828   1.625
 7584SOL    HW223652   2.553   6.932   1.725
 7585SOL     OW23653   1.513   2.777   6.373
 7585SOL    HW123654   1.510   2.876   6.365
 7585SOL    HW223655   1.517   2.751   6.470
 7586SOL     OW23656   2.897   0.969   3.831
 7586SOL    HW123657   2.801   0.942   3.845
 7586SOL    HW223658   2.935   0.918   3.754
 7587SOL     OW23659   2.172   2.071   0.179
 7587SOL    HW123660   2.085   2.090   0.224
 7587SOL    HW223661   2.205   2.154   0.133
 7588SOL     OW23662   1.577   2.998   2.880
 7588SOL    HW123663   1.508   3.059   2.919
 7588SOL    HW223664   1.668   3.025   2.913
 7589SOL     OW23665   0.735   0.082   2.301
 7589SOL    HW123666   0.654   0.024   2.289
 7589SOL    HW223667   0.797   0.070   2.223
 7590SOL     OW23668   4.961   1.781   6.190
 7590SOL    HW123669   4.939   1.861   6.134
 7590SOL    HW223670   4.888   1.764   6.256
 7591SOL     OW23671   0.050   3.647   0.373
 7591SOL    HW123672   6.981   3.666   0.336
 7591SOL    HW223673   0.113   3.624   0.299
 7592SOL     OW23674   6.598   4.194   5.791
 7592SOL    HW123675   6.633   4.255   5.720
 7592SOL    HW223676   6.504   4.221   5.814
 7593SOL     OW23677   5.707   3.001   1.394
 7593SOL    HW123678   5.766   2.992   1.474
 7593SOL    HW223679   5.707   3.097   1.363
 7594SOL     OW23680   0.864   5.098   2.200
 7594SOL    HW123681   0.852   5.019   2.259
 7594SOL    HW223682   0.958   5.101   2.166
 7595SOL     OW23683   0.211   2.000   5.683
 7595SOL    HW123684   0.283   2.027   5.748
 7595SOL    HW223685   0.128   1.978   5.734
 7596SOL     OW23686   4.226   5.519   3.958
 7596SOL    HW123687   4.233   5.419   3.960
 7596SOL    HW223688   4.316   5.559   3.973
 7597SOL     OW23689   3.735   6.157   2.730
 7597SOL    HW123690   3.670   6.100   2.679
 7597SOL    HW223691   3.777   6.102   2.803
 7598SOL     OW23692   6.533   1.370   3.071
 7598SOL    HW123693   6.480   1.412   3.145
 7598SOL    HW223694   6.612   1.323   3.109
 7599SOL     OW23695   5.195   1.690   2.623
 7599SOL    HW123696   5.135   1.756   2.667
 7599SOL    HW223697   5.140   1.612   2.591
 7600SOL     OW23698   2.250   1.713   2.534
 7600SOL    HW123699   2.207   1.801   2.517
 7600SOL    HW223700   2.280   1.673   2.447
 7601SOL     OW23701   2.056   5.222   2.992
 7601SOL    HW123702   2.032   5.135   3.036
 7601SOL    HW223703   2.114   5.275   3.053
 7602SOL     OW23704   1.413   4.362   5.718
 7602SOL    HW123705   1.360   4.366   5.803
 7602SOL    HW223706   1.367   4.300   5.654
 7603SOL     OW23707   1.345   5.724   6.034
 7603SOL    HW123708   1.265   5.667   6.051
 7603SOL    HW223709   1.420   5.696   6.094
 7604SOL     OW23710   1.623   4.362   4.560
 7604SOL    HW123711   1.550   4.330   4.620
 7604SOL    HW223712   1.689   4.288   4.544
 7605SOL     OW23713   0.478   0.161   1.183
 7605SOL    HW123714   0.519   0.072   1.163
 7605SOL    HW223715   0.484   0.179   1.281
 7606SOL     OW23716   5.757   3.798   4.821
 7606SOL    HW123717   5.726   3.866   4.755
 7606SOL    HW223718   5.843   3.828   4.862
 7607SOL     OW23719   3.486   4.484   6.985
 7607SOL    HW123720   3.511   4.401   0.013
 7607SOL    HW223721   3.437   4.460   6.901
 7608SOL     OW23722   4.085   3.440   2.677
 7608SOL    HW123723   4.084   3.474   2.584
 7608SOL    HW223724   4.071   3.341   2.677
 7609SOL     OW23725   0.980   3.427   4.016
 7609SOL    HW123726   1.044   3.485   4.067
 7609SOL    HW223727   0.890   3.470   4.014
 7610SOL     OW23728   4.841   6.216   6.764
 7610SOL    HW123729   4.931   6.193   6.801
 7610SOL    HW223730   4.846   6.219   6.664
 7611SOL     OW23731   6.936   2.473   0.834
 7611SOL    HW123732   6.940   2.385   0.787
 7611SOL    HW223733   6.840   2.495   0.854
 7612SOL     OW23734   4.819   3.153   3.483
 7612SOL    HW123735   4.753   3.079   3.470
 7612SOL    HW223736   4.847   3.156   3.579
 7613SOL     OW23737   6.178   3.159   1.119
 7613SOL    HW123738   6.245   3.192   1.052
 7613SOL    HW223739   6.112   3.232   1.138
 7614SOL     OW23740   5.328   2.988   0.774
 7614SOL    HW123741   5.388   3.046   0.830
 7614SOL    HW223742   5.267   3.046   0.719
 7615SOL     OW23743   3.634   5.011   6.618
 7615SOL    HW123744   3.687   4.998   6.534
 7615SOL    HW223745   3.696   5.011   6.697
 7616SOL     OW23746   6.108   5.225   4.822
 7616SOL    HW123747   6.113   5.250   4.725
 7616SOL    HW223748   6.018   5.249   4.858
 7617SOL     OW23749   3.957   5.019   2.498
 7617SOL    HW123750   4.037   5.033   2.557
 7617SOL    HW223751   3.926   5.106   2.461
 7618SOL     OW23752   0.477   1.450   5.894
 7618SOL    HW123753   0.389   1.492   5.872
 7618SOL    HW223754   0.523   1.423   5.809
 7619SOL     OW23755   6.010   3.347   5.245
 7619SOL    HW123756   6.048   3.263   5.285
 7619SOL    HW223757   5.912   3.350   5.263
 7620SOL     OW23758   3.984   5.904   1.220
 7620SOL    HW123759   4.037   5.939   1.142
 7620SOL    HW223760   3.898   5.867   1.187
 7621SOL     OW23761   6.972   1.758   1.148
 7621SOL    HW123762   6.953   1.843   1.197
 7621SOL    HW223763   6.895   1.736   1.089
 7622SOL     OW23764   4.058   5.990   0.949
 7622SOL    HW123765   4.007   6.074   0.929
 7622SOL    HW223766   4.154   6.011   0.963
 7623SOL     OW23767   4.655   4.656   6.636
 7623SOL    HW123768   4.571   4.603   6.627
 7623SOL    HW223769   4.660   4.723   6.562
 7624SOL     OW23770   6.734   3.713   5.293
 7624SOL    HW123771   6.780   3.639   5.342
 7624SOL    HW223772   6.759   3.801   5.335
 7625SOL     OW23773   4.599   0.479   1.725
 7625SOL    HW123774   4.682   0.434   1.758
 7625SOL    HW223775   4.617   0.523   1.637
 7626SOL     OW23776   5.594   6.948   4.590
 7626SOL    HW123777   5.564   6.856   4.563
 7626SOL    HW223778   5.601   7.006   4.509
 7627SOL     OW23779   4.994   2.659   0.158
 7627SOL    HW123780   5.004   2.570   0.114
 7627SOL    HW223781   5.022   2.731   0.094
 7628SOL     OW23782   3.697   1.467   2.725
 7628SOL    HW123783   3.778   1.451   2.668
 7628SOL    HW223784   3.721   1.454   2.821
 7629SOL     OW23785   0.158   6.093   3.325
 7629SOL    HW123786   0.063   6.123   3.331
 7629SOL    HW223787   0.191   6.066   3.415
 7630SOL     OW23788   6.798   6.791   1.269
 7630SOL    HW123789   6.820   6.880   1.228
 7630SOL    HW223790   6.806   6.719   1.200
 7631SOL     OW23791   1.194   1.308   6.146
 7631SOL    HW123792   1.286   1.271   6.138
 7631SOL    HW223793   1.177   1.373   6.071
 7632SOL     OW23794   3.130   2.863   1.910
 7632SOL    HW123795   3.059   2.793   1.914
 7632SOL    HW223796   3.211   2.827   1.863
 7633SOL     OW23797   5.073   0.453   1.413
 7633SOL    HW123798   5.058   0.375   1.352
 7633SOL    HW223799   5.005   0.451   1.487
 7634SOL     OW23800   1.571   2.278   2.581
 7634SOL    HW123801   1.504   2.345   2.549
 7634SOL    HW223802   1.535   2.228   2.659
 7635SOL     OW23803   3.598   5.373   4.959
 7635SOL    HW123804   3.527   5.330   4.903
 7635SOL    HW223805   3.598   5.471   4.942
 7636SOL     OW23806   1.581   2.598   3.726
 7636SOL    HW123807   1.665   2.632   3.770
 7636SOL    HW223808   1.581   2.624   3.629
 7637SOL     OW23809   2.114   5.235   2.267
 7637SOL    HW123810   2.109   5.331   2.237
 7637SOL    HW223811   2.134   5.177   2.188
 7638SOL     OW23812   3.312   6.067   0.858
 7638SOL    HW123813   3.252   5.987   0.852
 7638SOL    HW223814   3.393   6.043   0.912
 7639SOL     OW23815   1.509   2.555   0.955
 7639SOL    HW123816   1.587   2.569   1.016
 7639SOL    HW223817   1.531   2.484   0.888
 7640SOL     OW23818   2.918   1.811   5.988
 7640SOL    HW123819   2.954   1.862   5.909
 7640SOL    HW223820   2.859   1.871   6.042
 7641SOL     OW23821   1.238   4.963   2.367
 7641SOL    HW123822   1.256   4.865   2.371
 7641SOL    HW223823   1.185   4.985   2.285
 7642SOL     OW23824   3.825   0.875   2.856
 7642SOL    HW123825   3.808   0.967   2.820
 7642SOL    HW223826   3.748   0.815   2.833
 7643SOL     OW23827   5.023   2.920   4.268
 7643SOL    HW123828   5.010   2.851   4.197
 7643SOL    HW223829   4.987   2.885   4.355
 7644SOL     OW23830   5.798   2.210   2.661
 7644SOL    HW123831   5.737   2.180   2.587
 7644SOL    HW223832   5.770   2.167   2.747
 7645SOL     OW23833   4.218   3.911   5.362
 7645SOL    HW123834   4.193   4.006   5.380
 7645SOL    HW223835   4.314   3.896   5.386
 7646SOL     OW23836   1.012   3.641   2.857
 7646SOL    HW123837   1.077   3.664   2.785
 7646SOL    HW223838   0.941   3.581   2.820
 7647SOL     OW23839   6.481   3.622   3.132
 7647SOL    HW123840   6.381   3.616   3.141
 7647SOL    HW223841   6.504   3.693   3.066
 7648SOL     OW23842   2.631   1.429   2.723
 7648SOL    HW123843   2.723   1.466   2.729
 7648SOL    HW223844   2.584   1.443   2.811
 7649SOL     OW23845   1.138   0.812   2.658
 7649SOL    HW123846   1.136   0.718   2.624
 7649SOL    HW223847   1.110   0.814   2.754
 7650SOL     OW23848   4.644   1.942   1.239
 7650SOL    HW123849   4.686   1.931   1.149
 7650SOL    HW223850   4.546   1.958   1.227
 7651SOL     OW23851   2.313   0.808   3.957
 7651SOL    HW123852   2.370   0.752   4.017
 7651SOL    HW223853   2.370   0.869   3.902
 7652SOL     OW23854   5.984   3.867   4.989
 7652SOL    HW123855   6.062   3.857   5.051
 7652SOL    HW223856   5.916   3.926   5.030
 7653SOL     OW23857   1.067   2.100   0.089
 7653SOL    HW123858   1.076   2.089   0.188
 7653SOL    HW223859   1.036   2.193   0.069
 7654SOL     OW23860   4.610   2.593   3.775
 7654SOL    HW123861   4.544   2.571   3.847
 7654SOL    HW223862   4.641   2.687   3.786
 7655SOL     OW23863   4.398   6.985   2.974
 7655SOL    HW123864   4.367   6.896   3.007
 7655SOL    HW223865   4.493   6.980   2.946
 7656SOL     OW23866   2.733   4.201   5.970
 7656SOL    HW123867   2.793   4.269   6.012
 7656SOL    HW223868   2.749   4.198   5.871
 7657SOL     OW23869   1.498   2.985   4.329
 7657SOL    HW123870   1.558   3.064   4.341
 7657SOL    HW223871   1.490   2.963   4.231
 7658SOL     OW23872   3.882   6.803   5.960
 7658SOL    HW123873   3.973   6.844   5.953
 7658SOL    HW223874   3.821   6.845   5.892
 7659SOL     OW23875   5.657   5.613   6.734
 7659SOL    HW123876   5.712   5.617   6.650
 7659SOL    HW223877   5.666   5.522   6.775
 7660SOL     OW23878   0.571   5.941   4.052
 7660SOL    HW123879   0.661   5.947   4.096
 7660SOL    HW223880   0.516   6.020   4.079
 7661SOL     OW23881   6.194   2.549   4.570
 7661SOL    HW123882   6.099   2.524   4.554
 7661SOL    HW223883   6.202   2.648   4.577
 7662SOL     OW23884   1.193   3.325   3.003
 7662SOL    HW123885   1.174   3.401   3.064
 7662SOL    HW223886   1.266   3.268   3.042
 7663SOL     OW23887   0.662   5.560   5.624
 7663SOL    HW123888   0.632   5.527   5.714
 7663SOL    HW223889   0.586   5.555   5.560
 7664SOL     OW23890   3.585   0.259   1.447
 7664SOL    HW123891   3.551   0.333   1.505
 7664SOL    HW223892   3.526   0.179   1.457
 7665SOL     OW23893   5.810   6.880   4.832
 7665SOL    HW123894   5.763   6.939   4.766
 7665SOL    HW223895   5.840   6.796   4.787
 7666SOL     OW23896   0.413   5.615   1.683
 7666SOL    HW123897   0.388   5.546   1.616
 7666SOL    HW223898   0.331   5.651   1.728
 7667SOL     OW23899   5.050   6.218   2.322
 7667SOL    HW123900   4.997   6.290   2.280
 7667SOL    HW223901   5.146   6.246   2.329
 7668SOL     OW23902   2.986   4.286   6.993
 7668SOL    HW123903   2.973   4.243   6.904
 7668SOL    HW223904   2.898   4.290   0.019
 7669SOL     OW23905   4.789   1.962   5.658
 7669SOL    HW123906   4.720   1.930   5.593
 7669SOL    HW223907   4.827   2.049   5.627
 7670SOL     OW23908   0.786   5.233   6.469
 7670SOL    HW123909   0.758   5.328   6.479
 7670SOL    HW223910   0.773   5.204   6.375
 7671SOL     OW23911   4.474   1.065   2.765
 7671SOL    HW123912   4.408   1.003   2.724
 7671SOL    HW223913   4.557   1.014   2.788
 7672SOL     OW23914   0.472   6.943   2.988
 7672SOL    HW123915   0.500   7.021   2.932
 7672SOL    HW223916   0.414   6.975   3.062
 7673SOL     OW23917   1.679   5.652   0.093
 7673SOL    HW123918   1.645   5.629   0.001
 7673SOL    HW223919   1.772   5.617   0.104
 7674SOL     OW23920   5.167   0.894   3.544
 7674SOL    HW123921   5.242   0.959   3.556
 7674SOL    HW223922   5.171   0.856   3.451
 7675SOL     OW23923   6.559   6.816   2.282
 7675SOL    HW123924   6.525   6.777   2.196
 7675SOL    HW223925   6.610   6.900   2.262
 7676SOL     OW23926   2.380   1.993   0.395
 7676SOL    HW123927   2.329   2.036   0.320
 7676SOL    HW223928   2.386   2.058   0.471
 7677SOL     OW23929   0.287   4.809   1.724
 7677SOL    HW123930   0.254   4.903   1.709
 7677SOL    HW223931   0.339   4.779   1.644
 7678SOL     OW23932   2.116   2.505   4.366
 7678SOL    HW123933   2.069   2.552   4.440
 7678SOL    HW223934   2.212   2.490   4.392
 7679SOL     OW23935   2.884   5.473   6.262
 7679SOL    HW123936   2.790   5.466   6.294
 7679SOL    HW223937   2.934   5.389   6.285
 7680SOL     OW23938   1.317   0.929   0.753
 7680SOL    HW123939   1.367   0.948   0.669
 7680SOL    HW223940   1.248   1.000   0.768
 7681SOL     OW23941   2.144   0.562   0.899
 7681SOL    HW123942   2.225   0.621   0.901
 7681SOL    HW223943   2.167   0.475   0.856
 7682SOL     OW23944   3.504   0.251   2.288
 7682SOL    HW123945   3.582   0.304   2.321
 7682SOL    HW223946   3.419   0.294   2.318
 7683SOL     OW23947   5.224   1.686   4.391
 7683SOL    HW123948   5.214   1.753   4.317
 7683SOL    HW223949   5.262   1.601   4.354
 7684SOL     OW23950   3.566   2.118   1.527
 7684SOL    HW123951   3.501   2.083   1.594
 7684SOL    HW223952   3.635   2.175   1.573
 7685SOL     OW23953   2.764   2.024   6.107
 7685SOL    HW123954   2.774   2.093   6.036
 7685SOL    HW223955   2.729   2.067   6.191
 7686SOL     OW23956   0.231   0.026   3.137
 7686SOL    HW123957   0.161   0.092   3.109
 7686SOL    HW223958   0.196   6.992   3.212
 7687SOL     OW23959   5.504   5.258   3.918
 7687SOL    HW123960   5.533   5.341   3.965
 7687SOL    HW223961   5.566   5.239   3.842
 7688SOL     OW23962   1.176   6.044   6.026
 7688SOL    HW123963   1.092   6.021   5.977
 7688SOL    HW223964   1.251   5.990   5.989
 7689SOL     OW23965   6.114   6.473   2.563
 7689SOL    HW123966   6.159   6.546   2.613
 7689SOL    HW223967   6.022   6.459   2.599
 7690SOL     OW23968   5.350   5.280   0.363
 7690SOL    HW123969   5.285   5.294   0.439
 7690SOL    HW223970   5.424   5.346   0.370
 7691SOL     OW23971   5.142   3.803   4.690
 7691SOL    HW123972   5.087   3.872   4.643
 7691SOL    HW223973   5.085   3.754   4.755
 7692SOL     OW23974   0.242   6.082   1.983
 7692SOL    HW123975   0.328   6.036   2.001
 7692SOL    HW223976   0.234   6.163   2.041
 7693SOL     OW23977   4.174   6.902   0.881
 7693SOL    HW123978   4.216   6.920   0.792
 7693SOL    HW223979   4.228   6.833   0.930
 7694SOL     OW23980   0.100   4.841   5.103
 7694SOL    HW123981   0.147   4.876   5.022
 7694SOL    HW223982   0.011   4.885   5.112
 7695SOL     OW23983   4.346   0.097   1.269
 7695SOL    HW123984   4.282   0.105   1.193
 7695SOL    HW223985   4.346   0.182   1.321
 7696SOL     OW23986   6.912   0.786   5.129
 7696SOL    HW123987   6.840   0.722   5.157
 7696SOL    HW223988   6.871   0.870   5.094
 7697SOL     OW23989   2.774   6.445   2.062
 7697SOL    HW123990   2.704   6.504   2.102
 7697SOL    HW223991   2.730   6.372   2.009
 7698SOL     OW23992   6.580   1.351   3.705
 7698SOL    HW123993   6.628   1.439   3.692
 7698SOL    HW223994   6.484   1.362   3.679
 7699SOL     OW23995   3.605   5.957   6.703
 7699SOL    HW123996   3.684   5.943   6.763
 7699SOL    HW223997   3.635   5.964   6.608
 7700SOL     OW23998   5.045   5.953   3.953
 7700SOL    HW123999   5.050   5.856   3.928
 7700SOL    HW224000   5.118   5.975   4.017
 7701SOL     OW24001   6.902   2.020   6.891
 7701SOL    HW124002   6.986   2.003   6.840
 7701SOL    HW224003   6.827   1.967   6.851
 7702SOL     OW24004   3.278   6.953   5.248
 7702SOL    HW124005   3.252   6.907   5.333
 7702SOL    HW224006   3.197   6.967   5.191
 7703SOL     OW24007   6.392   6.913   6.373
 7703SOL    HW124008   6.437   6.976   6.437
 7703SOL    HW224009   6.408   6.819   6.403
 7704SOL     OW24010   5.925   5.698   4.639
 7704SOL    HW124011   5.879   5.645   4.568
 7704SOL    HW224012   6.008   5.650   4.667
 7705SOL     OW24013   3.621   5.602   6.939
 7705SOL    HW124014   3.655   5.517   6.899
 7705SOL    HW224015   3.565   5.650   6.871
 7706SOL     OW24016   4.724   3.170   5.258
 7706SOL    HW124017   4.756   3.135   5.346
 7706SOL    HW224018   4.624   3.177   5.259
 7707SOL     OW24019   6.850   5.098   5.650
 7707SOL    HW124020   6.913   5.028   5.683
 7707SOL    HW224021   6.768   5.100   5.708
 7708SOL     OW24022   0.369   0.110   5.788
 7708SOL    HW124023   0.392   0.018   5.755
 7708SOL    HW224024   0.312   0.102   5.869
 7709SOL     OW24025   5.885   5.203   2.222
 7709SOL    HW124026   5.830   5.246   2.149
 7709SOL    HW224027   5.908   5.110   2.196
 7710SOL     OW24028   2.843   0.771   0.252
 7710SOL    HW124029   2.789   0.791   0.334
 7710SOL    HW224030   2.849   0.852   0.195
 7711SOL     OW24031   6.384   6.779   6.003
 7711SOL    HW124032   6.391   6.690   5.956
 7711SOL    HW224033   6.475   6.812   6.025
 7712SOL     OW24034   5.997   5.323   2.434
 7712SOL    HW124035   6.079   5.271   2.458
 7712SOL    HW224036   5.945   5.273   2.364
 7713SOL     OW24037   1.671   3.999   0.705
 7713SOL    HW124038   1.578   3.969   0.685
 7713SOL    HW224039   1.670   4.065   0.779
 7714SOL     OW24040   5.882   4.285   5.644
 7714SOL    HW124041   5.886   4.378   5.680
 7714SOL    HW224042   5.889   4.220   5.719
 7715SOL     OW24043   3.851   2.439   0.089
 7715SOL    HW124044   3.770   2.388   0.059
 7715SOL    HW224045   3.912   2.453   0.011
 7716SOL     OW24046   6.043   4.384   2.971
 7716SOL    HW124047   6.055   4.311   3.038
 7716SOL    HW224048   6.021   4.344   2.882
 7717SOL     OW24049   1.912   0.886   4.929
 7717SOL    HW124050   1.885   0.793   4.956
 7717SOL    HW224051   1.884   0.950   5.000
 7718SOL     OW24052   1.289   2.969   3.333
 7718SOL    HW124053   1.315   2.998   3.425
 7718SOL    HW224054   1.191   2.945   3.332
 7719SOL     OW24055   6.760   4.610   5.116
 7719SOL    HW124056   6.801   4.669   5.047
 7719SOL    HW224057   6.665   4.639   5.132
 7720SOL     OW24058   6.943   1.817   0.525
 7720SOL    HW124059   6.937   1.784   0.619
 7720SOL    HW224060   0.009   1.863   0.512
 7721SOL     OW24061   0.373   5.750   2.608
 7721SOL    HW124062   0.387   5.767   2.705
 7721SOL    HW224063   0.311   5.672   2.597
 7722SOL     OW24064   1.421   4.647   3.443
 7722SOL    HW124065   1.402   4.660   3.541
 7722SOL    HW224066   1.406   4.733   3.395
 7723SOL     OW24067   4.708   3.331   6.940
 7723SOL    HW124068   4.652   3.353   6.859
 7723SOL    HW224069   4.648   3.299   7.014
 7724SOL     OW24070   3.070   3.665   0.698
 7724SOL    HW124071   3.147   3.617   0.656
 7724SOL    HW224072   3.090   3.683   0.795
 7725SOL     OW24073   6.736   1.101   3.085
 7725SOL    HW124074   6.797   1.024   3.103
 7725SOL    HW224075   6.694   1.131   3.171
 7726SOL     OW24076   1.626   5.647   5.585
 7726SOL    HW124077   1.601   5.552   5.601
 7726SOL    HW224078   1.600   5.673   5.491
 7727SOL     OW24079   0.485   0.730   2.876
 7727SOL    HW124080   0.431   0.814   2.883
 7727SOL    HW224081   0.553   0.729   2.949
 7728SOL     OW24082   1.214   4.637   3.863
 7728SOL    HW124083   1.166   4.683   3.788
 7728SOL    HW224084   1.177   4.670   3.950
 7729SOL     OW24085   5.565   3.271   0.392
 7729SOL    HW124086   5.588   3.176   0.371
 7729SOL    HW224087   5.472   3.276   0.428
 7730SOL     OW24088   5.968   6.034   0.365
 7730SOL    HW124089   5.940   5.960   0.304
 7730SOL    HW224090   6.034   6.092   0.318
 7731SOL     OW24091   6.763   1.275   0.556
 7731SOL    HW124092   6.804   1.186   0.535
 7731SOL    HW224093   6.817   1.322   0.626
 7732SOL     OW24094   4.644   6.637   0.522
 7732SOL    HW124095   4.565   6.686   0.487
 7732SOL    HW224096   4.614   6.558   0.577
 7733SOL     OW24097   4.899   6.262   2.958
 7733SOL    HW124098   4.874   6.220   3.045
 7733SOL    HW224099   4.818   6.267   2.899
 7734SOL     OW24100   2.360   4.709   3.027
 7734SOL    HW124101   2.378   4.804   3.003
 7734SOL    HW224102   2.431   4.676   3.089
 7735SOL     OW24103   4.733   0.036   6.721
 7735SOL    HW124104   4.682   0.013   6.804
 7735SOL    HW224105   4.706   6.996   6.648
 7736SOL     OW24106   3.640   3.475   6.329
 7736SOL    HW124107   3.639   3.380   6.359
 7736SOL    HW224108   3.598   3.482   6.239
 7737SOL     OW24109   3.135   6.718   2.768
 7737SOL    HW124110   3.182   6.705   2.681
 7737SOL    HW224111   3.100   6.631   2.801
 7738SOL     OW24112   3.185   5.871   6.836
 7738SOL    HW124113   3.167   5.877   6.935
 7738SOL    HW224114   3.239   5.950   6.808
 7739SOL     OW24115   0.438   2.741   1.557
 7739SOL    HW124116   0.413   2.654   1.600
 7739SOL    HW224117   0.356   2.787   1.524
 7740SOL     OW24118   2.025   1.488   2.354
 7740SOL    HW124119   1.970   1.571   2.361
 7740SOL    HW224120   2.053   1.475   2.259
 7741SOL     OW24121   0.684   4.812   5.751
 7741SOL    HW124122   0.592   4.797   5.788
 7741SOL    HW224123   0.678   4.874   5.673
 7742SOL     OW24124   4.201   2.298   3.695
 7742SOL    HW124125   4.241   2.234   3.630
 7742SOL    HW224126   4.132   2.354   3.649
 7743SOL     OW24127   5.634   1.379   6.446
 7743SOL    HW124128   5.611   1.287   6.416
 7743SOL    HW224129   5.729   1.382   6.477
 7744SOL     OW24130   0.831   6.238   3.998
 7744SOL    HW124131   0.743   6.283   4.013
 7744SOL    HW224132   0.867   6.263   3.908
 7745SOL     OW24133   3.519   1.146   6.839
 7745SOL    HW124134   3.436   1.112   6.794
 7745SOL    HW224135   3.599   1.113   6.789
 7746SOL     OW24136   1.392   0.109   0.361
 7746SOL    HW124137   1.459   0.138   0.293
 7746SOL    HW224138   1.424   0.025   0.406
 7747SOL     OW24139   5.199   5.436   0.919
 7747SOL    HW124140   5.224   5.408   0.826
 7747SOL    HW224141   5.282   5.455   0.972
 7748SOL     OW24142   3.340   4.137   4.713
 7748SOL    HW124143   3.336   4.192   4.796
 7748SOL    HW224144   3.250   4.098   4.695
 7749SOL     OW24145   2.897   3.176   6.189
 7749SOL    HW124146   2.984   3.168   6.141
 7749SOL    HW224147   2.833   3.228   6.134
 7750SOL     OW24148   0.199   6.125   1.537
 7750SOL    HW124149   0.290   6.135   1.498
 7750SOL    HW224150   0.164   6.033   1.518
 7751SOL     OW24151   1.676   2.645   2.243
 7751SOL    HW124152   1.606   2.705   2.281
 7751SOL    HW224153   1.646   2.550   2.248
 7752SOL     OW24154   5.720   6.430   5.721
 7752SOL    HW124155   5.811   6.390   5.734
 7752SOL    HW224156   5.727   6.529   5.722
 7753SOL     OW24157   2.698   0.614   3.876
 7753SOL    HW124158   2.685   0.606   3.975
 7753SOL    HW224159   2.795   0.627   3.857
 7754SOL     OW24160   3.190   6.344   2.205
 7754SOL    HW124161   3.142   6.373   2.287
 7754SOL    HW224162   3.125   6.334   2.129
 7755SOL     OW24163   1.990   2.552   5.284
 7755SOL    HW124164   2.057   2.626   5.285
 7755SOL    HW224165   1.906   2.582   5.329
 7756SOL     OW24166   2.345   6.194   2.705
 7756SOL    HW124167   2.249   6.219   2.709
 7756SOL    HW224168   2.397   6.248   2.771
 7757SOL     OW24169   5.382   4.786   0.157
 7757SOL    HW124170   5.303   4.795   0.096
 7757SOL    HW224171   5.367   4.841   0.239
 7758SOL     OW24172   2.505   0.910   5.362
 7758SOL    HW124173   2.469   1.002   5.344
 7758SOL    HW224174   2.523   0.900   5.460
 7759SOL     OW24175   1.943   2.410   5.668
 7759SOL    HW124176   1.893   2.344   5.724
 7759SOL    HW224177   1.975   2.365   5.584
 7760SOL     OW24178   5.787   3.435   2.814
 7760SOL    HW124179   5.712   3.498   2.794
 7760SOL    HW224180   5.864   3.486   2.851
 7761SOL     OW24181   0.208   0.180   4.339
 7761SOL    HW124182   0.287   0.226   4.299
 7761SOL    HW224183   0.139   0.164   4.269
 7762SOL     OW24184   2.488   0.380   3.841
 7762SOL    HW124185   2.457   0.457   3.896
 7762SOL    HW224186   2.542   0.413   3.764
 7763SOL     OW24187   2.272   0.539   6.876
 7763SOL    HW124188   2.234   0.449   6.858
 7763SOL    HW224189   2.210   0.591   6.934
 7764SOL     OW24190   3.642   3.417   4.860
 7764SOL    HW124191   3.696   3.500   4.845
 7764SOL    HW224192   3.555   3.424   4.812
 7765SOL     OW24193   6.006   4.619   5.269
 7765SOL    HW124194   6.088   4.608   5.326
 7765SOL    HW224195   6.032   4.612   5.172
 7766SOL     OW24196   6.982   4.160   7.001
 7766SOL    HW124197   6.972   4.069   6.960
 7766SOL    HW224198   0.048   4.200   6.972
 7767SOL     OW24199   5.059   6.154   2.724
 7767SOL    HW124200   4.983   6.112   2.673
 7767SOL    HW224201   5.024   6.194   2.808
 7768SOL     OW24202   4.497   4.432   3.109
 7768SOL    HW124203   4.544   4.407   3.024
 7768SOL    HW224204   4.492   4.352   3.169
 7769SOL     OW24205   4.507   1.449   3.645
 7769SOL    HW124206   4.425   1.446   3.587
 7769SOL    HW224207   4.562   1.367   3.629
 7770SOL     OW24208   1.871   4.303   4.270
 7770SOL    HW124209   1.780   4.285   4.232
 7770SOL    HW224210   1.862   4.327   4.367
 7771SOL     OW24211   3.681   1.863   5.268
 7771SOL    HW124212   3.763   1.894   5.221
 7771SOL    HW224213   3.642   1.785   5.218
 7772SOL     OW24214   4.323   6.974   2.310
 7772SOL    HW124215   4.297   6.907   2.241
 7772SOL    HW224216   4.386   6.933   2.375
 7773SOL     OW24217   2.273   5.939   5.163
 7773SOL    HW124218   2.336   5.982   5.227
 7773SOL    HW224219   2.255   6.001   5.087
 7774SOL     OW24220   5.367   1.921   4.521
 7774SOL    HW124221   5.324   1.850   4.465
 7774SOL    HW224222   5.395   1.997   4.462
 7775SOL     OW24223   4.453   6.094   0.548
 7775SOL    HW124224   4.450   6.047   0.637
 7775SOL    HW224225   4.414   6.034   0.478
 7776SOL     OW24226   0.182   6.076   6.797
 7776SOL    HW124227   0.094   6.113   6.827
 7776SOL    HW224228   0.211   6.121   6.713
 7777SOL     OW24229   5.718   5.469   3.966
 7777SOL    HW124230   5.651   5.514   4.025
 7777SOL    HW224231   5.782   5.536   3.930
 7778SOL     OW24232   5.676   4.007   0.256
 7778SOL    HW124233   5.609   4.002   0.182
 7778SOL    HW224234   5.652   3.940   0.327
 7779SOL     OW24235   2.630   1.915   1.404
 7779SOL    HW124236   2.596   1.823   1.387
 7779SOL    HW224237   2.694   1.941   1.331
 7780SOL     OW24238   0.796   4.859   5.209
 7780SOL    HW124239   0.819   4.827   5.117
 7780SOL    HW224240   0.780   4.781   5.269
 7781SOL     OW24241   2.651   4.565   1.036
 7781SOL    HW124242   2.664   4.482   0.980
 7781SOL    HW224243   2.737   4.614   1.042
 7782SOL     OW24244   5.099   5.261   4.757
 7782SOL    HW124245   5.085   5.197   4.681
 7782SOL    HW224246   5.021   5.323   4.764
 7783SOL     OW24247   0.895   6.449   5.319
 7783SOL    HW124248   0.864   6.473   5.226
 7783SOL    HW224249   0.847   6.366   5.349
 7784SOL     OW24250   3.772   2.840   1.888
 7784SOL    HW124251   3.859   2.813   1.846
 7784SOL    HW224252   3.791   2.894   1.970
 7785SOL     OW24253   1.823   6.160   4.848
 7785SOL    HW124254   1.815   6.258   4.868
 7785SOL    HW224255   1.878   6.116   4.918
 7786SOL     OW24256   3.497   6.697   0.896
 7786SOL    HW124257   3.450   6.641   0.828
 7786SOL    HW224258   3.587   6.657   0.916
 7787SOL     OW24259   2.355   2.946   6.919
 7787SOL    HW124260   2.336   2.865   6.862
 7787SOL    HW224261   2.391   3.019   6.860
 7788SOL     OW24262   2.125   4.901   1.277
 7788SOL    HW124263   2.169   4.941   1.357
 7788SOL    HW224264   2.124   4.801   1.285
 7789SOL     OW24265   2.573   6.770   6.372
 7789SOL    HW124266   2.621   6.806   6.452
 7789SOL    HW224267   2.540   6.678   6.392
 7790SOL     OW24268   5.582   5.260   3.072
 7790SOL    HW124269   5.609   5.309   2.990
 7790SOL    HW224270   5.617   5.167   3.069
 7791SOL     OW24271   2.347   5.194   2.430
 7791SOL    HW124272   2.346   5.261   2.504
 7791SOL    HW224273   2.277   5.217   2.363
 7792SOL     OW24274   2.278   5.736   4.480
 7792SOL    HW124275   2.219   5.744   4.400
 7792SOL    HW224276   2.241   5.667   4.542
 7793SOL     OW24277   3.943   1.249   0.617
 7793SOL    HW124278   3.954   1.329   0.676
 7793SOL    HW224279   3.967   1.273   0.523
 7794SOL     OW24280   6.032   4.129   2.442
 7794SOL    HW124281   6.131   4.131   2.428
 7794SOL    HW224282   5.986   4.120   2.354
 7795SOL     OW24283   1.955   4.238   5.161
 7795SOL    HW124284   2.027   4.281   5.107
 7795SOL    HW224285   1.930   4.299   5.237
 7796SOL     OW24286   3.259   2.900   4.886
 7796SOL    HW124287   3.329   2.909   4.815
 7796SOL    HW224288   3.170   2.883   4.844
 7797SOL     OW24289   1.413   6.656   1.206
 7797SOL    HW124290   1.435   6.678   1.111
 7797SOL    HW224291   1.486   6.691   1.265
 7798SOL     OW24292   1.273   3.413   3.708
 7798SOL    HW124293   1.254   3.339   3.772
 7798SOL    HW224294   1.313   3.490   3.758
 7799SOL     OW24295   1.547   5.302   2.427
 7799SOL    HW124296   1.488   5.248   2.488
 7799SOL    HW224297   1.492   5.373   2.383
 7800SOL     OW24298   1.067   5.574   2.371
 7800SOL    HW124299   1.011   5.500   2.334
 7800SOL    HW224300   1.032   5.662   2.340
 7801SOL     OW24301   2.121   1.682   1.526
 7801SOL    HW124302   2.179   1.763   1.517
 7801SOL    HW224303   2.161   1.620   1.593
 7802SOL     OW24304   6.082   2.686   1.531
 7802SOL    HW124305   5.991   2.646   1.539
 7802SOL    HW224306   6.150   2.621   1.565
 7803SOL     OW24307   4.297   2.421   6.127
 7803SOL    HW124308   4.287   2.423   6.028
 7803SOL    HW224309   4.257   2.336   6.163
 7804SOL     OW24310   4.555   2.260   4.958
 7804SOL    HW124311   4.569   2.304   4.870
 7804SOL    HW224312   4.624   2.189   4.971
 7805SOL     OW24313   5.346   3.153   1.377
 7805SOL    HW124314   5.377   3.078   1.319
 7805SOL    HW224315   5.283   3.118   1.446
 7806SOL     OW24316   5.989   1.751   6.275
 7806SOL    HW124317   5.986   1.689   6.196
 7806SOL    HW224318   5.960   1.702   6.357
 7807SOL     OW24319   1.266   4.115   6.183
 7807SOL    HW124320   1.178   4.140   6.141
 7807SOL    HW224321   1.297   4.028   6.146
 7808SOL     OW24322   6.007   3.102   4.288
 7808SOL    HW124323   5.983   3.068   4.379
 7808SOL    HW224324   6.059   3.187   4.296
 7809SOL     OW24325   4.180   5.093   4.747
 7809SOL    HW124326   4.185   5.160   4.673
 7809SOL    HW224327   4.128   5.132   4.823
 7810SOL     OW24328   3.805   0.027   5.002
 7810SOL    HW124329   3.877   0.004   4.936
 7810SOL    HW224330   3.730   6.983   4.994
 7811SOL     OW24331   1.210   5.146   1.660
 7811SOL    HW124332   1.153   5.157   1.741
 7811SOL    HW224333   1.161   5.181   1.580
 7812SOL     OW24334   0.656   2.695   4.137
 7812SOL    HW124335   0.682   2.657   4.049
 7812SOL    HW224336   0.689   2.635   4.210
 7813SOL     OW24337   4.106   2.202   0.540
 7813SOL    HW124338   4.053   2.118   0.554
 7813SOL    HW224339   4.138   2.236   0.628
 7814SOL     OW24340   0.010   3.305   3.047
 7814SOL    HW124341   0.055   3.394   3.052
 7814SOL    HW224342   6.982   3.288   3.132
 7815SOL     OW24343   6.000   1.733   4.321
 7815SOL    HW124344   6.062   1.695   4.251
 7815SOL    HW224345   6.054   1.781   4.390
 7816SOL     OW24346   1.755   2.225   6.240
 7816SOL    HW124347   1.788   2.139   6.203
 7816SOL    HW224348   1.781   2.232   6.337
 7817SOL     OW24349   4.813   4.114   4.346
 7817SOL    HW124350   4.756   4.180   4.396
 7817SOL    HW224351   4.849   4.047   4.410
 7818SOL     OW24352   5.169   0.061   2.455
 7818SOL    HW124353   5.080   0.088   2.419
 7818SOL    HW224354   5.238   0.071   2.383
 7819SOL     OW24355   0.044   4.147   3.884
 7819SOL    HW124356   0.022   4.071   3.945
 7819SOL    HW224357   0.143   4.154   3.873
 7820SOL     OW24358   1.487   1.263   5.354
 7820SOL    HW124359   1.544   1.324   5.409
 7820SOL    HW224360   1.542   1.185   5.323
 7821SOL     OW24361   5.582   5.760   6.933
 7821SOL    HW124362   5.636   5.725   6.857
 7821SOL    HW224363   5.512   5.694   6.958
 7822SOL     OW24364   0.790   1.171   0.170
 7822SOL    HW124365   0.705   1.194   0.217
 7822SOL    HW224366   0.801   1.071   0.167
 7823SOL     OW24367   2.982   3.494   5.922
 7823SOL    HW124368   2.892   3.500   5.878
 7823SOL    HW224369   3.049   3.543   5.866
 7824SOL     OW24370   5.484   0.966   3.990
 7824SOL    HW124371   5.457   0.886   3.937
 7824SOL    HW224372   5.583   0.968   4.001
 7825SOL     OW24373   1.118   3.167   0.916
 7825SOL    HW124374   1.048   3.231   0.884
 7825SOL    HW224375   1.204   3.185   0.868
 7826SOL     OW24376   6.310   1.807   6.539
 7826SOL    HW124377   6.252   1.873   6.587
 7826SOL    HW224378   6.325   1.728   6.597
 7827SOL     OW24379   2.874   4.514   0.761
 7827SOL    HW124380   2.840   4.597   0.716
 7827SOL    HW224381   2.796   4.454   0.781
 7828SOL     OW24382   0.900   5.187   0.374
 7828SOL    HW124383   0.992   5.189   0.412
 7828SOL    HW224384   0.898   5.241   0.290
 7829SOL     OW24385   2.145   3.087   6.989
 7829SOL    HW124386   2.187   3.155   0.027
 7829SOL    HW224387   2.215   3.024   6.956
 7830SOL     OW24388   4.098   3.738   5.776
 7830SOL    HW124389   4.078   3.748   5.679
 7830SOL    HW224390   4.052   3.658   5.813
 7831SOL     OW24391   1.821   5.371   0.942
 7831SOL    HW124392   1.737   5.391   0.992
 7831SOL    HW224393   1.812   5.401   0.847
 7832SOL     OW24394   3.903   1.290   4.249
 7832SOL    HW124395   3.902   1.241   4.162
 7832SOL    HW224396   3.995   1.290   4.286
 7833SOL     OW24397   0.262   1.330   6.818
 7833SOL    HW124398   0.286   1.390   6.742
 7833SOL    HW224399   0.195   1.262   6.787
 7834SOL     OW24400   0.361   0.999   3.994
 7834SOL    HW124401   0.336   0.903   4.002
 7834SOL    HW224402   0.278   1.053   3.975
 7835SOL     OW24403   2.319   2.272   5.169
 7835SOL    HW124404   2.374   2.333   5.227
 7835SOL    HW224405   2.257   2.327   5.113
 7836SOL     OW24406   3.133   2.794   5.387
 7836SOL    HW124407   3.164   2.822   5.296
 7836SOL    HW224408   3.147   2.869   5.452
 7837SOL     OW24409   6.927   5.770   1.218
 7837SOL    HW124410   6.971   5.859   1.199
 7837SOL    HW224411   6.959   5.736   1.306
 7838SOL     OW24412   4.309   6.203   0.276
 7838SOL    HW124413   4.232   6.193   0.213
 7838SOL    HW224414   4.332   6.113   0.315
 7839SOL     OW24415   6.039   4.589   5.005
 7839SOL    HW124416   6.049   4.507   4.948
 7839SOL    HW224417   6.108   4.656   4.979
 7840SOL     OW24418   5.029   2.931   4.748
 7840SOL    HW124419   5.108   2.990   4.765
 7840SOL    HW224420   4.945   2.983   4.760
 7841SOL     OW24421   4.596   1.486   6.537
 7841SOL    HW124422   4.675   1.448   6.585
 7841SOL    HW224423   4.602   1.464   6.440
 7842SOL     OW24424   1.756   1.616   2.721
 7842SOL    HW124425   1.704   1.696   2.691
 7842SOL    HW224426   1.769   1.554   2.644
 7843SOL     OW24427   5.022   4.698   1.904
 7843SOL    HW124428   4.924   4.682   1.909
 7843SOL    HW224429   5.071   4.614   1.928
 7844SOL     OW24430   4.525   6.583   3.488
 7844SOL    HW124431   4.496   6.665   3.438
 7844SOL    HW224432   4.460   6.563   3.561
 7845SOL     OW24433   5.851   1.494   4.382
 7845SOL    HW124434   5.755   1.516   4.402
 7845SOL    HW224435   5.898   1.575   4.349
 7846SOL     OW24436   1.144   1.294   2.280
 7846SOL    HW124437   1.095   1.235   2.216
 7846SOL    HW224438   1.089   1.308   2.362
 7847SOL     OW24439   6.592   1.612   2.387
 7847SOL    HW124440   6.561   1.688   2.444
 7847SOL    HW224441   6.686   1.627   2.359
 7848SOL     OW24442   2.844   2.741   0.674
 7848SOL    HW124443   2.786   2.776   0.748
 7848SOL    HW224444   2.850   2.641   0.681
 7849SOL     OW24445   4.929   3.767   3.123
 7849SOL    HW124446   4.912   3.669   3.124
 7849SOL    HW224447   5.008   3.788   3.180
 7850SOL     OW24448   1.077   1.907   4.222
 7850SOL    HW124449   1.036   1.973   4.160
 7850SOL    HW224450   1.167   1.941   4.252
 7851SOL     OW24451   6.370   0.526   1.147
 7851SOL    HW124452   6.352   0.564   1.238
 7851SOL    HW224453   6.469   0.530   1.129
 7852SOL     OW24454   3.113   1.000   5.893
 7852SOL    HW124455   3.118   0.902   5.873
 7852SOL    HW224456   3.148   1.052   5.815
 7853SOL     OW24457   4.421   1.285   1.847
 7853SOL    HW124458   4.334   1.322   1.881
 7853SOL    HW224459   4.446   1.332   1.762
 7854SOL     OW24460   2.873   3.198   0.064
 7854SOL    HW124461   2.836   3.108   0.089
 7854SOL    HW224462   2.962   3.210   0.107
 7855SOL     OW24463   3.304   5.646   5.707
 7855SOL    HW124464   3.278   5.734   5.668
 7855SOL    HW224465   3.378   5.606   5.654
 7856SOL     OW24466   5.507   5.302   5.173
 7856SOL    HW124467   5.580   5.255   5.124
 7856SOL    HW224468   5.546   5.350   5.252
 7857SOL     OW24469   6.243   2.959   5.590
 7857SOL    HW124470   6.193   3.046   5.584
 7857SOL    HW224471   6.336   2.972   5.556
 7858SOL     OW24472   5.188   5.007   3.562
 7858SOL    HW124473   5.133   4.954   3.627
 7858SOL    HW224474   5.172   5.104   3.576
 7859SOL     OW24475   6.011   3.130   5.963
 7859SOL    HW124476   6.088   3.142   6.026
 7859SOL    HW224477   6.025   3.048   5.908
 7860SOL     OW24478   4.327   0.236   2.964
 7860SOL    HW124479   4.404   0.286   2.925
 7860SOL    HW224480   4.355   0.142   2.985
 7861SOL     OW24481   4.172   5.251   1.768
 7861SOL    HW124482   4.227   5.332   1.751
 7861SOL    HW224483   4.090   5.276   1.819
 7862SOL     OW24484   3.005   4.300   1.683
 7862SOL    HW124485   2.945   4.222   1.662
 7862SOL    HW224486   2.956   4.364   1.742
 7863SOL     OW24487   7.017   5.971   3.619
 7863SOL    HW124488   6.966   5.963   3.533
 7863SOL    HW224489   6.995   5.894   3.678
 7864SOL     OW24490   0.214   6.606   5.513
 7864SOL    HW124491   0.289   6.546   5.486
 7864SOL    HW224492   0.182   6.657   5.433
 7865SOL     OW24493   5.555   0.082   4.374
 7865SOL    HW124494   5.571   0.030   4.290
 7865SOL    HW224495   5.588   0.176   4.361
 7866SOL     OW24496   2.049   2.319   6.671
 7866SOL    HW124497   2.072   2.410   6.634
 7866SOL    HW224498   1.963   2.324   6.721
 7867SOL     OW24499   5.430   6.927   2.626
 7867SOL    HW124500   5.337   6.907   2.657
 7867SOL    HW224501   5.496   6.878   2.683
 7868SOL     OW24502   5.897   6.629   2.280
 7868SOL    HW124503   5.815   6.573   2.292
 7868SOL    HW224504   5.912   6.683   2.363
 7869SOL     OW24505   5.696   3.184   6.717
 7869SOL    HW124506   5.605   3.152   6.739
 7869SOL    HW224507   5.693   3.241   6.635
 7870SOL     OW24508   4.600   5.267   4.072
 7870SOL    HW124509   4.670   5.204   4.106
 7870SOL    HW224510   4.595   5.347   4.132
 7871SOL     OW24511   5.214   3.237   2.913
 7871SOL    HW124512   5.241   3.141   2.909
 7871SOL    HW224513   5.265   3.283   2.986
 7872SOL     OW24514   2.360   4.271   2.611
 7872SOL    HW124515   2.442   4.327   2.608
 7872SOL    HW224516   2.351   4.230   2.702
 7873SOL     OW24517   5.812   0.780   5.580
 7873SOL    HW124518   5.779   0.857   5.525
 7873SOL    HW224519   5.847   0.815   5.668
 7874SOL     OW24520   4.809   1.738   1.083
 7874SOL    HW124521   4.852   1.678   1.015
 7874SOL    HW224522   4.879   1.779   1.140
 7875SOL     OW24523   4.769   2.570   6.458
 7875SOL    HW124524   4.746   2.666   6.437
 7875SOL    HW224525   4.838   2.538   6.393
 7876SOL     OW24526   0.129   0.082   5.518
 7876SOL    HW124527   0.071   0.063   5.598
 7876SOL    HW224528   0.212   0.128   5.547
 7877SOL     OW24529   0.154   2.854   2.923
 7877SOL    HW124530   0.069   2.853   2.870
 7877SOL    HW224531   0.218   2.787   2.885
 7878SOL     OW24532   4.733   4.843   4.040
 7878SOL    HW124533   4.810   4.780   4.047
 7878SOL    HW224534   4.670   4.827   4.116
 7879SOL     OW24535   4.269   5.522   3.431
 7879SOL    HW124536   4.365   5.547   3.416
 7879SOL    HW224537   4.236   5.469   3.353
 7880SOL     OW24538   2.400   5.269   1.495
 7880SOL    HW124539   2.396   5.175   1.462
 7880SOL    HW224540   2.421   5.330   1.418
 7881SOL     OW24541   5.993   4.387   4.755
 7881SOL    HW124542   5.898   4.384   4.725
 7881SOL    HW224543   6.049   4.329   4.696
 7882SOL     OW24544   1.232   3.378   2.741
 7882SOL    HW124545   1.237   3.366   2.840
 7882SOL    HW224546   1.238   3.476   2.719
 7883SOL     OW24547   1.454   6.933   0.883
 7883SOL    HW124548   1.363   6.944   0.922
 7883SOL    HW224549   1.504   6.863   0.934
 7884SOL     OW24550   1.905   3.947   4.044
 7884SOL    HW124551   1.968   3.871   4.033
 7884SOL    HW224552   1.888   3.963   4.141
 7885SOL     OW24553   6.033   6.199   1.470
 7885SOL    HW124554   6.089   6.167   1.394
 7885SOL    HW224555   6.008   6.122   1.528
 7886SOL     OW24556   3.763   5.784   1.143
 7886SOL    HW124557   3.769   5.752   1.048
 7886SOL    HW224558   3.678   5.750   1.184
 7887SOL     OW24559   3.258   2.345   5.433
 7887SOL    HW124560   3.191   2.396   5.487
 7887SOL    HW224561   3.230   2.343   5.337
 7888SOL     OW24562   6.985   0.333   4.960
 7888SOL    HW124563   6.989   0.391   4.879
 7888SOL    HW224564   6.933   0.378   5.032
 7889SOL     OW24565   0.887   4.718   6.969
 7889SOL    HW124566   0.871   4.794   6.906
 7889SOL    HW224567   0.952   4.745   0.017
 7890SOL     OW24568   0.476   2.738   3.112
 7890SOL    HW124569   0.442   2.756   3.205
 7890SOL    HW224570   0.548   2.669   3.116
 7891SOL     OW24571   2.047   4.139   4.743
 7891SOL    HW124572   2.094   4.052   4.755
 7891SOL    HW224573   2.111   4.214   4.760
 7892SOL     OW24574   1.954   1.899   4.432
 7892SOL    HW124575   2.004   1.962   4.372
 7892SOL    HW224576   1.901   1.835   4.376
 7893SOL     OW24577   5.990   6.462   1.898
 7893SOL    HW124578   6.081   6.438   1.932
 7893SOL    HW224579   5.927   6.386   1.915
 7894SOL     OW24580   3.050   0.442   0.970
 7894SOL    HW124581   3.056   0.469   1.066
 7894SOL    HW224582   3.081   0.517   0.912
 7895SOL     OW24583   5.033   0.700   4.975
 7895SOL    HW124584   5.048   0.660   5.065
 7895SOL    HW224585   5.089   0.782   4.964
 7896SOL     OW24586   4.276   2.852   0.908
 7896SOL    HW124587   4.270   2.753   0.916
 7896SOL    HW224588   4.277   2.878   0.812
 7897SOL     OW24589   3.260   2.600   1.169
 7897SOL    HW124590   3.328   2.672   1.155
 7897SOL    HW224591   3.176   2.642   1.204
 7898SOL     OW24592   3.911   0.081   3.738
 7898SOL    HW124593   3.898   0.141   3.659
 7898SOL    HW224594   3.915   0.136   3.821
 7899SOL     OW24595   5.683   0.304   1.203
 7899SOL    HW124596   5.712   0.378   1.143
 7899SOL    HW224597   5.595   0.326   1.244
 7900SOL     OW24598   0.912   5.392   1.469
 7900SOL    HW124599   0.831   5.406   1.412
 7900SOL    HW224600   0.885   5.389   1.565
 7901SOL     OW24601   3.850   1.029   6.502
 7901SOL    HW124602   3.939   1.061   6.533
 7901SOL    HW224603   3.822   1.081   6.421
 7902SOL     OW24604   6.238   6.410   1.997
 7902SOL    HW124605   6.195   6.361   2.073
 7902SOL    HW224606   6.327   6.369   1.977
 7903SOL     OW24607   4.629   1.711   3.307
 7903SOL    HW124608   4.562   1.740   3.375
 7903SOL    HW224609   4.635   1.611   3.306
 7904SOL     OW24610   5.820   6.184   2.539
 7904SOL    HW124611   5.736   6.208   2.489
 7904SOL    HW224612   5.896   6.175   2.475
 7905SOL     OW24613   5.751   2.155   0.660
 7905SOL    HW124614   5.770   2.109   0.574
 7905SOL    HW224615   5.836   2.164   0.713
 7906SOL     OW24616   0.991   4.875   0.703
 7906SOL    HW124617   1.026   4.817   0.777
 7906SOL    HW224618   1.049   4.956   0.694
 7907SOL     OW24619   5.703   2.024   3.749
 7907SOL    HW124620   5.723   1.966   3.828
 7907SOL    HW224621   5.663   1.968   3.676
 7908SOL     OW24622   1.816   0.785   5.868
 7908SOL    HW124623   1.798   0.883   5.879
 7908SOL    HW224624   1.730   0.735   5.876
 7909SOL     OW24625   5.066   4.376   4.266
 7909SOL    HW124626   5.095   4.290   4.308
 7909SOL    HW224627   4.970   4.368   4.239
 7910SOL     OW24628   2.521   3.253   0.306
 7910SOL    HW124629   2.425   3.231   0.294
 7910SOL    HW224630   2.535   3.297   0.395
 7911SOL     OW24631   0.622   4.157   0.316
 7911SOL    HW124632   0.653   4.239   0.267
 7911SOL    HW224633   0.632   4.171   0.414
 7912SOL     OW24634   6.465   4.750   0.901
 7912SOL    HW124635   6.384   4.755   0.842
 7912SOL    HW224636   6.437   4.718   0.992
 7913SOL     OW24637   1.034   4.446   1.615
 7913SOL    HW124638   1.090   4.495   1.682
 7913SOL    HW224639   1.065   4.351   1.609
 7914SOL     OW24640   0.453   4.868   0.539
 7914SOL    HW124641   0.401   4.943   0.581
 7914SOL    HW224642   0.541   4.859   0.584
 7915SOL     OW24643   4.761   2.257   1.673
 7915SOL    HW124644   4.758   2.202   1.756
 7915SOL    HW224645   4.695   2.222   1.606
 7916SOL     OW24646   0.193   6.310   5.655
 7916SOL    HW124647   0.178   6.308   5.556
 7916SOL    HW224648   0.288   6.336   5.674
 7917SOL     OW24649   3.236   2.880   5.169
 7917SOL    HW124650   3.335   2.865   5.178
 7917SOL    HW224651   3.209   2.867   5.074
 7918SOL     OW24652   0.208   1.160   4.705
 7918SOL    HW124653   0.220   1.064   4.681
 7918SOL    HW224654   0.283   1.214   4.667
 7919SOL     OW24655   1.022   4.224   2.971
 7919SOL    HW124656   1.075   4.140   2.961
 7919SOL    HW224657   0.930   4.210   2.934
 7920SOL     OW24658   6.873   0.355   0.208
 7920SOL    HW124659   6.791   0.314   0.248
 7920SOL    HW224660   6.945   0.286   0.202
 7921SOL     OW24661   5.586   6.060   1.698
 7921SOL    HW124662   5.525   6.006   1.641
 7921SOL    HW224663   5.545   6.073   1.789
 7922SOL     OW24664   6.872   6.491   0.943
 7922SOL    HW124665   6.789   6.508   0.890
 7922SOL    HW224666   6.951   6.526   0.893
 7923SOL     OW24667   4.189   0.755   6.478
 7923SOL    HW124668   4.092   0.747   6.452
 7923SOL    HW224669   4.236   0.810   6.409
 7924SOL     OW24670   5.690   0.171   2.575
 7924SOL    HW124671   5.653   0.245   2.519
 7924SOL    HW224672   5.788   0.163   2.560
 7925SOL     OW24673   0.720   0.381   0.223
 7925SOL    HW124674   0.710   0.481   0.227
 7925SOL    HW224675   0.739   0.353   0.129
 7926SOL     OW24676   4.228   1.645   6.426
 7926SOL    HW124677   4.222   1.610   6.519
 7926SOL    HW224678   4.285   1.727   6.425
 7927SOL     OW24679   4.286   6.048   3.129
 7927SOL    HW124680   4.338   6.125   3.167
 7927SOL    HW224681   4.228   6.009   3.200
 7928SOL     OW24682   1.508   1.906   4.533
 7928SOL    HW124683   1.593   1.904   4.585
 7928SOL    HW224684   1.459   1.990   4.553
 7929SOL     OW24685   4.475   4.210   5.462
 7929SOL    HW124686   4.470   4.227   5.561
 7929SOL    HW224687   4.521   4.123   5.446
 7930SOL     OW24688   4.401   5.409   5.042
 7930SOL    HW124689   4.353   5.358   5.114
 7930SOL    HW224690   4.359   5.499   5.032
 7931SOL     OW24691   3.307   2.898   0.003
 7931SOL    HW124692   3.285   2.862   0.094
 7931SOL    HW224693   3.223   2.908   6.972
 7932SOL     OW24694   1.212   6.917   6.410
 7932SOL    HW124695   1.220   6.817   6.411
 7932SOL    HW224696   1.266   6.954   6.335
 7933SOL     OW24697   0.218   6.492   0.051
 7933SOL    HW124698   0.270   6.540   7.003
 7933SOL    HW224699   0.125   6.528   0.054
 7934SOL     OW24700   1.542   4.955   6.490
 7934SOL    HW124701   1.592   4.998   6.415
 7934SOL    HW224702   1.451   4.928   6.458
 7935SOL     OW24703   5.702   6.037   1.361
 7935SOL    HW124704   5.731   6.015   1.455
 7935SOL    HW224705   5.722   6.133   1.342
 7936SOL     OW24706   3.603   5.984   1.836
 7936SOL    HW124707   3.518   6.017   1.793
 7936SOL    HW224708   3.627   5.895   1.797
 7937SOL     OW24709   6.431   5.795   3.759
 7937SOL    HW124710   6.443   5.892   3.783
 7937SOL    HW224711   6.492   5.739   3.815
 7938SOL     OW24712   6.426   6.063   3.943
 7938SOL    HW124713   6.365   6.111   3.879
 7938SOL    HW224714   6.379   6.050   4.030
 7939SOL     OW24715   1.810   2.690   4.812
 7939SOL    HW124716   1.844   2.695   4.718
 7939SOL    HW224717   1.886   2.701   4.876
 7940SOL     OW24718   1.330   3.934   1.847
 7940SOL    HW124719   1.383   3.934   1.932
 7940SOL    HW224720   1.248   3.989   1.858
 7941SOL     OW24721   6.321   0.019   1.254
 7941SOL    HW124722   6.362   6.962   1.300
 7941SOL    HW224723   6.224   0.025   1.277
 7942SOL     OW24724   6.719   5.056   2.337
 7942SOL    HW124725   6.775   4.978   2.364
 7942SOL    HW224726   6.776   5.137   2.331
 7943SOL     OW24727   0.302   3.785   6.276
 7943SOL    HW124728   0.365   3.860   6.299
 7943SOL    HW224729   0.335   3.701   6.318
 7944SOL     OW24730   1.089   2.550   0.921
 7944SOL    HW124731   1.066   2.454   0.911
 7944SOL    HW224732   1.105   2.590   0.831
 7945SOL     OW24733   6.270   5.312   1.400
 7945SOL    HW124734   6.231   5.225   1.431
 7945SOL    HW224735   6.237   5.332   1.308
 7946SOL     OW24736   3.782   0.331   5.596
 7946SOL    HW124737   3.762   0.381   5.680
 7946SOL    HW224738   3.819   0.394   5.528
 7947SOL     OW24739   3.683   1.106   5.720
 7947SOL    HW124740   3.755   1.040   5.743
 7947SOL    HW224741   3.721   1.198   5.718
 7948SOL     OW24742   1.306   6.361   1.294
 7948SOL    HW124743   1.365   6.328   1.220
 7948SOL    HW224744   1.357   6.423   1.353
 7949SOL     OW24745   4.860   4.453   5.535
 7949SOL    HW124746   4.813   4.392   5.598
 7949SOL    HW224747   4.940   4.406   5.496
 7950SOL     OW24748   4.859   5.335   3.705
 7950SOL    HW124749   4.786   5.286   3.754
 7950SOL    HW224750   4.894   5.409   3.764
 7951SOL     OW24751   1.889   4.373   2.299
 7951SOL    HW124752   1.883   4.455   2.356
 7951SOL    HW224753   1.811   4.314   2.317
 7952SOL     OW24754   6.881   3.482   6.406
 7952SOL    HW124755   6.906   3.472   6.309
 7952SOL    HW224756   6.782   3.476   6.415
 7953SOL     OW24757   3.176   2.166   3.294
 7953SOL    HW124758   3.247   2.210   3.238
 7953SOL    HW224759   3.217   2.133   3.379
 7954SOL     OW24760   3.316   4.260   5.968
 7954SOL    HW124761   3.328   4.340   5.909
 7954SOL    HW224762   3.221   4.253   5.996
 7955SOL     OW24763   2.736   1.084   6.833
 7955SOL    HW124764   2.818   1.101   6.778
 7955SOL    HW224765   2.664   1.048   6.774
 7956SOL     OW24766   4.432   6.116   1.957
 7956SOL    HW124767   4.491   6.084   1.883
 7956SOL    HW224768   4.384   6.199   1.928
 7957SOL     OW24769   0.966   0.590   1.356
 7957SOL    HW124770   0.962   0.666   1.291
 7957SOL    HW224771   0.917   0.615   1.440
 7958SOL     OW24772   3.932   4.807   5.295
 7958SOL    HW124773   3.936   4.708   5.280
 7958SOL    HW224774   3.837   4.838   5.290
 7959SOL     OW24775   4.752   5.637   0.515
 7959SOL    HW124776   4.811   5.573   0.465
 7959SOL    HW224777   4.664   5.595   0.533
 7960SOL     OW24778   2.222   1.794   5.999
 7960SOL    HW124779   2.321   1.806   5.990
 7960SOL    HW224780   2.175   1.873   5.961
 7961SOL     OW24781   6.951   1.450   0.870
 7961SOL    HW124782   6.955   1.539   0.826
 7961SOL    HW224783   6.897   1.456   0.954
 7962SOL     OW24784   1.548   0.255   5.885
 7962SOL    HW124785   1.590   0.283   5.799
 7962SOL    HW224786   1.493   0.330   5.921
 7963SOL     OW24787   6.549   6.503   4.351
 7963SOL    HW124788   6.593   6.584   4.391
 7963SOL    HW224789   6.460   6.489   4.394
 7964SOL     OW24790   6.804   4.207   2.460
 7964SOL    HW124791   6.734   4.277   2.476
 7964SOL    HW224792   6.877   4.216   2.528
 7965SOL     OW24793   3.945   2.750   5.827
 7965SOL    HW124794   3.958   2.655   5.857
 7965SOL    HW224795   3.866   2.789   5.874
 7966SOL     OW24796   2.215   2.826   6.060
 7966SOL    HW124797   2.196   2.735   6.024
 7966SOL    HW224798   2.188   2.895   5.993
 7967SOL     OW24799   3.717   6.571   2.539
 7967SOL    HW124800   3.747   6.667   2.544
 7967SOL    HW224801   3.662   6.558   2.456
 7968SOL     OW24802   1.255   2.711   3.982
 7968SOL    HW124803   1.307   2.740   4.062
 7968SOL    HW224804   1.268   2.613   3.968
 7969SOL     OW24805   4.378   5.797   0.817
 7969SOL    HW124806   4.282   5.770   0.817
 7969SOL    HW224807   4.393   5.867   0.887
 7970SOL     OW24808   6.566   2.770   2.724
 7970SOL    HW124809   6.628   2.705   2.681
 7970SOL    HW224810   6.618   2.831   2.784
 7971SOL     OW24811   3.274   2.237   0.900
 7971SOL    HW124812   3.311   2.306   0.962
 7971SOL    HW224813   3.174   2.239   0.903
 7972SOL     OW24814   2.190   2.880   0.241
 7972SOL    HW124815   2.158   2.856   0.149
 7972SOL    HW224816   2.129   2.837   0.309
 7973SOL     OW24817   4.323   4.701   4.525
 7973SOL    HW124818   4.391   4.643   4.480
 7973SOL    HW224819   4.335   4.695   4.624
 7974SOL     OW24820   5.894   0.734   5.166
 7974SOL    HW124821   5.936   0.807   5.220
 7974SOL    HW224822   5.794   0.741   5.173
 7975SOL     OW24823   6.151   1.462   2.086
 7975SOL    HW124824   6.100   1.513   2.155
 7975SOL    HW224825   6.129   1.497   1.995
 7976SOL     OW24826   0.588   0.364   6.540
 7976SOL    HW124827   0.489   0.351   6.543
 7976SOL    HW224828   0.633   0.283   6.578
 7977SOL     OW24829   4.918   5.851   2.505
 7977SOL    HW124830   4.932   5.860   2.604
 7977SOL    HW224831   4.842   5.787   2.488
 7978SOL     OW24832   5.975   2.997   6.307
 7978SOL    HW124833   5.896   2.997   6.368
 7978SOL    HW224834   5.968   3.074   6.244
 7979SOL     OW24835   4.197   6.118   5.513
 7979SOL    HW124836   4.250   6.151   5.435
 7979SOL    HW224837   4.163   6.196   5.566
 7980SOL     OW24838   3.057   5.667   0.103
 7980SOL    HW124839   3.129   5.736   0.113
 7980SOL    HW224840   3.056   5.633   0.009
 7981SOL     OW24841   0.409   4.926   2.124
 7981SOL    HW124842   0.450   5.010   2.088
 7981SOL    HW224843   0.482   4.858   2.139
 7982SOL     OW24844   1.766   1.211   6.900
 7982SOL    HW124845   1.686   1.205   6.960
 7982SOL    HW224846   1.829   1.136   6.922
 7983SOL     OW24847   6.448   2.053   1.991
 7983SOL    HW124848   6.380   1.989   1.956
 7983SOL    HW224849   6.538   2.029   1.954
 7984SOL     OW24850   1.103   1.296   0.966
 7984SOL    HW124851   1.164   1.235   1.017
 7984SOL    HW224852   1.010   1.290   1.003
 7985SOL     OW24853   3.297   0.756   4.550
 7985SOL    HW124854   3.251   0.684   4.602
 7985SOL    HW224855   3.396   0.751   4.567
 7986SOL     OW24856   3.081   0.977   6.458
 7986SOL    HW124857   3.060   1.040   6.533
 7986SOL    HW224858   3.037   1.009   6.374
 7987SOL     OW24859   1.949   2.397   0.132
 7987SOL    HW124860   2.023   2.411   0.199
 7987SOL    HW224861   1.861   2.400   0.179
 7988SOL     OW24862   0.324   1.966   3.419
 7988SOL    HW124863   0.276   2.034   3.473
 7988SOL    HW224864   0.259   1.910   3.369
 7989SOL     OW24865   2.971   3.181   6.643
 7989SOL    HW124866   3.070   3.168   6.644
 7989SOL    HW224867   2.945   3.234   6.563
 7990SOL     OW24868   0.762   4.493   4.471
 7990SOL    HW124869   0.687   4.434   4.442
 7990SOL    HW224870   0.844   4.438   4.485
 7991SOL     OW24871   5.331   6.741   3.590
 7991SOL    HW124872   5.362   6.836   3.598
 7991SOL    HW224873   5.352   6.707   3.499
 7992SOL     OW24874   0.767   6.962   0.828
 7992SOL    HW124875   0.683   6.996   0.869
 7992SOL    HW224876   0.808   0.012   0.771
 7993SOL     OW24877   0.605   0.210   0.582
 7993SOL    HW124878   0.647   0.150   0.650
 7993SOL    HW224879   0.552   0.281   0.628
 7994SOL     OW24880   3.986   6.776   3.387
 7994SOL    HW124881   4.044   6.812   3.460
 7994SOL    HW224882   4.022   6.805   3.299
 7995SOL     OW24883   5.516   6.027   3.915
 7995SOL    HW124884   5.466   6.093   3.859
 7995SOL    HW224885   5.554   5.956   3.856
 7996SOL     OW24886   3.041   7.006   4.914
 7996SOL    HW124887   3.032   7.019   5.013
 7996SOL    HW224888   3.083   0.065   4.874
 7997SOL     OW24889   0.488   1.775   1.295
 7997SOL    HW124890   0.394   1.788   1.262
 7997SOL    HW224891   0.486   1.735   1.387
 7998SOL     OW24892   3.011   6.971   0.245
 7998SOL    HW124893   3.073   7.018   0.307
 7998SOL    HW224894   3.012   6.873   0.264
 7999SOL     OW24895   0.833   0.706   6.213
 7999SOL    HW124896   0.784   0.740   6.293
 7999SOL    HW224897   0.770   0.702   6.135
 8000SOL     OW24898   4.877   0.381   0.270
 8000SOL    HW124899   4.968   0.394   0.231
 8000SOL    HW224900   4.882   0.312   0.343
 8001SOL     OW24901   4.430   6.518   1.444
 8001SOL    HW124902   4.479   6.548   1.526
 8001SOL    HW224903   4.496   6.501   1.371
 8002SOL     OW24904   1.679   0.997   5.972
 8002SOL    HW124905   1.729   1.067   6.022
 8002SOL    HW224906   1.628   1.039   5.897
 8003SOL     OW24907   2.985   5.088   2.058
 8003SOL    HW124908   2.898   5.126   2.090
 8003SOL    HW224909   2.979   4.988   2.054
 8004SOL     OW24910   2.122   2.974   2.430
 8004SOL    HW124911   2.199   2.911   2.416
 8004SOL    HW224912   2.117   3.000   2.526
 8005SOL     OW24913   2.828   1.033   2.467
 8005SOL    HW124914   2.763   1.103   2.498
 8005SOL    HW224915   2.890   1.072   2.399
 8006SOL     OW24916   2.213   6.645   5.807
 8006SOL    HW124917   2.311   6.638   5.825
 8006SOL    HW224918   2.184   6.565   5.754
 8007SOL     OW24919   6.344   0.680   4.821
 8007SOL    HW124920   6.431   0.631   4.812
 8007SOL    HW224921   6.334   0.744   4.745
 8008SOL     OW24922   4.521   5.610   6.280
 8008SOL    HW124923   4.428   5.623   6.315
 8008SOL    HW224924   4.525   5.522   6.232
 8009SOL     OW24925   5.752   0.511   1.645
 8009SOL    HW124926   5.825   0.446   1.623
 8009SOL    HW224927   5.792   0.600   1.666
 8010SOL     OW24928   1.681   1.595   5.816
 8010SOL    HW124929   1.761   1.593   5.755
 8010SOL    HW224930   1.634   1.507   5.811
 8011SOL     OW24931   3.094   2.596   0.753
 8011SOL    HW124932   3.088   2.585   0.654
 8011SOL    HW224933   3.032   2.531   0.797
 8012SOL     OW24934   1.857   4.070   0.531
 8012SOL    HW124935   1.924   4.141   0.552
 8012SOL    HW224936   1.797   4.057   0.610
 8013SOL     OW24937   1.497   5.129   3.238
 8013SOL    HW124938   1.416   5.134   3.179
 8013SOL    HW224939   1.574   5.172   3.191
 8014SOL     OW24940   1.376   6.276   5.284
 8014SOL    HW124941   1.334   6.213   5.218
 8014SOL    HW224942   1.323   6.360   5.288
 8015SOL     OW24943   3.451   0.522   6.372
 8015SOL    HW124944   3.429   0.496   6.278
 8015SOL    HW224945   3.480   0.618   6.374
 8016SOL     OW24946   4.908   0.622   5.460
 8016SOL    HW124947   4.991   0.582   5.421
 8016SOL    HW224948   4.881   0.703   5.407
 8017SOL     OW24949   5.797   0.278   0.454
 8017SOL    HW124950   5.746   0.192   0.454
 8017SOL    HW224951   5.865   0.277   0.381
 8018SOL     OW24952   3.233   2.088   6.648
 8018SOL    HW124953   3.220   2.177   6.605
 8018SOL    HW224954   3.162   2.073   6.716
 8019SOL     OW24955   2.215   4.697   0.023
 8019SOL    HW124956   2.159   4.767   7.000
 8019SOL    HW224957   2.184   4.685   0.117
 8020SOL     OW24958   6.101   0.573   0.556
 8020SOL    HW124959   6.114   0.487   0.605
 8020SOL    HW224960   6.158   0.573   0.473
 8021SOL     OW24961   1.559   3.086   1.208
 8021SOL    HW124962   1.657   3.066   1.211
 8021SOL    HW224963   1.535   3.149   1.282
 8022SOL     OW24964   5.864   6.954   2.784
 8022SOL    HW124965   5.887   7.009   2.864
 8022SOL    HW224966   5.939   6.958   2.718
 8023SOL     OW24967   5.723   4.924   2.906
 8023SOL    HW124968   5.812   4.965   2.887
 8023SOL    HW224969   5.701   4.935   3.003
 8024SOL     OW24970   1.613   4.213   6.113
 8024SOL    HW124971   1.587   4.292   6.058
 8024SOL    HW224972   1.692   4.168   6.072
 8025SOL     OW24973   2.167   5.955   6.815
 8025SOL    HW124974   2.213   5.866   6.802
 8025SOL    HW224975   2.190   5.991   6.906
 8026SOL     OW24976   0.030   4.112   0.242
 8026SOL    HW124977   0.058   4.016   0.253
 8026SOL    HW224978   6.989   4.119   0.164
 8027SOL     OW24979   4.782   0.639   4.848
 8027SOL    HW124980   4.864   0.660   4.902
 8027SOL    HW224981   4.745   0.724   4.810
 8028SOL     OW24982   3.961   5.997   5.693
 8028SOL    HW124983   3.915   5.930   5.635
 8028SOL    HW224984   4.029   6.047   5.638
 8029SOL     OW24985   4.701   3.158   0.968
 8029SOL    HW124986   4.671   3.094   0.898
 8029SOL    HW224987   4.726   3.107   1.051
 8030SOL     OW24988   3.871   4.727   0.686
 8030SOL    HW124989   3.930   4.798   0.725
 8030SOL    HW224990   3.924   4.642   0.675
 8031SOL     OW24991   6.558   6.316   2.378
 8031SOL    HW124992   6.644   6.313   2.428
 8031SOL    HW224993   6.516   6.406   2.389
 8032SOL     OW24994   6.126   4.335   1.279
 8032SOL    HW124995   6.182   4.254   1.298
 8032SOL    HW224996   6.036   4.323   1.321
 8033SOL     OW24997   5.356   1.677   5.912
 8033SOL    HW124998   5.426   1.608   5.893
 8033SOL    HW224999   5.364   1.707   6.007
 8034SOL     OW25000   4.914   0.324   4.248
 8034SOL    HW125001   4.986   0.391   4.268
 8034SOL    HW225002   4.929   0.285   4.157
 8035SOL     OW25003   4.973   1.804   4.650
 8035SOL    HW125004   4.957   1.785   4.553
 8035SOL    HW225005   5.021   1.891   4.659
 8036SOL     OW25006   6.986   4.037   3.652
 8036SOL    HW125007   7.016   4.083   3.736
 8036SOL    HW225008   6.887   4.026   3.654
 8037SOL     OW25009   1.576   3.310   0.428
 8037SOL    HW125010   1.552   3.405   0.408
 8037SOL    HW225011   1.644   3.307   0.501
 8038SOL     OW25012   4.640   0.029   2.154
 8038SOL    HW125013   4.694   0.074   2.084
 8038SOL    HW225014   4.561   7.006   2.112
 8039SOL     OW25015   0.978   1.860   5.076
 8039SOL    HW125016   0.887   1.889   5.048
 8039SOL    HW225017   0.977   1.837   5.174
 8040SOL     OW25018   1.132   5.496   0.085
 8040SOL    HW125019   1.229   5.475   0.092
 8040SOL    HW225020   1.079   5.428   0.135
 8041SOL     OW25021   2.893   1.510   2.751
 8041SOL    HW125022   2.966   1.564   2.709
 8041SOL    HW225023   2.893   1.525   2.849
 8042SOL     OW25024   3.025   3.139   4.053
 8042SOL    HW125025   2.994   3.221   4.004
 8042SOL    HW225026   3.005   3.149   4.150
 8043SOL     OW25027   3.390   6.672   1.198
 8043SOL    HW125028   3.360   6.699   1.106
 8043SOL    HW225029   3.488   6.691   1.208
 8044SOL     OW25030   4.025   2.189   1.330
 8044SOL    HW125031   4.083   2.130   1.273
 8044SOL    HW225032   3.996   2.269   1.276
 8045SOL     OW25033   5.527   2.047   3.358
 8045SOL    HW125034   5.450   1.983   3.356
 8045SOL    HW225035   5.529   2.094   3.446
 8046SOL     OW25036   0.400   4.772   1.481
 8046SOL    HW125037   0.367   4.721   1.402
 8046SOL    HW225038   0.496   4.796   1.468
 8047SOL     OW25039   4.355   5.947   5.245
 8047SOL    HW125040   4.343   6.041   5.276
 8047SOL    HW225041   4.320   5.885   5.315
 8048SOL     OW25042   5.212   1.306   5.753
 8048SOL    HW125043   5.127   1.255   5.746
 8048SOL    HW225044   5.219   1.371   5.678
 8049SOL     OW25045   0.600   0.582   0.460
 8049SOL    HW125046   0.571   0.654   0.523
 8049SOL    HW225047   0.522   0.522   0.440
 8050SOL     OW25048   1.882   3.130   3.901
 8050SOL    HW125049   1.894   3.053   3.839
 8050SOL    HW225050   1.962   3.138   3.960
 8051SOL     OW25051   4.410   5.671   3.730
 8051SOL    HW125052   4.340   5.620   3.779
 8051SOL    HW225053   4.367   5.743   3.676
 8052SOL     OW25054   3.659   1.208   1.087
 8052SOL    HW125055   3.559   1.200   1.090
 8052SOL    HW225056   3.687   1.231   0.994
 8053SOL     OW25057   2.938   3.379   3.979
 8053SOL    HW125058   2.932   3.423   4.068
 8053SOL    HW225059   2.890   3.435   3.911
 8054SOL     OW25060   6.190   5.571   5.020
 8054SOL    HW125061   6.230   5.645   5.074
 8054SOL    HW225062   6.107   5.538   5.064
 8055SOL     OW25063   0.335   0.559   4.973
 8055SOL    HW125064   0.339   0.631   5.042
 8055SOL    HW225065   0.347   0.470   5.018
 8056SOL     OW25066   2.348   0.925   3.458
 8056SOL    HW125067   2.438   0.891   3.430
 8056SOL    HW225068   2.302   0.966   3.379
 8057SOL     OW25069   3.184   1.911   2.819
 8057SOL    HW125070   3.259   1.887   2.757
 8057SOL    HW225071   3.173   2.010   2.821
 8058SOL     OW25072   3.639   7.016   3.086
 8058SOL    HW125073   3.540   7.006   3.094
 8058SOL    HW225074   3.678   0.013   3.176
 8059SOL     OW25075   2.982   1.774   5.025
 8059SOL    HW125076   2.948   1.719   5.101
 8059SOL    HW225077   3.082   1.773   5.024
 8060SOL     OW25078   6.486   2.048   5.545
 8060SOL    HW125079   6.425   1.972   5.523
 8060SOL    HW225080   6.449   2.097   5.625
 8061SOL     OW25081   0.182   0.791   2.884
 8061SOL    HW125082   0.206   0.855   2.810
 8061SOL    HW225083   0.127   0.838   2.952
 8062SOL     OW25084   3.745   4.881   4.381
 8062SOL    HW125085   3.721   4.962   4.328
 8062SOL    HW225086   3.661   4.834   4.409
 8063SOL     OW25087   1.793   2.180   2.030
 8063SOL    HW125088   1.812   2.275   2.054
 8063SOL    HW225089   1.773   2.128   2.112
 8064SOL     OW25090   6.470   3.352   1.758
 8064SOL    HW125091   6.517   3.438   1.779
 8064SOL    HW225092   6.520   3.276   1.799
 8065SOL     OW25093   2.572   5.463   4.038
 8065SOL    HW125094   2.575   5.482   3.940
 8065SOL    HW225095   2.530   5.374   4.053
 8066SOL     OW25096   1.126   1.553   5.357
 8066SOL    HW125097   1.171   1.528   5.443
 8066SOL    HW225098   1.140   1.481   5.289
 8067SOL     OW25099   4.966   2.523   2.242
 8067SOL    HW125100   4.972   2.620   2.268
 8067SOL    HW225101   5.055   2.480   2.259
 8068SOL     OW25102   6.847   4.000   1.681
 8068SOL    HW125103   6.791   3.919   1.661
 8068SOL    HW225104   6.911   4.015   1.606
 8069SOL     OW25105   2.846   5.974   1.035
 8069SOL    HW125106   2.824   5.930   1.123
 8069SOL    HW225107   2.763   5.980   0.980
 8070SOL     OW25108   4.201   3.556   0.823
 8070SOL    HW125109   4.297   3.527   0.831
 8070SOL    HW225110   4.172   3.548   0.728
 8071SOL     OW25111   3.490   6.323   4.601
 8071SOL    HW125112   3.533   6.392   4.542
 8071SOL    HW225113   3.411   6.363   4.646
 8072SOL     OW25114   3.851   1.863   0.918
 8072SOL    HW125115   3.794   1.794   0.875
 8072SOL    HW225116   3.857   1.943   0.859
 8073SOL     OW25117   3.229   5.262   5.059
 8073SOL    HW125118   3.215   5.274   4.961
 8073SOL    HW225119   3.155   5.208   5.098
 8074SOL     OW25120   3.197   2.819   0.249
 8074SOL    HW125121   3.222   2.904   0.296
 8074SOL    HW225122   3.125   2.773   0.302
 8075SOL     OW25123   0.358   0.387   0.481
 8075SOL    HW125124   0.369   0.400   0.580
 8075SOL    HW225125   0.275   0.434   0.451
 8076SOL     OW25126   6.382   1.004   5.209
 8076SOL    HW125127   6.354   0.913   5.241
 8076SOL    HW225128   6.301   1.057   5.184
 8077SOL     OW25129   2.993   6.226   2.455
 8077SOL    HW125130   3.079   6.176   2.441
 8077SOL    HW225131   3.004   6.321   2.424
 8078SOL     OW25132   6.998   2.170   0.771
 8078SOL    HW125133   6.952   2.100   0.825
 8078SOL    HW225134   0.075   2.157   0.778
 8079SOL     OW25135   5.761   1.739   3.848
 8079SOL    HW125136   5.805   1.748   3.937
 8079SOL    HW225137   5.724   1.646   3.839
 8080SOL     OW25138   1.224   2.614   1.305
 8080SOL    HW125139   1.277   2.669   1.369
 8080SOL    HW225140   1.149   2.668   1.267
 8081SOL     OW25141   6.400   5.676   5.877
 8081SOL    HW125142   6.422   5.704   5.783
 8081SOL    HW225143   6.427   5.748   5.940
 8082SOL     OW25144   4.646   6.969   2.828
 8082SOL    HW125145   4.650   6.937   2.734
 8082SOL    HW225146   4.722   6.931   2.880
 8083SOL     OW25147   4.868   2.634   3.148
 8083SOL    HW125148   4.812   2.711   3.119
 8083SOL    HW225149   4.837   2.550   3.102
 8084SOL     OW25150   3.991   6.420   0.045
 8084SOL    HW125151   3.943   6.421   6.979
 8084SOL    HW225152   3.927   6.442   0.118
 8085SOL     OW25153   6.814   6.274   2.106
 8085SOL    HW125154   6.869   6.200   2.067
 8085SOL    HW225155   6.724   6.239   2.130
 8086SOL     OW25156   5.524   0.406   2.885
 8086SOL    HW125157   5.504   0.309   2.875
 8086SOL    HW225158   5.593   0.434   2.818
 8087SOL     OW25159   2.539   0.907   0.199
 8087SOL    HW125160   2.493   0.892   0.112
 8087SOL    HW225161   2.602   0.984   0.191
 8088SOL     OW25162   5.923   1.821   1.633
 8088SOL    HW125163   5.975   1.906   1.631
 8088SOL    HW225164   5.928   1.781   1.725
 8089SOL     OW25165   5.673   2.811   0.674
 8089SOL    HW125166   5.728   2.832   0.755
 8089SOL    HW225167   5.734   2.793   0.596
 8090SOL     OW25168   4.256   2.297   6.992
 8090SOL    HW125169   4.285   2.344   6.909
 8090SOL    HW225170   4.306   2.335   0.049
 8091SOL     OW25171   2.140   3.570   5.158
 8091SOL    HW125172   2.206   3.537   5.226
 8091SOL    HW225173   2.151   3.668   5.145
 8092SOL     OW25174   5.463   2.143   5.123
 8092SOL    HW125175   5.400   2.132   5.047
 8092SOL    HW225176   5.424   2.100   5.205
 8093SOL     OW25177   3.922   5.221   2.755
 8093SOL    HW125178   3.932   5.318   2.732
 8093SOL    HW225179   4.001   5.191   2.808
 8094SOL     OW25180   0.777   3.423   4.702
 8094SOL    HW125181   0.781   3.325   4.721
 8094SOL    HW225182   0.820   3.441   4.613
 8095SOL     OW25183   0.738   4.809   4.224
 8095SOL    HW125184   0.642   4.803   4.251
 8095SOL    HW225185   0.770   4.904   4.231
 8096SOL     OW25186   2.179   6.783   3.362
 8096SOL    HW125187   2.086   6.798   3.327
 8096SOL    HW225188   2.210   6.692   3.338
 8097SOL     OW25189   3.916   0.246   3.947
 8097SOL    HW125190   3.852   0.306   3.897
 8097SOL    HW225191   4.009   0.263   3.915
 8098SOL     OW25192   1.567   6.602   3.302
 8098SOL    HW125193   1.475   6.578   3.333
 8098SOL    HW225194   1.622   6.632   3.381
 8099SOL     OW25195   3.970   6.594   4.724
 8099SOL    HW125196   3.914   6.559   4.799
 8099SOL    HW225197   3.993   6.690   4.740
 8100SOL     OW25198   6.559   1.081   1.120
 8100SOL    HW125199   6.658   1.076   1.117
 8100SOL    HW225200   6.519   0.995   1.088
 8101SOL     OW25201   1.841   6.195   2.429
 8101SOL    HW125202   1.841   6.295   2.439
 8101SOL    HW225203   1.849   6.171   2.333
 8102SOL     OW25204   1.288   4.372   3.839
 8102SOL    HW125205   1.261   4.468   3.850
 8102SOL    HW225206   1.384   4.367   3.810
 8103SOL     OW25207   2.697   6.714   1.363
 8103SOL    HW125208   2.667   6.801   1.322
 8103SOL    HW225209   2.687   6.641   1.295
 8104SOL     OW25210   3.115   0.628   6.275
 8104SOL    HW125211   3.030   0.670   6.306
 8104SOL    HW225212   3.170   0.600   6.354
 8105SOL     OW25213   0.842   2.946   3.514
 8105SOL    HW125214   0.911   2.998   3.565
 8105SOL    HW225215   0.757   2.999   3.509
 8106SOL     OW25216   2.460   5.928   2.920
 8106SOL    HW125217   2.449   5.943   2.822
 8106SOL    HW225218   2.520   5.849   2.935
 8107SOL     OW25219   0.886   4.724   4.559
 8107SOL    HW125220   0.845   4.633   4.552
 8107SOL    HW225221   0.935   4.732   4.646
 8108SOL     OW25222   6.054   2.901   5.822
 8108SOL    HW125223   6.144   2.938   5.847
 8108SOL    HW225224   6.065   2.834   5.748
 8109SOL     OW25225   0.726   3.776   4.720
 8109SOL    HW125226   0.818   3.791   4.755
 8109SOL    HW225227   0.687   3.693   4.762
 8110SOL     OW25228   3.094   5.913   0.854
 8110SOL    HW125229   3.061   5.922   0.760
 8110SOL    HW225230   3.018   5.932   0.917
 8111SOL     OW25231   5.320   0.885   5.027
 8111SOL    HW125232   5.321   0.790   4.997
 8111SOL    HW225233   5.386   0.937   4.973
 8112SOL     OW25234   2.361   2.377   3.963
 8112SOL    HW125235   2.420   2.397   4.041
 8112SOL    HW225236   2.395   2.424   3.882
 8113SOL     OW25237   1.870   3.496   0.502
 8113SOL    HW125238   1.778   3.489   0.541
 8113SOL    HW225239   1.899   3.591   0.500
 8114SOL     OW25240   1.386   3.870   2.945
 8114SOL    HW125241   1.406   3.844   2.851
 8114SOL    HW225242   1.456   3.832   3.006
 8115SOL     OW25243   3.708   0.513   0.529
 8115SOL    HW125244   3.704   0.456   0.447
 8115SOL    HW225245   3.617   0.551   0.548
 8116SOL     OW25246   4.528   5.136   6.180
 8116SOL    HW125247   4.506   5.105   6.087
 8116SOL    HW225248   4.450   5.118   6.240
 8117SOL     OW25249   1.634   0.033   3.386
 8117SOL    HW125250   1.573   0.057   3.311
 8117SOL    HW225251   1.717   0.089   3.381
 8118SOL     OW25252   5.525   4.781   5.831
 8118SOL    HW125253   5.583   4.784   5.750
 8118SOL    HW225254   5.440   4.734   5.809
 8119SOL     OW25255   5.008   5.278   6.446
 8119SOL    HW125256   4.969   5.296   6.356
 8119SOL    HW225257   4.972   5.192   6.482
 8120SOL     OW25258   3.026   5.297   0.339
 8120SOL    HW125259   3.112   5.250   0.323
 8120SOL    HW225260   3.020   5.325   0.435
 8121SOL     OW25261   0.312   5.318   1.800
 8121SOL    HW125262   0.335   5.261   1.722
 8121SOL    HW225263   0.230   5.282   1.845
 8122SOL     OW25264   0.909   5.437   2.931
 8122SOL    HW125265   0.813   5.464   2.933
 8122SOL    HW225266   0.951   5.468   2.846
 8123SOL     OW25267   6.759   0.773   6.430
 8123SOL    HW125268   6.691   0.845   6.442
 8123SOL    HW225269   6.843   0.798   6.478
 8124SOL     OW25270   5.933   6.692   1.118
 8124SOL    HW125271   5.893   6.600   1.121
 8124SOL    HW225272   5.939   6.723   1.023
 8125SOL     OW25273   1.627   1.269   3.476
 8125SOL    HW125274   1.671   1.190   3.436
 8125SOL    HW225275   1.613   1.339   3.406
 8126SOL     OW25276   4.857   4.733   2.545
 8126SOL    HW125277   4.887   4.699   2.634
 8126SOL    HW225278   4.895   4.676   2.472
 8127SOL     OW25279   2.487   4.483   6.715
 8127SOL    HW125280   2.416   4.483   6.645
 8127SOL    HW225281   2.527   4.391   6.722
 8128SOL     OW25282   2.698   1.257   1.672
 8128SOL    HW125283   2.675   1.346   1.635
 8128SOL    HW225284   2.623   1.193   1.654
 8129SOL     OW25285   4.281   0.937   6.283
 8129SOL    HW125286   4.227   0.940   6.199
 8129SOL    HW225287   4.374   0.968   6.264
 8130SOL     OW25288   6.982   3.417   6.157
 8130SOL    HW125289   0.035   3.440   6.095
 8130SOL    HW225290   6.968   3.318   6.159
 8131SOL     OW25291   3.421   2.056   0.703
 8131SOL    HW125292   3.467   2.143   0.684
 8131SOL    HW225293   3.338   2.074   0.756
 8132SOL     OW25294   5.968   6.725   6.131
 8132SOL    HW125295   5.991   6.689   6.040
 8132SOL    HW225296   6.040   6.789   6.160
 8133SOL     OW25297   3.128   4.872   1.336
 8133SOL    HW125298   3.197   4.915   1.394
 8133SOL    HW225299   3.141   4.900   1.241
 8134SOL     OW25300   6.696   2.763   5.661
 8134SOL    HW125301   6.621   2.779   5.596
 8134SOL    HW225302   6.672   2.687   5.721
 8135SOL     OW25303   2.916   6.196   1.621
 8135SOL    HW125304   2.964   6.126   1.674
 8135SOL    HW225305   2.959   6.285   1.638
 8136SOL     OW25306   4.687   5.443   3.028
 8136SOL    HW125307   4.673   5.393   3.114
 8136SOL    HW225308   4.780   5.429   2.996
 8137SOL     OW25309   2.918   1.944   5.313
 8137SOL    HW125310   2.969   2.028   5.294
 8137SOL    HW225311   2.940   1.911   5.404
 8138SOL     OW25312   5.928   1.325   6.931
 8138SOL    HW125313   5.965   1.296   6.844
 8138SOL    HW225314   5.882   1.414   6.920
 8139SOL     OW25315   6.918   1.280   2.783
 8139SOL    HW125316   6.918   1.351   2.853
 8139SOL    HW225317   6.835   1.225   2.792
 8140SOL     OW25318   4.759   0.471   1.201
 8140SOL    HW125319   4.844   0.452   1.153
 8140SOL    HW225320   4.763   0.562   1.242
 8141SOL     OW25321   4.927   6.440   4.942
 8141SOL    HW125322   4.930   6.463   4.845
 8141SOL    HW225323   4.920   6.341   4.953
 8142SOL     OW25324   1.202   5.069   6.882
 8142SOL    HW125325   1.115   5.069   6.931
 8142SOL    HW225326   1.233   5.163   6.869
 8143SOL     OW25327   6.586   4.235   1.239
 8143SOL    HW125328   6.616   4.265   1.330
 8143SOL    HW225329   6.637   4.154   1.212
 8144SOL     OW25330   6.629   6.515   6.322
 8144SOL    HW125331   6.672   6.605   6.315
 8144SOL    HW225332   6.691   6.452   6.370
 8145SOL     OW25333   5.625   5.746   1.345
 8145SOL    HW125334   5.625   5.844   1.365
 8145SOL    HW225335   5.532   5.714   1.331
 8146SOL     OW25336   5.164   0.738   4.658
 8146SOL    HW125337   5.120   0.689   4.583
 8146SOL    HW225338   5.096   0.790   4.710
 8147SOL     OW25339   6.372   1.745   1.444
 8147SOL    HW125340   6.379   1.814   1.516
 8147SOL    HW225341   6.299   1.771   1.380
 8148SOL     OW25342   5.005   4.033   0.715
 8148SOL    HW125343   4.914   3.995   0.697
 8148SOL    HW225344   5.006   4.131   0.692
 8149SOL     OW25345   3.051   6.494   2.382
 8149SOL    HW125346   3.105   6.552   2.442
 8149SOL    HW225347   3.043   6.536   2.292
 8150SOL     OW25348   2.050   4.193   1.082
 8150SOL    HW125349   2.083   4.112   1.129
 8150SOL    HW225350   2.066   4.183   0.983
 8151SOL     OW25351   5.718   3.011   1.680
 8151SOL    HW125352   5.702   2.971   1.771
 8151SOL    HW225353   5.648   3.080   1.662
 8152SOL     OW25354   6.732   2.166   2.552
 8152SOL    HW125355   6.646   2.191   2.507
 8152SOL    HW225356   6.765   2.080   2.514
 8153SOL     OW25357   1.787   6.628   3.955
 8153SOL    HW125358   1.886   6.624   3.945
 8153SOL    HW225359   1.758   6.722   3.971
 8154SOL     OW25360   3.436   5.199   1.894
 8154SOL    HW125361   3.485   5.115   1.872
 8154SOL    HW225362   3.411   5.199   1.991
 8155SOL     OW25363   1.462   3.948   2.102
 8155SOL    HW125364   1.552   3.927   2.066
 8155SOL    HW225365   1.466   3.954   2.202
 8156SOL     OW25366   5.564   0.062   0.880
 8156SOL    HW125367   5.609   0.046   0.968
 8156SOL    HW225368   5.538   0.158   0.872
 8157SOL     OW25369   6.619   5.446   6.285
 8157SOL    HW125370   6.607   5.360   6.335
 8157SOL    HW225371   6.565   5.518   6.329
 8158SOL     OW25372   4.699   5.154   0.608
 8158SOL    HW125373   4.796   5.172   0.591
 8158SOL    HW225374   4.669   5.077   0.551
 8159SOL     OW25375   2.767   5.850   2.683
 8159SOL    HW125376   2.704   5.837   2.607
 8159SOL    HW225377   2.749   5.939   2.726
 8160SOL     OW25378   5.232   0.544   3.685
 8160SOL    HW125379   5.283   0.459   3.685
 8160SOL    HW225380   5.134   0.525   3.690
 8161SOL     OW25381   5.965   2.000   6.389
 8161SOL    HW125382   5.983   1.918   6.335
 8161SOL    HW225383   6.026   2.001   6.468
 8162SOL     OW25384   5.440   6.663   6.331
 8162SOL    HW125385   5.433   6.666   6.231
 8162SOL    HW225386   5.483   6.577   6.358
 8163SOL     OW25387   2.665   3.993   5.336
 8163SOL    HW125388   2.747   4.008   5.280
 8163SOL    HW225389   2.583   4.000   5.279
 8164SOL     OW25390   5.461   2.770   0.455
 8164SOL    HW125391   5.489   2.835   0.525
 8164SOL    HW225392   5.529   2.697   0.448
 8165SOL     OW25393   0.971   3.121   6.372
 8165SOL    HW125394   1.007   3.179   6.446
 8165SOL    HW225395   1.046   3.094   6.312
 8166SOL     OW25396   1.579   0.298   2.711
 8166SOL    HW125397   1.643   0.345   2.650
 8166SOL    HW225398   1.500   0.357   2.727
 8167SOL     OW25399   6.306   6.985   4.689
 8167SOL    HW125400   6.314   7.006   4.591
 8167SOL    HW225401   6.227   0.013   4.726
 8168SOL     OW25402   2.041   1.689   3.436
 8168SOL    HW125403   1.989   1.769   3.468
 8168SOL    HW225404   1.979   1.625   3.391
 8169SOL     OW25405   4.907   1.995   0.646
 8169SOL    HW125406   4.931   1.933   0.721
 8169SOL    HW225407   4.810   1.987   0.626
 8170SOL     OW25408   1.152   4.805   2.649
 8170SOL    HW125409   1.079   4.737   2.659
 8170SOL    HW225410   1.178   4.839   2.740
 8171SOL     OW25411   1.414   1.980   6.635
 8171SOL    HW125412   1.408   2.023   6.545
 8171SOL    HW225413   1.490   2.021   6.686
 8172SOL     OW25414   0.878   2.033   2.131
 8172SOL    HW125415   0.821   2.115   2.134
 8172SOL    HW225416   0.973   2.057   2.154
 8173SOL     OW25417   5.157   0.854   2.113
 8173SOL    HW125418   5.067   0.897   2.104
 8173SOL    HW225419   5.228   0.924   2.111
 8174SOL     OW25420   5.741   3.333   0.979
 8174SOL    HW125421   5.753   3.241   0.943
 8174SOL    HW225422   5.653   3.340   1.026
 8175SOL     OW25423   0.013   2.331   5.593
 8175SOL    HW125424   6.941   2.307   5.569
 8175SOL    HW225425   0.076   2.269   5.546
 8176SOL     OW25426   2.856   5.070   1.700
 8176SOL    HW125427   2.846   5.077   1.600
 8176SOL    HW225428   2.803   5.143   1.743
 8177SOL     OW25429   3.194   6.112   3.770
 8177SOL    HW125430   3.125   6.110   3.843
 8177SOL    HW225431   3.240   6.201   3.771
 8178SOL     OW25432   2.780   5.617   6.606
 8178SOL    HW125433   2.729   5.674   6.541
 8178SOL    HW225434   2.865   5.664   6.631
 8179SOL     OW25435   4.964   2.361   5.794
 8179SOL    HW125436   4.889   2.398   5.849
 8179SOL    HW225437   5.026   2.435   5.767
 8180SOL     OW25438   6.686   0.208   4.775
 8180SOL    HW125439   6.673   0.176   4.869
 8180SOL    HW225440   6.742   0.291   4.776
 8181SOL     OW25441   1.898   1.408   1.109
 8181SOL    HW125442   1.886   1.470   1.031
 8181SOL    HW225443   1.956   1.452   1.178
 8182SOL     OW25444   4.476   3.282   6.151
 8182SOL    HW125445   4.451   3.186   6.162
 8182SOL    HW225446   4.410   3.327   6.090
 8183SOL     OW25447   6.946   2.659   4.556
 8183SOL    HW125448   7.009   2.701   4.490
 8183SOL    HW225449   6.852   2.676   4.528
 8184SOL     OW25450   5.781   1.565   6.159
 8184SOL    HW125451   5.739   1.628   6.225
 8184SOL    HW225452   5.795   1.613   6.072
 8185SOL     OW25453   2.499   6.526   0.467
 8185SOL    HW125454   2.550   6.532   0.382
 8185SOL    HW225455   2.492   6.617   0.508
 8186SOL     OW25456   3.828   5.790   5.517
 8186SOL    HW125457   3.907   5.744   5.477
 8186SOL    HW225458   3.811   5.876   5.468
 8187SOL     OW25459   1.539   2.525   5.575
 8187SOL    HW125460   1.462   2.560   5.521
 8187SOL    HW225461   1.601   2.475   5.515
 8188SOL     OW25462   5.428   2.791   2.981
 8188SOL    HW125463   5.526   2.809   2.988
 8188SOL    HW225464   5.379   2.843   3.052
 8189SOL     OW25465   4.653   4.793   2.964
 8189SOL    HW125466   4.748   4.818   2.945
 8189SOL    HW225467   4.594   4.831   2.892
 8190SOL     OW25468   3.752   5.219   3.930
 8190SOL    HW125469   3.810   5.295   3.960
 8190SOL    HW225470   3.673   5.255   3.880
 8191SOL     OW25471   3.530   6.529   2.351
 8191SOL    HW125472   3.479   6.604   2.309
 8191SOL    HW225473   3.523   6.448   2.293
 8192SOL     OW25474   3.587   5.385   0.983
 8192SOL    HW125475   3.501   5.434   0.992
 8192SOL    HW225476   3.575   5.290   1.013
 8193SOL     OW25477   6.875   6.470   4.625
 8193SOL    HW125478   6.859   6.458   4.527
 8193SOL    HW225479   6.877   6.567   4.647
 8194SOL     OW25480   5.891   2.575   0.898
 8194SOL    HW125481   5.955   2.558   0.972
 8194SOL    HW225482   5.809   2.519   0.912
 8195SOL     OW25483   1.383   6.826   1.527
 8195SOL    HW125484   1.320   6.901   1.506
 8195SOL    HW225485   1.436   6.803   1.446
 8196SOL     OW25486   3.641   6.486   6.173
 8196SOL    HW125487   3.643   6.486   6.073
 8196SOL    HW225488   3.708   6.551   6.208
 8197SOL     OW25489   4.346   1.291   6.324
 8197SOL    HW125490   4.341   1.384   6.290
 8197SOL    HW225491   4.262   1.242   6.300
 8198SOL     OW25492   3.647   6.463   3.276
 8198SOL    HW125493   3.572   6.508   3.230
 8198SOL    HW225494   3.713   6.428   3.209
 8199SOL     OW25495   6.012   2.731   6.240
 8199SOL    HW125496   5.967   2.820   6.233
 8199SOL    HW225497   5.947   2.659   6.218
 8200SOL     OW25498   4.662   3.743   1.292
 8200SOL    HW125499   4.753   3.713   1.264
 8200SOL    HW225500   4.642   3.832   1.252
 8201SOL     OW25501   5.748   0.450   4.097
 8201SOL    HW125502   5.829   0.462   4.154
 8201SOL    HW225503   5.732   0.352   4.081
 8202SOL     OW25504   0.297   5.741   4.683
 8202SOL    HW125505   0.378   5.796   4.704
 8202SOL    HW225506   0.234   5.796   4.628
 8203SOL     OW25507   4.455   2.470   0.429
 8203SOL    HW125508   4.436   2.376   0.460
 8203SOL    HW225509   4.499   2.521   0.502
 8204SOL     OW25510   2.952   5.460   6.804
 8204SOL    HW125511   2.876   5.518   6.777
 8204SOL    HW225512   2.934   5.419   6.893
 8205SOL     OW25513   0.472   4.551   0.834
 8205SOL    HW125514   0.554   4.608   0.833
 8205SOL    HW225515   0.391   4.609   0.828
 8206SOL     OW25516   4.702   2.693   5.940
 8206SOL    HW125517   4.725   2.595   5.944
 8206SOL    HW225518   4.613   2.704   5.896
 8207SOL     OW25519   3.575   4.027   5.248
 8207SOL    HW125520   3.593   4.125   5.239
 8207SOL    HW225521   3.615   3.993   5.333
 8208SOL     OW25522   1.646   0.113   1.518
 8208SOL    HW125523   1.723   0.098   1.579
 8208SOL    HW225524   1.671   0.087   1.425
 8209SOL     OW25525   1.061   1.410   5.914
 8209SOL    HW125526   1.099   1.344   5.848
 8209SOL    HW225527   1.006   1.362   5.982
 8210SOL     OW25528   2.695   0.854   1.243
 8210SOL    HW125529   2.786   0.818   1.220
 8210SOL    HW225530   2.697   0.954   1.241
 8211SOL     OW25531   3.858   3.977   2.937
 8211SOL    HW125532   3.847   3.999   2.840
 8211SOL    HW225533   3.792   4.029   2.991
 8212SOL     OW25534   3.202   1.674   0.873
 8212SOL    HW125535   3.215   1.657   0.971
 8212SOL    HW225536   3.156   1.595   0.832
 8213SOL     OW25537   5.396   5.045   2.358
 8213SOL    HW125538   5.478   5.077   2.406
 8213SOL    HW225539   5.315   5.064   2.413
 8214SOL     OW25540   0.812   5.075   4.244
 8214SOL    HW125541   0.893   5.130   4.222
 8214SOL    HW225542   0.774   5.105   4.332
 8215SOL     OW25543   2.878   5.858   6.350
 8215SOL    HW125544   2.874   5.917   6.269
 8215SOL    HW225545   2.789   5.814   6.363
 8216SOL     OW25546   5.182   6.148   3.503
 8216SOL    HW125547   5.269   6.198   3.506
 8216SOL    HW225548   5.190   6.063   3.555
 8217SOL     OW25549   2.127   3.720   2.310
 8217SOL    HW125550   2.037   3.715   2.266
 8217SOL    HW225551   2.156   3.629   2.338
 8218SOL     OW25552   1.385   6.970   4.964
 8218SOL    HW125553   1.386   6.884   4.912
 8218SOL    HW225554   1.480   6.998   4.982
 8219SOL     OW25555   3.890   3.046   1.297
 8219SOL    HW125556   3.814   3.109   1.279
 8219SOL    HW225557   3.870   2.991   1.378
 8220SOL     OW25558   2.995   3.801   4.766
 8220SOL    HW125559   3.079   3.750   4.751
 8220SOL    HW225560   2.925   3.740   4.804
 8221SOL     OW25561   6.545   5.399   3.174
 8221SOL    HW125562   6.626   5.384   3.231
 8221SOL    HW225563   6.468   5.346   3.210
 8222SOL     OW25564   5.251   1.931   1.608
 8222SOL    HW125565   5.158   1.958   1.583
 8222SOL    HW225566   5.288   1.871   1.538
 8223SOL     OW25567   0.678   4.318   5.363
 8223SOL    HW125568   0.653   4.387   5.295
 8223SOL    HW225569   0.747   4.257   5.325
 8224SOL     OW25570   5.435   2.595   1.995
 8224SOL    HW125571   5.379   2.665   1.951
 8224SOL    HW225572   5.529   2.627   2.002
 8225SOL     OW25573   3.583   1.297   1.640
 8225SOL    HW125574   3.488   1.328   1.654
 8225SOL    HW225575   3.584   1.219   1.579
 8226SOL     OW25576   3.438   0.012   0.181
 8226SOL    HW125577   3.356   0.046   0.135
 8226SOL    HW225578   3.483   0.087   0.230
 8227SOL     OW25579   0.080   1.332   2.606
 8227SOL    HW125580   0.059   1.357   2.512
 8227SOL    HW225581   7.016   1.313   2.656
 8228SOL     OW25582   0.882   1.814   6.004
 8228SOL    HW125583   0.845   1.730   5.962
 8228SOL    HW225584   0.807   1.870   6.038
 8229SOL     OW25585   3.494   4.246   1.195
 8229SOL    HW125586   3.448   4.251   1.106
 8229SOL    HW225587   3.457   4.169   1.248
 8230SOL     OW25588   4.073   0.612   5.326
 8230SOL    HW125589   4.150   0.562   5.367
 8230SOL    HW225590   4.103   0.704   5.301
 8231SOL     OW25591   3.297   2.582   1.582
 8231SOL    HW125592   3.337   2.504   1.630
 8231SOL    HW225593   3.297   2.661   1.643
 8232SOL     OW25594   5.660   1.735   2.140
 8232SOL    HW125595   5.593   1.694   2.202
 8232SOL    HW225596   5.706   1.812   2.186
 8233SOL     OW25597   1.261   0.252   6.313
 8233SOL    HW125598   1.232   0.214   6.401
 8233SOL    HW225599   1.214   0.205   6.239
 8234SOL     OW25600   3.050   3.960   0.092
 8234SOL    HW125601   3.134   3.918   0.124
 8234SOL    HW225602   2.976   3.938   0.155
 8235SOL     OW25603   0.265   3.539   6.605
 8235SOL    HW125604   0.277   3.511   6.510
 8235SOL    HW225605   0.348   3.518   6.657
 8236SOL     OW25606   6.564   4.822   6.571
 8236SOL    HW125607   6.590   4.785   6.660
 8236SOL    HW225608   6.638   4.879   6.536
 8237SOL     OW25609   5.025   6.419   6.127
 8237SOL    HW125610   4.931   6.416   6.094
 8237SOL    HW225611   5.032   6.483   6.203
 8238SOL     OW25612   0.794   5.742   0.102
 8238SOL    HW125613   0.736   5.822   0.116
 8238SOL    HW225614   0.860   5.736   0.176
 8239SOL     OW25615   1.117   0.800   5.074
 8239SOL    HW125616   1.058   0.872   5.038
 8239SOL    HW225617   1.139   0.735   5.001
 8240SOL     OW25618   3.142   4.025   3.151
 8240SOL    HW125619   3.240   4.038   3.167
 8240SOL    HW225620   3.095   4.012   3.238
 8241SOL     OW25621   2.490   4.975   5.942
 8241SOL    HW125622   2.445   5.018   6.020
 8241SOL    HW225623   2.589   4.990   5.948
 8242SOL     OW25624   0.617   3.677   5.001
 8242SOL    HW125625   0.532   3.632   4.975
 8242SOL    HW225626   0.599   3.773   5.022
 8243SOL     OW25627   6.930   3.443   1.221
 8243SOL    HW125628   6.989   3.460   1.142
 8243SOL    HW225629   6.896   3.348   1.218
 8244SOL     OW25630   0.758   0.168   3.937
 8244SOL    HW125631   0.823   0.144   4.009
 8244SOL    HW225632   0.806   0.171   3.849
 8245SOL     OW25633   3.772   2.138   2.652
 8245SOL    HW125634   3.780   2.136   2.751
 8245SOL    HW225635   3.680   2.108   2.625
 8246SOL     OW25636   0.429   4.497   6.699
 8246SOL    HW125637   0.346   4.501   6.755
 8246SOL    HW225638   0.408   4.528   6.606
 8247SOL     OW25639   2.112   6.099   3.082
 8247SOL    HW125640   2.019   6.106   3.117
 8247SOL    HW225641   2.176   6.129   3.153
 8248SOL     OW25642   0.598   4.606   4.668
 8248SOL    HW125643   0.649   4.553   4.600
 8248SOL    HW225644   0.663   4.658   4.724
 8249SOL     OW25645   2.166   1.498   5.834
 8249SOL    HW125646   2.173   1.572   5.901
 8249SOL    HW225647   2.224   1.518   5.756
 8250SOL     OW25648   2.692   2.316   1.320
 8250SOL    HW125649   2.664   2.281   1.409
 8250SOL    HW225650   2.764   2.385   1.332
 8251SOL     OW25651   5.420   1.596   4.612
 8251SOL    HW125652   5.457   1.686   4.637
 8251SOL    HW225653   5.331   1.584   4.655
 8252SOL     OW25654   4.136   1.917   6.696
 8252SOL    HW125655   4.130   1.863   6.780
 8252SOL    HW225656   4.227   1.958   6.689
 8253SOL     OW25657   3.573   6.039   6.423
 8253SOL    HW125658   3.506   5.965   6.415
 8253SOL    HW225659   3.630   6.041   6.340
 8254SOL     OW25660   4.602   4.936   5.535
 8254SOL    HW125661   4.625   5.034   5.536
 8254SOL    HW225662   4.613   4.898   5.627
 8255SOL     OW25663   1.156   6.957   5.573
 8255SOL    HW125664   1.228   6.951   5.505
 8255SOL    HW225665   1.067   6.965   5.528
 8256SOL     OW25666   6.983   6.484   3.034
 8256SOL    HW125667   0.041   6.515   3.086
 8256SOL    HW225668   6.999   6.391   3.000
 8257SOL     OW25669   5.416   3.984   3.734
 8257SOL    HW125670   5.382   3.903   3.781
 8257SOL    HW225671   5.488   3.958   3.670
 8258SOL     OW25672   4.775   2.859   1.660
 8258SOL    HW125673   4.737   2.840   1.750
 8258SOL    HW225674   4.875   2.859   1.664
 8259SOL     OW25675   3.569   2.355   5.377
 8259SOL    HW125676   3.579   2.256   5.384
 8259SOL    HW225677   3.481   2.383   5.417
 8260SOL     OW25678   1.832   6.619   1.780
 8260SOL    HW125679   1.869   6.628   1.688
 8260SOL    HW225680   1.877   6.543   1.827
 8261SOL     OW25681   5.157   6.365   3.032
 8261SOL    HW125682   5.069   6.333   2.996
 8261SOL    HW225683   5.195   6.434   2.970
 8262SOL     OW25684   1.196   5.050   0.744
 8262SOL    HW125685   1.203   5.116   0.820
 8262SOL    HW225686   1.286   5.038   0.703
 8263SOL     OW25687   6.962   3.066   6.444
 8263SOL    HW125688   6.901   3.109   6.510
 8263SOL    HW225689   0.035   3.080   6.473
 8264SOL     OW25690   0.870   6.360   1.524
 8264SOL    HW125691   0.787   6.414   1.514
 8264SOL    HW225692   0.925   6.368   1.440
 8265SOL     OW25693   5.296   0.175   2.125
 8265SOL    HW125694   5.356   0.138   2.054
 8265SOL    HW225695   5.351   0.224   2.193
 8266SOL     OW25696   2.588   1.074   4.164
 8266SOL    HW125697   2.561   0.993   4.215
 8266SOL    HW225698   2.674   1.057   4.117
 8267SOL     OW25699   1.063   4.544   1.979
 8267SOL    HW125700   1.097   4.572   1.889
 8267SOL    HW225701   1.082   4.616   2.046
 8268SOL     OW25702   3.145   5.769   6.376
 8268SOL    HW125703   3.178   5.683   6.337
 8268SOL    HW225704   3.046   5.775   6.366
 8269SOL     OW25705   4.560   2.605   2.991
 8269SOL    HW125706   4.563   2.607   2.891
 8269SOL    HW225707   4.586   2.696   3.026
 8270SOL     OW25708   2.657   5.803   5.163
 8270SOL    HW125709   2.593   5.764   5.097
 8270SOL    HW225710   2.719   5.732   5.196
 8271SOL     OW25711   6.608   6.695   3.292
 8271SOL    HW125712   6.526   6.723   3.342
 8271SOL    HW225713   6.586   6.690   3.194
 8272SOL     OW25714   6.483   1.169   2.654
 8272SOL    HW125715   6.402   1.131   2.700
 8272SOL    HW225716   6.454   1.226   2.578
 8273SOL     OW25717   3.114   0.750   0.133
 8273SOL    HW125718   3.062   0.834   0.142
 8273SOL    HW225719   3.062   0.674   0.173
 8274SOL     OW25720   4.211   5.209   5.324
 8274SOL    HW125721   4.163   5.258   5.251
 8274SOL    HW225722   4.293   5.165   5.287
 8275SOL     OW25723   5.641   0.631   3.922
 8275SOL    HW125724   5.656   0.618   3.824
 8275SOL    HW225725   5.676   0.552   3.972
 8276SOL     OW25726   6.929   1.923   5.455
 8276SOL    HW125727   6.866   1.919   5.532
 8276SOL    HW225728   7.020   1.893   5.484
 8277SOL     OW25729   0.964   5.987   5.862
 8277SOL    HW125730   0.881   6.042   5.850
 8277SOL    HW225731   1.021   5.994   5.780
 8278SOL     OW25732   3.199   1.728   6.886
 8278SOL    HW125733   3.135   1.738   6.963
 8278SOL    HW225734   3.286   1.772   6.909
 8279SOL     OW25735   6.672   6.002   5.139
 8279SOL    HW125736   6.646   6.090   5.099
 8279SOL    HW225737   6.623   5.928   5.091
 8280SOL     OW25738   3.847   2.421   0.732
 8280SOL    HW125739   3.850   2.358   0.654
 8280SOL    HW225740   3.759   2.413   0.778
 8281SOL     OW25741   2.379   4.457   1.951
 8281SOL    HW125742   2.298   4.516   1.952
 8281SOL    HW225743   2.350   4.362   1.938
 8282SOL     OW25744   3.244   3.641   0.201
 8282SOL    HW125745   3.156   3.634   0.249
 8282SOL    HW225746   3.318   3.652   0.268
 8283SOL     OW25747   1.717   4.725   4.532
 8283SOL    HW125748   1.681   4.744   4.624
 8283SOL    HW225749   1.642   4.725   4.466
 8284SOL     OW25750   1.734   4.071   2.010
 8284SOL    HW125751   1.787   3.990   1.983
 8284SOL    HW225752   1.774   4.109   2.093
 8285SOL     OW25753   4.257   3.587   5.547
 8285SOL    HW125754   4.164   3.618   5.568
 8285SOL    HW225755   4.294   3.644   5.473
 8286SOL     OW25756   5.557   1.796   5.000
 8286SOL    HW125757   5.593   1.749   4.920
 8286SOL    HW225758   5.535   1.891   4.975
 8287SOL     OW25759   1.043   4.829   4.353
 8287SOL    HW125760   0.981   4.887   4.300
 8287SOL    HW225761   0.993   4.787   4.429
 8288SOL     OW25762   1.735   2.587   2.757
 8288SOL    HW125763   1.715   2.683   2.735
 8288SOL    HW225764   1.817   2.558   2.709
 8289SOL     OW25765   6.145   0.195   6.707
 8289SOL    HW125766   6.186   0.199   6.616
 8289SOL    HW225767   6.071   0.262   6.713
 8290SOL     OW25768   5.020   1.814   1.223
 8290SOL    HW125769   5.024   1.909   1.253
 8290SOL    HW225770   5.099   1.793   1.166
 8291SOL     OW25771   5.768   5.926   6.473
 8291SOL    HW125772   5.787   6.000   6.537
 8291SOL    HW225773   5.804   5.949   6.383
 8292SOL     OW25774   2.542   5.361   6.735
 8292SOL    HW125775   2.624   5.333   6.686
 8292SOL    HW225776   2.566   5.386   6.829
 8293SOL     OW25777   1.750   4.848   1.553
 8293SOL    HW125778   1.722   4.941   1.529
 8293SOL    HW225779   1.773   4.844   1.650
 8294SOL     OW25780   6.526   3.551   4.756
 8294SOL    HW125781   6.473   3.488   4.698
 8294SOL    HW225782   6.623   3.544   4.733
 8295SOL     OW25783   4.865   3.079   3.080
 8295SOL    HW125784   4.880   3.168   3.122
 8295SOL    HW225785   4.888   3.084   2.983
 8296SOL     OW25786   3.419   6.000   0.211
 8296SOL    HW125787   3.491   5.936   0.238
 8296SOL    HW225788   3.436   6.032   0.118
 8297SOL     OW25789   6.354   3.377   2.543
 8297SOL    HW125790   6.363   3.299   2.482
 8297SOL    HW225791   6.427   3.376   2.611
 8298SOL     OW25792   6.882   0.615   0.804
 8298SOL    HW125793   6.908   0.533   0.856
 8298SOL    HW225794   6.808   0.592   0.741
 8299SOL     OW25795   0.308   3.121   1.632
 8299SOL    HW125796   0.285   3.026   1.611
 8299SOL    HW225797   0.266   3.181   1.564
 8300SOL     OW25798   6.947   7.012   4.484
 8300SOL    HW125799   6.992   0.062   4.536
 8300SOL    HW225800   6.968   0.001   4.387
 8301SOL     OW25801   4.450   0.810   0.018
 8301SOL    HW125802   4.512   0.851   0.085
 8301SOL    HW225803   4.499   0.740   6.988
 8302SOL     OW25804   5.293   0.026   5.473
 8302SOL    HW125805   5.218   0.026   5.406
 8302SOL    HW225806   5.374   7.007   5.431
 8303SOL     OW25807   6.753   0.354   3.066
 8303SOL    HW125808   6.745   0.319   2.972
 8303SOL    HW225809   6.664   0.348   3.110
 8304SOL     OW25810   5.421   4.804   1.819
 8304SOL    HW125811   5.449   4.815   1.915
 8304SOL    HW225812   5.478   4.861   1.761
 8305SOL     OW25813   4.280   4.708   4.122
 8305SOL    HW125814   4.200   4.703   4.182
 8305SOL    HW225815   4.256   4.760   4.040
 8306SOL     OW25816   6.290   1.257   3.548
 8306SOL    HW125817   6.335   1.301   3.471
 8306SOL    HW225818   6.265   1.326   3.616
 8307SOL     OW25819   3.578   5.522   1.533
 8307SOL    HW125820   3.503   5.579   1.498
 8307SOL    HW225821   3.648   5.514   1.462
 8308SOL     OW25822   2.291   5.408   0.180
 8308SOL    HW125823   2.388   5.424   0.160
 8308SOL    HW225824   2.266   5.462   0.261
 8309SOL     OW25825   6.188   5.439   3.455
 8309SOL    HW125826   6.172   5.375   3.380
 8309SOL    HW225827   6.223   5.389   3.534
 8310SOL     OW25828   1.863   5.096   1.006
 8310SOL    HW125829   1.948   5.070   0.959
 8310SOL    HW225830   1.836   5.187   0.977
 8311SOL     OW25831   6.113   0.787   4.289
 8311SOL    HW125832   6.080   0.787   4.194
 8311SOL    HW225833   6.041   0.821   4.349
 8312SOL     OW25834   5.342   1.120   6.581
 8312SOL    HW125835   5.432   1.096   6.616
 8312SOL    HW225836   5.284   1.039   6.579
 8313SOL     OW25837   5.740   0.450   5.983
 8313SOL    HW125838   5.687   0.452   6.067
 8313SOL    HW225839   5.793   0.365   5.978
 8314SOL     OW25840   6.408   6.645   6.455
 8314SOL    HW125841   6.324   6.591   6.461
 8314SOL    HW225842   6.477   6.593   6.404
 8315SOL     OW25843   3.932   3.035   2.923
 8315SOL    HW125844   3.992   3.078   2.991
 8315SOL    HW225845   3.847   3.005   2.968
 8316SOL     OW25846   1.789   3.343   1.212
 8316SOL    HW125847   1.733   3.333   1.294
 8316SOL    HW225848   1.877   3.299   1.227
 8317SOL     OW25849   1.752   2.006   2.829
 8317SOL    HW125850   1.727   2.087   2.882
 8317SOL    HW225851   1.804   1.943   2.887
 8318SOL     OW25852   3.817   1.546   6.105
 8318SOL    HW125853   3.867   1.584   6.183
 8318SOL    HW225854   3.868   1.469   6.067
 8319SOL     OW25855   1.239   0.257   0.553
 8319SOL    HW125856   1.187   0.288   0.473
 8319SOL    HW225857   1.333   0.236   0.526
 8320SOL     OW25858   3.261   4.114   3.424
 8320SOL    HW125859   3.268   4.213   3.434
 8320SOL    HW225860   3.329   4.082   3.358
 8321SOL     OW25861   7.014   6.939   0.022
 8321SOL    HW125862   7.015   7.006   0.096
 8321SOL    HW225863   6.940   6.961   6.981
 8322SOL     OW25864   6.871   1.727   0.788
 8322SOL    HW125865   6.774   1.708   0.772
 8322SOL    HW225866   6.883   1.824   0.807
 8323SOL     OW25867   3.781   4.982   1.465
 8323SOL    HW125868   3.769   4.908   1.530
 8323SOL    HW225869   3.834   5.055   1.507
 8324SOL     OW25870   5.178   0.805   0.605
 8324SOL    HW125871   5.188   0.823   0.507
 8324SOL    HW225872   5.135   0.884   0.649
 8325SOL     OW25873   0.563   3.613   5.307
 8325SOL    HW125874   0.602   3.668   5.232
 8325SOL    HW225875   0.505   3.541   5.269
 8326SOL     OW25876   4.235   3.939   6.330
 8326SOL    HW125877   4.315   3.968   6.277
 8326SOL    HW225878   4.233   3.839   6.336
 8327SOL     OW25879   1.037   0.568   5.698
 8327SOL    HW125880   0.959   0.542   5.756
 8327SOL    HW225881   1.042   0.667   5.691
 8328SOL     OW25882   2.772   6.375   6.536
 8328SOL    HW125883   2.739   6.295   6.587
 8328SOL    HW225884   2.860   6.353   6.494
 8329SOL     OW25885   0.441   2.062   5.212
 8329SOL    HW125886   0.482   2.129   5.274
 8329SOL    HW225887   0.438   2.100   5.119
 8330SOL     OW25888   3.226   1.448   6.810
 8330SOL    HW125889   3.172   1.427   6.728
 8330SOL    HW225890   3.310   1.496   6.783
 8331SOL     OW25891   3.518   0.949   0.704
 8331SOL    HW125892   3.493   0.945   0.607
 8331SOL    HW225893   3.587   1.020   0.717
 8332SOL     OW25894   5.759   5.394   1.962
 8332SOL    HW125895   5.694   5.437   1.900
 8332SOL    HW225896   5.709   5.351   2.038
 8333SOL     OW25897   1.239   4.598   6.566
 8333SOL    HW125898   1.328   4.577   6.607
 8333SOL    HW225899   1.168   4.547   6.614
 8334SOL     OW25900   3.100   2.142   5.832
 8334SOL    HW125901   3.066   2.198   5.758
 8334SOL    HW225902   3.168   2.077   5.797
 8335SOL     OW25903   4.034   1.548   0.105
 8335SOL    HW125904   3.936   1.564   0.104
 8335SOL    HW225905   4.067   1.548   0.199
 8336SOL     OW25906   0.581   3.750   3.075
 8336SOL    HW125907   0.645   3.706   3.013
 8336SOL    HW225908   0.614   3.841   3.100
 8337SOL     OW25909   0.522   6.891   4.247
 8337SOL    HW125910   0.450   6.917   4.182
 8337SOL    HW225911   0.519   6.792   4.262
 8338SOL     OW25912   3.837   5.551   1.370
 8338SOL    HW125913   3.860   5.602   1.453
 8338SOL    HW225914   3.842   5.612   1.291
 8339SOL     OW25915   0.230   1.077   2.058
 8339SOL    HW125916   0.173   1.154   2.085
 8339SOL    HW225917   0.190   0.992   2.092
 8340SOL     OW25918   5.048   3.895   1.046
 8340SOL    HW125919   5.036   3.885   1.145
 8340SOL    HW225920   4.988   3.967   1.012
 8341SOL     OW25921   3.726   0.305   6.883
 8341SOL    HW125922   3.630   0.279   6.884
 8341SOL    HW225923   3.769   0.272   6.799
 8342SOL     OW25924   4.257   6.523   0.375
 8342SOL    HW125925   4.254   6.562   0.283
 8342SOL    HW225926   4.217   6.432   0.373
 8343SOL     OW25927   0.096   5.438   3.355
 8343SOL    HW125928   0.064   5.380   3.281
 8343SOL    HW225929   0.074   5.395   3.443
 8344SOL     OW25930   6.654   5.001   4.647
 8344SOL    HW125931   6.614   4.950   4.571
 8344SOL    HW225932   6.744   5.037   4.619
 8345SOL     OW25933   4.177   2.087   3.335
 8345SOL    HW125934   4.256   2.125   3.286
 8345SOL    HW225935   4.146   2.003   3.290
 8346SOL     OW25936   4.004   4.469   0.072
 8346SOL    HW125937   4.085   4.469   0.013
 8346SOL    HW225938   3.934   4.408   0.034
 8347SOL     OW25939   3.151   6.347   5.892
 8347SOL    HW125940   3.161   6.251   5.868
 8347SOL    HW225941   3.238   6.395   5.877
 8348SOL     OW25942   2.061   0.926   1.563
 8348SOL    HW125943   2.007   0.991   1.616
 8348SOL    HW225944   2.151   0.965   1.544
 8349SOL     OW25945   1.028   6.797   2.341
 8349SOL    HW125946   1.094   6.788   2.266
 8349SOL    HW225947   0.978   6.711   2.352
 8350SOL     OW25948   3.129   6.606   6.365
 8350SOL    HW125949   3.215   6.567   6.331
 8350SOL    HW225950   3.063   6.532   6.379
 8351SOL     OW25951   5.324   5.702   4.685
 8351SOL    HW125952   5.227   5.707   4.662
 8351SOL    HW225953   5.350   5.608   4.705
 8352SOL     OW25954   1.475   0.029   3.119
 8352SOL    HW125955   1.472   6.959   3.081
 8352SOL    HW225956   1.389   0.077   3.098
 8353SOL     OW25957   0.889   3.269   0.774
 8353SOL    HW125958   0.844   3.196   0.825
 8353SOL    HW225959   0.903   3.240   0.680
 8354SOL     OW25960   3.279   6.999   4.220
 8354SOL    HW125961   3.310   0.070   4.243
 8354SOL    HW225962   3.335   6.963   4.145
 8355SOL     OW25963   2.058   1.356   4.575
 8355SOL    HW125964   2.028   1.419   4.504
 8355SOL    HW225965   2.005   1.372   4.658
 8356SOL     OW25966   1.529   5.903   1.279
 8356SOL    HW125967   1.484   5.984   1.317
 8356SOL    HW225968   1.479   5.871   1.199
 8357SOL     OW25969   3.745   6.945   5.765
 8357SOL    HW125970   3.747   0.021   5.782
 8357SOL    HW225971   3.787   6.926   5.676
 8358SOL     OW25972   0.830   3.398   4.426
 8358SOL    HW125973   0.904   3.445   4.377
 8358SOL    HW225974   0.860   3.306   4.450
 8359SOL     OW25975   2.929   1.408   4.872
 8359SOL    HW125976   2.936   1.312   4.897
 8359SOL    HW225977   2.981   1.426   4.789
 8360SOL     OW25978   4.668   0.183   0.621
 8360SOL    HW125979   4.573   0.209   0.634
 8360SOL    HW225980   4.724   0.265   0.607
 8361SOL     OW25981   3.445   0.625   0.855
 8361SOL    HW125982   3.520   0.563   0.831
 8361SOL    HW225983   3.461   0.714   0.815
 8362SOL     OW25984   5.261   2.086   0.612
 8362SOL    HW125985   5.307   2.157   0.664
 8362SOL    HW225986   5.221   2.125   0.529
 8363SOL     OW25987   4.985   2.408   0.078
 8363SOL    HW125988   5.028   2.327   0.038
 8363SOL    HW225989   4.913   2.379   0.142
 8364SOL     OW25990   6.971   2.481   4.025
 8364SOL    HW125991   6.986   2.564   3.972
 8364SOL    HW225992   0.022   2.415   4.005
 8365SOL     OW25993   1.961   2.114   2.401
 8365SOL    HW125994   1.982   2.201   2.358
 8365SOL    HW225995   1.900   2.061   2.342
 8366SOL     OW25996   2.906   5.219   0.886
 8366SOL    HW125997   2.908   5.250   0.791
 8366SOL    HW225998   2.923   5.297   0.946
 8367SOL     OW25999   3.438   5.608   4.959
 8367SOL    HW126000   3.515   5.664   4.988
 8367SOL    HW226001   3.352   5.652   4.984
 8368SOL     OW26002   0.845   6.153   0.259
 8368SOL    HW126003   0.818   6.165   0.355
 8368SOL    HW226004   0.794   6.077   0.219
 8369SOL     OW26005   0.758   0.778   6.800
 8369SOL    HW126006   0.828   0.819   6.859
 8369SOL    HW226007   0.798   0.702   6.748
 8370SOL     OW26008   2.156   1.211   6.196
 8370SOL    HW126009   2.089   1.185   6.127
 8370SOL    HW226010   2.247   1.181   6.168
 8371SOL     OW26011   2.444   3.988   0.443
 8371SOL    HW126012   2.506   3.910   0.448
 8371SOL    HW226013   2.377   3.973   0.370
 8372SOL     OW26014   1.274   6.129   1.746
 8372SOL    HW126015   1.308   6.037   1.766
 8372SOL    HW226016   1.209   6.125   1.670
 8373SOL     OW26017   2.055   6.764   4.414
 8373SOL    HW126018   1.983   6.694   4.411
 8373SOL    HW226019   2.099   6.770   4.324
 8374SOL     OW26020   0.219   7.011   4.822
 8374SOL    HW126021   0.151   0.025   4.759
 8374SOL    HW226022   0.307   7.002   4.775
 8375SOL     OW26023   3.865   6.491   5.888
 8375SOL    HW126024   3.945   6.504   5.828
 8375SOL    HW226025   3.830   6.579   5.918
 8376SOL     OW26026   1.370   1.207   4.038
 8376SOL    HW126027   1.462   1.215   3.999
 8376SOL    HW226028   1.302   1.234   3.969
 8377SOL     OW26029   5.514   6.517   0.269
 8377SOL    HW126030   5.579   6.452   0.310
 8377SOL    HW226031   5.421   6.482   0.282
 8378SOL     OW26032   3.513   4.879   3.158
 8378SOL    HW126033   3.497   4.893   3.255
 8378SOL    HW226034   3.425   4.875   3.110
 8379SOL     OW26035   5.030   3.049   1.924
 8379SOL    HW126036   5.009   3.117   1.854
 8379SOL    HW226037   4.947   3.027   1.975
 8380SOL     OW26038   0.244   0.149   0.376
 8380SOL    HW126039   0.309   0.215   0.415
 8380SOL    HW226040   0.283   0.109   0.294
 8381SOL     OW26041   6.898   2.043   3.960
 8381SOL    HW126042   6.870   2.114   4.024
 8381SOL    HW226043   6.862   2.064   3.869
 8382SOL     OW26044   2.141   6.533   1.738
 8382SOL    HW126045   2.147   6.486   1.826
 8382SOL    HW226046   2.214   6.500   1.678
 8383SOL     OW26047   2.932   0.076   5.843
 8383SOL    HW126048   3.012   0.119   5.800
 8383SOL    HW226049   2.856   0.075   5.779
 8384SOL     OW26050   6.163   1.700   1.682
 8384SOL    HW126051   6.177   1.603   1.661
 8384SOL    HW226052   6.092   1.737   1.622
 8385SOL     OW26053   4.564   2.283   6.702
 8385SOL    HW126054   4.514   2.364   6.733
 8385SOL    HW226055   4.520   2.246   6.620
 8386SOL     OW26056   1.628   6.039   1.949
 8386SOL    HW126057   1.684   5.984   1.887
 8386SOL    HW226058   1.535   6.002   1.952
 8387SOL     OW26059   1.284   1.844   1.304
 8387SOL    HW126060   1.192   1.806   1.300
 8387SOL    HW226061   1.295   1.897   1.388
 8388SOL     OW26062   2.255   6.403   0.644
 8388SOL    HW126063   2.163   6.393   0.607
 8388SOL    HW226064   2.318   6.427   0.570
 8389SOL     OW26065   0.209   3.121   4.124
 8389SOL    HW126066   0.194   3.187   4.050
 8389SOL    HW226067   0.299   3.080   4.115
 8390SOL     OW26068   3.843   6.464   0.312
 8390SOL    HW126069   3.876   6.392   0.373
 8390SOL    HW226070   3.781   6.524   0.362
 8391SOL     OW26071   4.829   5.097   1.177
 8391SOL    HW126072   4.768   5.023   1.207
 8391SOL    HW226073   4.924   5.069   1.192
 8392SOL     OW26074   0.044   5.799   5.314
 8392SOL    HW126075   0.060   5.845   5.227
 8392SOL    HW226076   6.996   5.728   5.302
 8393SOL     OW26077   0.171   0.138   3.629
 8393SOL    HW126078   0.235   0.111   3.557
 8393SOL    HW226079   0.218   0.194   3.696
 8394SOL     OW26080   0.242   3.611   1.916
 8394SOL    HW126081   0.250   3.520   1.958
 8394SOL    HW226082   0.146   3.631   1.898
 8395SOL     OW26083   1.630   5.834   4.206
 8395SOL    HW126084   1.648   5.774   4.129
 8395SOL    HW226085   1.698   5.817   4.278
 8396SOL     OW26086   4.456   4.761   2.750
 8396SOL    HW126087   4.442   4.699   2.673
 8396SOL    HW226088   4.406   4.727   2.830
 8397SOL     OW26089   2.649   1.108   3.318
 8397SOL    HW126090   2.579   1.179   3.308
 8397SOL    HW226091   2.674   1.099   3.414
 8398SOL     OW26092   4.265   2.605   6.345
 8398SOL    HW126093   4.347   2.583   6.399
 8398SOL    HW226094   4.275   2.568   6.253
 8399SOL     OW26095   6.202   0.386   0.095
 8399SOL    HW126096   6.237   0.303   0.139
 8399SOL    HW226097   6.249   0.400   0.008
 8400SOL     OW26098   1.527   0.518   3.914
 8400SOL    HW126099   1.533   0.485   4.009
 8400SOL    HW226100   1.437   0.559   3.899
 8401SOL     OW26101   3.111   2.104   6.116
 8401SOL    HW126102   3.060   2.187   6.137
 8401SOL    HW226103   3.138   2.106   6.019
 8402SOL     OW26104   3.814   2.050   5.618
 8402SOL    HW126105   3.910   2.073   5.601
 8402SOL    HW226106   3.791   1.966   5.569
 8403SOL     OW26107   1.043   2.064   3.221
 8403SOL    HW126108   1.008   2.081   3.314
 8403SOL    HW226109   1.008   1.977   3.187
 8404SOL     OW26110   4.329   6.241   6.273
 8404SOL    HW126111   4.351   6.234   6.176
 8404SOL    HW226112   4.294   6.154   6.306
 8405SOL     OW26113   2.430   0.911   5.787
 8405SOL    HW126114   2.520   0.872   5.805
 8405SOL    HW226115   2.441   0.997   5.736
 8406SOL     OW26116   5.122   6.919   0.803
 8406SOL    HW126117   5.088   6.832   0.766
 8406SOL    HW226118   5.213   6.937   0.766
 8407SOL     OW26119   4.675   6.452   4.315
 8407SOL    HW126120   4.593   6.440   4.371
 8407SOL    HW226121   4.756   6.423   4.367
 8408SOL     OW26122   5.003   2.797   2.369
 8408SOL    HW126123   4.939   2.848   2.311
 8408SOL    HW226124   5.036   2.856   2.442
 8409SOL     OW26125   6.258   2.925   3.474
 8409SOL    HW126126   6.291   2.834   3.452
 8409SOL    HW226127   6.307   2.961   3.553
 8410SOL     OW26128   4.987   6.817   1.714
 8410SOL    HW126129   4.905   6.858   1.675
 8410SOL    HW226130   5.021   6.875   1.788
 8411SOL     OW26131   0.763   5.468   0.035
 8411SOL    HW126132   0.791   5.557   0.070
 8411SOL    HW226133   0.666   5.454   0.052
 8412SOL     OW26134   3.816   1.996   1.926
 8412SOL    HW126135   3.772   1.959   1.844
 8412SOL    HW226136   3.780   2.087   1.946
 8413SOL     OW26137   4.016   5.482   0.080
 8413SOL    HW126138   4.107   5.449   0.104
 8413SOL    HW226139   3.948   5.413   0.106
 8414SOL     OW26140   4.356   5.480   3.119
 8414SOL    HW126141   4.375   5.564   3.170
 8414SOL    HW226142   4.397   5.485   3.028
 8415SOL     OW26143   6.713   5.541   3.391
 8415SOL    HW126144   6.750   5.595   3.467
 8415SOL    HW226145   6.688   5.602   3.316
 8416SOL     OW26146   5.513   3.743   2.432
 8416SOL    HW126147   5.471   3.726   2.343
 8416SOL    HW226148   5.446   3.728   2.504
 8417SOL     OW26149   1.242   5.346   6.225
 8417SOL    HW126150   1.297   5.267   6.248
 8417SOL    HW226151   1.230   5.404   6.305
 8418SOL     OW26152   5.876   5.218   1.287
 8418SOL    HW126153   5.960   5.172   1.259
 8418SOL    HW226154   5.831   5.164   1.359
 8419SOL     OW26155   5.105   1.010   2.632
 8419SOL    HW126156   5.072   1.102   2.606
 8419SOL    HW226157   5.152   0.969   2.554
 8420SOL     OW26158   4.214   6.999   0.558
 8420SOL    HW126159   4.277   6.995   0.480
 8420SOL    HW226160   4.141   0.043   0.538
 8421SOL     OW26161   3.283   6.010   0.485
 8421SOL    HW126162   3.230   5.925   0.484
 8421SOL    HW226163   3.315   6.030   0.393
 8422SOL     OW26164   4.550   0.772   1.069
 8422SOL    HW126165   4.472   0.835   1.064
 8422SOL    HW226166   4.523   0.690   1.118
 8423SOL     OW26167   3.880   4.720   5.823
 8423SOL    HW126168   3.969   4.699   5.862
 8423SOL    HW226169   3.821   4.639   5.828
 8424SOL     OW26170   2.433   2.539   2.727
 8424SOL    HW126171   2.411   2.618   2.784
 8424SOL    HW226172   2.349   2.504   2.685
 8425SOL     OW26173   5.540   5.473   0.384
 8425SOL    HW126174   5.490   5.556   0.360
 8425SOL    HW226175   5.630   5.475   0.341
 8426SOL     OW26176   3.239   3.365   4.040
 8426SOL    HW126177   3.165   3.308   4.005
 8426SOL    HW226178   3.248   3.447   3.983
 8427SOL     OW26179   2.803   3.323   5.273
 8427SOL    HW126180   2.782   3.225   5.275
 8427SOL    HW226181   2.872   3.341   5.203
 8428SOL     OW26182   0.226   4.202   1.685
 8428SOL    HW126183   0.287   4.220   1.762
 8428SOL    HW226184   0.211   4.287   1.634
 8429SOL     OW26185   2.342   4.428   3.654
 8429SOL    HW126186   2.262   4.478   3.620
 8429SOL    HW226187   2.395   4.487   3.714
 8430SOL     OW26188   3.597   5.156   4.341
 8430SOL    HW126189   3.540   5.091   4.292
 8430SOL    HW226190   3.543   5.203   4.411
 8431SOL     OW26191   3.008   5.414   0.611
 8431SOL    HW126192   2.925   5.462   0.640
 8431SOL    HW226193   3.087   5.454   0.657
 8432SOL     OW26194   5.688   0.026   6.315
 8432SOL    HW126195   5.644   0.091   6.252
 8432SOL    HW226196   5.681   6.955   6.278
 8433SOL     OW26197   5.724   1.773   0.577
 8433SOL    HW126198   5.729   1.691   0.634
 8433SOL    HW226199   5.654   1.760   0.507
 8434SOL     OW26200   3.610   6.862   4.967
 8434SOL    HW126201   3.596   6.811   4.882
 8434SOL    HW226202   3.531   6.920   4.984
 8435SOL     OW26203   5.580   0.559   1.036
 8435SOL    HW126204   5.584   0.644   0.984
 8435SOL    HW226205   5.544   0.578   1.128
 8436SOL     OW26206   3.275   0.266   4.299
 8436SOL    HW126207   3.225   0.313   4.227
 8436SOL    HW226208   3.219   0.261   4.381
 8437SOL     OW26209   1.897   0.139   3.627
 8437SOL    HW126210   1.981   0.176   3.667
 8437SOL    HW226211   1.824   0.140   3.696
 8438SOL     OW26212   2.513   4.974   1.862
 8438SOL    HW126213   2.570   5.015   1.934
 8438SOL    HW226214   2.539   4.879   1.850
 8439SOL     OW26215   6.206   5.152   2.486
 8439SOL    HW126216   6.213   5.149   2.386
 8439SOL    HW226217   6.243   5.068   2.524
 8440SOL     OW26218   1.073   1.994   3.572
 8440SOL    HW126219   1.137   2.070   3.564
 8440SOL    HW226220   1.100   1.921   3.508
 8441SOL     OW26221   5.968   0.027   0.178
 8441SOL    HW126222   6.046   0.019   0.239
 8441SOL    HW226223   5.956   0.123   0.152
 8442SOL     OW26224   3.003   2.274   5.590
 8442SOL    HW126225   2.939   2.212   5.545
 8442SOL    HW226226   2.956   2.358   5.616
 8443SOL     OW26227   1.528   5.832   3.830
 8443SOL    HW126228   1.503   5.842   3.734
 8443SOL    HW226229   1.451   5.860   3.888
 8444SOL     OW26230   3.390   5.934   3.757
 8444SOL    HW126231   3.328   6.008   3.785
 8444SOL    HW226232   3.339   5.848   3.753
 8445SOL     OW26233   3.549   5.953   1.292
 8445SOL    HW126234   3.648   5.969   1.295
 8445SOL    HW226235   3.531   5.858   1.269
 8446SOL     OW26236   4.905   5.013   6.868
 8446SOL    HW126237   4.879   4.944   6.800
 8446SOL    HW226238   4.823   5.050   6.911
 8447SOL     OW26239   5.335   2.332   2.021
 8447SOL    HW126240   5.245   2.325   2.064
 8447SOL    HW226241   5.355   2.427   1.999
 8448SOL     OW26242   4.823   5.680   4.109
 8448SOL    HW126243   4.820   5.777   4.086
 8448SOL    HW226244   4.881   5.666   4.189
 8449SOL     OW26245   6.652   2.782   4.017
 8449SOL    HW126246   6.586   2.708   4.029
 8449SOL    HW226247   6.664   2.801   3.920
 8450SOL     OW26248   1.011   5.890   1.673
 8450SOL    HW126249   1.064   5.951   1.614
 8450SOL    HW226250   0.943   5.841   1.617
 8451SOL     OW26251   4.474   2.663   0.645
 8451SOL    HW126252   4.437   2.751   0.616
 8451SOL    HW226253   4.569   2.653   0.613
 8452SOL     OW26254   6.730   0.822   3.018
 8452SOL    HW126255   6.695   0.745   2.965
 8452SOL    HW226256   6.660   0.893   3.024
 8453SOL     OW26257   0.313   4.196   6.144
 8453SOL    HW126258   0.406   4.189   6.107
 8453SOL    HW226259   0.250   4.143   6.088
 8454SOL     OW26260   0.179   6.666   1.078
 8454SOL    HW126261   0.259   6.605   1.077
 8454SOL    HW226262   0.096   6.611   1.079
 8455SOL     OW26263   5.764   2.367   2.003
 8455SOL    HW126264   5.743   2.421   1.922
 8455SOL    HW226265   5.699   2.291   2.011
 8456SOL     OW26266   4.940   5.877   2.781
 8456SOL    HW126267   4.858   5.829   2.811
 8456SOL    HW226268   4.980   5.926   2.859
 8457SOL     OW26269   6.925   6.766   4.632
 8457SOL    HW126270   6.846   6.785   4.690
 8457SOL    HW226271   6.926   6.830   4.555
 8458SOL     OW26272   2.599   1.464   6.513
 8458SOL    HW126273   2.526   1.425   6.456
 8458SOL    HW226274   2.558   1.521   6.585
 8459SOL     OW26275   3.011   6.582   2.119
 8459SOL    HW126276   2.979   6.677   2.116
 8459SOL    HW226277   2.938   6.521   2.089
 8460SOL     OW26278   4.782   3.247   5.616
 8460SOL    HW126279   4.855   3.216   5.556
 8460SOL    HW226280   4.709   3.288   5.561
 8461SOL     OW26281   0.231   4.085   3.301
 8461SOL    HW126282   0.234   4.078   3.400
 8461SOL    HW226283   0.322   4.108   3.266
 8462SOL     OW26284   3.701   2.280   6.883
 8462SOL    HW126285   3.751   2.194   6.878
 8462SOL    HW226286   3.603   2.260   6.896
 8463SOL     OW26287   6.229   0.073   0.305
 8463SOL    HW126288   6.312   0.086   0.251
 8463SOL    HW226289   6.241   7.016   0.366
 8464SOL     OW26290   5.497   3.557   5.696
 8464SOL    HW126291   5.418   3.563   5.758
 8464SOL    HW226292   5.514   3.647   5.657
 8465SOL     OW26293   1.839   2.981   1.023
 8465SOL    HW126294   1.861   2.904   0.963
 8465SOL    HW226295   1.857   2.955   1.118
 8466SOL     OW26296   0.672   6.829   5.531
 8466SOL    HW126297   0.584   6.856   5.490
 8466SOL    HW226298   0.676   6.729   5.536
 8467SOL     OW26299   4.154   0.359   1.369
 8467SOL    HW126300   4.146   0.416   1.287
 8467SOL    HW226301   4.062   0.336   1.402
 8468SOL     OW26302   4.432   2.384   0.189
 8468SOL    HW126303   4.521   2.383   0.144
 8468SOL    HW226304   4.440   2.427   0.278
 8469SOL     OW26305   3.805   1.555   5.270
 8469SOL    HW126306   3.719   1.534   5.317
 8469SOL    HW226307   3.858   1.621   5.324
 8470SOL     OW26308   0.812   4.684   0.252
 8470SOL    HW126309   0.740   4.721   0.193
 8470SOL    HW226310   0.877   4.632   0.197
 8471SOL     OW26311   3.824   0.445   4.175
 8471SOL    HW126312   3.789   0.366   4.225
 8471SOL    HW226313   3.873   0.414   4.093
 8472SOL     OW26314   6.708   0.876   5.470
 8472SOL    HW126315   6.777   0.947   5.483
 8472SOL    HW226316   6.669   0.850   5.558
 8473SOL     OW26317   6.476   6.277   0.823
 8473SOL    HW126318   6.445   6.182   0.817
 8473SOL    HW226319   6.473   6.306   0.919
 8474SOL     OW26320   3.418   3.194   2.694
 8474SOL    HW126321   3.464   3.228   2.776
 8474SOL    HW226322   3.481   3.198   2.617
 8475SOL     OW26323   7.002   1.925   3.656
 8475SOL    HW126324   6.952   1.859   3.600
 8475SOL    HW226325   0.005   2.004   3.600
 8476SOL     OW26326   6.695   2.148   1.093
 8476SOL    HW126327   6.644   2.123   1.176
 8476SOL    HW226328   6.630   2.173   1.021
 8477SOL     OW26329   4.656   6.714   2.318
 8477SOL    HW126330   4.694   6.631   2.357
 8477SOL    HW226331   4.691   6.727   2.225
 8478SOL     OW26332   1.496   0.436   6.322
 8478SOL    HW126333   1.404   0.412   6.352
 8478SOL    HW226334   1.554   0.452   6.402
 8479SOL     OW26335   0.343   2.518   1.329
 8479SOL    HW126336   0.389   2.511   1.418
 8479SOL    HW226337   0.303   2.609   1.320
 8480SOL     OW26338   4.993   2.749   6.677
 8480SOL    HW126339   4.926   2.761   6.604
 8480SOL    HW226340   4.980   2.659   6.719
 8481SOL     OW26341   4.541   2.520   5.068
 8481SOL    HW126342   4.447   2.488   5.058
 8481SOL    HW226343   4.604   2.444   5.054
 8482SOL     OW26344   4.482   6.047   2.527
 8482SOL    HW126345   4.537   6.009   2.453
 8482SOL    HW226346   4.501   5.998   2.612
 8483SOL     OW26347   3.736   6.457   1.653
 8483SOL    HW126348   3.836   6.446   1.649
 8483SOL    HW226349   3.706   6.448   1.748
 8484SOL     OW26350   6.873   6.170   3.371
 8484SOL    HW126351   6.882   6.110   3.291
 8484SOL    HW226352   6.819   6.250   3.346
 8485SOL     OW26353   3.135   2.553   0.132
 8485SOL    HW126354   3.200   2.500   0.186
 8485SOL    HW226355   3.152   2.650   0.145
 8486SOL     OW26356   2.466   1.316   2.356
 8486SOL    HW126357   2.394   1.325   2.424
 8486SOL    HW226358   2.507   1.406   2.339
 8487SOL     OW26359   6.244   1.344   5.565
 8487SOL    HW126360   6.227   1.376   5.658
 8487SOL    HW226361   6.180   1.271   5.542
 8488SOL     OW26362   4.866   6.366   0.460
 8488SOL    HW126363   4.924   6.356   0.541
 8488SOL    HW226364   4.819   6.280   0.442
 8489SOL     OW26365   6.047   2.064   1.648
 8489SOL    HW126366   5.954   2.089   1.671
 8489SOL    HW226367   6.110   2.104   1.715
 8490SOL     OW26368   4.199   0.018   4.039
 8490SOL    HW126369   4.121   0.013   4.102
 8490SOL    HW226370   4.202   0.109   3.998
 8491SOL     OW26371   2.690   5.849   1.518
 8491SOL    HW126372   2.627   5.771   1.519
 8491SOL    HW226373   2.641   5.932   1.493
 8492SOL     OW26374   5.147   4.058   4.959
 8492SOL    HW126375   5.169   4.150   4.926
 8492SOL    HW226376   5.220   3.995   4.934
 8493SOL     OW26377   2.411   2.529   6.278
 8493SOL    HW126378   2.393   2.458   6.346
 8493SOL    HW226379   2.340   2.599   6.283
 8494SOL     OW26380   3.763   5.446   1.730
 8494SOL    HW126381   3.689   5.456   1.663
 8494SOL    HW226382   3.805   5.535   1.747
 8495SOL     OW26383   6.470   5.229   2.325
 8495SOL    HW126384   6.507   5.136   2.320
 8495SOL    HW226385   6.382   5.233   2.278
 8496SOL     OW26386   1.156   2.133   2.105
 8496SOL    HW126387   1.195   2.059   2.160
 8496SOL    HW226388   1.158   2.109   2.008
 8497SOL     OW26389   0.126   0.733   3.862
 8497SOL    HW126390   0.090   0.720   3.770
 8497SOL    HW226391   0.222   0.758   3.858
 8498SOL     OW26392   5.973   5.890   3.399
 8498SOL    HW126393   5.943   5.951   3.325
 8498SOL    HW226394   6.036   5.821   3.362
 8499SOL     OW26395   1.769   4.491   6.586
 8499SOL    HW126396   1.831   4.496   6.664
 8499SOL    HW226397   1.759   4.582   6.546
 8500SOL     OW26398   1.673   6.549   5.554
 8500SOL    HW126399   1.728   6.499   5.488
 8500SOL    HW226400   1.587   6.576   5.512
 8501SOL     OW26401   0.298   2.487   6.779
 8501SOL    HW126402   0.359   2.443   6.846
 8501SOL    HW226403   0.340   2.572   6.747
 8502SOL     OW26404   0.454   3.477   1.292
 8502SOL    HW126405   0.416   3.494   1.383
 8502SOL    HW226406   0.456   3.562   1.239
 8503SOL     OW26407   0.575   6.312   4.021
 8503SOL    HW126408   0.492   6.290   3.969
 8503SOL    HW226409   0.561   6.290   4.118
 8504SOL     OW26410   2.513   4.833   2.689
 8504SOL    HW126411   2.415   4.844   2.702
 8504SOL    HW226412   2.542   4.743   2.722
 8505SOL     OW26413   5.640   3.233   3.509
 8505SOL    HW126414   5.652   3.160   3.442
 8505SOL    HW226415   5.569   3.297   3.478
 8506SOL     OW26416   0.999   0.772   6.967
 8506SOL    HW126417   1.071   0.789   0.011
 8506SOL    HW226418   0.960   0.681   6.982
 8507SOL     OW26419   3.752   0.766   4.816
 8507SOL    HW126420   3.766   0.725   4.906
 8507SOL    HW226421   3.778   0.862   4.818
 8508SOL     OW26422   4.936   1.602   4.894
 8508SOL    HW126423   4.897   1.650   4.816
 8508SOL    HW226424   4.979   1.668   4.956
 8509SOL     OW26425   4.789   1.103   4.346
 8509SOL    HW126426   4.832   1.030   4.399
 8509SOL    HW226427   4.727   1.064   4.279
 8510SOL     OW26428   5.661   4.226   2.797
 8510SOL    HW126429   5.621   4.318   2.791
 8510SOL    HW226430   5.604   4.162   2.746
 8511SOL     OW26431   5.587   4.288   2.198
 8511SOL    HW126432   5.635   4.254   2.280
 8511SOL    HW226433   5.492   4.256   2.200
 8512SOL     OW26434   2.873   1.747   1.913
 8512SOL    HW126435   2.921   1.688   1.849
 8512SOL    HW226436   2.828   1.691   1.983
 8513SOL     OW26437   6.264   5.067   0.907
 8513SOL    HW126438   6.303   5.156   0.884
 8513SOL    HW226439   6.309   5.031   0.988
 8514SOL     OW26440   2.401   2.121   4.015
 8514SOL    HW126441   2.369   2.211   3.985
 8514SOL    HW226442   2.501   2.119   4.014
 8515SOL     OW26443   4.915   2.080   1.242
 8515SOL    HW126444   4.818   2.057   1.245
 8515SOL    HW226445   4.938   2.136   1.321
 8516SOL     OW26446   6.175   2.190   2.034
 8516SOL    HW126447   6.253   2.135   2.006
 8516SOL    HW226448   6.145   2.162   2.125
 8517SOL     OW26449   0.792   2.521   6.732
 8517SOL    HW126450   0.887   2.554   6.735
 8517SOL    HW226451   0.731   2.597   6.712
 8518SOL     OW26452   4.222   4.498   6.913
 8518SOL    HW126453   4.300   4.556   6.937
 8518SOL    HW226454   4.184   4.528   6.826
 8519SOL     OW26455   1.696   4.613   1.935
 8519SOL    HW126456   1.717   4.557   1.855
 8519SOL    HW226457   1.780   4.641   1.980
 8520SOL     OW26458   3.294   2.379   0.305
 8520SOL    HW126459   3.309   2.292   0.351
 8520SOL    HW226460   3.380   2.410   0.263
 8521SOL     OW26461   1.700   4.442   5.956
 8521SOL    HW126462   1.652   4.508   5.898
 8521SOL    HW226463   1.753   4.491   6.025
 8522SOL     OW26464   1.284   5.470   1.375
 8522SOL    HW126465   1.373   5.487   1.416
 8522SOL    HW226466   1.255   5.376   1.393
 8523SOL     OW26467   3.364   6.939   6.608
 8523SOL    HW126468   3.285   6.966   6.663
 8523SOL    HW226469   3.355   6.974   6.515
 8524SOL     OW26470   0.947   2.024   4.785
 8524SOL    HW126471   0.869   2.052   4.841
 8524SOL    HW226472   1.018   2.094   4.789
 8525SOL     OW26473   6.053   4.169   3.126
 8525SOL    HW126474   6.041   4.142   3.222
 8525SOL    HW226475   6.110   4.101   3.079
 8526SOL     OW26476   3.750   4.994   6.915
 8526SOL    HW126477   3.813   5.070   6.929
 8526SOL    HW226478   3.666   5.009   6.967
 8527SOL     OW26479   3.072   0.646   5.541
 8527SOL    HW126480   3.081   0.677   5.446
 8527SOL    HW226481   2.975   0.644   5.566
 8528SOL     OW26482   4.988   2.804   5.962
 8528SOL    HW126483   5.068   2.861   5.976
 8528SOL    HW226484   4.922   2.852   5.905
 8529SOL     OW26485   0.298   0.058   0.985
 8529SOL    HW126486   0.320   0.115   1.064
 8529SOL    HW226487   0.223   7.019   1.007
 8530SOL     OW26488   2.405   3.792   5.313
 8530SOL    HW126489   2.494   3.747   5.311
 8530SOL    HW226490   2.413   3.882   5.271
 8531SOL     OW26491   6.716   4.219   1.506
 8531SOL    HW126492   6.785   4.280   1.466
 8531SOL    HW226493   6.760   4.138   1.542
 8532SOL     OW26494   4.147   4.827   4.733
 8532SOL    HW126495   4.075   4.807   4.667
 8532SOL    HW226496   4.157   4.927   4.742
 8533SOL     OW26497   1.770   0.290   6.056
 8533SOL    HW126498   1.693   0.308   5.995
 8533SOL    HW226499   1.855   0.292   6.003
 8534SOL     OW26500   6.469   3.370   4.302
 8534SOL    HW126501   6.469   3.469   4.285
 8534SOL    HW226502   6.490   3.352   4.398
 8535SOL     OW26503   0.607   2.133   4.884
 8535SOL    HW126504   0.641   2.219   4.847
 8535SOL    HW226505   0.526   2.104   4.832
 8536SOL     OW26506   6.095   2.379   4.848
 8536SOL    HW126507   6.078   2.477   4.837
 8536SOL    HW226508   6.161   2.364   4.921
 8537SOL     OW26509   5.447   1.466   2.714
 8537SOL    HW126510   5.412   1.455   2.621
 8537SOL    HW226511   5.377   1.436   2.779
 8538SOL     OW26512   1.188   1.656   5.907
 8538SOL    HW126513   1.249   1.600   5.964
 8538SOL    HW226514   1.104   1.606   5.890
 8539SOL     OW26515   6.510   1.350   1.924
 8539SOL    HW126516   6.459   1.435   1.909
 8539SOL    HW226517   6.607   1.365   1.905
 8540SOL     OW26518   4.388   1.634   0.153
 8540SOL    HW126519   4.438   1.559   0.198
 8540SOL    HW226520   4.304   1.654   0.204
 8541SOL     OW26521   3.050   2.022   4.473
 8541SOL    HW126522   3.104   1.952   4.427
 8541SOL    HW226523   2.955   2.018   4.441
 8542SOL     OW26524   2.358   4.726   6.105
 8542SOL    HW126525   2.408   4.802   6.145
 8542SOL    HW226526   2.419   4.647   6.096
 8543SOL     OW26527   3.090   1.145   0.006
 8543SOL    HW126528   3.059   1.240   0.008
 8543SOL    HW226529   3.187   1.142   0.031
 8544SOL     OW26530   5.459   3.041   4.463
 8544SOL    HW126531   5.447   2.971   4.393
 8544SOL    HW226532   5.433   3.004   4.552
 8545SOL     OW26533   4.946   0.111   4.494
 8545SOL    HW126534   4.934   0.025   4.445
 8545SOL    HW226535   5.005   0.171   4.440
 8546SOL     OW26536   0.835   0.018   2.871
 8546SOL    HW126537   0.775   0.020   2.791
 8546SOL    HW226538   0.802   0.084   2.938
 8547SOL     OW26539   1.005   6.995   6.784
 8547SOL    HW126540   0.959   0.032   6.718
 8547SOL    HW226541   0.966   7.010   6.875
 8548SOL     OW26542   6.694   2.795   6.146
 8548SOL    HW126543   6.673   2.892   6.159
 8548SOL    HW226544   6.773   2.770   6.203
 8549SOL     OW26545   1.055   2.701   4.247
 8549SOL    HW126546   1.076   2.651   4.164
 8549SOL    HW226547   1.015   2.790   4.224
 8550SOL     OW26548   1.226   5.340   0.389
 8550SOL    HW126549   1.286   5.323   0.467
 8550SOL    HW226550   1.235   5.266   0.323
 8551SOL     OW26551   2.916   2.935   0.181
 8551SOL    HW126552   2.826   2.976   0.198
 8551SOL    HW226553   2.940   2.875   0.257
 8552SOL     OW26554   2.072   0.748   2.846
 8552SOL    HW126555   2.131   0.758   2.927
 8552SOL    HW226556   2.055   0.650   2.831
 8553SOL     OW26557   4.152   4.531   6.649
 8553SOL    HW126558   4.171   4.598   6.577
 8553SOL    HW226559   4.072   4.477   6.623
 8554SOL     OW26560   0.529   5.515   0.617
 8554SOL    HW126561   0.625   5.501   0.592
 8554SOL    HW226562   0.522   5.529   0.716
 8555SOL     OW26563   3.162   1.090   3.471
 8555SOL    HW126564   3.131   1.092   3.376
 8555SOL    HW226565   3.252   1.047   3.476
 8556SOL     OW26566   2.157   6.807   5.353
 8556SOL    HW126567   2.072   6.785   5.402
 8556SOL    HW226568   2.217   6.727   5.354
 8557SOL     OW26569   6.496   6.566   2.421
 8557SOL    HW126570   6.582   6.603   2.386
 8557SOL    HW226571   6.426   6.637   2.421
 8558SOL     OW26572   2.553   5.448   2.919
 8558SOL    HW126573   2.604   5.382   2.974
 8558SOL    HW226574   2.478   5.485   2.974
 8559SOL     OW26575   2.147   0.118   2.179
 8559SOL    HW126576   2.216   0.187   2.157
 8559SOL    HW226577   2.118   0.129   2.274
 8560SOL     OW26578   1.001   6.170   1.895
 8560SOL    HW126579   0.997   6.256   1.845
 8560SOL    HW226580   1.052   6.102   1.842
 8561SOL     OW26581   3.473   0.304   2.985
 8561SOL    HW126582   3.521   0.275   2.902
 8561SOL    HW226583   3.375   0.283   2.975
 8562SOL     OW26584   4.379   6.459   6.454
 8562SOL    HW126585   4.342   6.378   6.501
 8562SOL    HW226586   4.419   6.431   6.367
 8563SOL     OW26587   0.692   4.859   1.295
 8563SOL    HW126588   0.610   4.890   1.248
 8563SOL    HW226589   0.706   4.913   1.378
 8564SOL     OW26590   3.186   0.303   5.071
 8564SOL    HW126591   3.107   0.362   5.083
 8564SOL    HW226592   3.223   0.278   5.160
 8565SOL     OW26593   3.512   5.130   1.044
 8565SOL    HW126594   3.450   5.141   1.122
 8565SOL    HW226595   3.592   5.077   1.072
 8566SOL     OW26596   0.478   6.427   1.715
 8566SOL    HW126597   0.385   6.457   1.738
 8566SOL    HW226598   0.514   6.484   1.641
 8567SOL     OW26599   6.801   1.901   2.462
 8567SOL    HW126600   6.768   1.896   2.368
 8567SOL    HW226601   6.811   1.808   2.498
 8568SOL     OW26602   5.393   1.536   6.762
 8568SOL    HW126603   5.439   1.468   6.819
 8568SOL    HW226604   5.418   1.521   6.666
 8569SOL     OW26605   4.442   1.413   5.599
 8569SOL    HW126606   4.393   1.367   5.526
 8569SOL    HW226607   4.524   1.458   5.562
 8570SOL     OW26608   1.415   1.184   4.492
 8570SOL    HW126609   1.316   1.187   4.473
 8570SOL    HW226610   1.435   1.240   4.572
 8571SOL     OW26611   0.478   5.894   5.632
 8571SOL    HW126612   0.431   5.848   5.557
 8571SOL    HW226613   0.411   5.930   5.696
 8572SOL     OW26614   2.539   4.488   6.145
 8572SOL    HW126615   2.635   4.499   6.174
 8572SOL    HW226616   2.506   4.398   6.173
 8573SOL     OW26617   3.028   6.055   6.486
 8573SOL    HW126618   2.963   5.980   6.473
 8573SOL    HW226619   2.979   6.140   6.505
 8574SOL     OW26620   6.605   0.074   6.252
 8574SOL    HW126621   6.596   0.173   6.261
 8574SOL    HW226622   6.519   0.030   6.277
 8575SOL     OW26623   2.244   1.887   3.403
 8575SOL    HW126624   2.221   1.965   3.462
 8575SOL    HW226625   2.178   1.814   3.419
 8576SOL     OW26626   1.498   4.290   4.808
 8576SOL    HW126627   1.450   4.336   4.883
 8576SOL    HW226628   1.516   4.195   4.832
 8577SOL     OW26629   1.834   6.411   5.395
 8577SOL    HW126630   1.816   6.326   5.444
 8577SOL    HW226631   1.891   6.391   5.315
 8578SOL     OW26632   6.286   5.813   4.799
 8578SOL    HW126633   6.226   5.738   4.770
 8578SOL    HW226634   6.237   5.900   4.790
 8579SOL     OW26635   1.844   6.871   1.857
 8579SOL    HW126636   1.840   6.774   1.833
 8579SOL    HW226637   1.899   6.884   1.939
 8580SOL     OW26638   2.037   6.224   1.003
 8580SOL    HW126639   2.094   6.298   0.970
 8580SOL    HW226640   1.965   6.261   1.063
 8581SOL     OW26641   3.163   3.777   1.695
 8581SOL    HW126642   3.259   3.773   1.722
 8581SOL    HW226643   3.147   3.860   1.640
 8582SOL     OW26644   4.703   4.419   4.960
 8582SOL    HW126645   4.638   4.432   4.885
 8582SOL    HW226646   4.796   4.432   4.926
 8583SOL     OW26647   4.666   0.318   4.382
 8583SOL    HW126648   4.605   0.383   4.336
 8583SOL    HW226649   4.759   0.328   4.346
 8584SOL     OW26650   0.416   5.889   6.526
 8584SOL    HW126651   0.342   5.830   6.495
 8584SOL    HW226652   0.380   5.978   6.552
 8585SOL     OW26653   6.381   1.170   6.900
 8585SOL    HW126654   6.470   1.215   6.890
 8585SOL    HW226655   6.317   1.232   6.945
 8586SOL     OW26656   3.209   6.573   1.898
 8586SOL    HW126657   3.132   6.532   1.947
 8586SOL    HW226658   3.292   6.520   1.918
 8587SOL     OW26659   0.955   0.561   4.821
 8587SOL    HW126660   0.978   0.528   4.912
 8587SOL    HW226661   1.027   0.622   4.788
 8588SOL     OW26662   4.034   1.007   0.145
 8588SOL    HW126663   4.041   1.018   0.046
 8588SOL    HW226664   4.030   1.097   0.189
 8589SOL     OW26665   5.734   2.951   5.494
 8589SOL    HW126666   5.709   2.972   5.588
 8589SOL    HW226667   5.804   2.880   5.493
 8590SOL     OW26668   0.270   0.398   2.850
 8590SOL    HW126669   0.305   0.458   2.779
 8590SOL    HW226670   0.216   0.451   2.916
 8591SOL     OW26671   0.387   4.030   0.501
 8591SOL    HW126672   0.354   3.937   0.519
 8591SOL    HW226673   0.487   4.031   0.506
 8592SOL     OW26674   5.834   1.954   6.785
 8592SOL    HW126675   5.766   1.881   6.796
 8592SOL    HW226676   5.788   2.041   6.767
 8593SOL     OW26677   2.875   1.105   0.341
 8593SOL    HW126678   2.876   1.029   0.276
 8593SOL    HW226679   2.803   1.092   0.408
 8594SOL     OW26680   4.731   2.632   5.239
 8594SOL    HW126681   4.641   2.617   5.197
 8594SOL    HW226682   4.732   2.591   5.330
 8595SOL     OW26683   0.609   0.933   3.901
 8595SOL    HW126684   0.514   0.944   3.930
 8595SOL    HW226685   0.632   1.006   3.837
 8596SOL     OW26686   1.165   4.471   2.673
 8596SOL    HW126687   1.237   4.524   2.628
 8596SOL    HW226688   1.195   4.447   2.766
 8597SOL     OW26689   4.797   1.847   1.486
 8597SOL    HW126690   4.731   1.825   1.558
 8597SOL    HW226691   4.752   1.842   1.397
 8598SOL     OW26692   5.861   0.351   0.120
 8598SOL    HW126693   5.932   0.383   0.183
 8598SOL    HW226694   5.873   0.395   0.031
 8599SOL     OW26695   1.805   2.439   4.599
 8599SOL    HW126696   1.760   2.447   4.510
 8599SOL    HW226697   1.879   2.505   4.604
 8600SOL     OW26698   5.173   4.059   6.549
 8600SOL    HW126699   5.261   4.104   6.563
 8600SOL    HW226700   5.118   4.113   6.485
 8601SOL     OW26701   1.080   1.230   4.387
 8601SOL    HW126702   1.140   1.282   4.327
 8601SOL    HW226703   0.985   1.237   4.355
 8602SOL     OW26704   2.736   6.125   2.343
 8602SOL    HW126705   2.803   6.177   2.395
 8602SOL    HW226706   2.676   6.075   2.405
 8603SOL     OW26707   5.231   5.962   0.914
 8603SOL    HW126708   5.172   5.994   0.840
 8603SOL    HW226709   5.180   5.959   1.000
 8604SOL     OW26710   0.351   2.587   5.142
 8604SOL    HW126711   0.307   2.585   5.051
 8604SOL    HW226712   0.450   2.596   5.131
 8605SOL     OW26713   2.417   5.254   4.068
 8605SOL    HW126714   2.426   5.163   4.110
 8605SOL    HW226715   2.320   5.278   4.062
 8606SOL     OW26716   1.840   3.479   6.322
 8606SOL    HW126717   1.824   3.478   6.421
 8606SOL    HW226718   1.938   3.489   6.305
 8607SOL     OW26719   3.132   4.926   5.991
 8607SOL    HW126720   3.086   5.011   5.965
 8607SOL    HW226721   3.220   4.947   6.033
 8608SOL     OW26722   2.895   4.789   2.394
 8608SOL    HW126723   2.843   4.747   2.320
 8608SOL    HW226724   2.915   4.721   2.464
 8609SOL     OW26725   5.131   0.436   2.796
 8609SOL    HW126726   5.153   0.339   2.786
 8609SOL    HW226727   5.216   0.487   2.810
 8610SOL     OW26728   0.976   1.882   3.019
 8610SOL    HW126729   0.989   1.872   2.921
 8610SOL    HW226730   1.042   1.824   3.067
 8611SOL     OW26731   3.028   1.918   4.738
 8611SOL    HW126732   3.033   2.010   4.777
 8611SOL    HW226733   3.008   1.924   4.640
 8612SOL     OW26734   2.637   3.135   0.555
 8612SOL    HW126735   2.708   3.087   0.503
 8612SOL    HW226736   2.635   3.100   0.648
 8613SOL     OW26737   3.001   1.573   1.759
 8613SOL    HW126738   3.072   1.596   1.693
 8613SOL    HW226739   3.001   1.475   1.776
 8614SOL     OW26740   1.104   2.801   3.766
 8614SOL    HW126741   1.072   2.724   3.711
 8614SOL    HW226742   1.175   2.771   3.830
 8615SOL     OW26743   4.601   2.096   5.270
 8615SOL    HW126744   4.666   2.163   5.234
 8615SOL    HW226745   4.510   2.135   5.272
 8616SOL     OW26746   3.090   4.627   1.671
 8616SOL    HW126747   3.144   4.680   1.737
 8616SOL    HW226748   3.000   4.607   1.710
 8617SOL     OW26749   6.100   1.331   5.246
 8617SOL    HW126750   6.112   1.249   5.190
 8617SOL    HW226751   6.050   1.307   5.329
 8618SOL     OW26752   6.074   5.041   1.205
 8618SOL    HW126753   6.014   4.967   1.173
 8618SOL    HW226754   6.164   5.003   1.228
 8619SOL     OW26755   4.154   5.035   2.076
 8619SOL    HW126756   4.197   4.956   2.119
 8619SOL    HW226757   4.143   5.108   2.144
 8620SOL     OW26758   1.731   6.729   3.532
 8620SOL    HW126759   1.773   6.765   3.615
 8620SOL    HW226760   1.722   6.803   3.465
 8621SOL     OW26761   5.638   1.800   2.610
 8621SOL    HW126762   5.653   1.883   2.555
 8621SOL    HW226763   5.556   1.753   2.577
 8622SOL     OW26764   5.176   3.256   1.178
 8622SOL    HW126765   5.230   3.207   1.246
 8622SOL    HW226766   5.096   3.202   1.152
 8623SOL     OW26767   1.180   3.898   4.594
 8623SOL    HW126768   1.227   3.811   4.583
 8623SOL    HW226769   1.246   3.970   4.614
 8624SOL     OW26770   1.887   3.694   4.753
 8624SOL    HW126771   1.982   3.669   4.771
 8624SOL    HW226772   1.846   3.627   4.692
 8625SOL     OW26773   4.472   1.057   6.015
 8625SOL    HW126774   4.465   1.153   5.987
 8625SOL    HW226775   4.407   1.002   5.963
 8626SOL     OW26776   3.624   2.495   6.476
 8626SOL    HW126777   3.569   2.462   6.552
 8626SOL    HW226778   3.697   2.554   6.511
 8627SOL     OW26779   0.879   1.476   2.904
 8627SOL    HW126780   0.812   1.489   2.977
 8627SOL    HW226781   0.916   1.383   2.907
 8628SOL     OW26782   6.247   6.865   0.413
 8628SOL    HW126783   6.196   6.791   0.456
 8628SOL    HW226784   6.265   6.842   0.318
 8629SOL     OW26785   2.006   6.040   5.028
 8629SOL    HW126786   2.093   6.091   5.033
 8629SOL    HW226787   1.970   6.027   5.120
 8630SOL     OW26788   5.407   4.014   4.274
 8630SOL    HW126789   5.352   3.945   4.227
 8630SOL    HW226790   5.461   3.970   4.346
 8631SOL     OW26791   0.619   5.564   6.816
 8631SOL    HW126792   0.697   5.626   6.808
 8631SOL    HW226793   0.633   5.501   6.892
 8632SOL     OW26794   4.419   5.081   5.220
 8632SOL    HW126795   4.415   5.088   5.121
 8632SOL    HW226796   4.502   5.033   5.247
 8633SOL     OW26797   5.412   1.883   5.742
 8633SOL    HW126798   5.333   1.944   5.725
 8633SOL    HW226799   5.389   1.819   5.815
 8634SOL     OW26800   4.880   4.077   0.134
 8634SOL    HW126801   4.829   4.036   0.058
 8634SOL    HW226802   4.958   4.128   0.098
 8635SOL     OW26803   4.977   3.149   6.398
 8635SOL    HW126804   5.013   3.121   6.487
 8635SOL    HW226805   4.985   3.248   6.389
 8636SOL     OW26806   5.732   5.901   0.823
 8636SOL    HW126807   5.729   5.987   0.874
 8636SOL    HW226808   5.786   5.914   0.740
 8637SOL     OW26809   2.786   0.510   0.140
 8637SOL    HW126810   2.809   0.607   0.150
 8637SOL    HW226811   2.704   0.489   0.195
 8638SOL     OW26812   3.353   2.022   5.083
 8638SOL    HW126813   3.294   1.950   5.119
 8638SOL    HW226814   3.305   2.110   5.087
 8639SOL     OW26815   5.341   2.461   0.037
 8639SOL    HW126816   5.335   2.442   0.135
 8639SOL    HW226817   5.328   2.559   0.021
 8640SOL     OW26818   4.214   3.598   0.346
 8640SOL    HW126819   4.281   3.643   0.286
 8640SOL    HW226820   4.248   3.598   0.440
 8641SOL     OW26821   4.464   4.529   4.027
 8641SOL    HW126822   4.474   4.471   4.108
 8641SOL    HW226823   4.401   4.604   4.046
 8642SOL     OW26824   0.823   6.018   4.137
 8642SOL    HW126825   0.818   6.113   4.106
 8642SOL    HW226826   0.866   5.962   4.066
 8643SOL     OW26827   2.779   0.672   6.054
 8643SOL    HW126828   2.726   0.730   5.992
 8643SOL    HW226829   2.719   0.639   6.128
 8644SOL     OW26830   5.526   2.401   5.246
 8644SOL    HW126831   5.621   2.385   5.273
 8644SOL    HW226832   5.498   2.331   5.180
 8645SOL     OW26833   4.139   4.609   1.023
 8645SOL    HW126834   4.044   4.579   1.014
 8645SOL    HW226835   4.194   4.534   1.061
 8646SOL     OW26836   0.482   2.125   0.522
 8646SOL    HW126837   0.441   2.059   0.584
 8646SOL    HW226838   0.577   2.099   0.502
 8647SOL     OW26839   2.374   4.978   6.821
 8647SOL    HW126840   2.376   4.967   6.920
 8647SOL    HW226841   2.461   4.945   6.782
 8648SOL     OW26842   6.766   7.021   2.674
 8648SOL    HW126843   6.767   0.084   2.621
 8648SOL    HW226844   6.699   6.958   2.636
 8649SOL     OW26845   5.414   5.749   6.685
 8649SOL    HW126846   5.358   5.669   6.662
 8649SOL    HW226847   5.510   5.727   6.667
 8650SOL     OW26848   1.982   5.025   4.502
 8650SOL    HW126849   1.907   5.072   4.455
 8650SOL    HW226850   2.060   5.017   4.441
 8651SOL     OW26851   4.240   1.347   0.746
 8651SOL    HW126852   4.163   1.410   0.739
 8651SOL    HW226853   4.237   1.281   0.671
 8652SOL     OW26854   1.745   5.150   3.084
 8652SOL    HW126855   1.755   5.240   3.126
 8652SOL    HW226856   1.824   5.093   3.107
 8653SOL     OW26857   6.630   1.170   6.349
 8653SOL    HW126858   6.610   1.095   6.411
 8653SOL    HW226859   6.720   1.155   6.307
 8654SOL     OW26860   0.616   4.749   2.168
 8654SOL    HW126861   0.568   4.734   2.254
 8654SOL    HW226862   0.681   4.675   2.152
 8655SOL     OW26863   6.096   0.130   3.826
 8655SOL    HW126864   6.089   0.144   3.728
 8655SOL    HW226865   6.132   0.213   3.869
 8656SOL     OW26866   6.653   0.197   1.793
 8656SOL    HW126867   6.695   0.261   1.858
 8656SOL    HW226868   6.571   0.156   1.834
 8657SOL     OW26869   4.808   5.404   6.842
 8657SOL    HW126870   4.846   5.440   6.758
 8657SOL    HW226871   4.800   5.478   6.910
 8658SOL     OW26872   6.234   6.786   0.152
 8658SOL    HW126873   6.163   6.724   0.182
 8658SOL    HW226874   6.205   6.832   0.068
 8659SOL     OW26875   4.790   2.448   2.023
 8659SOL    HW126876   4.699   2.479   1.995
 8659SOL    HW226877   4.818   2.498   2.105
 8660SOL     OW26878   6.883   3.512   1.790
 8660SOL    HW126879   6.788   3.514   1.819
 8660SOL    HW226880   6.888   3.513   1.690
 8661SOL     OW26881   6.955   3.884   1.214
 8661SOL    HW126882   7.001   3.848   1.133
 8661SOL    HW226883   6.980   3.828   1.294
 8662SOL     OW26884   4.351   5.652   1.551
 8662SOL    HW126885   4.385   5.607   1.469
 8662SOL    HW226886   4.307   5.738   1.526
 8663SOL     OW26887   2.653   5.525   2.374
 8663SOL    HW126888   2.689   5.611   2.339
 8663SOL    HW226889   2.626   5.536   2.470
 8664SOL     OW26890   1.445   6.287   1.059
 8664SOL    HW126891   1.478   6.368   1.010
 8664SOL    HW226892   1.503   6.209   1.037
 8665SOL     OW26893   5.706   5.679   5.324
 8665SOL    HW126894   5.736   5.705   5.232
 8665SOL    HW226895   5.672   5.585   5.323
 8666SOL     OW26896   5.402   0.795   3.784
 8666SOL    HW126897   5.336   0.726   3.755
 8666SOL    HW226898   5.482   0.793   3.723
 8667SOL     OW26899   3.848   1.712   3.736
 8667SOL    HW126900   3.793   1.738   3.815
 8667SOL    HW226901   3.790   1.661   3.671
 8668SOL     OW26902   5.190   3.563   3.190
 8668SOL    HW126903   5.221   3.657   3.176
 8668SOL    HW226904   5.116   3.562   3.257
 8669SOL     OW26905   1.209   6.656   6.395
 8669SOL    HW126906   1.244   6.563   6.411
 8669SOL    HW226907   1.113   6.661   6.425
 8670SOL     OW26908   4.129   5.084   5.852
 8670SOL    HW126909   4.081   5.153   5.906
 8670SOL    HW226910   4.112   5.099   5.755
 8671SOL     OW26911   5.292   1.497   3.377
 8671SOL    HW126912   5.364   1.534   3.436
 8671SOL    HW226913   5.279   1.558   3.299
 8672SOL     OW26914   1.303   4.925   3.870
 8672SOL    HW126915   1.259   4.935   3.781
 8672SOL    HW226916   1.311   4.828   3.893
 8673SOL     OW26917   5.477   2.283   6.711
 8673SOL    HW126918   5.475   2.380   6.737
 8673SOL    HW226919   5.453   2.226   6.789
 8674SOL     OW26920   5.140   5.783   2.325
 8674SOL    HW126921   5.151   5.689   2.357
 8674SOL    HW226922   5.067   5.828   2.377
 8675SOL     OW26923   4.378   1.766   4.824
 8675SOL    HW126924   4.401   1.830   4.750
 8675SOL    HW226925   4.281   1.772   4.845
 8676SOL     OW26926   5.675   6.703   3.494
 8676SOL    HW126927   5.587   6.686   3.450
 8676SOL    HW226928   5.723   6.616   3.508
 8677SOL     OW26929   2.188   5.396   6.514
 8677SOL    HW126930   2.145   5.348   6.437
 8677SOL    HW226931   2.228   5.329   6.576
 8678SOL     OW26932   0.151   0.538   1.331
 8678SOL    HW126933   0.126   0.605   1.261
 8678SOL    HW226934   0.247   0.549   1.356
 8679SOL     OW26935   0.999   1.363   3.304
 8679SOL    HW126936   1.018   1.419   3.384
 8679SOL    HW226937   1.073   1.375   3.237
 8680SOL     OW26938   6.598   3.291   6.847
 8680SOL    HW126939   6.670   3.347   6.888
 8680SOL    HW226940   6.560   3.229   6.915
 8681SOL     OW26941   4.653   5.492   1.390
 8681SOL    HW126942   4.686   5.549   1.466
 8681SOL    HW226943   4.731   5.462   1.336
 8682SOL     OW26944   5.699   6.909   2.453
 8682SOL    HW126945   5.621   6.893   2.393
 8682SOL    HW226946   5.678   6.984   2.516
 8683SOL     OW26947   1.639   2.570   5.017
 8683SOL    HW126948   1.685   2.616   4.941
 8683SOL    HW226949   1.641   2.471   5.002
 8684SOL     OW26950   6.042   2.682   4.877
 8684SOL    HW126951   5.957   2.703   4.828
 8684SOL    HW226952   6.019   2.645   4.967
 8685SOL     OW26953   6.520   2.027   6.355
 8685SOL    HW126954   6.550   1.944   6.401
 8685SOL    HW226955   6.497   2.096   6.423
 8686SOL     OW26956   0.052   1.147   2.965
 8686SOL    HW126957   0.008   1.173   2.878
 8686SOL    HW226958   7.016   1.079   3.011
 8687SOL     OW26959   4.858   5.265   2.137
 8687SOL    HW126960   4.768   5.231   2.167
 8687SOL    HW226961   4.871   5.358   2.172
 8688SOL     OW26962   0.667   5.117   6.228
 8688SOL    HW126963   0.628   5.206   6.204
 8688SOL    HW226964   0.725   5.085   6.153
 8689SOL     OW26965   3.959   2.868   1.117
 8689SOL    HW126966   3.919   2.939   1.175
 8689SOL    HW226967   3.981   2.906   1.028
 8690SOL     OW26968   1.466   3.901   3.720
 8690SOL    HW126969   1.549   3.955   3.710
 8690SOL    HW226970   1.447   3.852   3.635
 8691SOL     OW26971   3.965   2.169   6.531
 8691SOL    HW126972   3.887   2.176   6.594
 8691SOL    HW226973   3.947   2.226   6.451
 8692SOL     OW26974   3.236   1.296   4.567
 8692SOL    HW126975   3.141   1.309   4.595
 8692SOL    HW226976   3.241   1.292   4.467
 8693SOL     OW26977   5.615   0.190   0.115
 8693SOL    HW126978   5.667   0.261   0.163
 8693SOL    HW226979   5.521   0.190   0.146
 8694SOL     OW26980   5.587   1.418   4.783
 8694SOL    HW126981   5.521   1.474   4.731
 8694SOL    HW226982   5.540   1.375   4.860
 8695SOL     OW26983   4.843   3.258   5.981
 8695SOL    HW126984   4.759   3.217   5.946
 8695SOL    HW226985   4.908   3.269   5.906
 8696SOL     OW26986   2.496   5.422   5.243
 8696SOL    HW126987   2.518   5.390   5.151
 8696SOL    HW226988   2.426   5.363   5.283
 8697SOL     OW26989   0.446   4.010   6.347
 8697SOL    HW126990   0.378   4.083   6.340
 8697SOL    HW226991   0.534   4.050   6.374
 8698SOL     OW26992   5.045   6.099   5.242
 8698SOL    HW126993   5.085   6.019   5.198
 8698SOL    HW226994   5.116   6.147   5.293
 8699SOL     OW26995   1.370   3.499   4.777
 8699SOL    HW126996   1.288   3.528   4.827
 8699SOL    HW226997   1.400   3.410   4.811
 8700SOL     OW26998   1.010   0.435   5.037
 8700SOL    HW126999   0.914   0.452   5.058
 8700SOL    HW227000   1.031   0.339   5.056
 8701SOL     OW27001   1.305   1.131   6.993
 8701SOL    HW127002   1.243   1.065   0.014
 8701SOL    HW227003   1.382   1.149   0.033
 8702SOL     OW27004   5.363   4.865   2.141
 8702SOL    HW127005   5.331   4.909   2.225
 8702SOL    HW227006   5.284   4.828   2.091
 8703SOL     OW27007   2.963   5.307   0.000
 8703SOL    HW127008   2.968   5.209   7.001
 8703SOL    HW227009   3.043   5.333   0.055
 8704SOL     OW27010   0.730   4.068   3.456
 8704SOL    HW127011   0.784   4.150   3.438
 8704SOL    HW227012   0.678   4.080   3.540
 8705SOL     OW27013   4.967   1.292   6.447
 8705SOL    HW127014   5.065   1.301   6.432
 8705SOL    HW227015   4.925   1.242   6.371
 8706SOL     OW27016   4.706   2.164   6.911
 8706SOL    HW127017   4.644   2.213   6.850
 8706SOL    HW227018   4.774   2.115   6.857
 8707SOL     OW27019   0.581   1.864   5.727
 8707SOL    HW127020   0.574   1.860   5.827
 8707SOL    HW227021   0.597   1.772   5.691
 8708SOL     OW27022   4.081   1.411   3.392
 8708SOL    HW127023   4.094   1.315   3.371
 8708SOL    HW227024   3.985   1.437   3.375
 8709SOL     OW27025   6.578   6.842   6.734
 8709SOL    HW127026   6.485   6.812   6.754
 8709SOL    HW227027   6.629   6.767   6.693
 8710SOL     OW27028   1.665   3.028   3.412
 8710SOL    HW127029   1.645   3.092   3.338
 8710SOL    HW227030   1.593   3.034   3.481
 8711SOL     OW27031   1.731   6.669   2.615
 8711SOL    HW127032   1.650   6.655   2.672
 8711SOL    HW227033   1.784   6.746   2.650
 8712SOL     OW27034   3.571   1.812   4.360
 8712SOL    HW127035   3.570   1.714   4.337
 8712SOL    HW227036   3.549   1.823   4.457
 8713SOL     OW27037   6.610   3.203   2.688
 8713SOL    HW127038   6.683   3.163   2.632
 8713SOL    HW227039   6.649   3.270   2.751
 8714SOL     OW27040   0.934   6.939   5.856
 8714SOL    HW127041   1.007   6.961   5.792
 8714SOL    HW227042   0.845   6.962   5.816
 8715SOL     OW27043   3.876   0.759   1.150
 8715SOL    HW127044   3.871   0.754   1.050
 8715SOL    HW227045   3.962   0.803   1.176
 8716SOL     OW27046   6.930   0.390   0.968
 8716SOL    HW127047   6.993   0.318   0.938
 8716SOL    HW227048   6.840   0.351   0.985
 8717SOL     OW27049   2.925   4.039   5.213
 8717SOL    HW127050   2.945   4.128   5.254
 8717SOL    HW227051   2.972   4.031   5.126
 8718SOL     OW27052   1.212   2.995   5.550
 8718SOL    HW127053   1.263   3.068   5.506
 8718SOL    HW227054   1.235   2.990   5.647
 8719SOL     OW27055   4.032   0.150   0.439
 8719SOL    HW127056   4.010   0.077   0.374
 8719SOL    HW227057   4.108   0.204   0.404
 8720SOL     OW27058   0.764   6.033   6.334
 8720SOL    HW127059   0.688   6.024   6.270
 8720SOL    HW227060   0.834   5.965   6.312
 8721SOL     OW27061   6.326   2.621   1.850
 8721SOL    HW127062   6.392   2.557   1.890
 8721SOL    HW227063   6.272   2.663   1.923
 8722SOL     OW27064   3.424   1.598   1.333
 8722SOL    HW127065   3.472   1.628   1.251
 8722SOL    HW227066   3.490   1.564   1.400
 8723SOL     OW27067   4.675   6.528   2.004
 8723SOL    HW127068   4.580   6.544   1.977
 8723SOL    HW227069   4.691   6.430   2.014
 8724SOL     OW27070   5.848   6.657   4.576
 8724SOL    HW127071   5.775   6.590   4.593
 8724SOL    HW227072   5.810   6.734   4.525
 8725SOL     OW27073   2.088   5.764   5.519
 8725SOL    HW127074   2.139   5.758   5.605
 8725SOL    HW227075   2.151   5.750   5.442
 8726SOL     OW27076   0.307   0.758   3.408
 8726SOL    HW127077   0.208   0.769   3.394
 8726SOL    HW227078   0.340   0.832   3.466
 8727SOL     OW27079   5.949   0.286   2.178
 8727SOL    HW127080   6.028   0.232   2.150
 8727SOL    HW227081   5.954   0.376   2.134
 8728SOL     OW27082   6.413   0.875   2.133
 8728SOL    HW127083   6.424   0.958   2.079
 8728SOL    HW227084   6.452   0.888   2.224
 8729SOL     OW27085   3.219   5.041   5.351
 8729SOL    HW127086   3.178   4.975   5.414
 8729SOL    HW227087   3.318   5.041   5.363
 8730SOL     OW27088   5.065   4.095   2.476
 8730SOL    HW127089   5.118   4.011   2.467
 8730SOL    HW227090   5.008   4.089   2.558
 8731SOL     OW27091   0.643   3.038   2.954
 8731SOL    HW127092   0.555   3.033   3.001
 8731SOL    HW227093   0.685   3.128   2.970
 8732SOL     OW27094   5.605   4.943   2.057
 8732SOL    HW127095   5.624   5.040   2.071
 8732SOL    HW227096   5.509   4.924   2.076
 8733SOL     OW27097   1.792   6.039   1.296
 8733SOL    HW127098   1.775   6.103   1.372
 8733SOL    HW227099   1.721   5.968   1.297
 8734SOL     OW27100   0.916   3.367   2.826
 8734SOL    HW127101   1.015   3.355   2.819
 8734SOL    HW227102   0.875   3.347   2.737
 8735SOL     OW27103   0.974   2.987   6.889
 8735SOL    HW127104   0.993   2.983   6.791
 8735SOL    HW227105   1.030   3.059   6.931
 8736SOL     OW27106   0.345   5.443   1.483
 8736SOL    HW127107   0.256   5.432   1.439
 8736SOL    HW227108   0.394   5.356   1.482
 8737SOL     OW27109   1.820   6.622   0.310
 8737SOL    HW127110   1.771   6.637   0.225
 8737SOL    HW227111   1.807   6.527   0.340
 8738SOL     OW27112   2.673   5.627   4.221
 8738SOL    HW127113   2.613   5.706   4.229
 8738SOL    HW227114   2.646   5.573   4.141
 8739SOL     OW27115   5.361   5.636   6.380
 8739SOL    HW127116   5.338   5.544   6.412
 8739SOL    HW227117   5.455   5.637   6.345
 8740SOL     OW27118   3.932   1.484   4.529
 8740SOL    HW127119   3.920   1.515   4.434
 8740SOL    HW227120   4.027   1.457   4.544
 8741SOL     OW27121   2.236   1.383   2.499
 8741SOL    HW127122   2.153   1.412   2.453
 8741SOL    HW227123   2.237   1.418   2.593
 8742SOL     OW27124   4.782   7.001   1.623
 8742SOL    HW127125   4.716   6.965   1.557
 8742SOL    HW227126   4.822   0.063   1.588
 8743SOL     OW27127   1.125   6.951   1.513
 8743SOL    HW127128   1.113   7.011   1.592
 8743SOL    HW227129   1.082   6.992   1.432
 8744SOL     OW27130   4.153   2.845   0.379
 8744SOL    HW127131   4.220   2.860   0.452
 8744SOL    HW227132   4.149   2.747   0.358
 8745SOL     OW27133   6.327   1.566   6.238
 8745SOL    HW127134   6.388   1.637   6.273
 8745SOL    HW227135   6.334   1.485   6.295
 8746SOL     OW27136   4.355   5.422   4.541
 8746SOL    HW127137   4.383   5.518   4.532
 8746SOL    HW227138   4.270   5.407   4.491
 8747SOL     OW27139   6.733   1.812   3.184
 8747SOL    HW127140   6.687   1.899   3.202
 8747SOL    HW227141   6.669   1.749   3.141
 8748SOL     OW27142   0.412   1.587   4.395
 8748SOL    HW127143   0.341   1.626   4.336
 8748SOL    HW227144   0.439   1.654   4.464
 8749SOL     OW27145   2.526   0.396   5.050
 8749SOL    HW127146   2.441   0.351   5.023
 8749SOL    HW227147   2.511   0.447   5.135
 8750SOL     OW27148   3.255   4.179   5.396
 8750SOL    HW127149   3.217   4.250   5.455
 8750SOL    HW227150   3.273   4.097   5.451
 8751SOL     OW27151   6.200   1.847   2.016
 8751SOL    HW127152   6.243   1.793   2.089
 8751SOL    HW227153   6.104   1.863   2.039
 8752SOL     OW27154   3.392   2.933   6.294
 8752SOL    HW127155   3.306   2.911   6.341
 8752SOL    HW227156   3.375   3.004   6.226
 8753SOL     OW27157   3.134   1.916   6.302
 8753SOL    HW127158   3.231   1.922   6.325
 8753SOL    HW227159   3.114   1.975   6.224
 8754SOL     OW27160   1.195   3.818   5.347
 8754SOL    HW127161   1.289   3.847   5.330
 8754SOL    HW227162   1.193   3.756   5.425
 8755SOL     OW27163   2.322   1.083   1.218
 8755SOL    HW127164   2.283   1.009   1.162
 8755SOL    HW227165   2.248   1.140   1.253
 8756SOL     OW27166   1.716   2.748   4.139
 8756SOL    HW127167   1.632   2.800   4.127
 8756SOL    HW227168   1.763   2.739   4.051
 8757SOL     OW27169   4.142   5.604   6.566
 8757SOL    HW127170   4.066   5.574   6.509
 8757SOL    HW227171   4.148   5.546   6.647
 8758SOL     OW27172   5.231   5.897   2.686
 8758SOL    HW127173   5.151   5.838   2.691
 8758SOL    HW227174   5.201   5.993   2.683
 8759SOL     OW27175   4.780   2.993   6.974
 8759SOL    HW127176   4.783   3.043   0.038
 8759SOL    HW227177   4.852   2.924   6.972
 8760SOL     OW27178   2.965   0.877   5.229
 8760SOL    HW127179   3.031   0.833   5.290
 8760SOL    HW227180   2.989   0.974   5.220
 8761SOL     OW27181   6.091   2.363   1.444
 8761SOL    HW127182   6.129   2.273   1.426
 8761SOL    HW227183   6.127   2.398   1.530
 8762SOL     OW27184   1.084   4.763   3.673
 8762SOL    HW127185   1.088   4.721   3.582
 8762SOL    HW227186   1.014   4.835   3.673
 8763SOL     OW27187   6.209   6.924   6.178
 8763SOL    HW127188   6.283   6.926   6.246
 8763SOL    HW227189   6.248   6.917   6.087
 8764SOL     OW27190   4.835   0.466   5.892
 8764SOL    HW127191   4.904   0.398   5.868
 8764SOL    HW227192   4.858   0.554   5.851
 8765SOL     OW27193   4.899   0.134   3.797
 8765SOL    HW127194   4.835   0.059   3.808
 8765SOL    HW227195   4.936   0.134   3.704
 8766SOL     OW27196   4.526   4.309   5.134
 8766SOL    HW127197   4.442   4.363   5.126
 8766SOL    HW227198   4.592   4.340   5.067
 8767SOL     OW27199   5.819   5.800   2.427
 8767SOL    HW127200   5.845   5.854   2.507
 8767SOL    HW227201   5.800   5.706   2.454
 8768SOL     OW27202   1.490   2.470   0.468
 8768SOL    HW127203   1.446   2.555   0.442
 8768SOL    HW227204   1.436   2.393   0.435
 8769SOL     OW27205   6.738   0.667   3.343
 8769SOL    HW127206   6.740   0.690   3.245
 8769SOL    HW227207   6.744   0.568   3.354
 8770SOL     OW27208   4.435   4.566   2.039
 8770SOL    HW127209   4.472   4.478   2.009
 8770SOL    HW227210   4.353   4.587   1.986
 8771SOL     OW27211   1.667   2.046   6.688
 8771SOL    HW127212   1.665   2.103   6.771
 8771SOL    HW227213   1.707   2.099   6.614
 8772SOL     OW27214   4.451   0.762   6.519
 8772SOL    HW127215   4.359   0.727   6.539
 8772SOL    HW227216   4.447   0.822   6.439
 8773SOL     OW27217   5.445   2.714   3.902
 8773SOL    HW127218   5.536   2.753   3.917
 8773SOL    HW227219   5.451   2.639   3.836
 8774SOL     OW27220   1.357   0.726   0.275
 8774SOL    HW127221   1.452   0.731   0.243
 8774SOL    HW227222   1.351   0.658   0.348
 8775SOL     OW27223   5.570   1.109   5.797
 8775SOL    HW127224   5.662   1.084   5.827
 8775SOL    HW227225   5.508   1.106   5.875
 8776SOL     OW27226   4.703   3.288   0.617
 8776SOL    HW127227   4.753   3.285   0.703
 8776SOL    HW227228   4.733   3.367   0.563
 8777SOL     OW27229   6.152   4.595   3.352
 8777SOL    HW127230   6.077   4.586   3.288
 8777SOL    HW227231   6.228   4.644   3.309
 8778SOL     OW27232   5.744   3.174   6.010
 8778SOL    HW127233   5.709   3.238   5.943
 8778SOL    HW227234   5.844   3.173   6.007
 8779SOL     OW27235   2.754   5.061   2.230
 8779SOL    HW127236   2.688   5.009   2.285
 8779SOL    HW227237   2.796   5.131   2.287
 8780SOL     OW27238   0.677   0.165   3.067
 8780SOL    HW127239   0.706   0.214   3.149
 8780SOL    HW227240   0.585   0.197   3.041
 8781SOL     OW27241   5.096   0.925   4.206
 8781SOL    HW127242   5.172   0.975   4.248
 8781SOL    HW227243   5.133   0.850   4.150
 8782SOL     OW27244   6.755   0.495   2.428
 8782SOL    HW127245   6.715   0.436   2.358
 8782SOL    HW227246   6.852   0.507   2.409
 8783SOL     OW27247   6.827   4.242   3.432
 8783SOL    HW127248   6.774   4.286   3.359
 8783SOL    HW227249   6.766   4.195   3.495
 8784SOL     OW27250   0.097   6.180   5.907
 8784SOL    HW127251   0.108   6.266   5.958
 8784SOL    HW227252   0.091   6.200   5.809
 8785SOL     OW27253   5.825   5.019   0.448
 8785SOL    HW127254   5.755   5.081   0.412
 8785SOL    HW227255   5.847   4.950   0.380
 8786SOL     OW27256   2.781   1.395   0.559
 8786SOL    HW127257   2.741   1.407   0.468
 8786SOL    HW227258   2.873   1.357   0.550
 8787SOL     OW27259   3.191   1.234   2.126
 8787SOL    HW127260   3.158   1.293   2.053
 8787SOL    HW227261   3.202   1.141   2.090
 8788SOL     OW27262   0.079   0.667   5.805
 8788SOL    HW127263   0.152   0.651   5.739
 8788SOL    HW227264   7.014   0.683   5.757
 8789SOL     OW27265   6.451   5.430   5.419
 8789SOL    HW127266   6.490   5.507   5.369
 8789SOL    HW227267   6.362   5.406   5.379
 8790SOL     OW27268   6.313   0.301   6.191
 8790SOL    HW127269   6.345   0.258   6.107
 8790SOL    HW227270   6.236   0.361   6.171
 8791SOL     OW27271   5.889   6.535   5.166
 8791SOL    HW127272   5.968   6.595   5.169
 8791SOL    HW227273   5.913   6.451   5.118
 8792SOL     OW27274   3.198   5.197   2.872
 8792SOL    HW127275   3.171   5.103   2.851
 8792SOL    HW227276   3.130   5.260   2.836
 8793SOL     OW27277   0.708   4.373   2.295
 8793SOL    HW127278   0.673   4.296   2.241
 8793SOL    HW227279   0.682   4.361   2.391
 8794SOL     OW27280   5.267   0.216   2.710
 8794SOL    HW127281   5.362   0.188   2.720
 8794SOL    HW227282   5.216   0.144   2.663
 8795SOL     OW27283   1.281   4.155   5.559
 8795SOL    HW127284   1.362   4.102   5.532
 8795SOL    HW227285   1.258   4.219   5.485
 8796SOL     OW27286   5.209   2.190   3.946
 8796SOL    HW127287   5.190   2.246   3.865
 8796SOL    HW227288   5.224   2.095   3.918
 8797SOL     OW27289   0.277   0.364   6.501
 8797SOL    HW127290   0.197   0.349   6.442
 8797SOL    HW227291   0.293   0.283   6.557
 8798SOL     OW27292   4.644   6.100   6.210
 8798SOL    HW127293   4.607   6.152   6.133
 8798SOL    HW227294   4.642   6.157   6.292
 8799SOL     OW27295   2.617   4.998   3.780
 8799SOL    HW127296   2.590   4.910   3.820
 8799SOL    HW227297   2.715   5.010   3.788
 8800SOL     OW27298   5.937   4.392   6.407
 8800SOL    HW127299   5.867   4.329   6.373
 8800SOL    HW227300   6.028   4.356   6.385
 8801SOL     OW27301   7.020   1.776   4.389
 8801SOL    HW127302   0.012   1.837   4.310
 8801SOL    HW227303   7.002   1.832   4.470
 8802SOL     OW27304   2.047   6.765   6.033
 8802SOL    HW127305   2.118   6.813   5.983
 8802SOL    HW227306   2.034   6.808   6.123
 8803SOL     OW27307   0.021   6.876   0.522
 8803SOL    HW127308   6.973   6.829   0.575
 8803SOL    HW227309   6.999   6.940   0.458
 8804SOL     OW27310   2.508   6.408   1.343
 8804SOL    HW127311   2.560   6.330   1.374
 8804SOL    HW227312   2.562   6.461   1.277
 8805SOL     OW27313   3.414   6.196   3.131
 8805SOL    HW127314   3.353   6.146   3.193
 8805SOL    HW227315   3.502   6.150   3.125
 8806SOL     OW27316   3.159   4.576   1.015
 8806SOL    HW127317   3.192   4.507   1.079
 8806SOL    HW227318   3.209   4.569   0.929
 8807SOL     OW27319   4.641   1.671   0.383
 8807SOL    HW127320   4.599   1.594   0.335
 8807SOL    HW227321   4.736   1.649   0.404
 8808SOL     OW27322   6.461   2.847   6.443
 8808SOL    HW127323   6.460   2.937   6.488
 8808SOL    HW227324   6.397   2.847   6.366
 8809SOL     OW27325   3.491   4.948   3.731
 8809SOL    HW127326   3.469   5.040   3.700
 8809SOL    HW227327   3.591   4.937   3.734
 8810SOL     OW27328   6.137   0.535   5.249
 8810SOL    HW127329   6.091   0.597   5.184
 8810SOL    HW227330   6.115   0.563   5.343
 8811SOL     OW27331   3.562   1.396   3.008
 8811SOL    HW127332   3.491   1.330   2.985
 8811SOL    HW227333   3.579   1.394   3.107
 8812SOL     OW27334   1.662   0.708   0.819
 8812SOL    HW127335   1.673   0.751   0.908
 8812SOL    HW227336   1.746   0.718   0.766
 8813SOL     OW27337   1.890   5.662   3.151
 8813SOL    HW127338   1.952   5.696   3.220
 8813SOL    HW227339   1.811   5.723   3.143
 8814SOL     OW27340   6.564   0.015   0.969
 8814SOL    HW127341   6.559   6.938   0.987
 8814SOL    HW227342   6.495   0.062   1.023
 8815SOL     OW27343   5.371   6.954   1.700
 8815SOL    HW127344   5.448   6.892   1.684
 8815SOL    HW227345   5.392   0.022   1.662
 8816SOL     OW27346   0.804   6.427   0.127
 8816SOL    HW127347   0.799   6.347   0.186
 8816SOL    HW227348   0.833   6.399   0.036
 8817SOL     OW27349   0.209   4.406   3.936
 8817SOL    HW127350   0.157   4.322   3.952
 8817SOL    HW227351   0.200   4.467   4.015
 8818SOL     OW27352   1.185   4.625   4.188
 8818SOL    HW127353   1.134   4.543   4.163
 8818SOL    HW227354   1.124   4.689   4.236
 8819SOL     OW27355   5.473   5.332   5.576
 8819SOL    HW127356   5.396   5.306   5.519
 8819SOL    HW227357   5.495   5.258   5.640
 8820SOL     OW27358   2.841   0.924   5.477
 8820SOL    HW127359   2.892   0.912   5.392
 8820SOL    HW227360   2.787   1.008   5.472
 8821SOL     OW27361   2.063   5.713   0.879
 8821SOL    HW127362   2.087   5.714   0.976
 8821SOL    HW227363   2.136   5.759   0.827
 8822SOL     OW27364   1.078   0.984   4.469
 8822SOL    HW127365   1.008   0.941   4.411
 8822SOL    HW227366   1.070   1.084   4.462
 8823SOL     OW27367   2.472   0.974   2.631
 8823SOL    HW127368   2.491   0.918   2.712
 8823SOL    HW227369   2.543   1.043   2.621
 8824SOL     OW27370   1.418   0.949   0.492
 8824SOL    HW127371   1.411   1.048   0.483
 8824SOL    HW227372   1.436   0.908   0.402
 8825SOL     OW27373   1.823   0.791   2.093
 8825SOL    HW127374   1.749   0.816   2.156
 8825SOL    HW227375   1.879   0.872   2.073
 8826SOL     OW27376   0.481   3.957   0.043
 8826SOL    HW127377   0.553   4.021   0.016
 8826SOL    HW227378   0.515   3.897   0.115
 8827SOL     OW27379   4.048   0.582   3.169
 8827SOL    HW127380   4.000   0.608   3.252
 8827SOL    HW227381   4.067   0.663   3.114
 8828SOL     OW27382   3.776   5.287   6.566
 8828SOL    HW127383   3.827   5.365   6.530
 8828SOL    HW227384   3.678   5.305   6.558
 8829SOL     OW27385   5.250   2.056   1.261
 8829SOL    HW127386   5.299   1.974   1.291
 8829SOL    HW227387   5.220   2.044   1.167
 8830SOL     OW27388   1.826   1.670   2.373
 8830SOL    HW127389   1.782   1.605   2.435
 8830SOL    HW227390   1.786   1.662   2.281
 8831SOL     OW27391   5.022   2.628   3.573
 8831SOL    HW127392   4.947   2.610   3.509
 8831SOL    HW227393   5.009   2.572   3.655
 8832SOL     OW27394   6.982   6.486   3.470
 8832SOL    HW127395   6.922   6.443   3.402
 8832SOL    HW227396   0.056   6.476   3.441
 8833SOL     OW27397   2.766   5.348   6.546
 8833SOL    HW127398   2.748   5.446   6.536
 8833SOL    HW227399   2.689   5.296   6.510
 8834SOL     OW27400   5.935   4.002   4.503
 8834SOL    HW127401   5.961   4.074   4.439
 8834SOL    HW227402   6.017   3.959   4.540
 8835SOL     OW27403   5.307   0.968   6.085
 8835SOL    HW127404   5.301   1.041   6.153
 8835SOL    HW227405   5.222   0.915   6.085
 8836SOL     OW27406   5.121   2.217   0.373
 8836SOL    HW127407   5.146   2.149   0.305
 8836SOL    HW227408   5.035   2.261   0.346
 8837SOL     OW27409   0.485   0.140   2.817
 8837SOL    HW127410   0.542   0.094   2.749
 8837SOL    HW227411   0.395   0.158   2.778
 8838SOL     OW27412   2.190   4.697   4.010
 8838SOL    HW127413   2.106   4.739   3.978
 8838SOL    HW227414   2.184   4.598   4.002
 8839SOL     OW27415   4.330   5.496   1.765
 8839SOL    HW127416   4.424   5.469   1.788
 8839SOL    HW227417   4.332   5.555   1.684
 8840SOL     OW27418   0.301   1.210   3.035
 8840SOL    HW127419   0.330   1.151   3.110
 8840SOL    HW227420   0.207   1.188   3.009
 8841SOL     OW27421   0.578   1.117   4.869
 8841SOL    HW127422   0.597   1.025   4.903
 8841SOL    HW227423   0.663   1.167   4.858
 8842SOL     OW27424   3.176   3.186   3.277
 8842SOL    HW127425   3.157   3.098   3.320
 8842SOL    HW227426   3.275   3.195   3.263
 8843SOL     OW27427   1.499   3.270   4.856
 8843SOL    HW127428   1.501   3.170   4.850
 8843SOL    HW227429   1.517   3.298   4.950
 8844SOL     OW27430   0.718   1.765   5.395
 8844SOL    HW127431   0.676   1.690   5.345
 8844SOL    HW227432   0.661   1.847   5.388
 8845SOL     OW27433   3.040   3.794   1.354
 8845SOL    HW127434   3.033   3.864   1.425
 8845SOL    HW227435   2.983   3.716   1.378
 8846SOL     OW27436   3.905   4.880   4.599
 8846SOL    HW127437   3.829   4.859   4.538
 8846SOL    HW227438   3.917   4.979   4.604
 8847SOL     OW27439   2.391   1.180   2.895
 8847SOL    HW127440   2.417   1.085   2.912
 8847SOL    HW227441   2.313   1.183   2.832
 8848SOL     OW27442   2.306   2.178   2.218
 8848SOL    HW127443   2.405   2.177   2.202
 8848SOL    HW227444   2.277   2.270   2.243
 8849SOL     OW27445   3.757   5.822   3.780
 8849SOL    HW127446   3.706   5.752   3.829
 8849SOL    HW227447   3.753   5.805   3.682
 8850SOL     OW27448   2.049   0.992   6.454
 8850SOL    HW127449   1.996   0.972   6.373
 8850SOL    HW227450   2.068   1.090   6.458
 8851SOL     OW27451   0.601   5.142   2.080
 8851SOL    HW127452   0.585   5.134   2.179
 8851SOL    HW227453   0.686   5.095   2.057
 8852SOL     OW27454   4.314   4.121   5.837
 8852SOL    HW127455   4.249   4.064   5.887
 8852SOL    HW227456   4.328   4.207   5.886
 8853SOL     OW27457   3.328   1.132   6.086
 8853SOL    HW127458   3.229   1.121   6.091
 8853SOL    HW227459   3.368   1.107   6.175
 8854SOL     OW27460   2.920   1.735   6.246
 8854SOL    HW127461   2.986   1.798   6.286
 8854SOL    HW227462   2.926   1.739   6.146
 8855SOL     OW27463   0.260   6.047   0.509
 8855SOL    HW127464   0.170   6.070   0.547
 8855SOL    HW227465   0.265   5.949   0.494
 8856SOL     OW27466   6.560   0.655   6.278
 8856SOL    HW127467   6.622   0.693   6.345
 8856SOL    HW227468   6.534   0.726   6.212
 8857SOL     OW27469   6.896   1.576   3.791
 8857SOL    HW127470   6.906   1.631   3.874
 8857SOL    HW227471   6.959   1.610   3.721
 8858SOL     OW27472   1.254   2.425   5.731
 8858SOL    HW127473   1.299   2.350   5.780
 8858SOL    HW227474   1.242   2.400   5.635
 8859SOL     OW27475   6.573   0.752   4.071
 8859SOL    HW127476   6.551   0.724   4.164
 8859SOL    HW227477   6.669   0.781   4.066
 8860SOL     OW27478   0.800   3.037   2.660
 8860SOL    HW127479   0.744   2.989   2.728
 8860SOL    HW227480   0.884   2.985   2.645
 8861SOL     OW27481   3.787   1.830   6.086
 8861SOL    HW127482   3.797   1.872   6.176
 8861SOL    HW227483   3.791   1.730   6.095
 8862SOL     OW27484   5.902   0.451   3.576
 8862SOL    HW127485   5.940   0.362   3.548
 8862SOL    HW227486   5.818   0.469   3.525
 8863SOL     OW27487   1.641   5.181   4.429
 8863SOL    HW127488   1.715   5.248   4.426
 8863SOL    HW227489   1.553   5.228   4.418
 8864SOL     OW27490   3.171   3.178   5.765
 8864SOL    HW127491   3.138   3.268   5.736
 8864SOL    HW227492   3.261   3.162   5.725
 8865SOL     OW27493   2.722   1.357   6.146
 8865SOL    HW127494   2.782   1.382   6.069
 8865SOL    HW227495   2.767   1.381   6.232
 8866SOL     OW27496   5.216   6.733   3.218
 8866SOL    HW127497   5.194   6.639   3.244
 8866SOL    HW227498   5.132   6.787   3.213
 8867SOL     OW27499   5.185   3.392   2.200
 8867SOL    HW127500   5.124   3.349   2.133
 8867SOL    HW227501   5.130   3.432   2.273
 8868SOL     OW27502   6.449   2.663   0.385
 8868SOL    HW127503   6.541   2.626   0.395
 8868SOL    HW227504   6.414   2.642   0.293
 8869SOL     OW27505   4.268   6.012   4.646
 8869SOL    HW127506   4.284   6.064   4.562
 8869SOL    HW227507   4.171   5.988   4.653
 8870SOL     OW27508   3.993   0.515   6.802
 8870SOL    HW127509   3.948   0.586   6.748
 8870SOL    HW227510   4.006   0.433   6.746
 8871SOL     OW27511   1.627   0.349   4.146
 8871SOL    HW127512   1.713   0.300   4.133
 8871SOL    HW227513   1.563   0.290   4.195
 8872SOL     OW27514   1.678   4.549   4.927
 8872SOL    HW127515   1.657   4.490   4.849
 8872SOL    HW227516   1.673   4.645   4.899
 8873SOL     OW27517   0.854   5.864   2.418
 8873SOL    HW127518   0.782   5.824   2.361
 8873SOL    HW227519   0.817   5.887   2.508
 8874SOL     OW27520   2.655   5.661   1.938
 8874SOL    HW127521   2.579   5.613   1.982
 8874SOL    HW227522   2.739   5.609   1.950
 8875SOL     OW27523   6.575   3.573   5.059
 8875SOL    HW127524   6.554   3.655   5.111
 8875SOL    HW227525   6.552   3.587   4.963
 8876SOL     OW27526   2.275   6.819   4.590
 8876SOL    HW127527   2.321   6.735   4.620
 8876SOL    HW227528   2.201   6.796   4.527
 8877SOL     OW27529   2.889   0.461   4.046
 8877SOL    HW127530   2.846   0.514   4.119
 8877SOL    HW227531   2.952   0.519   3.995
 8878SOL     OW27532   6.538   5.209   6.791
 8878SOL    HW127533   6.624   5.214   6.740
 8878SOL    HW227534   6.474   5.148   6.743
 8879SOL     OW27535   4.985   4.368   1.753
 8879SOL    HW127536   4.983   4.271   1.775
 8879SOL    HW227537   4.904   4.413   1.791
 8880SOL     OW27538   5.601   5.412   4.502
 8880SOL    HW127539   5.682   5.362   4.470
 8880SOL    HW227540   5.629   5.502   4.536
 8881SOL     OW27541   6.348   6.909   3.937
 8881SOL    HW127542   6.290   6.828   3.934
 8881SOL    HW227543   6.432   6.892   3.884
 8882SOL     OW27544   5.539   1.845   1.136
 8882SOL    HW127545   5.610   1.906   1.170
 8882SOL    HW227546   5.506   1.878   1.048
 8883SOL     OW27547   2.037   6.531   6.398
 8883SOL    HW127548   2.123   6.582   6.405
 8883SOL    HW227549   2.007   6.532   6.302
 8884SOL     OW27550   6.260   4.423   6.300
 8884SOL    HW127551   6.332   4.369   6.255
 8884SOL    HW227552   6.296   4.514   6.323
 8885SOL     OW27553   0.194   3.094   0.942
 8885SOL    HW127554   0.116   3.052   0.895
 8885SOL    HW227555   0.261   3.024   0.964
 8886SOL     OW27556   3.232   6.503   4.698
 8886SOL    HW127557   3.270   6.596   4.701
 8886SOL    HW227558   3.208   6.475   4.791
 8887SOL     OW27559   3.192   1.575   1.137
 8887SOL    HW127560   3.173   1.483   1.103
 8887SOL    HW227561   3.261   1.572   1.208
 8888SOL     OW27562   1.431   1.485   0.136
 8888SOL    HW127563   1.393   1.521   0.051
 8888SOL    HW227564   1.522   1.524   0.152
 8889SOL     OW27565   6.046   0.570   5.513
 8889SOL    HW127566   5.978   0.582   5.585
 8889SOL    HW227567   6.129   0.619   5.537
 8890SOL     OW27568   6.569   5.631   3.985
 8890SOL    HW127569   6.618   5.564   3.929
 8890SOL    HW227570   6.514   5.584   4.054
 8891SOL     OW27571   5.247   3.596   5.848
 8891SOL    HW127572   5.193   3.512   5.842
 8891SOL    HW227573   5.298   3.597   5.933
 8892SOL     OW27574   3.701   5.485   3.201
 8892SOL    HW127575   3.661   5.523   3.118
 8892SOL    HW227576   3.647   5.513   3.280
 8893SOL     OW27577   0.764   5.887   3.636
 8893SOL    HW127578   0.769   5.910   3.539
 8893SOL    HW227579   0.729   5.794   3.646
 8894SOL     OW27580   4.616   2.846   6.160
 8894SOL    HW127581   4.625   2.813   6.066
 8894SOL    HW227582   4.522   2.877   6.176
 8895SOL     OW27583   6.476   2.188   2.428
 8895SOL    HW127584   6.439   2.279   2.450
 8895SOL    HW227585   6.402   2.130   2.394
 8896SOL     OW27586   2.327   3.764   5.581
 8896SOL    HW127587   2.239   3.723   5.604
 8896SOL    HW227588   2.325   3.795   5.486
 8897SOL     OW27589   2.093   3.005   3.410
 8897SOL    HW127590   2.008   2.953   3.413
 8897SOL    HW227591   2.163   2.953   3.360
 8898SOL     OW27592   5.172   3.843   3.236
 8898SOL    HW127593   5.148   3.937   3.215
 8898SOL    HW227594   5.270   3.837   3.256
 8899SOL     OW27595   2.051   5.254   0.641
 8899SOL    HW127596   2.087   5.255   0.734
 8899SOL    HW227597   1.985   5.328   0.630
 8900SOL     OW27598   6.108   3.456   2.635
 8900SOL    HW127599   6.136   3.542   2.678
 8900SOL    HW227600   6.184   3.421   2.579
 8901SOL     OW27601   2.047   0.791   4.515
 8901SOL    HW127602   2.128   0.758   4.564
 8901SOL    HW227603   2.053   0.890   4.505
 8902SOL     OW27604   2.350   0.409   0.582
 8902SOL    HW127605   2.264   0.440   0.543
 8902SOL    HW227606   2.333   0.372   0.674
 8903SOL     OW27607   1.373   1.723   5.172
 8903SOL    HW127608   1.315   1.761   5.100
 8903SOL    HW227609   1.366   1.624   5.172
 8904SOL     OW27610   5.638   6.225   4.095
 8904SOL    HW127611   5.608   6.153   4.033
 8904SOL    HW227612   5.597   6.210   4.186
 8905SOL     OW27613   1.522   4.333   3.679
 8905SOL    HW127614   1.486   4.250   3.638
 8905SOL    HW227615   1.611   4.314   3.721
 8906SOL     OW27616   0.183   6.360   0.609
 8906SOL    HW127617   0.271   6.325   0.576
 8906SOL    HW227618   0.123   6.283   0.631
 8907SOL     OW27619   2.638   2.475   4.935
 8907SOL    HW127620   2.728   2.476   4.979
 8907SOL    HW227621   2.579   2.542   4.980
 8908SOL     OW27622   0.984   3.619   6.525
 8908SOL    HW127623   0.932   3.693   6.482
 8908SOL    HW227624   1.076   3.651   6.547
 8909SOL     OW27625   2.708   0.862   5.837
 8909SOL    HW127626   2.807   0.849   5.840
 8909SOL    HW227627   2.684   0.949   5.880
 8910SOL     OW27628   0.377   2.617   5.822
 8910SOL    HW127629   0.347   2.522   5.811
 8910SOL    HW227630   0.303   2.672   5.859
 8911SOL     OW27631   4.030   2.014   4.791
 8911SOL    HW127632   3.945   2.061   4.815
 8911SOL    HW227633   4.009   1.935   4.733
 8912SOL     OW27634   3.956   2.785   0.083
 8912SOL    HW127635   4.044   2.803   0.039
 8912SOL    HW227636   3.971   2.738   0.170
 8913SOL     OW27637   4.864   5.327   6.012
 8913SOL    HW127638   4.799   5.269   5.961
 8913SOL    HW227639   4.957   5.301   5.988
 8914SOL     OW27640   4.492   0.179   4.587
 8914SOL    HW127641   4.540   0.234   4.518
 8914SOL    HW227642   4.549   0.102   4.614
 8915SOL     OW27643   0.222   2.927   3.679
 8915SOL    HW127644   0.284   2.858   3.716
 8915SOL    HW227645   0.276   3.005   3.647
 8916SOL     OW27646   0.202   3.800   1.148
 8916SOL    HW127647   0.156   3.748   1.220
 8916SOL    HW227648   0.275   3.745   1.108
 8917SOL     OW27649   0.193   3.497   0.200
 8917SOL    HW127650   0.265   3.517   0.266
 8917SOL    HW227651   0.215   3.539   0.112
 8918SOL     OW27652   6.300   4.108   1.349
 8918SOL    HW127653   6.394   4.080   1.327
 8918SOL    HW227654   6.236   4.044   1.307
 8919SOL     OW27655   3.573   4.328   0.469
 8919SOL    HW127656   3.656   4.272   0.468
 8919SOL    HW227657   3.591   4.415   0.514
 8920SOL     OW27658   0.540   0.567   0.040
 8920SOL    HW127659   0.629   0.597   0.074
 8920SOL    HW227660   0.532   0.468   0.051
 8921SOL     OW27661   2.168   1.989   2.490
 8921SOL    HW127662   2.174   2.014   2.587
 8921SOL    HW227663   2.092   2.039   2.448
 8922SOL     OW27664   3.186   5.377   1.183
 8922SOL    HW127665   3.089   5.382   1.159
 8922SOL    HW227666   3.210   5.282   1.204
 8923SOL     OW27667   1.555   3.532   6.316
 8923SOL    HW127668   1.644   3.507   6.355
 8923SOL    HW227669   1.564   3.619   6.267
 8924SOL     OW27670   3.588   5.555   5.840
 8924SOL    HW127671   3.494   5.536   5.868
 8924SOL    HW227672   3.590   5.583   5.744
 8925SOL     OW27673   0.950   1.346   2.475
 8925SOL    HW127674   0.913   1.437   2.492
 8925SOL    HW227675   0.886   1.277   2.507
 8926SOL     OW27676   6.756   3.944   5.432
 8926SOL    HW127677   6.728   3.978   5.522
 8926SOL    HW227678   6.852   3.916   5.436
 8927SOL     OW27679   0.946   1.447   4.727
 8927SOL    HW127680   0.945   1.544   4.700
 8927SOL    HW227681   1.040   1.413   4.726
 8928SOL     OW27682   0.044   0.486   6.298
 8928SOL    HW127683   7.002   0.410   6.292
 8928SOL    HW227684   0.096   0.493   6.213
 8929SOL     OW27685   6.157   3.355   4.321
 8929SOL    HW127686   6.250   3.363   4.286
 8929SOL    HW227687   6.149   3.407   4.406
 8930SOL     OW27688   1.327   4.065   3.913
 8930SOL    HW127689   1.349   4.028   3.822
 8930SOL    HW227690   1.297   4.160   3.904
 8931SOL     OW27691   3.158   2.832   0.851
 8931SOL    HW127692   3.168   2.741   0.812
 8931SOL    HW227693   3.235   2.850   0.914
 8932SOL     OW27694   5.832   0.424   0.953
 8932SOL    HW127695   5.812   0.375   0.868
 8932SOL    HW227696   5.773   0.504   0.959
 8933SOL     OW27697   1.674   2.957   6.083
 8933SOL    HW127698   1.720   3.035   6.126
 8933SOL    HW227699   1.633   2.900   6.154
 8934SOL     OW27700   3.386   4.965   4.558
 8934SOL    HW127701   3.402   4.937   4.463
 8934SOL    HW227702   3.474   4.983   4.602
 8935SOL     OW27703   6.412   4.356   1.070
 8935SOL    HW127704   6.324   4.313   1.049
 8935SOL    HW227705   6.467   4.293   1.126
 8936SOL     OW27706   1.104   3.322   1.821
 8936SOL    HW127707   1.163   3.329   1.902
 8936SOL    HW227708   1.146   3.261   1.754
 8937SOL     OW27709   0.013   6.897   5.071
 8937SOL    HW127710   0.013   6.955   4.990
 8937SOL    HW227711   0.065   6.942   5.144
 8938SOL     OW27712   0.362   1.936   0.711
 8938SOL    HW127713   0.423   1.859   0.728
 8938SOL    HW227714   0.302   1.949   0.790
 8939SOL     OW27715   5.803   4.971   4.375
 8939SOL    HW127716   5.742   4.924   4.312
 8939SOL    HW227717   5.883   4.914   4.393
 8940SOL     OW27718   5.345   0.538   1.485
 8940SOL    HW127719   5.387   0.628   1.493
 8940SOL    HW227720   5.245   0.547   1.490
 8941SOL     OW27721   6.109   2.612   3.723
 8941SOL    HW127722   6.015   2.582   3.706
 8941SOL    HW227723   6.108   2.703   3.763
 8942SOL     OW27724   0.091   5.755   5.827
 8942SOL    HW127725   0.040   5.733   5.743
 8942SOL    HW227726   0.121   5.670   5.871
 8943SOL     OW27727   3.594   5.412   0.406
 8943SOL    HW127728   3.500   5.414   0.372
 8943SOL    HW227729   3.618   5.318   0.431
 8944SOL     OW27730   4.670   6.209   4.192
 8944SOL    HW127731   4.662   6.299   4.235
 8944SOL    HW227732   4.712   6.220   4.101
 8945SOL     OW27733   0.385   1.352   3.797
 8945SOL    HW127734   0.470   1.333   3.748
 8945SOL    HW227735   0.401   1.423   3.866
 8946SOL     OW27736   3.379   0.507   3.779
 8946SOL    HW127737   3.440   0.443   3.733
 8946SOL    HW227738   3.393   0.501   3.878
 8947SOL     OW27739   2.731   3.392   5.704
 8947SOL    HW127740   2.688   3.390   5.613
 8947SOL    HW227741   2.692   3.466   5.758
 8948SOL     OW27742   6.247   5.705   3.399
 8948SOL    HW127743   6.229   5.740   3.491
 8948SOL    HW227744   6.230   5.607   3.397
 8949SOL     OW27745   3.925   6.300   0.503
 8949SOL    HW127746   3.951   6.377   0.560
 8949SOL    HW227747   3.991   6.226   0.512
 8950SOL     OW27748   3.481   3.205   0.398
 8950SOL    HW127749   3.447   3.276   0.337
 8950SOL    HW227750   3.541   3.246   0.467
 8951SOL     OW27751   2.021   1.091   4.489
 8951SOL    HW127752   1.993   1.181   4.523
 8951SOL    HW227753   2.117   1.096   4.459
 8952SOL     OW27754   0.860   5.079   3.758
 8952SOL    HW127755   0.936   5.144   3.766
 8952SOL    HW227756   0.802   5.085   3.839
 8953SOL     OW27757   1.190   4.569   0.615
 8953SOL    HW127758   1.266   4.556   0.552
 8953SOL    HW227759   1.121   4.628   0.573
 8954SOL     OW27760   6.716   0.277   4.368
 8954SOL    HW127761   6.811   0.297   4.395
 8954SOL    HW227762   6.672   0.222   4.439
 8955SOL     OW27763   0.084   4.836   3.090
 8955SOL    HW127764   0.064   4.751   3.140
 8955SOL    HW227765   0.047   4.830   2.998
 8956SOL     OW27766   1.804   1.581   6.061
 8956SOL    HW127767   1.845   1.667   6.093
 8956SOL    HW227768   1.766   1.595   5.970
 8957SOL     OW27769   2.045   4.597   1.039
 8957SOL    HW127770   2.125   4.602   0.978
 8957SOL    HW227771   2.075   4.611   1.133
 8958SOL     OW27772   0.718   2.415   5.668
 8958SOL    HW127773   0.768   2.440   5.751
 8958SOL    HW227774   0.645   2.481   5.652
 8959SOL     OW27775   1.805   4.563   2.465
 8959SOL    HW127776   1.875   4.617   2.510
 8959SOL    HW227777   1.728   4.621   2.441
 8960SOL     OW27778   5.092   5.713   3.864
 8960SOL    HW127779   5.151   5.665   3.799
 8960SOL    HW227780   5.017   5.653   3.892
 8961SOL     OW27781   3.588   1.357   3.295
 8961SOL    HW127782   3.513   1.293   3.280
 8961SOL    HW227783   3.569   1.412   3.376
 8962SOL     OW27784   6.189   5.334   2.759
 8962SOL    HW127785   6.181   5.270   2.682
 8962SOL    HW227786   6.249   5.409   2.734
 8963SOL     OW27787   3.792   0.276   4.460
 8963SOL    HW127788   3.714   0.248   4.404
 8963SOL    HW227789   3.760   0.314   4.546
 8964SOL     OW27790   5.932   2.515   2.946
 8964SOL    HW127791   5.920   2.499   2.848
 8964SOL    HW227792   5.886   2.443   2.998
 8965SOL     OW27793   2.670   5.346   7.000
 8965SOL    HW127794   2.770   5.343   7.008
 8965SOL    HW227795   2.629   5.348   0.069
 8966SOL     OW27796   6.882   3.950   0.502
 8966SOL    HW127797   6.939   4.031   0.518
 8966SOL    HW227798   6.850   3.951   0.407
 8967SOL     OW27799   3.772   0.622   1.838
 8967SOL    HW127800   3.757   0.642   1.934
 8967SOL    HW227801   3.834   0.690   1.798
 8968SOL     OW27802   4.524   5.917   2.772
 8968SOL    HW127803   4.618   5.893   2.746
 8968SOL    HW227804   4.468   5.835   2.776
 8969SOL     OW27805   6.935   0.235   3.690
 8969SOL    HW127806   7.017   0.187   3.657
 8969SOL    HW227807   6.953   0.272   3.780
 8970SOL     OW27808   2.432   3.138   6.719
 8970SOL    HW127809   2.435   3.238   6.724
 8970SOL    HW227810   2.471   3.108   6.632
 8971SOL     OW27811   6.188   5.318   1.099
 8971SOL    HW127812   6.235   5.328   1.011
 8971SOL    HW227813   6.139   5.231   1.101
 8972SOL     OW27814   4.405   4.376   0.572
 8972SOL    HW127815   4.499   4.401   0.595
 8972SOL    HW227816   4.391   4.279   0.588
 8973SOL     OW27817   0.081   3.710   3.322
 8973SOL    HW127818   0.032   3.796   3.336
 8973SOL    HW227819   0.021   3.633   3.348
 8974SOL     OW27820   1.563   3.566   4.099
 8974SOL    HW127821   1.588   3.566   4.003
 8974SOL    HW227822   1.577   3.474   4.137
 8975SOL     OW27823   0.611   6.560   0.254
 8975SOL    HW127824   0.530   6.513   0.219
 8975SOL    HW227825   0.691   6.530   0.202
 8976SOL     OW27826   0.177   5.244   0.365
 8976SOL    HW127827   0.189   5.307   0.442
 8976SOL    HW227828   0.086   5.256   0.326
 8977SOL     OW27829   6.645   3.062   6.425
 8977SOL    HW127830   6.598   3.136   6.474
 8977SOL    HW227831   6.701   3.010   6.490
 8978SOL     OW27832   5.502   6.694   4.561
 8978SOL    HW127833   5.479   6.714   4.465
 8978SOL    HW227834   5.419   6.692   4.616
 8979SOL     OW27835   0.933   4.797   5.853
 8979SOL    HW127836   0.835   4.782   5.839
 8979SOL    HW227837   0.962   4.750   5.936
 8980SOL     OW27838   4.744   2.510   5.480
 8980SOL    HW127839   4.811   2.570   5.524
 8980SOL    HW227840   4.689   2.464   5.550
 8981SOL     OW27841   4.825   2.189   5.104
 8981SOL    HW127842   4.808   2.099   5.064
 8981SOL    HW227843   4.904   2.185   5.165
 8982SOL     OW27844   1.288   1.649   1.717
 8982SOL    HW127845   1.348   1.663   1.638
 8982SOL    HW227846   1.321   1.704   1.794
 8983SOL     OW27847   0.527   5.566   0.317
 8983SOL    HW127848   0.469   5.549   0.397
 8983SOL    HW227849   0.602   5.626   0.343
 8984SOL     OW27850   5.981   5.917   3.793
 8984SOL    HW127851   6.018   5.949   3.880
 8984SOL    HW227852   5.962   5.996   3.734
 8985SOL     OW27853   2.479   1.729   0.448
 8985SOL    HW127854   2.519   1.713   0.538
 8985SOL    HW227855   2.459   1.826   0.437
 8986SOL     OW27856   4.219   4.825   2.489
 8986SOL    HW127857   4.145   4.758   2.484
 8986SOL    HW227858   4.213   4.873   2.577
 8987SOL     OW27859   3.658   0.444   0.881
 8987SOL    HW127860   3.656   0.391   0.966
 8987SOL    HW227861   3.752   0.467   0.858
 8988SOL     OW27862   1.257   4.179   0.159
 8988SOL    HW127863   1.264   4.130   0.072
 8988SOL    HW227864   1.329   4.146   0.221
 8989SOL     OW27865   4.770   3.964   1.954
 8989SOL    HW127866   4.754   4.041   2.015
 8989SOL    HW227867   4.706   3.968   1.877
 8990SOL     OW27868   2.258   5.731   2.400
 8990SOL    HW127869   2.248   5.818   2.351
 8990SOL    HW227870   2.186   5.668   2.370
 8991SOL     OW27871   1.973   1.347   6.844
 8991SOL    HW127872   1.892   1.297   6.872
 8991SOL    HW227873   1.947   1.428   6.791
 8992SOL     OW27874   6.881   2.281   6.645
 8992SOL    HW127875   6.814   2.342   6.687
 8992SOL    HW227876   6.968   2.288   6.693
 8993SOL     OW27877   4.600   2.565   2.721
 8993SOL    HW127878   4.640   2.640   2.668
 8993SOL    HW227879   4.670   2.495   2.739
 8994SOL     OW27880   0.787   5.423   4.479
 8994SOL    HW127881   0.728   5.490   4.433
 8994SOL    HW227882   0.791   5.443   4.576
 8995SOL     OW27883   1.138   2.815   6.003
 8995SOL    HW127884   1.055   2.765   5.979
 8995SOL    HW227885   1.215   2.751   6.009
 8996SOL     OW27886   6.545   4.829   1.813
 8996SOL    HW127887   6.622   4.888   1.839
 8996SOL    HW227888   6.564   4.787   1.724
 8997SOL     OW27889   3.872   1.417   6.415
 8997SOL    HW127890   3.887   1.435   6.512
 8997SOL    HW227891   3.910   1.492   6.361
 8998SOL     OW27892   0.142   3.220   4.470
 8998SOL    HW127893   0.065   3.158   4.490
 8998SOL    HW227894   0.160   3.277   4.549
 8999SOL     OW27895   4.584   0.619   0.297
 8999SOL    HW127896   4.630   0.586   0.379
 8999SOL    HW227897   4.501   0.564   0.281
 9000SOL     OW27898   2.313   4.005   6.165
 9000SOL    HW127899   2.297   4.003   6.066
 9000SOL    HW227900   2.309   4.100   6.197
 9001SOL     OW27901   0.647   5.304   2.702
 9001SOL    HW127902   0.595   5.224   2.732
 9001SOL    HW227903   0.697   5.282   2.618
 9002SOL     OW27904   0.386   5.257   5.070
 9002SOL    HW127905   0.469   5.202   5.077
 9002SOL    HW227906   0.310   5.199   5.043
 9003SOL     OW27907   5.442   2.239   1.184
 9003SOL    HW127908   5.367   2.188   1.224
 9003SOL    HW227909   5.406   2.321   1.139
 9004SOL     OW27910   4.948   6.351   1.422
 9004SOL    HW127911   4.856   6.324   1.452
 9004SOL    HW227912   5.012   6.340   1.498
 9005SOL     OW27913   5.295   2.335   4.855
 9005SOL    HW127914   5.353   2.416   4.845
 9005SOL    HW227915   5.223   2.354   4.922
 9006SOL     OW27916   2.386   6.434   0.080
 9006SOL    HW127917   2.310   6.392   0.131
 9006SOL    HW227918   2.462   6.368   0.074
 9007SOL     OW27919   3.607   6.092   3.747
 9007SOL    HW127920   3.572   6.084   3.654
 9007SOL    HW227921   3.574   6.015   3.802
 9008SOL     OW27922   6.604   5.066   2.610
 9008SOL    HW127923   6.645   4.987   2.655
 9008SOL    HW227924   6.611   5.055   2.511
 9009SOL     OW27925   2.229   0.126   0.549
 9009SOL    HW127926   2.329   0.127   0.562
 9009SOL    HW227927   2.187   0.074   0.623
 9010SOL     OW27928   0.937   6.867   4.841
 9010SOL    HW127929   0.964   6.771   4.835
 9010SOL    HW227930   1.018   6.925   4.842
 9011SOL     OW27931   4.180   1.880   1.622
 9011SOL    HW127932   4.081   1.889   1.611
 9011SOL    HW227933   4.201   1.864   1.719
 9012SOL     OW27934   3.367   3.950   0.940
 9012SOL    HW127935   3.355   4.044   0.971
 9012SOL    HW227936   3.324   3.939   0.850
 9013SOL     OW27937   6.724   6.274   4.256
 9013SOL    HW127938   6.646   6.213   4.245
 9013SOL    HW227939   6.691   6.368   4.269
 9014SOL     OW27940   1.021   0.694   0.317
 9014SOL    HW127941   1.039   0.768   0.382
 9014SOL    HW227942   1.070   0.711   0.232
 9015SOL     OW27943   6.038   1.394   1.329
 9015SOL    HW127944   6.091   1.367   1.248
 9015SOL    HW227945   5.996   1.484   1.314
 9016SOL     OW27946   0.696   6.616   6.556
 9016SOL    HW127947   0.636   6.589   6.631
 9016SOL    HW227948   0.666   6.574   6.471
 9017SOL     OW27949   4.815   2.758   1.939
 9017SOL    HW127950   4.739   2.694   1.933
 9017SOL    HW227951   4.780   2.851   1.949
 9018SOL     OW27952   4.309   1.236   5.159
 9018SOL    HW127953   4.252   1.308   5.120
 9018SOL    HW227954   4.391   1.224   5.104
 9019SOL     OW27955   0.488   0.764   0.621
 9019SOL    HW127956   0.503   0.863   0.629
 9019SOL    HW227957   0.412   0.737   0.681
 9020SOL     OW27958   1.197   3.791   1.525
 9020SOL    HW127959   1.290   3.817   1.551
 9020SOL    HW227960   1.135   3.806   1.602
 9021SOL     OW27961   6.379   0.338   3.679
 9021SOL    HW127962   6.383   0.320   3.778
 9021SOL    HW227963   6.471   0.361   3.647
 9022SOL     OW27964   2.804   1.510   0.981
 9022SOL    HW127965   2.706   1.492   0.970
 9022SOL    HW227966   2.818   1.608   0.995
 9023SOL     OW27967   3.253   2.926   2.716
 9023SOL    HW127968   3.300   3.012   2.698
 9023SOL    HW227969   3.161   2.929   2.676
 9024SOL     OW27970   0.654   5.303   5.255
 9024SOL    HW127971   0.569   5.308   5.308
 9024SOL    HW227972   0.729   5.338   5.310
 9025SOL     OW27973   0.067   6.121   0.308
 9025SOL    HW127974   0.076   6.219   0.324
 9025SOL    HW227975   0.114   6.070   0.381
 9026SOL     OW27976   3.811   3.345   2.010
 9026SOL    HW127977   3.740   3.393   2.062
 9026SOL    HW227978   3.838   3.400   1.931
 9027SOL     OW27979   1.414   1.715   3.418
 9027SOL    HW127980   1.395   1.637   3.358
 9027SOL    HW227981   1.498   1.698   3.469
 9028SOL     OW27982   2.367   3.416   6.703
 9028SOL    HW127983   2.353   3.489   6.636
 9028SOL    HW227984   2.454   3.430   6.750
 9029SOL     OW27985   3.153   5.691   5.309
 9029SOL    HW127986   3.150   5.591   5.320
 9029SOL    HW227987   3.190   5.713   5.219
 9030SOL     OW27988   2.082   0.873   3.596
 9030SOL    HW127989   2.013   0.837   3.534
 9030SOL    HW227990   2.173   0.857   3.557
 9031SOL     OW27991   4.705   5.863   4.891
 9031SOL    HW127992   4.656   5.790   4.844
 9031SOL    HW227993   4.662   5.881   4.979
 9032SOL     OW27994   2.984   2.967   0.689
 9032SOL    HW127995   3.049   2.921   0.749
 9032SOL    HW227996   2.913   2.903   0.660
 9033SOL     OW27997   2.115   4.577   3.594
 9033SOL    HW127998   2.053   4.588   3.516
 9033SOL    HW227999   2.088   4.640   3.667
 9034SOL     OW28000   3.424   0.445   4.967
 9034SOL    HW128001   3.419   0.407   4.875
 9034SOL    HW228002   3.359   0.397   5.027
 9035SOL     OW28003   1.095   5.570   5.665
 9035SOL    HW128004   1.188   5.585   5.700
 9035SOL    HW228005   1.080   5.472   5.652
 9036SOL     OW28006   1.905   0.657   5.090
 9036SOL    HW128007   1.857   0.569   5.086
 9036SOL    HW228008   1.970   0.656   5.165
 9037SOL     OW28009   1.256   3.846   5.762
 9037SOL    HW128010   1.331   3.793   5.723
 9037SOL    HW228011   1.286   3.940   5.776
 9038SOL     OW28012   4.340   0.236   5.869
 9038SOL    HW128013   4.372   0.212   5.961
 9038SOL    HW228014   4.418   0.264   5.813
 9039SOL     OW28015   2.489   4.879   4.765
 9039SOL    HW128016   2.463   4.958   4.821
 9039SOL    HW228017   2.407   4.826   4.742
 9040SOL     OW28018   2.948   1.731   2.575
 9040SOL    HW128019   2.925   1.766   2.666
 9040SOL    HW228020   3.042   1.755   2.553
 9041SOL     OW28021   0.795   2.286   1.996
 9041SOL    HW128022   0.698   2.300   2.020
 9041SOL    HW228023   0.846   2.370   2.016
 9042SOL     OW28024   3.270   6.641   3.738
 9042SOL    HW128025   3.277   6.709   3.666
 9042SOL    HW228026   3.211   6.675   3.811
 9043SOL     OW28027   2.410   1.374   6.353
 9043SOL    HW128028   2.407   1.449   6.286
 9043SOL    HW228029   2.319   1.360   6.391
 9044SOL     OW28030   6.004   1.549   1.851
 9044SOL    HW128031   6.077   1.606   1.815
 9044SOL    HW228032   5.962   1.497   1.776
 9045SOL     OW28033   3.277   1.735   2.538
 9045SOL    HW128034   3.278   1.684   2.452
 9045SOL    HW228035   3.369   1.741   2.575
 9046SOL     OW28036   3.360   3.695   4.474
 9046SOL    HW128037   3.425   3.731   4.541
 9046SOL    HW228038   3.368   3.748   4.389
 9047SOL     OW28039   1.196   3.283   5.197
 9047SOL    HW128040   1.171   3.200   5.147
 9047SOL    HW228041   1.206   3.359   5.132
 9048SOL     OW28042   6.188   2.449   5.997
 9048SOL    HW128043   6.122   2.454   5.922
 9048SOL    HW228044   6.234   2.361   5.994
 9049SOL     OW28045   3.996   0.318   6.601
 9049SOL    HW128046   4.013   0.328   6.503
 9049SOL    HW228047   3.909   0.273   6.615
 9050SOL     OW28048   0.499   4.461   5.941
 9050SOL    HW128049   0.599   4.467   5.940
 9050SOL    HW228050   0.460   4.543   5.901
 9051SOL     OW28051   4.098   6.294   0.802
 9051SOL    HW128052   4.129   6.206   0.766
 9051SOL    HW228053   4.036   6.337   0.736
 9052SOL     OW28054   1.706   2.462   2.996
 9052SOL    HW128055   1.771   2.511   3.054
 9052SOL    HW228056   1.700   2.507   2.907
 9053SOL     OW28057   1.885   1.432   2.884
 9053SOL    HW128058   1.870   1.342   2.843
 9053SOL    HW228059   1.833   1.501   2.834
 9054SOL     OW28060   1.616   0.206   1.826
 9054SOL    HW128061   1.607   0.294   1.780
 9054SOL    HW228062   1.548   0.142   1.790
 9055SOL     OW28063   6.540   3.862   3.407
 9055SOL    HW128064   6.488   3.915   3.340
 9055SOL    HW228065   6.488   3.856   3.493
 9056SOL     OW28066   5.971   0.385   1.551
 9056SOL    HW128067   5.956   0.349   1.459
 9056SOL    HW228068   6.054   0.343   1.590
 9057SOL     OW28069   5.867   5.070   5.804
 9057SOL    HW128070   5.881   5.007   5.880
 9057SOL    HW228071   5.879   5.164   5.836
 9058SOL     OW28072   2.023   1.851   3.793
 9058SOL    HW128073   1.965   1.784   3.840
 9058SOL    HW228074   2.116   1.844   3.827
 9059SOL     OW28075   1.190   1.284   4.651
 9059SOL    HW128076   1.121   1.283   4.579
 9059SOL    HW228077   1.177   1.205   4.711
 9060SOL     OW28078   7.015   2.586   2.548
 9060SOL    HW128079   7.005   2.530   2.465
 9060SOL    HW228080   0.062   2.544   2.607
 9061SOL     OW28081   3.484   5.503   2.212
 9061SOL    HW128082   3.543   5.503   2.292
 9061SOL    HW228083   3.439   5.592   2.204
 9062SOL     OW28084   1.499   5.461   2.021
 9062SOL    HW128085   1.448   5.386   1.978
 9062SOL    HW228086   1.591   5.430   2.044
 9063SOL     OW28087   2.058   6.493   2.592
 9063SOL    HW128088   2.129   6.527   2.530
 9063SOL    HW228089   2.089   6.407   2.634
 9064SOL     OW28090   6.092   4.017   5.423
 9064SOL    HW128091   6.051   3.942   5.370
 9064SOL    HW228092   6.020   4.077   5.457
 9065SOL     OW28093   3.289   6.125   6.754
 9065SOL    HW128094   3.300   6.125   6.655
 9065SOL    HW228095   3.268   6.217   6.786
 9066SOL     OW28096   5.874   0.583   0.363
 9066SOL    HW128097   5.894   0.639   0.283
 9066SOL    HW228098   5.959   0.566   0.414
 9067SOL     OW28099   6.355   0.205   4.228
 9067SOL    HW128100   6.397   0.294   4.247
 9067SOL    HW228101   6.426   0.139   4.204
 9068SOL     OW28102   2.997   0.486   5.146
 9068SOL    HW128103   2.913   0.514   5.194
 9068SOL    HW228104   2.984   0.497   5.047
 9069SOL     OW28105   2.624   2.430   1.804
 9069SOL    HW128106   2.698   2.421   1.870
 9069SOL    HW228107   2.662   2.443   1.712
 9070SOL     OW28108   1.045   3.307   5.719
 9070SOL    HW128109   1.061   3.402   5.748
 9070SOL    HW228110   1.005   3.307   5.627
 9071SOL     OW28111   5.224   0.092   0.408
 9071SOL    HW128112   5.175   0.049   0.332
 9071SOL    HW228113   5.238   0.024   0.480
 9072SOL     OW28114   6.118   1.059   1.897
 9072SOL    HW128115   6.173   1.118   1.838
 9072SOL    HW228116   6.085   1.111   1.976
 9073SOL     OW28117   3.420   6.532   0.689
 9073SOL    HW128118   3.460   6.447   0.723
 9073SOL    HW228119   3.336   6.511   0.639
 9074SOL     OW28120   2.020   1.003   2.039
 9074SOL    HW128121   2.081   0.998   1.960
 9074SOL    HW228122   2.073   1.001   2.123
 9075SOL     OW28123   0.960   0.601   1.860
 9075SOL    HW128124   1.023   0.607   1.783
 9075SOL    HW228125   0.991   0.660   1.934
 9076SOL     OW28126   6.138   1.819   4.663
 9076SOL    HW128127   6.091   1.883   4.724
 9076SOL    HW228128   6.166   1.867   4.580
 9077SOL     OW28129   5.577   0.450   6.777
 9077SOL    HW128130   5.525   0.443   6.862
 9077SOL    HW228131   5.645   0.377   6.773
 9078SOL     OW28132   4.180   3.748   6.787
 9078SOL    HW128133   4.229   3.674   6.834
 9078SOL    HW228134   4.244   3.798   6.729
 9079SOL     OW28135   2.324   6.019   3.872
 9079SOL    HW128136   2.282   6.085   3.810
 9079SOL    HW228137   2.321   5.928   3.831
 9080SOL     OW28138   5.518   2.079   0.442
 9080SOL    HW128139   5.482   2.006   0.383
 9080SOL    HW228140   5.493   2.060   0.537
 9081SOL     OW28141   4.310   6.402   2.696
 9081SOL    HW128142   4.226   6.365   2.735
 9081SOL    HW228143   4.333   6.353   2.613
 9082SOL     OW28144   3.068   6.861   5.691
 9082SOL    HW128145   3.039   6.795   5.760
 9082SOL    HW228146   2.999   6.864   5.618
 9083SOL     OW28147   3.760   4.235   5.879
 9083SOL    HW128148   3.858   4.216   5.875
 9083SOL    HW228149   3.716   4.172   5.942
 9084SOL     OW28150   3.049   3.707   5.722
 9084SOL    HW128151   3.090   3.776   5.782
 9084SOL    HW228152   3.106   3.697   5.640
 9085SOL     OW28153   1.639   4.638   0.640
 9085SOL    HW128154   1.728   4.616   0.681
 9085SOL    HW228155   1.601   4.719   0.687
 9086SOL     OW28156   0.702   4.521   0.460
 9086SOL    HW128157   0.719   4.560   0.370
 9086SOL    HW228158   0.752   4.435   0.469
 9087SOL     OW28159   4.573   2.564   1.960
 9087SOL    HW128160   4.482   2.570   1.917
 9087SOL    HW228161   4.563   2.563   2.059
 9088SOL     OW28162   6.149   6.050   0.855
 9088SOL    HW128163   6.153   6.087   0.762
 9088SOL    HW228164   6.113   6.120   0.917
 9089SOL     OW28165   4.968   6.185   4.979
 9089SOL    HW128166   4.977   6.161   5.076
 9089SOL    HW228167   5.059   6.206   4.942
 9090SOL     OW28168   6.577   6.166   3.532
 9090SOL    HW128169   6.606   6.258   3.505
 9090SOL    HW228170   6.623   6.099   3.474
 9091SOL     OW28171   2.964   3.421   0.882
 9091SOL    HW128172   2.897   3.372   0.938
 9091SOL    HW228173   2.971   3.516   0.914
 9092SOL     OW28174   0.119   2.232   1.034
 9092SOL    HW128175   0.031   2.278   1.020
 9092SOL    HW228176   0.190   2.301   1.050
 9093SOL     OW28177   1.232   6.363   6.436
 9093SOL    HW128178   1.322   6.397   6.463
 9093SOL    HW228179   1.241   6.272   6.395
 9094SOL     OW28180   6.090   5.450   3.144
 9094SOL    HW128181   6.121   5.364   3.102
 9094SOL    HW228182   5.991   5.444   3.160
 9095SOL     OW28183   4.425   4.044   6.160
 9095SOL    HW128184   4.422   4.124   6.099
 9095SOL    HW228185   4.496   4.058   6.230
 9096SOL     OW28186   5.396   3.901   1.955
 9096SOL    HW128187   5.467   3.835   1.932
 9096SOL    HW228188   5.309   3.873   1.913
 9097SOL     OW28189   1.124   1.958   6.662
 9097SOL    HW128190   1.224   1.963   6.664
 9097SOL    HW228191   1.091   1.918   6.747
 9098SOL     OW28192   3.893   2.311   6.307
 9098SOL    HW128193   3.879   2.297   6.209
 9098SOL    HW228194   3.950   2.392   6.322
 9099SOL     OW28195   2.561   2.782   6.347
 9099SOL    HW128196   2.600   2.821   6.264
 9099SOL    HW228197   2.501   2.705   6.324
 9100SOL     OW28198   0.512   3.705   4.157
 9100SOL    HW128199   0.543   3.702   4.252
 9100SOL    HW228200   0.591   3.706   4.096
 9101SOL     OW28201   2.385   2.105   2.966
 9101SOL    HW128202   2.482   2.112   2.989
 9101SOL    HW228203   2.350   2.196   2.943
 9102SOL     OW28204   2.749   0.172   1.574
 9102SOL    HW128205   2.702   0.086   1.555
 9102SOL    HW228206   2.808   0.161   1.654
 9103SOL     OW28207   6.398   3.099   6.608
 9103SOL    HW128208   6.441   3.185   6.583
 9103SOL    HW228209   6.320   3.117   6.668
 9104SOL     OW28210   6.707   6.430   1.842
 9104SOL    HW128211   6.617   6.384   1.839
 9104SOL    HW228212   6.745   6.421   1.934
 9105SOL     OW28213   1.569   1.210   0.098
 9105SOL    HW128214   1.563   1.308   0.080
 9105SOL    HW228215   1.634   1.193   0.172
 9106SOL     OW28216   0.122   3.492   6.931
 9106SOL    HW128217   0.084   3.493   6.839
 9106SOL    HW228218   0.147   3.585   6.958
 9107SOL     OW28219   3.508   1.247   6.324
 9107SOL    HW128220   3.446   1.319   6.295
 9107SOL    HW228221   3.483   1.216   6.416
 9108SOL     OW28222   4.743   3.958   5.817
 9108SOL    HW128223   4.818   3.989   5.876
 9108SOL    HW228224   4.687   3.892   5.866
 9109SOL     OW28225   6.833   2.332   3.052
 9109SOL    HW128226   6.909   2.380   3.095
 9109SOL    HW228227   6.793   2.390   2.981
 9110SOL     OW28228   1.968   4.182   3.862
 9110SOL    HW128229   1.940   4.099   3.912
 9110SOL    HW228230   2.054   4.165   3.815
 9111SOL     OW28231   4.656   1.924   0.856
 9111SOL    HW128232   4.605   1.854   0.905
 9111SOL    HW228233   4.650   1.906   0.757
 9112SOL     OW28234   0.650   5.191   3.589
 9112SOL    HW128235   0.739   5.152   3.612
 9112SOL    HW228236   0.585   5.171   3.663
 9113SOL     OW28237   4.865   0.988   2.770
 9113SOL    HW128238   4.958   0.978   2.735
 9113SOL    HW228239   4.865   1.050   2.848
 9114SOL     OW28240   0.208   4.447   1.986
 9114SOL    HW128241   0.272   4.370   1.989
 9114SOL    HW228242   0.211   4.496   2.073
 9115SOL     OW28243   0.120   5.856   4.434
 9115SOL    HW128244   0.219   5.858   4.420
 9115SOL    HW228245   0.074   5.884   4.349
 9116SOL     OW28246   6.438   1.089   1.979
 9116SOL    HW128247   6.475   1.166   1.928
 9116SOL    HW228248   6.349   1.063   1.942
 9117SOL     OW28249   5.621   2.370   0.714
 9117SOL    HW128250   5.663   2.279   0.710
 9117SOL    HW228251   5.654   2.426   0.638
 9118SOL     OW28252   6.825   3.692   0.256
 9118SOL    HW128253   6.771   3.767   0.218
 9118SOL    HW228254   6.789   3.605   0.225
 9119SOL     OW28255   4.366   0.330   2.522
 9119SOL    HW128256   4.375   0.283   2.435
 9119SOL    HW228257   4.456   0.350   2.560
 9120SOL     OW28258   6.470   1.819   6.109
 9120SOL    HW128259   6.506   1.796   6.199
 9120SOL    HW228260   6.498   1.912   6.084
 9121SOL     OW28261   4.554   1.141   4.592
 9121SOL    HW128262   4.574   1.192   4.509
 9121SOL    HW228263   4.630   1.152   4.657
 9122SOL     OW28264   2.154   3.980   2.177
 9122SOL    HW128265   2.168   3.889   2.216
 9122SOL    HW228266   2.196   3.984   2.086
 9123SOL     OW28267   2.913   0.499   3.551
 9123SOL    HW128268   2.909   0.594   3.581
 9123SOL    HW228269   2.823   0.457   3.559
 9124SOL     OW28270   5.242   6.439   0.303
 9124SOL    HW128271   5.266   6.391   0.388
 9124SOL    HW228272   5.150   6.477   0.311
 9125SOL     OW28273   4.729   4.299   0.617
 9125SOL    HW128274   4.709   4.211   0.661
 9125SOL    HW228275   4.825   4.301   0.589
 9126SOL     OW28276   6.132   3.484   1.110
 9126SOL    HW128277   6.092   3.445   1.027
 9126SOL    HW228278   6.140   3.583   1.100
 9127SOL     OW28279   0.162   1.690   6.507
 9127SOL    HW128280   0.090   1.709   6.574
 9127SOL    HW228281   0.179   1.772   6.452
 9128SOL     OW28282   6.294   2.011   5.263
 9128SOL    HW128283   6.382   2.060   5.260
 9128SOL    HW228284   6.236   2.043   5.189
 9129SOL     OW28285   0.202   2.444   0.337
 9129SOL    HW128286   0.204   2.374   0.409
 9129SOL    HW228287   0.196   2.399   0.247
 9130SOL     OW28288   0.269   3.289   5.973
 9130SOL    HW128289   0.364   3.319   5.978
 9130SOL    HW228290   0.256   3.231   5.893
 9131SOL     OW28291   5.619   3.194   5.405
 9131SOL    HW128292   5.520   3.188   5.407
 9131SOL    HW228293   5.659   3.112   5.447
 9132SOL     OW28294   0.398   5.683   4.279
 9132SOL    HW128295   0.365   5.605   4.225
 9132SOL    HW228296   0.360   5.768   4.242
 9133SOL     OW28297   3.536   6.769   1.549
 9133SOL    HW128298   3.492   6.858   1.538
 9133SOL    HW228299   3.619   6.780   1.603
 9134SOL     OW28300   3.665   6.141   1.543
 9134SOL    HW128301   3.624   6.215   1.491
 9134SOL    HW228302   3.738   6.098   1.490
 9135SOL     OW28303   6.077   6.668   1.680
 9135SOL    HW128304   6.173   6.643   1.666
 9135SOL    HW228305   6.037   6.608   1.750
 9136SOL     OW28306   5.022   6.444   6.997
 9136SOL    HW128307   5.103   6.500   6.982
 9136SOL    HW228308   5.049   6.352   0.004
 9137SOL     OW28309   5.090   1.263   0.710
 9137SOL    HW128310   5.150   1.315   0.772
 9137SOL    HW228311   5.094   1.304   0.619
 9138SOL     OW28312   0.310   6.160   6.552
 9138SOL    HW128313   0.382   6.200   6.495
 9138SOL    HW228314   0.229   6.144   6.495
 9139SOL     OW28315   1.935   1.873   3.018
 9139SOL    HW128316   2.023   1.866   3.064
 9139SOL    HW228317   1.869   1.919   3.078
 9140SOL     OW28318   6.770   3.097   2.406
 9140SOL    HW128319   6.772   3.075   2.309
 9140SOL    HW228320   6.862   3.122   2.437
 9141SOL     OW28321   5.282   0.218   1.047
 9141SOL    HW128322   5.204   0.173   1.003
 9141SOL    HW228323   5.327   0.278   0.982
 9142SOL     OW28324   0.447   2.790   1.079
 9142SOL    HW128325   0.536   2.781   1.035
 9142SOL    HW228326   0.374   2.783   1.010
 9143SOL     OW28327   6.290   2.913   0.438
 9143SOL    HW128328   6.334   2.861   0.365
 9143SOL    HW228329   6.277   3.008   0.407
 9144SOL     OW28330   2.690   5.134   4.662
 9144SOL    HW128331   2.672   5.123   4.760
 9144SOL    HW228332   2.603   5.130   4.612
 9145SOL     OW28333   0.357   5.657   6.807
 9145SOL    HW128334   0.454   5.634   6.799
 9145SOL    HW228335   0.304   5.598   6.747
 9146SOL     OW28336   5.376   3.424   4.026
 9146SOL    HW128337   5.360   3.432   3.928
 9146SOL    HW228338   5.300   3.374   4.068
 9147SOL     OW28339   6.018   6.415   5.712
 9147SOL    HW128340   6.029   6.319   5.684
 9147SOL    HW228341   6.083   6.472   5.662
 9148SOL     OW28342   5.269   6.617   1.371
 9148SOL    HW128343   5.187   6.593   1.319
 9148SOL    HW228344   5.243   6.643   1.464
 9149SOL     OW28345   5.744   3.859   2.566
 9149SOL    HW128346   5.651   3.823   2.552
 9149SOL    HW228347   5.808   3.783   2.573
 9150SOL     OW28348   3.242   5.172   0.825
 9150SOL    HW128349   3.291   5.164   0.912
 9150SOL    HW228350   3.220   5.268   0.808
 9151SOL     OW28351   1.859   4.625   3.532
 9151SOL    HW128352   1.818   4.709   3.565
 9151SOL    HW228353   1.811   4.594   3.450
 9152SOL     OW28354   2.211   4.042   4.514
 9152SOL    HW128355   2.259   3.996   4.589
 9152SOL    HW228356   2.122   3.999   4.502
 9153SOL     OW28357   0.234   2.914   6.910
 9153SOL    HW128358   0.163   2.962   6.859
 9153SOL    HW228359   0.207   2.818   6.922
 9154SOL     OW28360   5.552   5.011   6.193
 9154SOL    HW128361   5.577   4.935   6.133
 9154SOL    HW228362   5.624   5.080   6.192
 9155SOL     OW28363   1.619   3.892   2.486
 9155SOL    HW128364   1.684   3.848   2.423
 9155SOL    HW228365   1.660   3.896   2.577
 9156SOL     OW28366   0.732   2.421   0.859
 9156SOL    HW128367   0.815   2.367   0.844
 9156SOL    HW228368   0.719   2.436   0.957
 9157SOL     OW28369   2.426   4.255   6.261
 9157SOL    HW128370   2.480   4.242   6.345
 9157SOL    HW228371   2.349   4.316   6.280
 9158SOL     OW28372   6.072   3.459   4.054
 9158SOL    HW128373   5.972   3.472   4.053
 9158SOL    HW228374   6.096   3.401   4.132
 9159SOL     OW28375   1.676   0.892   2.351
 9159SOL    HW128376   1.628   0.820   2.400
 9159SOL    HW228377   1.628   0.979   2.364
 9160SOL     OW28378   0.245   6.804   6.003
 9160SOL    HW128379   0.203   6.764   5.921
 9160SOL    HW228380   0.323   6.749   6.031
 9161SOL     OW28381   5.088   5.114   4.080
 9161SOL    HW128382   5.128   5.204   4.063
 9161SOL    HW228383   4.994   5.125   4.113
 9162SOL     OW28384   4.362   0.674   3.850
 9162SOL    HW128385   4.380   0.591   3.904
 9162SOL    HW228386   4.338   0.648   3.757
 9163SOL     OW28387   0.478   2.425   4.247
 9163SOL    HW128388   0.421   2.502   4.274
 9163SOL    HW228389   0.439   2.340   4.284
 9164SOL     OW28390   1.922   0.476   0.042
 9164SOL    HW128391   1.925   0.389   7.014
 9164SOL    HW228392   1.850   0.534   0.005
 9165SOL     OW28393   6.099   1.683   5.772
 9165SOL    HW128394   6.142   1.680   5.682
 9165SOL    HW228395   6.075   1.590   5.800
 9166SOL     OW28396   3.973   6.279   1.337
 9166SOL    HW128397   4.044   6.274   1.407
 9166SOL    HW228398   3.954   6.375   1.316
 9167SOL     OW28399   2.052   2.415   6.350
 9167SOL    HW128400   2.128   2.367   6.392
 9167SOL    HW228401   2.015   2.482   6.414
 9168SOL     OW28402   6.460   6.117   6.054
 9168SOL    HW128403   6.548   6.072   6.066
 9168SOL    HW228404   6.472   6.216   6.059
 9169SOL     OW28405   0.126   6.862   6.637
 9169SOL    HW128406   0.210   6.864   6.691
 9169SOL    HW228407   0.083   6.952   6.640
 9170SOL     OW28408   1.730   0.274   6.925
 9170SOL    HW128409   1.752   0.301   6.831
 9170SOL    HW228410   1.643   0.315   6.952
 9171SOL     OW28411   3.512   6.029   0.650
 9171SOL    HW128412   3.450   6.059   0.722
 9171SOL    HW228413   3.459   6.000   0.571
 9172SOL     OW28414   5.004   1.124   3.175
 9172SOL    HW128415   5.023   1.203   3.234
 9172SOL    HW228416   4.923   1.141   3.121
 9173SOL     OW28417   5.908   4.947   6.058
 9173SOL    HW128418   5.948   4.862   6.093
 9173SOL    HW228419   5.958   5.025   6.096
 9174SOL     OW28420   6.898   5.334   0.582
 9174SOL    HW128421   6.872   5.272   0.656
 9174SOL    HW228422   6.973   5.393   0.613
 9175SOL     OW28423   1.715   6.250   6.193
 9175SOL    HW128424   1.710   6.340   6.236
 9175SOL    HW228425   1.761   6.186   6.254
 9176SOL     OW28426   2.383   1.045   2.049
 9176SOL    HW128427   2.445   0.973   2.019
 9176SOL    HW228428   2.435   1.124   2.082
 9177SOL     OW28429   0.970   3.745   4.119
 9177SOL    HW128430   1.058   3.788   4.101
 9177SOL    HW228431   0.971   3.702   4.209
 9178SOL     OW28432   2.164   4.717   6.687
 9178SOL    HW128433   2.148   4.705   6.589
 9178SOL    HW228434   2.248   4.769   6.702
 9179SOL     OW28435   1.989   5.522   4.063
 9179SOL    HW128436   1.935   5.573   3.996
 9179SOL    HW228437   1.962   5.548   4.155
 9180SOL     OW28438   6.393   1.954   3.523
 9180SOL    HW128439   6.476   1.953   3.467
 9180SOL    HW228440   6.385   2.042   3.570
 9181SOL     OW28441   6.284   2.274   4.340
 9181SOL    HW128442   6.357   2.212   4.369
 9181SOL    HW228443   6.317   2.368   4.342
 9182SOL     OW28444   2.601   0.101   3.067
 9182SOL    HW128445   2.650   0.055   3.141
 9182SOL    HW228446   2.511   0.060   3.054
 9183SOL     OW28447   4.537   4.645   0.063
 9183SOL    HW128448   4.635   4.641   0.077
 9183SOL    HW228449   4.495   4.703   0.133
 9184SOL     OW28450   4.222   2.544   1.298
 9184SOL    HW128451   4.200   2.493   1.215
 9184SOL    HW228452   4.157   2.619   1.310
 9185SOL     OW28453   6.591   6.765   5.013
 9185SOL    HW128454   6.654   6.687   5.005
 9185SOL    HW228455   6.497   6.732   5.006
 9186SOL     OW28456   5.931   0.038   4.603
 9186SOL    HW128457   5.842   0.084   4.608
 9186SOL    HW228458   5.950   0.013   4.509
 9187SOL     OW28459   3.625   1.980   0.088
 9187SOL    HW128460   3.527   1.962   0.083
 9187SOL    HW228461   3.642   2.055   0.153
 9188SOL     OW28462   2.140   0.250   1.486
 9188SOL    HW128463   2.148   0.155   1.516
 9188SOL    HW228464   2.116   0.251   1.389
 9189SOL     OW28465   3.678   5.821   2.496
 9189SOL    HW128466   3.738   5.756   2.448
 9189SOL    HW228467   3.596   5.773   2.529
 9190SOL     OW28468   0.918   3.046   5.238
 9190SOL    HW128469   0.978   3.059   5.317
 9190SOL    HW228470   0.832   3.004   5.267
 9191SOL     OW28471   5.751   1.008   6.891
 9191SOL    HW128472   5.714   1.012   6.984
 9191SOL    HW228473   5.811   1.086   6.875
 9192SOL     OW28474   6.900   2.427   6.408
 9192SOL    HW128475   6.872   2.354   6.346
 9192SOL    HW228476   6.897   2.394   6.503
 9193SOL     OW28477   3.507   3.239   4.459
 9193SOL    HW128478   3.471   3.245   4.552
 9193SOL    HW228479   3.578   3.307   4.445
 9194SOL     OW28480   3.280   0.652   2.772
 9194SOL    HW128481   3.194   0.601   2.781
 9194SOL    HW228482   3.343   0.601   2.714
 9195SOL     OW28483   1.647   3.436   2.876
 9195SOL    HW128484   1.676   3.351   2.832
 9195SOL    HW228485   1.699   3.449   2.961
 9196SOL     OW28486   5.915   6.275   4.040
 9196SOL    HW128487   5.824   6.238   4.024
 9196SOL    HW228488   5.955   6.231   4.120
 9197SOL     OW28489   2.783   4.768   0.675
 9197SOL    HW128490   2.774   4.779   0.576
 9197SOL    HW228491   2.782   4.858   0.719
 9198SOL     OW28492   6.331   4.122   6.555
 9198SOL    HW128493   6.332   4.128   6.455
 9198SOL    HW228494   6.256   4.177   6.591
 9199SOL     OW28495   6.908   2.760   5.277
 9199SOL    HW128496   6.903   2.662   5.293
 9199SOL    HW228497   6.972   2.801   5.343
 9200SOL     OW28498   2.804   6.178   5.740
 9200SOL    HW128499   2.846   6.088   5.738
 9200SOL    HW228500   2.818   6.225   5.653
 9201SOL     OW28501   6.888   3.223   6.698
 9201SOL    HW128502   6.943   3.293   6.653
 9201SOL    HW228503   6.812   3.268   6.747
 9202SOL     OW28504   1.056   5.179   4.197
 9202SOL    HW128505   1.140   5.179   4.143
 9202SOL    HW228506   1.056   5.258   4.258
 9203SOL     OW28507   6.290   2.990   5.916
 9203SOL    HW128508   6.291   3.044   6.000
 9203SOL    HW228509   6.333   2.902   5.933
 9204SOL     OW28510   4.914   3.694   4.522
 9204SOL    HW128511   4.933   3.648   4.610
 9204SOL    HW228512   4.921   3.627   4.448
 9205SOL     OW28513   5.215   5.671   2.956
 9205SOL    HW128514   5.246   5.754   3.002
 9205SOL    HW228515   5.130   5.639   2.997
 9206SOL     OW28516   3.163   6.492   3.216
 9206SOL    HW128517   3.117   6.581   3.214
 9206SOL    HW228518   3.259   6.503   3.191
 9207SOL     OW28519   4.166   4.652   0.200
 9207SOL    HW128520   4.121   4.739   0.222
 9207SOL    HW228521   4.100   4.589   0.160
 9208SOL     OW28522   5.468   4.032   2.642
 9208SOL    HW128523   5.437   4.085   2.563
 9208SOL    HW228524   5.417   3.946   2.646
 9209SOL     OW28525   4.881   1.014   1.263
 9209SOL    HW128526   4.981   1.018   1.273
 9209SOL    HW228527   4.840   1.093   1.309
 9210SOL     OW28528   1.597   1.642   0.871
 9210SOL    HW128529   1.577   1.557   0.822
 9210SOL    HW228530   1.521   1.706   0.860
 9211SOL     OW28531   6.253   2.881   6.283
 9211SOL    HW128532   6.265   2.897   6.184
 9211SOL    HW228533   6.175   2.820   6.297
 9212SOL     OW28534   5.382   4.278   4.224
 9212SOL    HW128535   5.397   4.181   4.240
 9212SOL    HW228536   5.284   4.297   4.221
 9213SOL     OW28537   5.016   5.103   4.529
 9213SOL    HW128538   5.018   5.186   4.473
 9213SOL    HW228539   5.105   5.056   4.522
 9214SOL     OW28540   0.117   2.974   4.748
 9214SOL    HW128541   0.108   2.881   4.714
 9214SOL    HW228542   0.053   3.034   4.699
 9215SOL     OW28543   1.213   4.666   2.370
 9215SOL    HW128544   1.167   4.578   2.369
 9215SOL    HW228545   1.234   4.692   2.465
 9216SOL     OW28546   2.503   6.577   3.603
 9216SOL    HW128547   2.516   6.599   3.507
 9216SOL    HW228548   2.590   6.584   3.652
 9217SOL     OW28549   6.798   2.903   6.609
 9217SOL    HW128550   6.858   2.853   6.546
 9217SOL    HW228551   6.854   2.956   6.672
 9218SOL     OW28552   3.609   1.023   0.058
 9218SOL    HW128553   3.548   1.049   7.005
 9218SOL    HW228554   3.698   0.995   0.021
 9219SOL     OW28555   4.599   4.183   6.613
 9219SOL    HW128556   4.515   4.164   6.663
 9219SOL    HW228557   4.656   4.246   6.666
 9220SOL     OW28558   1.231   6.534   2.047
 9220SOL    HW128559   1.284   6.451   2.028
 9220SOL    HW228560   1.137   6.521   2.017
 9221SOL     OW28561   2.155   6.829   3.635
 9221SOL    HW128562   2.244   6.863   3.664
 9221SOL    HW228563   2.155   6.817   3.536
 9222SOL     OW28564   2.550   5.848   5.413
 9222SOL    HW128565   2.582   5.837   5.319
 9222SOL    HW228566   2.481   5.921   5.417
 9223SOL     OW28567   1.317   2.771   4.236
 9223SOL    HW128568   1.356   2.846   4.290
 9223SOL    HW228569   1.229   2.745   4.275
 9224SOL     OW28570   1.416   5.290   3.503
 9224SOL    HW128571   1.421   5.241   3.416
 9224SOL    HW228572   1.486   5.255   3.565
 9225SOL     OW28573   3.123   6.048   5.925
 9225SOL    HW128574   3.202   6.011   5.974
 9225SOL    HW228575   3.045   5.985   5.934
 9226SOL     OW28576   0.664   6.529   1.463
 9226SOL    HW128577   0.569   6.551   1.441
 9226SOL    HW228578   0.706   6.606   1.510
 9227SOL     OW28579   2.113   5.962   1.012
 9227SOL    HW128580   2.070   6.051   1.001
 9227SOL    HW228581   2.136   5.924   0.923
 9228SOL     OW28582   2.802   1.597   6.942
 9228SOL    HW128583   2.742   1.571   7.018
 9228SOL    HW228584   2.774   1.548   6.860
 9229SOL     OW28585   0.746   4.634   5.407
 9229SOL    HW128586   0.698   4.646   5.494
 9229SOL    HW228587   0.843   4.619   5.424
 9230SOL     OW28588   5.104   2.959   3.826
 9230SOL    HW128589   5.187   2.998   3.866
 9230SOL    HW228590   5.126   2.919   3.737
 9231SOL     OW28591   1.237   3.399   5.517
 9231SOL    HW128592   1.290   3.468   5.470
 9231SOL    HW228593   1.274   3.308   5.497
 9232SOL     OW28594   2.967   5.176   6.649
 9232SOL    HW128595   2.896   5.246   6.653
 9232SOL    HW228596   3.052   5.214   6.685
 9233SOL     OW28597   6.172   6.398   1.275
 9233SOL    HW128598   6.217   6.402   1.364
 9233SOL    HW228599   6.134   6.488   1.252
 9234SOL     OW28600   3.144   5.763   0.568
 9234SOL    HW128601   3.089   5.706   0.506
 9234SOL    HW228602   3.230   5.716   0.589
 9235SOL     OW28603   2.212   2.487   3.437
 9235SOL    HW128604   2.188   2.455   3.345
 9235SOL    HW228605   2.266   2.571   3.430
 9236SOL     OW28606   1.585   4.298   6.566
 9236SOL    HW128607   1.656   4.364   6.593
 9236SOL    HW228608   1.557   4.316   6.471
 9237SOL     OW28609   0.704   5.926   2.642
 9237SOL    HW128610   0.789   5.969   2.673
 9237SOL    HW228611   0.636   5.929   2.715
 9238SOL     OW28612   2.468   3.084   6.211
 9238SOL    HW128613   2.482   3.135   6.126
 9238SOL    HW228614   2.403   3.010   6.195
 9239SOL     OW28615   0.403   3.795   5.835
 9239SOL    HW128616   0.486   3.816   5.886
 9239SOL    HW228617   0.412   3.826   5.741
 9240SOL     OW28618   4.755   2.792   2.208
 9240SOL    HW128619   4.811   2.803   2.125
 9240SOL    HW228620   4.687   2.865   2.212
 9241SOL     OW28621   0.349   5.023   7.010
 9241SOL    HW128622   0.384   5.005   0.080
 9241SOL    HW228623   0.250   5.009   7.008
 9242SOL     OW28624   1.302   3.999   0.983
 9242SOL    HW128625   1.373   3.977   0.916
 9242SOL    HW228626   1.263   3.914   1.019
 9243SOL     OW28627   0.156   0.254   1.353
 9243SOL    HW128628   0.249   0.237   1.384
 9243SOL    HW228629   0.142   0.353   1.341
 9244SOL     OW28630   3.472   5.621   6.167
 9244SOL    HW128631   3.430   5.560   6.100
 9244SOL    HW228632   3.401   5.679   6.208
 9245SOL     OW28633   0.809   5.387   3.969
 9245SOL    HW128634   0.866   5.341   3.900
 9245SOL    HW228635   0.845   5.478   3.987
 9246SOL     OW28636   6.410   6.951   2.942
 9246SOL    HW128637   6.423   6.979   3.037
 9246SOL    HW228638   6.314   6.926   2.928
 9247SOL     OW28639   2.504   5.857   3.285
 9247SOL    HW128640   2.433   5.844   3.216
 9247SOL    HW228641   2.462   5.879   3.373
 9248SOL     OW28642   3.214   1.775   4.388
 9248SOL    HW128643   3.248   1.694   4.436
 9248SOL    HW228644   3.257   1.782   4.298
 9249SOL     OW28645   3.700   4.986   1.189
 9249SOL    HW128646   3.702   5.015   1.285
 9249SOL    HW228647   3.685   4.888   1.184
 9250SOL     OW28648   5.381   2.943   4.693
 9250SOL    HW128649   5.328   3.007   4.747
 9250SOL    HW228650   5.372   2.851   4.731
 9251SOL     OW28651   4.162   1.835   3.153
 9251SOL    HW128652   4.142   1.868   3.060
 9251SOL    HW228653   4.250   1.786   3.152
 9252SOL     OW28654   5.640   0.816   4.889
 9252SOL    HW128655   5.570   0.885   4.871
 9252SOL    HW228656   5.624   0.736   4.830
 9253SOL     OW28657   5.489   5.611   5.630
 9253SOL    HW128658   5.398   5.644   5.657
 9253SOL    HW228659   5.485   5.511   5.618
 9254SOL     OW28660   5.338   4.944   3.056
 9254SOL    HW128661   5.282   5.018   3.019
 9254SOL    HW228662   5.400   4.910   2.985
 9255SOL     OW28663   4.696   3.747   0.045
 9255SOL    HW128664   4.709   3.845   0.030
 9255SOL    HW228665   4.778   3.709   0.088
 9256SOL     OW28666   3.326   0.101   2.611
 9256SOL    HW128667   3.346   0.199   2.614
 9256SOL    HW228668   3.280   0.078   2.525
 9257SOL     OW28669   0.035   4.616   3.260
 9257SOL    HW128670   7.006   4.668   3.329
 9257SOL    HW228671   0.035   4.519   3.284
 9258SOL     OW28672   3.685   3.837   2.589
 9258SOL    HW128673   3.608   3.774   2.583
 9258SOL    HW228674   3.768   3.786   2.613
 9259SOL     OW28675   0.710   2.060   0.905
 9259SOL    HW128676   0.755   2.004   0.975
 9259SOL    HW228677   0.618   2.085   0.936
 9260SOL     OW28678   6.269   1.822   5.507
 9260SOL    HW128679   6.215   1.863   5.581
 9260SOL    HW228680   6.270   1.885   5.429
 9261SOL     OW28681   3.276   1.645   0.491
 9261SOL    HW128682   3.305   1.566   0.545
 9261SOL    HW228683   3.341   1.720   0.503
 9262SOL     OW28684   6.874   5.344   5.001
 9262SOL    HW128685   6.866   5.335   5.100
 9262SOL    HW228686   6.861   5.254   4.958
 9263SOL     OW28687   4.450   0.716   1.855
 9263SOL    HW128688   4.358   0.706   1.891
 9263SOL    HW228689   4.500   0.631   1.869
 9264SOL     OW28690   4.914   4.515   0.447
 9264SOL    HW128691   4.830   4.473   0.413
 9264SOL    HW228692   4.949   4.580   0.379
 9265SOL     OW28693   3.724   2.542   6.839
 9265SOL    HW128694   3.737   2.562   6.742
 9265SOL    HW228695   3.708   2.444   6.850
 9266SOL     OW28696   1.055   6.055   0.682
 9266SOL    HW128697   1.043   6.019   0.590
 9266SOL    HW228698   1.002   6.000   0.747
 9267SOL     OW28699   0.363   2.041   4.745
 9267SOL    HW128700   0.296   2.006   4.680
 9267SOL    HW228701   0.371   1.977   4.822
 9268SOL     OW28702   1.189   6.024   2.624
 9268SOL    HW128703   1.194   6.034   2.525
 9268SOL    HW228704   1.240   5.943   2.652
 9269SOL     OW28705   4.100   1.163   6.284
 9269SOL    HW128706   4.089   1.071   6.245
 9269SOL    HW228707   4.103   1.156   6.384
 9270SOL     OW28708   4.560   6.470   6.201
 9270SOL    HW128709   4.567   6.398   6.132
 9270SOL    HW228710   4.633   6.459   6.269
 9271SOL     OW28711   6.097   0.347   0.737
 9271SOL    HW128712   6.108   0.368   0.834
 9271SOL    HW228713   6.004   0.312   0.721
 9272SOL     OW28714   0.738   5.792   5.028
 9272SOL    HW128715   0.734   5.749   4.938
 9272SOL    HW228716   0.675   5.745   5.090
 9273SOL     OW28717   5.879   6.210   2.833
 9273SOL    HW128718   5.934   6.293   2.820
 9273SOL    HW228719   5.871   6.162   2.746
 9274SOL     OW28720   6.529   1.457   0.572
 9274SOL    HW128721   6.616   1.416   0.543
 9274SOL    HW228722   6.545   1.523   0.645
 9275SOL     OW28723   6.193   1.320   0.004
 9275SOL    HW128724   6.112   1.286   6.979
 9275SOL    HW228725   6.166   1.391   0.070
 9276SOL     OW28726   1.479   3.842   1.569
 9276SOL    HW128727   1.488   3.942   1.560
 9276SOL    HW228728   1.559   3.798   1.528
 9277SOL     OW28729   3.999   4.481   0.616
 9277SOL    HW128730   4.068   4.452   0.683
 9277SOL    HW228731   3.987   4.408   0.548
 9278SOL     OW28732   2.019   0.343   5.890
 9278SOL    HW128733   2.057   0.264   5.939
 9278SOL    HW228734   2.050   0.342   5.795
 9279SOL     OW28735   3.148   0.379   1.945
 9279SOL    HW128736   3.226   0.371   2.006
 9279SOL    HW228737   3.177   0.365   1.851
 9280SOL     OW28738   2.450   1.680   2.729
 9280SOL    HW128739   2.426   1.586   2.753
 9280SOL    HW228740   2.406   1.705   2.643
 9281SOL     OW28741   2.582   3.763   6.928
 9281SOL    HW128742   2.520   3.697   6.971
 9281SOL    HW228743   2.668   3.767   6.980
 9282SOL     OW28744   5.675   0.237   3.467
 9282SOL    HW128745   5.687   0.168   3.538
 9282SOL    HW228746   5.750   0.230   3.401
 9283SOL     OW28747   4.944   0.541   3.992
 9283SOL    HW128748   4.915   0.572   3.901
 9283SOL    HW228749   4.888   0.586   4.062
 9284SOL     OW28750   2.942   3.154   5.504
 9284SOL    HW128751   2.937   3.249   5.535
 9284SOL    HW228752   2.885   3.142   5.423
 9285SOL     OW28753   5.126   2.775   0.774
 9285SOL    HW128754   5.201   2.777   0.840
 9285SOL    HW228755   5.066   2.854   0.788
 9286SOL     OW28756   5.614   6.123   0.531
 9286SOL    HW128757   5.543   6.055   0.546
 9286SOL    HW228758   5.659   6.144   0.618
 9287SOL     OW28759   3.400   5.164   6.586
 9287SOL    HW128760   3.487   5.119   6.605
 9287SOL    HW228761   3.343   5.160   6.668
 9288SOL     OW28762   4.408   1.342   2.782
 9288SOL    HW128763   4.319   1.365   2.744
 9288SOL    HW228764   4.429   1.246   2.762
 9289SOL     OW28765   4.121   0.674   1.492
 9289SOL    HW128766   4.148   0.634   1.579
 9289SOL    HW228767   4.180   0.752   1.471
 9290SOL     OW28768   5.507   0.297   3.205
 9290SOL    HW128769   5.414   0.331   3.194
 9290SOL    HW228770   5.571   0.361   3.162
 9291SOL     OW28771   1.309   5.114   5.952
 9291SOL    HW128772   1.251   5.033   5.948
 9291SOL    HW228773   1.394   5.092   6.001
 9292SOL     OW28774   1.805   2.615   6.097
 9292SOL    HW128775   1.831   2.679   6.169
 9292SOL    HW228776   1.821   2.656   6.007
 9293SOL     OW28777   6.132   3.013   6.541
 9293SOL    HW128778   6.231   2.996   6.547
 9293SOL    HW228779   6.101   3.000   6.447
 9294SOL     OW28780   4.805   0.047   5.895
 9294SOL    HW128781   4.867   6.992   5.908
 9294SOL    HW228782   4.853   0.122   5.850
 9295SOL     OW28783   5.944   0.920   4.938
 9295SOL    HW128784   5.895   0.859   5.001
 9295SOL    HW228785   5.960   0.872   4.852
 9296SOL     OW28786   1.065   5.523   6.464
 9296SOL    HW128787   1.058   5.461   6.542
 9296SOL    HW228788   1.038   5.615   6.493
 9297SOL     OW28789   1.097   6.704   3.364
 9297SOL    HW128790   1.102   6.759   3.281
 9297SOL    HW228791   1.026   6.635   3.354
 9298SOL     OW28792   0.992   6.320   6.810
 9298SOL    HW128793   1.050   6.244   6.779
 9298SOL    HW228794   0.989   6.390   6.739
 9299SOL     OW28795   0.362   2.185   4.383
 9299SOL    HW128796   0.312   2.098   4.383
 9299SOL    HW228797   0.457   2.168   4.410
 9300SOL     OW28798   0.753   4.429   5.918
 9300SOL    HW128799   0.778   4.368   5.994
 9300SOL    HW228800   0.836   4.455   5.868
 9301SOL     OW28801   5.558   5.344   4.880
 9301SOL    HW128802   5.530   5.335   4.976
 9301SOL    HW228803   5.488   5.393   4.829
 9302SOL     OW28804   2.026   2.654   4.152
 9302SOL    HW128805   2.037   2.597   4.234
 9302SOL    HW228806   2.037   2.596   4.070
 9303SOL     OW28807   2.919   3.913   0.635
 9303SOL    HW128808   2.875   3.930   0.723
 9303SOL    HW228809   2.943   3.816   0.628
 9304SOL     OW28810   4.010   4.623   1.632
 9304SOL    HW128811   4.023   4.524   1.642
 9304SOL    HW228812   4.059   4.655   1.551
 9305SOL     OW28813   3.572   1.532   0.946
 9305SOL    HW128814   3.570   1.603   1.017
 9305SOL    HW228815   3.612   1.449   0.983
 9306SOL     OW28816   0.975   3.918   5.233
 9306SOL    HW128817   1.045   3.891   5.298
 9306SOL    HW228818   1.018   3.948   5.148
 9307SOL     OW28819   0.627   3.787   0.983
 9307SOL    HW128820   0.624   3.872   1.036
 9307SOL    HW228821   0.690   3.723   1.027
 9308SOL     OW28822   1.357   3.797   0.485
 9308SOL    HW128823   1.281   3.854   0.515
 9308SOL    HW228824   1.336   3.756   0.396
 9309SOL     OW28825   3.491   5.309   6.177
 9309SOL    HW128826   3.583   5.349   6.174
 9309SOL    HW228827   3.434   5.353   6.108
 9310SOL     OW28828   5.577   5.839   5.497
 9310SOL    HW128829   5.523   5.759   5.524
 9310SOL    HW228830   5.637   5.814   5.421
 9311SOL     OW28831   4.424   5.089   1.480
 9311SOL    HW128832   4.400   5.035   1.400
 9311SOL    HW228833   4.377   5.052   1.561
 9312SOL     OW28834   1.176   3.523   1.483
 9312SOL    HW128835   1.227   3.495   1.401
 9312SOL    HW228836   1.174   3.623   1.488
 9313SOL     OW28837   0.046   0.616   2.008
 9313SOL    HW128838   6.974   0.603   1.976
 9313SOL    HW228839   0.094   0.528   2.010
 9314SOL     OW28840   6.696   3.975   6.932
 9314SOL    HW128841   6.651   4.028   6.860
 9314SOL    HW228842   6.710   3.881   6.901
 9315SOL     OW28843   6.998   0.063   5.727
 9315SOL    HW128844   6.995   6.997   5.776
 9315SOL    HW228845   6.957   0.134   5.783
 9316SOL     OW28846   5.597   6.444   5.976
 9316SOL    HW128847   5.516   6.399   5.939
 9316SOL    HW228848   5.646   6.490   5.901
 9317SOL     OW28849   4.794   5.941   4.043
 9317SOL    HW128850   4.870   5.970   3.986
 9317SOL    HW228851   4.710   5.938   3.989
 9318SOL     OW28852   6.225   1.162   6.350
 9318SOL    HW128853   6.215   1.079   6.405
 9318SOL    HW228854   6.179   1.150   6.262
 9319SOL     OW28855   2.146   3.026   0.507
 9319SOL    HW128856   2.175   2.992   0.597
 9319SOL    HW228857   2.067   3.086   0.519
 9320SOL     OW28858   3.904   0.663   5.056
 9320SOL    HW128859   3.932   0.675   5.151
 9320SOL    HW228860   3.985   0.661   4.997
 9321SOL     OW28861   0.996   0.155   5.111
 9321SOL    HW128862   1.081   0.114   5.142
 9321SOL    HW228863   0.934   0.168   5.188
 9322SOL     OW28864   6.966   3.831   6.003
 9322SOL    HW128865   0.027   3.775   5.999
 9322SOL    HW228866   6.935   3.838   6.098
 9323SOL     OW28867   1.265   1.188   5.189
 9323SOL    HW128868   1.343   1.217   5.245
 9323SOL    HW228869   1.219   1.111   5.233
 9324SOL     OW28870   1.215   4.743   2.082
 9324SOL    HW128871   1.244   4.717   2.174
 9324SOL    HW228872   1.288   4.723   2.017
 9325SOL     OW28873   5.894   0.459   6.868
 9325SOL    HW128874   5.940   0.457   6.779
 9325SOL    HW228875   5.843   0.544   6.877
 9326SOL     OW28876   2.786   4.763   0.042
 9326SOL    HW128877   2.782   4.748   6.965
 9326SOL    HW228878   2.704   4.726   0.085
 9327SOL     OW28879   4.690   0.328   2.568
 9327SOL    HW128880   4.657   0.250   2.514
 9327SOL    HW228881   4.723   0.400   2.506
 9328SOL     OW28882   2.275   0.774   4.311
 9328SOL    HW128883   2.226   0.776   4.398
 9328SOL    HW228884   2.213   0.743   4.239
 9329SOL     OW28885   5.771   3.743   1.155
 9329SOL    HW128886   5.715   3.784   1.083
 9329SOL    HW228887   5.867   3.769   1.142
 9330SOL     OW28888   6.955   0.268   5.295
 9330SOL    HW128889   6.997   0.178   5.282
 9330SOL    HW228890   6.906   0.269   5.382
 9331SOL     OW28891   2.691   0.846   6.577
 9331SOL    HW128892   2.644   0.812   6.658
 9331SOL    HW228893   2.629   0.842   6.498
 9332SOL     OW28894   3.387   4.604   0.465
 9332SOL    HW128895   3.323   4.533   0.495
 9332SOL    HW228896   3.480   4.580   0.492
 9333SOL     OW28897   3.935   5.060   6.616
 9333SOL    HW128898   3.870   5.132   6.593
 9333SOL    HW228899   4.022   5.100   6.644
 9334SOL     OW28900   5.200   6.674   4.665
 9334SOL    HW128901   5.208   6.769   4.696
 9334SOL    HW228902   5.203   6.672   4.565
 9335SOL     OW28903   1.458   1.438   6.756
 9335SOL    HW128904   1.428   1.522   6.711
 9335SOL    HW228905   1.394   1.364   6.736
 9336SOL     OW28906   3.969   0.211   4.684
 9336SOL    HW128907   3.915   0.198   4.601
 9336SOL    HW228908   4.067   0.207   4.662
 9337SOL     OW28909   4.531   0.603   5.061
 9337SOL    HW128910   4.586   0.569   5.138
 9337SOL    HW228911   4.447   0.550   5.053
 9338SOL     OW28912   6.046   0.283   1.061
 9338SOL    HW128913   5.973   0.338   1.019
 9338SOL    HW228914   6.135   0.315   1.029
 9339SOL     OW28915   6.103   6.946   6.986
 9339SOL    HW128916   6.106   6.994   6.898
 9339SOL    HW228917   6.054   7.002   0.031
 9340SOL     OW28918   4.114   4.888   3.630
 9340SOL    HW128919   4.050   4.866   3.556
 9340SOL    HW228920   4.069   4.876   3.718
 9341SOL     OW28921   5.748   5.085   1.496
 9341SOL    HW128922   5.798   5.143   1.561
 9341SOL    HW228923   5.659   5.061   1.534
 9342SOL     OW28924   3.019   0.028   4.121
 9342SOL    HW128925   3.096   6.998   4.158
 9342SOL    HW228926   3.041   0.126   4.123
 9343SOL     OW28927   4.743   4.232   2.148
 9343SOL    HW128928   4.736   4.296   2.224
 9343SOL    HW228929   4.661   4.238   2.092
 9344SOL     OW28930   5.577   6.499   1.544
 9344SOL    HW128931   5.600   6.561   1.468
 9344SOL    HW228932   5.651   6.433   1.557
 9345SOL     OW28933   6.546   5.434   1.163
 9345SOL    HW128934   6.560   5.493   1.083
 9345SOL    HW228935   6.513   5.345   1.133
 9346SOL     OW28936   4.917   0.980   2.065
 9346SOL    HW128937   4.842   0.927   2.025
 9346SOL    HW228938   4.949   1.049   2.000
 9347SOL     OW28939   3.386   4.126   0.503
 9347SOL    HW128940   3.436   4.179   0.435
 9347SOL    HW228941   3.379   4.031   0.473
 9348SOL     OW28942   2.719   5.730   2.228
 9348SOL    HW128943   2.805   5.733   2.177
 9348SOL    HW228944   2.643   5.747   2.165
 9349SOL     OW28945   5.618   5.265   2.183
 9349SOL    HW128946   5.624   5.290   2.280
 9349SOL    HW228947   5.522   5.254   2.158
 9350SOL     OW28948   6.563   2.148   5.216
 9350SOL    HW128949   6.565   2.245   5.241
 9350SOL    HW228950   6.656   2.110   5.222
 9351SOL     OW28951   3.387   6.878   5.992
 9351SOL    HW128952   3.298   6.843   6.019
 9351SOL    HW228953   3.451   6.871   6.069
 9352SOL     OW28954   3.267   1.621   6.308
 9352SOL    HW128955   3.233   1.665   6.391
 9352SOL    HW228956   3.259   1.522   6.317
 9353SOL     OW28957   0.709   4.622   0.690
 9353SOL    HW128958   0.697   4.564   0.609
 9353SOL    HW228959   0.736   4.714   0.662
 9354SOL     OW28960   0.306   2.111   6.098
 9354SOL    HW128961   0.298   2.012   6.085
 9354SOL    HW228962   0.215   2.153   6.092
 9355SOL     OW28963   0.655   1.463   4.288
 9355SOL    HW128964   0.568   1.496   4.324
 9355SOL    HW228965   0.713   1.432   4.363
 9356SOL     OW28966   4.385   5.910   2.142
 9356SOL    HW128967   4.396   5.931   2.045
 9356SOL    HW228968   4.321   5.974   2.183
 9357SOL     OW28969   2.111   3.517   6.603
 9357SOL    HW128970   2.159   3.565   6.529
 9357SOL    HW228971   2.097   3.580   6.679
 9358SOL     OW28972   6.762   3.433   2.771
 9358SOL    HW128973   6.708   3.467   2.695
 9358SOL    HW228974   6.787   3.509   2.831
 9359SOL     OW28975   0.903   3.654   5.349
 9359SOL    HW128976   0.983   3.659   5.409
 9359SOL    HW228977   0.872   3.746   5.326
 9360SOL     OW28978   1.292   5.326   6.859
 9360SOL    HW128979   1.240   5.366   6.784
 9360SOL    HW228980   1.328   5.398   6.917
 9361SOL     OW28981   1.283   5.723   2.259
 9361SOL    HW128982   1.287   5.782   2.340
 9361SOL    HW228983   1.191   5.725   2.220
 9362SOL     OW28984   2.093   3.583   3.179
 9362SOL    HW128985   2.008   3.586   3.125
 9362SOL    HW228986   2.152   3.659   3.153
 9363SOL     OW28987   3.716   6.791   2.148
 9363SOL    HW128988   3.699   6.831   2.238
 9363SOL    HW228989   3.632   6.748   2.115
 9364SOL     OW28990   4.397   3.008   6.202
 9364SOL    HW128991   4.299   3.006   6.182
 9364SOL    HW228992   4.410   3.018   6.301
 9365SOL     OW28993   2.661   2.039   4.688
 9365SOL    HW128994   2.651   1.968   4.757
 9365SOL    HW228995   2.596   2.023   4.614
 9366SOL     OW28996   3.370   6.504   6.223
 9366SOL    HW128997   3.468   6.513   6.206
 9366SOL    HW228998   3.351   6.414   6.262
 9367SOL     OW28999   0.124   6.833   2.865
 9367SOL    HW129000   0.172   6.914   2.898
 9367SOL    HW229001   0.037   6.824   2.912
 9368SOL     OW29002   2.990   1.275   2.657
 9368SOL    HW129003   2.985   1.365   2.700
 9368SOL    HW229004   2.940   1.277   2.570
 9369SOL     OW29005   6.589   6.210   4.978
 9369SOL    HW129006   6.607   6.202   4.880
 9369SOL    HW229007   6.496   6.242   4.993
 9370SOL     OW29008   5.001   0.581   3.233
 9370SOL    HW129009   4.953   0.534   3.159
 9370SOL    HW229010   4.974   0.543   3.321
 9371SOL     OW29011   2.791   5.171   0.280
 9371SOL    HW129012   2.880   5.215   0.287
 9371SOL    HW229013   2.761   5.140   0.371
 9372SOL     OW29014   5.843   6.452   2.638
 9372SOL    HW129015   5.797   6.447   2.726
 9372SOL    HW229016   5.818   6.372   2.583
 9373SOL     OW29017   5.050   2.012   2.864
 9373SOL    HW129018   4.996   1.928   2.873
 9373SOL    HW229019   5.139   1.999   2.907
 9374SOL     OW29020   0.726   3.599   0.277
 9374SOL    HW129021   0.687   3.603   0.369
 9374SOL    HW229022   0.654   3.573   0.212
 9375SOL     OW29023   0.501   1.092   2.054
 9375SOL    HW129024   0.401   1.089   2.051
 9375SOL    HW229025   0.535   1.014   2.106
 9376SOL     OW29026   2.749   4.131   1.348
 9376SOL    HW129027   2.743   4.177   1.437
 9376SOL    HW229028   2.664   4.083   1.329
 9377SOL     OW29029   1.820   5.392   4.463
 9377SOL    HW129030   1.908   5.439   4.470
 9377SOL    HW229031   1.779   5.386   4.554
 9378SOL     OW29032   1.821   1.353   4.138
 9378SOL    HW129033   1.904   1.312   4.174
 9378SOL    HW229034   1.798   1.435   4.191
 9379SOL     OW29035   4.773   6.409   5.890
 9379SOL    HW129036   4.770   6.385   5.793
 9379SOL    HW229037   4.809   6.501   5.900
 9380SOL     OW29038   5.050   5.705   4.659
 9380SOL    HW129039   4.972   5.648   4.684
 9380SOL    HW229040   5.027   5.801   4.675
 9381SOL     OW29041   3.604   2.360   6.106
 9381SOL    HW129042   3.550   2.276   6.108
 9381SOL    HW229043   3.605   2.401   6.197
 9382SOL     OW29044   3.650   0.667   3.620
 9382SOL    HW129045   3.640   0.652   3.718
 9382SOL    HW229046   3.708   0.747   3.604
 9383SOL     OW29047   0.398   5.394   4.386
 9383SOL    HW129048   0.401   5.310   4.441
 9383SOL    HW229049   0.320   5.449   4.413
 9384SOL     OW29050   4.011   0.332   2.291
 9384SOL    HW129051   4.090   0.382   2.257
 9384SOL    HW229052   3.984   0.368   2.380
 9385SOL     OW29053   4.434   0.991   3.401
 9385SOL    HW129054   4.411   1.057   3.330
 9385SOL    HW229055   4.352   0.939   3.426
 9386SOL     OW29056   1.677   6.007   5.124
 9386SOL    HW129057   1.688   5.960   5.211
 9386SOL    HW229058   1.649   5.941   5.054
 9387SOL     OW29059   3.129   1.742   6.557
 9387SOL    HW129060   3.064   1.793   6.502
 9387SOL    HW229061   3.176   1.804   6.620
 9388SOL     OW29062   3.377   6.332   2.888
 9388SOL    HW129063   3.393   6.276   2.969
 9388SOL    HW229064   3.407   6.426   2.906
 9389SOL     OW29065   2.031   0.088   3.363
 9389SOL    HW129066   2.130   0.095   3.368
 9389SOL    HW229067   1.990   0.125   3.446
 9390SOL     OW29068   4.795   4.656   6.022
 9390SOL    HW129069   4.763   4.750   6.004
 9390SOL    HW229070   4.773   4.631   6.116
 9391SOL     OW29071   2.486   1.722   5.244
 9391SOL    HW129072   2.548   1.668   5.301
 9391SOL    HW229073   2.472   1.812   5.286
 9392SOL     OW29074   5.901   5.976   5.006
 9392SOL    HW129075   5.850   5.891   4.992
 9392SOL    HW229076   5.922   5.987   5.103
 9393SOL     OW29077   3.213   6.338   6.884
 9393SOL    HW129078   3.261   6.357   6.969
 9393SOL    HW229079   3.148   6.412   6.864
 9394SOL     OW29080   6.660   0.692   1.453
 9394SOL    HW129081   6.726   0.690   1.528
 9394SOL    HW229082   6.654   0.785   1.417
 9395SOL     OW29083   3.156   1.563   1.503
 9395SOL    HW129084   3.223   1.586   1.433
 9395SOL    HW229085   3.141   1.464   1.505
 9396SOL     OW29086   2.249   4.032   4.021
 9396SOL    HW129087   2.193   3.954   4.051
 9396SOL    HW229088   2.257   4.097   4.097
 9397SOL     OW29089   4.606   0.386   6.426
 9397SOL    HW129090   4.553   0.355   6.504
 9397SOL    HW229091   4.636   0.480   6.440
 9398SOL     OW29092   0.063   1.507   4.905
 9398SOL    HW129093   6.988   1.518   4.882
 9398SOL    HW229094   0.117   1.505   4.822
 9399SOL     OW29095   0.875   2.764   5.695
 9399SOL    HW129096   0.933   2.702   5.748
 9399SOL    HW229097   0.824   2.823   5.757
 9400SOL     OW29098   4.730   0.645   1.555
 9400SOL    HW129099   4.790   0.668   1.632
 9400SOL    HW229100   4.785   0.637   1.472
 9401SOL     OW29101   6.591   0.646   3.594
 9401SOL    HW129102   6.602   0.649   3.495
 9401SOL    HW229103   6.578   0.739   3.629
 9402SOL     OW29104   1.306   5.338   2.923
 9402SOL    HW129105   1.378   5.408   2.915
 9402SOL    HW229106   1.254   5.335   2.838
 9403SOL     OW29107   6.708   1.077   2.783
 9403SOL    HW129108   6.675   1.083   2.877
 9403SOL    HW229109   6.636   1.107   2.720
 9404SOL     OW29110   0.849   3.158   0.502
 9404SOL    HW129111   0.942   3.162   0.467
 9404SOL    HW229112   0.836   3.074   0.555
 9405SOL     OW29113   2.534   4.585   3.790
 9405SOL    HW129114   2.500   4.666   3.837
 9405SOL    HW229115   2.631   4.598   3.767
 9406SOL     OW29116   6.747   2.498   6.019
 9406SOL    HW129117   6.832   2.446   6.023
 9406SOL    HW229118   6.764   2.592   6.048
 9407SOL     OW29119   3.188   5.009   3.527
 9407SOL    HW129120   3.184   5.109   3.533
 9407SOL    HW229121   3.220   4.972   3.614
 9408SOL     OW29122   6.583   3.297   5.827
 9408SOL    HW129123   6.592   3.314   5.925
 9408SOL    HW229124   6.601   3.201   5.807
 9409SOL     OW29125   5.997   5.726   0.388
 9409SOL    HW129126   5.933   5.774   0.328
 9409SOL    HW229127   6.084   5.711   0.339
 9410SOL     OW29128   2.573   0.432   1.832
 9410SOL    HW129129   2.492   0.408   1.885
 9410SOL    HW229130   2.556   0.418   1.735
 9411SOL     OW29131   3.582   3.242   2.463
 9411SOL    HW129132   3.531   3.315   2.416
 9411SOL    HW229133   3.613   3.175   2.396
 9412SOL     OW29134   0.739   0.946   2.818
 9412SOL    HW129135   0.780   0.946   2.909
 9412SOL    HW229136   0.742   0.853   2.781
 9413SOL     OW29137   3.986   5.951   3.795
 9413SOL    HW129138   4.028   5.886   3.731
 9413SOL    HW229139   3.896   5.917   3.822
 9414SOL     OW29140   3.195   1.319   2.883
 9414SOL    HW129141   3.096   1.324   2.896
 9414SOL    HW229142   3.221   1.371   2.802
 9415SOL     OW29143   2.658   0.010   2.382
 9415SOL    HW129144   2.595   0.015   2.304
 9415SOL    HW229145   2.703   6.943   2.382
 9416SOL     OW29146   6.966   2.107   0.313
 9416SOL    HW129147   0.020   2.147   0.364
 9416SOL    HW229148   6.883   2.161   0.329
 9417SOL     OW29149   4.390   0.532   0.930
 9417SOL    HW129150   4.450   0.460   0.963
 9417SOL    HW229151   4.378   0.601   1.001
 9418SOL     OW29152   3.085   0.571   1.222
 9418SOL    HW129153   3.168   0.622   1.200
 9418SOL    HW229154   3.092   0.535   1.315
 9419SOL     OW29155   2.851   4.510   5.560
 9419SOL    HW129156   2.767   4.458   5.546
 9419SOL    HW229157   2.846   4.558   5.648
 9420SOL     OW29158   5.595   4.208   5.872
 9420SOL    HW129159   5.525   4.244   5.933
 9420SOL    HW229160   5.676   4.266   5.877
 9421SOL     OW29161   2.484   6.232   4.309
 9421SOL    HW129162   2.393   6.228   4.350
 9421SOL    HW229163   2.480   6.200   4.215
 9422SOL     OW29164   2.917   5.430   2.652
 9422SOL    HW129165   2.980   5.367   2.607
 9422SOL    HW229166   2.911   5.408   2.749
 9423SOL     OW29167   2.744   6.597   3.759
 9423SOL    HW129168   2.732   6.691   3.791
 9423SOL    HW229169   2.831   6.562   3.793
 9424SOL     OW29170   5.136   2.382   5.076
 9424SOL    HW129171   5.037   2.376   5.067
 9424SOL    HW229172   5.160   2.470   5.119
 9425SOL     OW29173   5.533   3.844   0.990
 9425SOL    HW129174   5.476   3.761   0.991
 9425SOL    HW229175   5.537   3.880   0.896
 9426SOL     OW29176   3.565   1.503   6.179
 9426SOL    HW129177   3.653   1.511   6.132
 9426SOL    HW229178   3.549   1.585   6.234
 9427SOL     OW29179   2.359   5.341   3.367
 9427SOL    HW129180   2.308   5.374   3.446
 9427SOL    HW229181   2.456   5.335   3.390
 9428SOL     OW29182   6.694   1.247   1.348
 9428SOL    HW129183   6.665   1.326   1.295
 9428SOL    HW229184   6.788   1.262   1.381
 9429SOL     OW29185   2.176   3.869   2.905
 9429SOL    HW129186   2.246   3.911   2.848
 9429SOL    HW229187   2.086   3.904   2.878
 9430SOL     OW29188   0.403   3.600   4.463
 9430SOL    HW129189   0.370   3.693   4.474
 9430SOL    HW229190   0.346   3.551   4.397
 9431SOL     OW29191   6.572   4.100   0.673
 9431SOL    HW129192   6.540   4.168   0.739
 9431SOL    HW229193   6.494   4.058   0.627
 9432SOL     OW29194   5.408   6.991   3.616
 9432SOL    HW129195   5.497   7.016   3.655
 9432SOL    HW229196   5.348   0.049   3.614
 9433SOL     OW29197   3.132   6.007   3.029
 9433SOL    HW129198   3.229   5.996   3.004
 9433SOL    HW229199   3.109   5.941   3.101
 9434SOL     OW29200   5.246   5.394   2.520
 9434SOL    HW129201   5.331   5.406   2.469
 9434SOL    HW229202   5.215   5.300   2.513
 9435SOL     OW29203   0.908   2.739   3.941
 9435SOL    HW129204   0.986   2.769   3.886
 9435SOL    HW229205   0.921   2.644   3.969
 9436SOL     OW29206   1.831   2.949   1.300
 9436SOL    HW129207   1.835   2.981   1.395
 9436SOL    HW229208   1.890   2.869   1.290
 9437SOL     OW29209   1.098   5.852   2.884
 9437SOL    HW129210   1.032   5.924   2.904
 9437SOL    HW229211   1.076   5.811   2.795
 9438SOL     OW29212   0.580   6.932   1.539
 9438SOL    HW129213   0.640   6.852   1.528
 9438SOL    HW229214   0.520   6.918   1.617
 9439SOL     OW29215   0.431   3.061   0.625
 9439SOL    HW129216   0.483   2.977   0.610
 9439SOL    HW229217   0.342   3.039   0.664
 9440SOL     OW29218   3.911   4.828   3.278
 9440SOL    HW129219   3.850   4.792   3.207
 9440SOL    HW229220   4.006   4.816   3.249
 9441SOL     OW29221   5.955   4.554   5.782
 9441SOL    HW129222   5.955   4.523   5.877
 9441SOL    HW229223   6.049   4.566   5.751
 9442SOL     OW29224   4.307   3.410   1.095
 9442SOL    HW129225   4.222   3.364   1.123
 9442SOL    HW229226   4.364   3.425   1.176
 9443SOL     OW29227   2.643   5.020   0.846
 9443SOL    HW129228   2.741   5.002   0.860
 9443SOL    HW229229   2.630   5.116   0.823
 9444SOL     OW29230   1.313   3.667   0.921
 9444SOL    HW129231   1.412   3.658   0.933
 9444SOL    HW229232   1.267   3.661   1.009
 9445SOL     OW29233   6.161   2.877   2.847
 9445SOL    HW129234   6.179   2.887   2.945
 9445SOL    HW229235   6.234   2.921   2.795
 9446SOL     OW29236   6.247   5.517   4.285
 9446SOL    HW129237   6.237   5.581   4.361
 9446SOL    HW229238   6.159   5.472   4.268
 9447SOL     OW29239   5.987   4.821   3.469
 9447SOL    HW129240   6.029   4.733   3.449
 9447SOL    HW229241   5.935   4.852   3.390
 9448SOL     OW29242   0.117   0.189   6.369
 9448SOL    HW129243   0.193   0.188   6.304
 9448SOL    HW229244   0.035   0.151   6.325
 9449SOL     OW29245   5.742   0.231   6.858
 9449SOL    HW129246   5.813   0.301   6.866
 9449SOL    HW229247   5.711   0.204   6.950
 9450SOL     OW29248   2.006   5.736   4.330
 9450SOL    HW129249   1.932   5.690   4.282
 9450SOL    HW229250   1.988   5.737   4.428
 9451SOL     OW29251   4.462   0.290   5.565
 9451SOL    HW129252   4.364   0.287   5.543
 9451SOL    HW229253   4.502   0.374   5.530
 9452SOL     OW29254   1.792   3.953   0.092
 9452SOL    HW129255   1.796   4.008   0.009
 9452SOL    HW229256   1.748   4.005   0.165
 9453SOL     OW29257   2.589   4.599   2.840
 9453SOL    HW129258   2.496   4.601   2.876
 9453SOL    HW229259   2.653   4.582   2.915
 9454SOL     OW29260   3.431   3.913   6.545
 9454SOL    HW129261   3.397   3.941   6.455
 9454SOL    HW229262   3.511   3.854   6.533
 9455SOL     OW29263   2.545   1.797   4.113
 9455SOL    HW129264   2.522   1.872   4.051
 9455SOL    HW229265   2.561   1.714   4.059
 9456SOL     OW29266   6.891   3.727   0.830
 9456SOL    HW129267   6.869   3.646   0.886
 9456SOL    HW229268   6.806   3.767   0.796
 9457SOL     OW29269   1.554   3.973   4.051
 9457SOL    HW129270   1.516   3.899   4.106
 9457SOL    HW229271   1.480   4.015   3.997
 9458SOL     OW29272   0.938   3.327   6.631
 9458SOL    HW129273   0.917   3.386   6.709
 9458SOL    HW229274   1.037   3.313   6.626
 9459SOL     OW29275   5.364   4.503   3.668
 9459SOL    HW129276   5.393   4.464   3.756
 9459SOL    HW229277   5.420   4.583   3.647
 9460SOL     OW29278   1.609   3.552   3.827
 9460SOL    HW129279   1.684   3.616   3.846
 9460SOL    HW229280   1.558   3.584   3.748
 9461SOL     OW29281   0.249   1.759   1.752
 9461SOL    HW129282   0.153   1.735   1.738
 9461SOL    HW229283   0.256   1.837   1.814
 9462SOL     OW29284   2.096   3.360   3.609
 9462SOL    HW129285   1.997   3.355   3.597
 9462SOL    HW229286   2.135   3.421   3.539
 9463SOL     OW29287   6.257   0.409   1.471
 9463SOL    HW129288   6.254   0.428   1.569
 9463SOL    HW229289   6.300   0.485   1.423
 9464SOL     OW29290   6.208   0.507   0.948
 9464SOL    HW129291   6.186   0.583   0.887
 9464SOL    HW229292   6.288   0.530   1.002
 9465SOL     OW29293   0.456   4.244   1.877
 9465SOL    HW129294   0.533   4.278   1.824
 9465SOL    HW229295   0.479   4.156   1.918
 9466SOL     OW29296   3.690   4.531   5.288
 9466SOL    HW129297   3.705   4.629   5.281
 9466SOL    HW229298   3.687   4.504   5.384
 9467SOL     OW29299   1.628   2.443   1.647
 9467SOL    HW129300   1.575   2.408   1.570
 9467SOL    HW229301   1.631   2.543   1.642
 9468SOL     OW29302   5.864   3.531   6.638
 9468SOL    HW129303   5.948   3.490   6.604
 9468SOL    HW229304   5.834   3.603   6.574
 9469SOL     OW29305   6.223   5.225   2.195
 9469SOL    HW129306   6.225   5.219   2.095
 9469SOL    HW229307   6.184   5.313   2.222
 9470SOL     OW29308   4.948   3.428   6.350
 9470SOL    HW129309   4.857   3.442   6.311
 9470SOL    HW229310   5.017   3.440   6.278
 9471SOL     OW29311   6.643   2.402   3.922
 9471SOL    HW129312   6.694   2.457   3.856
 9471SOL    HW229313   6.671   2.427   4.015
 9472SOL     OW29314   6.369   3.075   5.028
 9472SOL    HW129315   6.299   3.014   4.992
 9472SOL    HW229316   6.326   3.157   5.066
 9473SOL     OW29317   3.032   5.053   6.930
 9473SOL    HW129318   2.992   5.067   6.839
 9473SOL    HW229319   3.068   4.960   6.936
 9474SOL     OW29320   6.809   3.440   6.940
 9474SOL    HW129321   6.900   3.466   6.910
 9474SOL    HW229322   6.806   3.439   0.019
 9475SOL     OW29323   3.640   3.278   6.649
 9475SOL    HW129324   3.564   3.330   6.608
 9475SOL    HW229325   3.726   3.327   6.633
 9476SOL     OW29326   4.080   3.593   4.393
 9476SOL    HW129327   4.036   3.520   4.445
 9476SOL    HW229328   4.068   3.576   4.295
 9477SOL     OW29329   0.838   2.693   0.682
 9477SOL    HW129330   0.930   2.662   0.657
 9477SOL    HW229331   0.775   2.615   0.679
 9478SOL     OW29332   5.240   3.305   0.875
 9478SOL    HW129333   5.329   3.317   0.832
 9478SOL    HW229334   5.251   3.293   0.973
 9479SOL     OW29335   4.257   6.217   6.866
 9479SOL    HW129336   4.352   6.228   6.898
 9479SOL    HW229337   4.238   6.120   6.851
 9480SOL     OW29338   5.615   4.672   0.946
 9480SOL    HW129339   5.573   4.720   1.023
 9480SOL    HW229340   5.594   4.720   0.861
 9481SOL     OW29341   4.879   3.050   2.598
 9481SOL    HW129342   4.846   3.005   2.514
 9481SOL    HW229343   4.868   3.149   2.589
 9482SOL     OW29344   0.615   1.301   2.862
 9482SOL    HW129345   0.523   1.333   2.888
 9482SOL    HW229346   0.671   1.290   2.944
 9483SOL     OW29347   1.981   0.886   1.130
 9483SOL    HW129348   1.945   0.815   1.070
 9483SOL    HW229349   1.955   0.976   1.096
 9484SOL     OW29350   4.670   0.283   4.078
 9484SOL    HW129351   4.730   0.302   4.155
 9484SOL    HW229352   4.667   0.184   4.061
 9485SOL     OW29353   0.481   1.031   0.623
 9485SOL    HW129354   0.572   1.044   0.664
 9485SOL    HW229355   0.486   1.051   0.525
 9486SOL     OW29356   3.983   6.502   0.981
 9486SOL    HW129357   4.006   6.409   0.952
 9486SOL    HW229358   4.005   6.513   1.078
 9487SOL     OW29359   3.415   3.816   4.081
 9487SOL    HW129360   3.471   3.899   4.082
 9487SOL    HW229361   3.319   3.840   4.096
 9488SOL     OW29362   2.999   0.089   1.348
 9488SOL    HW129363   2.990   7.018   1.382
 9488SOL    HW229364   3.070   0.092   1.278
 9489SOL     OW29365   4.343   4.409   1.066
 9489SOL    HW129366   4.431   4.398   1.019
 9489SOL    HW229367   4.341   4.348   1.145
 9490SOL     OW29368   5.905   5.044   2.534
 9490SOL    HW129369   6.002   5.068   2.545
 9490SOL    HW229370   5.888   5.018   2.439
 9491SOL     OW29371   5.515   4.733   3.713
 9491SOL    HW129372   5.483   4.762   3.803
 9491SOL    HW229373   5.614   4.719   3.716
 9492SOL     OW29374   3.406   2.906   4.658
 9492SOL    HW129375   3.343   2.944   4.591
 9492SOL    HW229376   3.401   2.806   4.656
 9493SOL     OW29377   2.884   5.681   4.446
 9493SOL    HW129378   2.815   5.661   4.376
 9493SOL    HW229379   2.963   5.621   4.433
 9494SOL     OW29380   4.968   2.518   2.576
 9494SOL    HW129381   4.922   2.596   2.535
 9494SOL    HW229382   4.905   2.470   2.638
 9495SOL     OW29383   6.402   1.471   3.318
 9495SOL    HW129384   6.422   1.555   3.369
 9495SOL    HW229385   6.308   1.474   3.286
 9496SOL     OW29386   5.867   3.495   1.290
 9496SOL    HW129387   5.805   3.564   1.252
 9496SOL    HW229388   5.942   3.479   1.225
 9497SOL     OW29389   5.702   6.808   6.216
 9497SOL    HW129390   5.646   6.747   6.273
 9497SOL    HW229391   5.787   6.762   6.192
 9498SOL     OW29392   4.901   6.599   4.692
 9498SOL    HW129393   4.997   6.618   4.668
 9498SOL    HW229394   4.843   6.671   4.654
 9499SOL     OW29395   2.283   4.454   6.543
 9499SOL    HW129396   2.216   4.393   6.587
 9499SOL    HW229397   2.269   4.453   6.444
 9500SOL     OW29398   5.102   6.985   1.077
 9500SOL    HW129399   5.081   6.935   0.993
 9500SOL    HW229400   5.016   7.007   1.125
 9501SOL     OW29401   2.610   1.241   5.021
 9501SOL    HW129402   2.673   1.232   5.098
 9501SOL    HW229403   2.629   1.326   4.972
 9502SOL     OW29404   5.763   2.790   5.029
 9502SOL    HW129405   5.809   2.712   5.071
 9502SOL    HW229406   5.681   2.812   5.082
 9503SOL     OW29407   0.951   1.828   1.508
 9503SOL    HW129408   0.978   1.771   1.585
 9503SOL    HW229409   0.951   1.924   1.536
 9504SOL     OW29410   0.277   2.718   0.373
 9504SOL    HW129411   0.261   2.621   0.389
 9504SOL    HW229412   0.370   2.732   0.340
 9505SOL     OW29413   5.125   4.624   4.355
 9505SOL    HW129414   5.121   4.539   4.302
 9505SOL    HW229415   5.207   4.622   4.412
 9506SOL     OW29416   1.075   2.315   6.516
 9506SOL    HW129417   0.983   2.354   6.516
 9506SOL    HW229418   1.139   2.382   6.478
 9507SOL     OW29419   0.614   1.643   3.217
 9507SOL    HW129420   0.525   1.658   3.260
 9507SOL    HW229421   0.655   1.731   3.193
 9508SOL     OW29422   6.204   2.115   1.437
 9508SOL    HW129423   6.150   2.075   1.511
 9508SOL    HW229424   6.297   2.133   1.468
 9509SOL     OW29425   0.883   0.935   4.010
 9509SOL    HW129426   0.945   0.998   3.963
 9509SOL    HW229427   0.791   0.945   3.974
 9510SOL     OW29428   2.134   3.779   3.516
 9510SOL    HW129429   2.091   3.860   3.555
 9510SOL    HW229430   2.147   3.793   3.417
 9511SOL     OW29431   1.477   0.299   1.007
 9511SOL    HW129432   1.413   0.321   0.933
 9511SOL    HW229433   1.564   0.346   0.991
 9512SOL     OW29434   6.191   1.453   1.548
 9512SOL    HW129435   6.147   1.457   1.458
 9512SOL    HW229436   6.172   1.364   1.590
 9513SOL     OW29437   2.278   3.741   6.275
 9513SOL    HW129438   2.193   3.694   6.297
 9513SOL    HW229439   2.257   3.834   6.243
 9514SOL     OW29440   1.832   5.231   5.692
 9514SOL    HW129441   1.825   5.327   5.666
 9514SOL    HW229442   1.829   5.223   5.791
 9515SOL     OW29443   1.864   5.715   0.689
 9515SOL    HW129444   1.940   5.726   0.752
 9515SOL    HW229445   1.874   5.778   0.612
 9516SOL     OW29446   5.998   4.877   6.563
 9516SOL    HW129447   5.997   4.777   6.560
 9516SOL    HW229448   5.907   4.912   6.541
 9517SOL     OW29449   1.878   5.048   1.278
 9517SOL    HW129450   1.861   5.087   1.187
 9517SOL    HW229451   1.960   4.991   1.274
 9518SOL     OW29452   1.935   1.562   0.443
 9518SOL    HW129453   1.929   1.470   0.483
 9518SOL    HW229454   2.027   1.598   0.455
 9519SOL     OW29455   3.829   3.595   4.803
 9519SOL    HW129456   3.797   3.682   4.765
 9519SOL    HW229457   3.926   3.585   4.785
 9520SOL     OW29458   1.707   1.872   3.236
 9520SOL    HW129459   1.690   1.781   3.199
 9520SOL    HW229460   1.760   1.864   3.321
 9521SOL     OW29461   4.750   5.642   1.627
 9521SOL    HW129462   4.843   5.610   1.647
 9521SOL    HW229463   4.696   5.643   1.712
 9522SOL     OW29464   2.611   5.694   1.149
 9522SOL    HW129465   2.697   5.739   1.176
 9522SOL    HW229466   2.537   5.728   1.208
 9523SOL     OW29467   2.617   4.672   4.873
 9523SOL    HW129468   2.567   4.754   4.846
 9523SOL    HW229469   2.713   4.695   4.891
 9524SOL     OW29470   3.470   3.018   1.887
 9524SOL    HW129471   3.451   3.031   1.984
 9524SOL    HW229472   3.558   2.970   1.877
 9525SOL     OW29473   2.555   3.362   5.496
 9525SOL    HW129474   2.507   3.286   5.452
 9525SOL    HW229475   2.594   3.422   5.427
 9526SOL     OW29476   5.237   5.538   1.618
 9526SOL    HW129477   5.232   5.510   1.522
 9526SOL    HW229478   5.277   5.629   1.625
 9527SOL     OW29479   1.269   0.370   2.956
 9527SOL    HW129480   1.316   0.372   3.043
 9527SOL    HW229481   1.192   0.434   2.958
 9528SOL     OW29482   0.313   1.428   0.282
 9528SOL    HW129483   0.263   1.344   0.299
 9528SOL    HW229484   0.307   1.452   0.185
 9529SOL     OW29485   6.349   3.398   5.454
 9529SOL    HW129486   6.338   3.422   5.358
 9529SOL    HW229487   6.364   3.299   5.462
 9530SOL     OW29488   1.792   3.786   2.304
 9530SOL    HW129489   1.736   3.708   2.331
 9530SOL    HW229490   1.819   3.775   2.208
 9531SOL     OW29491   4.908   5.393   2.873
 9531SOL    HW129492   4.899   5.401   2.774
 9531SOL    HW229493   4.888   5.299   2.901
 9532SOL     OW29494   6.930   6.670   2.626
 9532SOL    HW129495   0.004   6.643   2.618
 9532SOL    HW229496   6.915   6.716   2.713
 9533SOL     OW29497   6.718   6.961   5.835
 9533SOL    HW129498   6.727   0.039   5.826
 9533SOL    HW229499   6.802   6.924   5.874
 9534SOL     OW29500   6.900   3.742   5.046
 9534SOL    HW129501   6.904   3.842   5.045
 9534SOL    HW229502   6.831   3.713   5.113
 9535SOL     OW29503   2.571   1.320   5.712
 9535SOL    HW129504   2.603   1.412   5.693
 9535SOL    HW229505   2.555   1.309   5.810
 9536SOL     OW29506   2.510   4.753   5.401
 9536SOL    HW129507   2.536   4.760   5.497
 9536SOL    HW229508   2.590   4.724   5.347
 9537SOL     OW29509   2.604   6.475   2.679
 9537SOL    HW129510   2.698   6.440   2.678
 9537SOL    HW229511   2.606   6.572   2.702
 9538SOL     OW29512   6.235   2.024   3.281
 9538SOL    HW129513   6.311   2.024   3.346
 9538SOL    HW229514   6.269   1.997   3.191
 9539SOL     OW29515   2.792   3.735   5.231
 9539SOL    HW129516   2.858   3.715   5.159
 9539SOL    HW229517   2.797   3.832   5.256
 9540SOL     OW29518   5.970   4.289   4.306
 9540SOL    HW129519   5.968   4.242   4.217
 9540SOL    HW229520   5.928   4.379   4.297
 9541SOL     OW29521   3.301   1.116   5.720
 9541SOL    HW129522   3.348   1.029   5.737
 9541SOL    HW229523   3.363   1.192   5.738
 9542SOL     OW29524   5.435   4.066   4.626
 9542SOL    HW129525   5.507   4.008   4.588
 9542SOL    HW229526   5.397   4.023   4.708
 9543SOL     OW29527   3.459   1.260   5.073
 9543SOL    HW129528   3.550   1.280   5.109
 9543SOL    HW229529   3.413   1.196   5.136
 9544SOL     OW29530   0.660   1.081   3.692
 9544SOL    HW129531   0.733   1.057   3.627
 9544SOL    HW229532   0.618   1.167   3.665
 9545SOL     OW29533   6.127   5.292   3.849
 9545SOL    HW129534   6.040   5.292   3.798
 9545SOL    HW229535   6.141   5.201   3.888
 9546SOL     OW29536   2.921   2.548   5.629
 9546SOL    HW129537   2.972   2.577   5.548
 9546SOL    HW229538   2.920   2.622   5.696
 9547SOL     OW29539   2.739   6.375   4.197
 9547SOL    HW129540   2.651   6.335   4.223
 9547SOL    HW229541   2.799   6.380   4.277
 9548SOL     OW29542   5.787   6.050   5.529
 9548SOL    HW129543   5.707   5.995   5.504
 9548SOL    HW229544   5.786   6.069   5.627
 9549SOL     OW29545   2.957   3.089   1.277
 9549SOL    HW129546   3.000   3.084   1.367
 9549SOL    HW229547   2.992   3.016   1.219
 9550SOL     OW29548   0.500   1.535   0.646
 9550SOL    HW129549   0.548   1.449   0.628
 9550SOL    HW229550   0.559   1.596   0.698
 9551SOL     OW29551   6.135   1.555   4.164
 9551SOL    HW129552   6.229   1.521   4.158
 9551SOL    HW229553   6.080   1.515   4.091
 9552SOL     OW29554   1.262   6.335   2.685
 9552SOL    HW129555   1.262   6.236   2.699
 9552SOL    HW229556   1.257   6.355   2.587
 9553SOL     OW29557   6.395   3.953   6.839
 9553SOL    HW129558   6.350   4.011   6.907
 9553SOL    HW229559   6.444   4.010   6.773
 9554SOL     OW29560   2.479   0.558   1.564
 9554SOL    HW129561   2.518   0.648   1.549
 9554SOL    HW229562   2.381   0.559   1.543
 9555SOL     OW29563   1.498   1.099   2.696
 9555SOL    HW129564   1.407   1.139   2.705
 9555SOL    HW229565   1.507   1.057   2.606
 9556SOL     OW29566   2.050   2.262   1.194
 9556SOL    HW129567   1.998   2.290   1.113
 9556SOL    HW229568   2.015   2.174   1.227
 9557SOL     OW29569   6.954   0.546   3.134
 9557SOL    HW129570   0.018   0.544   3.082
 9557SOL    HW229571   6.887   0.487   3.089
 9558SOL     OW29572   6.826   6.163   4.504
 9558SOL    HW129573   6.781   6.220   4.435
 9558SOL    HW229574   6.816   6.067   4.480
 9559SOL     OW29575   0.533   3.975   1.501
 9559SOL    HW129576   0.537   3.916   1.420
 9559SOL    HW229577   0.565   4.066   1.477
 9560SOL     OW29578   1.304   1.494   3.248
 9560SOL    HW129579   1.265   1.482   3.157
 9560SOL    HW229580   1.389   1.443   3.255
 9561SOL     OW29581   1.140   6.129   0.189
 9561SOL    HW129582   1.189   6.201   0.141
 9561SOL    HW229583   1.063   6.169   0.240
 9562SOL     OW29584   3.300   0.294   5.302
 9562SOL    HW129585   3.369   0.367   5.304
 9562SOL    HW229586   3.250   0.293   5.389
 9563SOL     OW29587   6.676   0.041   0.717
 9563SOL    HW129588   6.716   7.015   0.639
 9563SOL    HW229589   6.648   6.996   0.786
 9564SOL     OW29590   2.580   0.033   6.749
 9564SOL    HW129591   2.605   0.099   6.819
 9564SOL    HW229592   2.492   0.059   6.708
 9565SOL     OW29593   4.158   6.103   5.082
 9565SOL    HW129594   4.065   6.077   5.106
 9565SOL    HW229595   4.219   6.026   5.100
 9566SOL     OW29596   2.671   5.059   6.766
 9566SOL    HW129597   2.590   5.111   6.792
 9566SOL    HW229598   2.725   5.038   6.847
 9567SOL     OW29599   6.117   4.267   6.642
 9567SOL    HW129600   6.038   4.220   6.681
 9567SOL    HW229601   6.136   4.350   6.694
 9568SOL     OW29602   4.502   2.748   6.771
 9568SOL    HW129603   4.567   2.789   6.707
 9568SOL    HW229604   4.526   2.776   6.864
 9569SOL     OW29605   0.412   0.570   2.688
 9569SOL    HW129606   0.430   0.632   2.764
 9569SOL    HW229607   0.404   0.622   2.603
 9570SOL     OW29608   1.057   2.682   2.354
 9570SOL    HW129609   0.958   2.685   2.340
 9570SOL    HW229610   1.076   2.643   2.444
 9571SOL     OW29611   2.190   3.689   0.038
 9571SOL    HW129612   2.209   3.709   6.964
 9571SOL    HW229613   2.233   3.603   0.064
 9572SOL     OW29614   1.659   5.807   0.926
 9572SOL    HW129615   1.744   5.779   0.880
 9572SOL    HW229616   1.639   5.744   1.000
 9573SOL     OW29617   0.996   1.483   6.810
 9573SOL    HW129618   0.961   1.568   6.848
 9573SOL    HW229619   1.056   1.439   6.876
 9574SOL     OW29620   3.694   2.858   4.072
 9574SOL    HW129621   3.768   2.885   4.134
 9574SOL    HW229622   3.606   2.874   4.117
 9575SOL     OW29623   5.875   1.365   0.963
 9575SOL    HW129624   5.946   1.429   0.993
 9575SOL    HW229625   5.869   1.289   1.028
 9576SOL     OW29626   3.018   0.578   2.802
 9576SOL    HW129627   3.006   0.479   2.800
 9576SOL    HW229628   2.945   0.622   2.751
 9577SOL     OW29629   1.189   1.126   3.848
 9577SOL    HW129630   1.222   1.049   3.903
 9577SOL    HW229631   1.093   1.142   3.868
 9578SOL     OW29632   0.213   4.142   3.579
 9578SOL    HW129633   0.203   4.229   3.628
 9578SOL    HW229634   0.131   4.087   3.593
 9579SOL     OW29635   1.943   5.274   2.707
 9579SOL    HW129636   1.973   5.355   2.655
 9579SOL    HW229637   2.016   5.245   2.768
 9580SOL     OW29638   4.461   3.141   0.599
 9580SOL    HW129639   4.550   3.184   0.594
 9580SOL    HW229640   4.405   3.187   0.668
 9581SOL     OW29641   1.396   5.166   6.369
 9581SOL    HW129642   1.358   5.084   6.412
 9581SOL    HW229643   1.452   5.215   6.435
 9582SOL     OW29644   4.535   4.468   4.769
 9582SOL    HW129645   4.449   4.463   4.821
 9582SOL    HW229646   4.549   4.562   4.737
 9583SOL     OW29647   2.876   3.971   0.900
 9583SOL    HW129648   2.892   4.062   0.864
 9583SOL    HW229649   2.892   3.971   0.999
 9584SOL     OW29650   6.504   6.746   0.067
 9584SOL    HW129651   6.406   6.735   0.085
 9584SOL    HW229652   6.533   6.680   7.020
 9585SOL     OW29653   5.961   0.701   3.379
 9585SOL    HW129654   6.020   0.681   3.301
 9585SOL    HW229655   6.016   0.733   3.456
 9586SOL     OW29656   5.689   4.099   1.990
 9586SOL    HW129657   5.667   4.168   2.060
 9586SOL    HW229658   5.667   4.008   2.026
 9587SOL     OW29659   6.359   0.598   2.413
 9587SOL    HW129660   6.346   0.503   2.384
 9587SOL    HW229661   6.345   0.659   2.336
 9588SOL     OW29662   0.668   1.677   2.290
 9588SOL    HW129663   0.654   1.657   2.387
 9588SOL    HW229664   0.709   1.598   2.245
 9589SOL     OW29665   2.637   5.729   6.398
 9589SOL    HW129666   2.631   5.634   6.366
 9589SOL    HW229667   2.564   5.783   6.357
 9590SOL     OW29668   0.194   4.811   2.005
 9590SOL    HW129669   0.241   4.796   1.918
 9590SOL    HW229670   0.244   4.879   2.058
 9591SOL     OW29671   3.046   6.094   0.251
 9591SOL    HW129672   2.991   6.097   0.335
 9591SOL    HW229673   3.068   6.187   0.222
 9592SOL     OW29674   3.786   4.764   1.683
 9592SOL    HW129675   3.867   4.705   1.671
 9592SOL    HW229676   3.709   4.709   1.713
 9593SOL     OW29677   6.382   1.090   4.783
 9593SOL    HW129678   6.451   1.106   4.711
 9593SOL    HW229679   6.338   1.177   4.807
 9594SOL     OW29680   1.034   5.786   3.482
 9594SOL    HW129681   0.966   5.859   3.476
 9594SOL    HW229682   1.040   5.753   3.576
 9595SOL     OW29683   2.136   4.505   4.564
 9595SOL    HW129684   2.181   4.416   4.572
 9595SOL    HW229685   2.049   4.495   4.516
 9596SOL     OW29686   6.944   5.781   0.391
 9596SOL    HW129687   7.015   5.776   0.320
 9596SOL    HW229688   6.864   5.828   0.354
 9597SOL     OW29689   0.218   4.686   0.768
 9597SOL    HW129690   0.247   4.778   0.795
 9597SOL    HW229691   0.182   4.688   0.675
 9598SOL     OW29692   0.710   3.931   5.172
 9598SOL    HW129693   0.795   3.916   5.223
 9598SOL    HW229694   0.731   3.963   5.080
 9599SOL     OW29695   3.191   0.691   5.302
 9599SOL    HW129696   3.258   0.719   5.233
 9599SOL    HW229697   3.132   0.620   5.263
 9600SOL     OW29698   1.688   0.114   6.577
 9600SOL    HW129699   1.608   0.104   6.517
 9600SOL    HW229700   1.706   0.211   6.594
 9601SOL     OW29701   6.357   4.379   6.962
 9601SOL    HW129702   6.444   4.384   7.012
 9601SOL    HW229703   6.337   4.283   6.941
 9602SOL     OW29704   6.133   5.087   6.366
 9602SOL    HW129705   6.112   5.038   6.450
 9602SOL    HW229706   6.119   5.027   6.288
 9603SOL     OW29707   3.184   0.199   4.813
 9603SOL    HW129708   3.184   0.243   4.903
 9603SOL    HW229709   3.226   0.261   4.747
 9604SOL     OW29710   5.055   0.181   0.799
 9604SOL    HW129711   5.078   0.083   0.796
 9604SOL    HW229712   5.090   0.226   0.717
 9605SOL     OW29713   0.425   5.022   5.473
 9605SOL    HW129714   0.377   5.086   5.534
 9605SOL    HW229715   0.361   4.987   5.405
 9606SOL     OW29716   1.226   6.433   4.983
 9606SOL    HW129717   1.176   6.349   4.962
 9606SOL    HW229718   1.324   6.413   4.988
 9607SOL     OW29719   1.272   2.338   2.244
 9607SOL    HW129720   1.357   2.369   2.201
 9607SOL    HW229721   1.228   2.269   2.187
 9608SOL     OW29722   6.807   6.355   2.493
 9608SOL    HW129723   6.813   6.431   2.428
 9608SOL    HW229724   6.891   6.353   2.549
 9609SOL     OW29725   1.192   3.677   5.028
 9609SOL    HW129726   1.243   3.740   4.970
 9609SOL    HW229727   1.172   3.720   5.116
 9610SOL     OW29728   1.503   4.038   4.415
 9610SOL    HW129729   1.454   4.081   4.491
 9610SOL    HW229730   1.574   4.101   4.382
 9611SOL     OW29731   0.245   6.389   0.964
 9611SOL    HW129732   0.305   6.330   0.910
 9611SOL    HW229733   0.169   6.419   0.907
 9612SOL     OW29734   6.220   3.336   1.589
 9612SOL    HW129735   6.299   3.348   1.650
 9612SOL    HW229736   6.150   3.281   1.635
 9613SOL     OW29737   4.099   6.145   3.615
 9613SOL    HW129738   4.056   6.102   3.695
 9613SOL    HW229739   4.070   6.241   3.610
 9614SOL     OW29740   3.698   3.438   1.141
 9614SOL    HW129741   3.660   3.369   1.079
 9614SOL    HW229742   3.669   3.419   1.235
 9615SOL     OW29743   1.166   6.950   2.518
 9615SOL    HW129744   1.226   0.008   2.511
 9615SOL    HW229745   1.132   6.926   2.427
 9616SOL     OW29746   4.042   4.166   0.655
 9616SOL    HW129747   4.095   4.144   0.573
 9616SOL    HW229748   4.087   4.241   0.704
 9617SOL     OW29749   0.769   3.617   3.981
 9617SOL    HW129750   0.839   3.683   4.008
 9617SOL    HW229751   0.746   3.631   3.884
 9618SOL     OW29752   4.496   6.739   6.262
 9618SOL    HW129753   4.508   6.642   6.285
 9618SOL    HW229754   4.584   6.786   6.269
 9619SOL     OW29755   1.302   0.354   0.809
 9619SOL    HW129756   1.262   0.308   0.730
 9619SOL    HW229757   1.369   0.422   0.777
 9620SOL     OW29758   5.226   1.775   6.799
 9620SOL    HW129759   5.285   1.694   6.797
 9620SOL    HW229760   5.223   1.816   6.707
 9621SOL     OW29761   1.827   1.182   2.754
 9621SOL    HW129762   1.866   1.128   2.679
 9621SOL    HW229763   1.728   1.179   2.750
 9622SOL     OW29764   5.930   1.628   6.563
 9622SOL    HW129765   5.935   1.728   6.572
 9622SOL    HW229766   5.891   1.588   6.646
 9623SOL     OW29767   4.278   5.390   5.742
 9623SOL    HW129768   4.201   5.327   5.758
 9623SOL    HW229769   4.289   5.449   5.822
 9624SOL     OW29770   5.481   4.325   4.586
 9624SOL    HW129771   5.481   4.227   4.603
 9624SOL    HW229772   5.570   4.352   4.548
 9625SOL     OW29773   5.255   4.367   0.129
 9625SOL    HW129774   5.320   4.442   0.113
 9625SOL    HW229775   5.256   4.343   0.226
 9626SOL     OW29776   2.368   6.085   5.676
 9626SOL    HW129777   2.404   5.996   5.705
 9626SOL    HW229778   2.422   6.158   5.716
 9627SOL     OW29779   0.199   3.823   4.919
 9627SOL    HW129780   0.199   3.867   5.009
 9627SOL    HW229781   0.205   3.724   4.930
 9628SOL     OW29782   6.046   4.024   0.644
 9628SOL    HW129783   6.133   4.066   0.672
 9628SOL    HW229784   6.033   3.939   0.693
 9629SOL     OW29785   6.788   5.868   2.801
 9629SOL    HW129786   6.789   5.953   2.854
 9629SOL    HW229787   6.770   5.791   2.863
 9630SOL     OW29788   6.373   6.103   5.571
 9630SOL    HW129789   6.453   6.117   5.512
 9630SOL    HW229790   6.290   6.114   5.516
 9631SOL     OW29791   4.614   2.219   0.740
 9631SOL    HW129792   4.599   2.145   0.805
 9631SOL    HW229793   4.527   2.249   0.702
 9632SOL     OW29794   2.567   5.161   2.059
 9632SOL    HW129795   2.543   5.251   2.096
 9632SOL    HW229796   2.637   5.119   2.117
 9633SOL     OW29797   3.766   4.150   0.256
 9633SOL    HW129798   3.838   4.219   0.268
 9633SOL    HW229799   3.808   4.062   0.237
 9634SOL     OW29800   0.700   5.565   3.251
 9634SOL    HW129801   0.671   5.648   3.299
 9634SOL    HW229802   0.653   5.560   3.163
 9635SOL     OW29803   1.527   4.201   5.313
 9635SOL    HW129804   1.573   4.200   5.402
 9635SOL    HW229805   1.495   4.294   5.294
 9636SOL     OW29806   4.048   1.702   5.800
 9636SOL    HW129807   3.982   1.766   5.838
 9636SOL    HW229808   4.090   1.649   5.874
 9637SOL     OW29809   4.057   2.762   1.340
 9637SOL    HW129810   3.982   2.705   1.373
 9637SOL    HW229811   4.025   2.818   1.264
 9638SOL     OW29812   6.860   3.336   5.796
 9638SOL    HW129813   6.904   3.426   5.794
 9638SOL    HW229814   6.761   3.348   5.800
 9639SOL     OW29815   4.307   2.309   1.793
 9639SOL    HW129816   4.321   2.401   1.756
 9639SOL    HW229817   4.213   2.299   1.823
 9640SOL     OW29818   3.213   0.594   2.273
 9640SOL    HW129819   3.213   0.685   2.313
 9640SOL    HW229820   3.119   0.563   2.260
 9641SOL     OW29821   5.971   5.831   1.840
 9641SOL    HW129822   6.004   5.815   1.747
 9641SOL    HW229823   6.001   5.757   1.899
 9642SOL     OW29824   1.236   6.338   4.585
 9642SOL    HW129825   1.257   6.351   4.488
 9642SOL    HW229826   1.293   6.401   4.639
 9643SOL     OW29827   5.142   3.961   3.650
 9643SOL    HW129828   5.238   3.983   3.666
 9643SOL    HW229829   5.135   3.875   3.599
 9644SOL     OW29830   1.179   5.910   5.594
 9644SOL    HW129831   1.226   5.995   5.568
 9644SOL    HW229832   1.246   5.838   5.611
 9645SOL     OW29833   2.688   4.640   4.388
 9645SOL    HW129834   2.694   4.557   4.445
 9645SOL    HW229835   2.613   4.631   4.324
 9646SOL     OW29836   2.650   5.266   1.784
 9646SOL    HW129837   2.566   5.295   1.739
 9646SOL    HW229838   2.629   5.238   1.878
 9647SOL     OW29839   0.083   6.863   3.326
 9647SOL    HW129840   7.015   6.885   3.288
 9647SOL    HW229841   0.074   6.843   3.423
 9648SOL     OW29842   4.404   2.630   0.038
 9648SOL    HW129843   4.421   2.551   0.097
 9648SOL    HW229844   4.481   2.694   0.045
 9649SOL     OW29845   1.956   4.202   0.014
 9649SOL    HW129846   1.879   4.201   6.971
 9649SOL    HW229847   1.972   4.295   0.046
 9650SOL     OW29848   4.947   4.324   2.644
 9650SOL    HW129849   4.848   4.309   2.638
 9650SOL    HW229850   4.987   4.256   2.706
 9651SOL     OW29851   5.474   1.155   1.129
 9651SOL    HW129852   5.381   1.137   1.161
 9651SOL    HW229853   5.539   1.105   1.186
 9652SOL     OW29854   0.982   4.851   1.723
 9652SOL    HW129855   0.885   4.829   1.737
 9652SOL    HW229856   0.994   4.889   1.632
 9653SOL     OW29857   4.438   4.976   4.430
 9653SOL    HW129858   4.393   4.889   4.449
 9653SOL    HW229859   4.369   5.046   4.414
 9654SOL     OW29860   2.949   3.534   3.016
 9654SOL    HW129861   2.962   3.604   3.086
 9654SOL    HW229862   2.966   3.443   3.055
 9655SOL     OW29863   0.193   2.199   0.474
 9655SOL    HW129864   0.289   2.213   0.497
 9655SOL    HW229865   0.166   2.105   0.496
 9656SOL     OW29866   4.315   3.066   1.075
 9656SOL    HW129867   4.357   3.035   1.160
 9656SOL    HW229868   4.315   2.991   1.008
 9657SOL     OW29869   5.510   3.269   2.698
 9657SOL    HW129870   5.577   3.272   2.624
 9657SOL    HW229871   5.463   3.181   2.697
 9658SOL     OW29872   5.372   1.363   2.457
 9658SOL    HW129873   5.456   1.327   2.497
 9658SOL    HW229874   5.326   1.290   2.405
 9659SOL     OW29875   0.736   3.267   0.259
 9659SOL    HW129876   0.658   3.323   0.289
 9659SOL    HW229877   0.786   3.234   0.339
 9660SOL     OW29878   0.832   6.771   3.214
 9660SOL    HW129879   0.857   6.868   3.218
 9660SOL    HW229880   0.864   6.732   3.127
 9661SOL     OW29881   3.328   6.617   1.466
 9661SOL    HW129882   3.331   6.631   1.367
 9661SOL    HW229883   3.402   6.667   1.510
 9662SOL     OW29884   4.244   3.666   6.365
 9662SOL    HW129885   4.342   3.650   6.364
 9662SOL    HW229886   4.199   3.596   6.420
 9663SOL     OW29887   0.368   6.045   2.760
 9663SOL    HW129888   0.307   6.050   2.840
 9663SOL    HW229889   0.313   6.027   2.678
 9664SOL     OW29890   5.986   5.435   4.119
 9664SOL    HW129891   5.932   5.507   4.075
 9664SOL    HW229892   6.017   5.370   4.049
 9665SOL     OW29893   6.161   6.487   6.474
 9665SOL    HW129894   6.109   6.529   6.400
 9665SOL    HW229895   6.120   6.512   6.562
 9666SOL     OW29896   6.091   3.961   1.985
 9666SOL    HW129897   6.069   4.020   1.907
 9666SOL    HW229898   6.185   3.928   1.976
 9667SOL     OW29899   3.792   3.891   0.190
 9667SOL    HW129900   3.737   3.895   0.273
 9667SOL    HW229901   3.751   3.825   0.126
 9668SOL     OW29902   0.578   0.446   6.281
 9668SOL    HW129903   0.585   0.422   6.378
 9668SOL    HW229904   0.491   0.416   6.244
 9669SOL     OW29905   2.227   6.615   2.135
 9669SOL    HW129906   2.280   6.696   2.159
 9669SOL    HW229907   2.133   6.626   2.168
 9670SOL     OW29908   0.365   4.987   5.955
 9670SOL    HW129909   0.371   5.055   5.882
 9670SOL    HW229910   0.334   5.032   6.039
 9671SOL     OW29911   6.825   4.410   0.910
 9671SOL    HW129912   6.807   4.312   0.908
 9671SOL    HW229913   6.917   4.429   0.877
 9672SOL     OW29914   2.036   5.104   3.455
 9672SOL    HW129915   1.949   5.149   3.438
 9672SOL    HW229916   2.080   5.145   3.535
 9673SOL     OW29917   3.596   3.635   0.820
 9673SOL    HW129918   3.665   3.675   0.760
 9673SOL    HW229919   3.564   3.704   0.885
 9674SOL     OW29920   3.796   6.577   3.493
 9674SOL    HW129921   3.728   6.561   3.422
 9674SOL    HW229922   3.853   6.655   3.468
 9675SOL     OW29923   5.573   2.289   6.420
 9675SOL    HW129924   5.525   2.294   6.508
 9675SOL    HW229925   5.610   2.380   6.398
 9676SOL     OW29926   1.033   3.066   5.865
 9676SOL    HW129927   1.010   3.148   5.813
 9676SOL    HW229928   1.128   3.040   5.847
 9677SOL     OW29929   6.364   5.323   4.946
 9677SOL    HW129930   6.279   5.287   4.908
 9677SOL    HW229931   6.349   5.416   4.977
 9678SOL     OW29932   2.946   3.648   3.858
 9678SOL    HW129933   2.939   3.678   3.763
 9678SOL    HW229934   3.041   3.653   3.888
 9679SOL     OW29935   2.691   6.979   3.268
 9679SOL    HW129936   2.746   6.915   3.322
 9679SOL    HW229937   2.595   6.970   3.294
 9680SOL     OW29938   4.062   0.484   3.643
 9680SOL    HW129939   4.064   0.521   3.736
 9680SOL    HW229940   4.156   0.467   3.613
 9681SOL     OW29941   2.713   2.173   0.840
 9681SOL    HW129942   2.662   2.153   0.923
 9681SOL    HW229943   2.683   2.110   0.767
 9682SOL     OW29944   4.778   4.105   3.710
 9682SOL    HW129945   4.804   4.132   3.802
 9682SOL    HW229946   4.774   4.005   3.704
 9683SOL     OW29947   3.244   6.819   1.790
 9683SOL    HW129948   3.163   6.861   1.749
 9683SOL    HW229949   3.220   6.728   1.825
 9684SOL     OW29950   1.010   3.540   5.844
 9684SOL    HW129951   0.927   3.496   5.880
 9684SOL    HW229952   1.049   3.599   5.915
 9685SOL     OW29953   4.588   4.398   0.910
 9685SOL    HW129954   4.687   4.408   0.919
 9685SOL    HW229955   4.558   4.432   0.822
 9686SOL     OW29956   0.633   3.543   6.172
 9686SOL    HW129957   0.731   3.537   6.192
 9686SOL    HW229958   0.608   3.638   6.156
 9687SOL     OW29959   1.159   0.840   3.614
 9687SOL    HW129960   1.133   0.748   3.643
 9687SOL    HW229961   1.214   0.884   3.685
 9688SOL     OW29962   1.085   3.011   1.238
 9688SOL    HW129963   1.017   3.084   1.237
 9688SOL    HW229964   1.177   3.052   1.240
 9689SOL     OW29965   0.829   4.734   6.517
 9689SOL    HW129966   0.783   4.761   6.432
 9689SOL    HW229967   0.861   4.815   6.565
 9690SOL     OW29968   5.952   5.878   6.979
 9690SOL    HW129969   5.969   5.787   6.941
 9690SOL    HW229970   5.896   5.930   6.914
 9691SOL     OW29971   3.346   4.238   0.975
 9691SOL    HW129972   3.248   4.239   0.996
 9691SOL    HW229973   3.359   4.267   0.880
 9692SOL     OW29974   4.001   6.395   1.681
 9692SOL    HW129975   4.050   6.443   1.753
 9692SOL    HW229976   3.934   6.333   1.722
 9693SOL     OW29977   6.068   3.944   2.646
 9693SOL    HW129978   6.000   3.872   2.629
 9693SOL    HW229979   6.060   4.014   2.575
 9694SOL     OW29980   3.167   1.292   1.457
 9694SOL    HW129981   3.073   1.260   1.455
 9694SOL    HW229982   3.221   1.232   1.516
 9695SOL     OW29983   0.103   2.534   3.402
 9695SOL    HW129984   0.069   2.615   3.450
 9695SOL    HW229985   0.149   2.473   3.468
 9696SOL     OW29986   5.631   2.527   1.339
 9696SOL    HW129987   5.555   2.468   1.370
 9696SOL    HW229988   5.716   2.474   1.339
 9697SOL     OW29989   0.226   5.514   7.008
 9697SOL    HW129990   0.266   5.575   6.939
 9697SOL    HW229991   0.144   5.471   6.971
 9698SOL     OW29992   5.738   2.330   6.090
 9698SOL    HW129993   5.783   2.242   6.106
 9698SOL    HW229994   5.642   2.323   6.118
 9699SOL     OW29995   6.082   6.296   6.809
 9699SOL    HW129996   6.056   6.292   6.906
 9699SOL    HW229997   6.002   6.323   6.754
 9700SOL     OW29998   5.439   6.024   5.115
 9700SOL    HW129999   5.414   5.952   5.051
 9700SOL    HW230000   5.396   6.110   5.088
 9701SOL     OW30001   4.378   4.792   5.446
 9701SOL    HW130002   4.291   4.795   5.496
 9701SOL    HW230003   4.448   4.842   5.497
 9702SOL     OW30004   4.073   1.767   6.932
 9702SOL    HW130005   4.063   1.691   6.997
 9702SOL    HW230006   4.157   1.816   6.952
 9703SOL     OW30007   5.055   3.697   3.804
 9703SOL    HW130008   5.094   3.748   3.881
 9703SOL    HW230009   5.113   3.708   3.724
 9704SOL     OW30010   3.474   0.010   1.497
 9704SOL    HW130011   3.445   0.013   1.592
 9704SOL    HW230012   3.396   0.027   1.437
 9705SOL     OW30013   5.561   3.939   6.293
 9705SOL    HW130014   5.546   3.937   6.194
 9705SOL    HW230015   5.576   3.846   6.327
 9706SOL     OW30016   2.196   2.930   0.768
 9706SOL    HW130017   2.177   2.907   0.864
 9706SOL    HW230018   2.293   2.915   0.749
 9707SOL     OW30019   6.157   4.398   2.179
 9707SOL    HW130020   6.226   4.326   2.173
 9707SOL    HW230021   6.078   4.374   2.123
 9708SOL     OW30022   1.170   1.717   3.541
 9708SOL    HW130023   1.255   1.743   3.494
 9708SOL    HW230024   1.150   1.621   3.524
 9709SOL     OW30025   5.323   6.253   2.695
 9709SOL    HW130026   5.231   6.214   2.696
 9709SOL    HW230027   5.368   6.236   2.783
 9710SOL     OW30028   6.760   1.591   1.614
 9710SOL    HW130029   6.800   1.565   1.526
 9710SOL    HW230030   6.660   1.583   1.608
 9711SOL     OW30031   3.318   5.331   5.438
 9711SOL    HW130032   3.407   5.301   5.404
 9711SOL    HW230033   3.251   5.257   5.427
 9712SOL     OW30034   5.554   3.683   6.449
 9712SOL    HW130035   5.631   3.696   6.512
 9712SOL    HW230036   5.470   3.669   6.500
 9713SOL     OW30037   1.972   4.214   3.386
 9713SOL    HW130038   1.900   4.188   3.322
 9713SOL    HW230039   1.995   4.310   3.373
 9714SOL     OW30040   4.265   6.184   6.603
 9714SOL    HW130041   4.361   6.176   6.576
 9714SOL    HW230042   4.259   6.195   6.702
 9715SOL     OW30043   5.931   4.048   6.987
 9715SOL    HW130044   5.886   3.963   7.014
 9715SOL    HW230045   5.921   4.062   6.889
 9716SOL     OW30046   3.374   4.505   6.728
 9716SOL    HW130047   3.463   4.541   6.703
 9716SOL    HW230048   3.320   4.490   6.645
 9717SOL     OW30049   5.030   6.877   5.898
 9717SOL    HW130050   5.060   6.903   5.806
 9717SOL    HW230051   5.096   6.911   5.965
 9718SOL     OW30052   5.271   3.214   0.260
 9718SOL    HW130053   5.174   3.222   0.239
 9718SOL    HW230054   5.325   3.229   0.177
 9719SOL     OW30055   6.419   0.706   5.888
 9719SOL    HW130056   6.454   0.768   5.958
 9719SOL    HW230057   6.423   0.612   5.922
 9720SOL     OW30058   0.663   4.713   1.879
 9720SOL    HW130059   0.705   4.684   1.964
 9720SOL    HW230060   0.563   4.706   1.887
 9721SOL     OW30061   0.614   1.734   0.784
 9721SOL    HW130062   0.640   1.783   0.700
 9721SOL    HW230063   0.592   1.800   0.855
 9722SOL     OW30064   4.607   1.301   4.373
 9722SOL    HW130065   4.521   1.279   4.328
 9722SOL    HW230066   4.669   1.223   4.367
 9723SOL     OW30067   3.434   6.588   3.192
 9723SOL    HW130068   3.439   6.680   3.230
 9723SOL    HW230069   3.414   6.593   3.094
 9724SOL     OW30070   1.354   4.870   6.938
 9724SOL    HW130071   1.293   4.942   6.904
 9724SOL    HW230072   1.381   4.811   6.863
 9725SOL     OW30073   4.738   5.846   6.075
 9725SOL    HW130074   4.731   5.926   6.135
 9725SOL    HW230075   4.824   5.851   6.023
 9726SOL     OW30076   5.145   1.414   4.022
 9726SOL    HW130077   5.228   1.361   4.005
 9726SOL    HW230078   5.094   1.374   4.098
 9727SOL     OW30079   1.346   2.256   0.377
 9727SOL    HW130080   1.394   2.175   0.344
 9727SOL    HW230081   1.262   2.270   0.325
 9728SOL     OW30082   0.863   0.434   5.865
 9728SOL    HW130083   0.831   0.366   5.799
 9728SOL    HW230084   0.786   0.467   5.920
 9729SOL     OW30085   1.447   4.068   3.246
 9729SOL    HW130086   1.401   4.100   3.164
 9729SOL    HW230087   1.545   4.060   3.228
 9730SOL     OW30088   1.951   4.615   3.008
 9730SOL    HW130089   2.033   4.638   3.061
 9730SOL    HW230090   1.919   4.697   2.960
 9731SOL     OW30091   5.182   4.908   0.876
 9731SOL    HW130092   5.154   5.003   0.869
 9731SOL    HW230093   5.252   4.899   0.947
 9732SOL     OW30094   6.891   5.272   2.398
 9732SOL    HW130095   6.831   5.343   2.433
 9732SOL    HW230096   6.958   5.313   2.336
 9733SOL     OW30097   4.948   5.169   0.482
 9733SOL    HW130098   5.019   5.142   0.546
 9733SOL    HW230099   4.925   5.092   0.423
 9734SOL     OW30100   6.373   1.653   0.406
 9734SOL    HW130101   6.422   1.589   0.466
 9734SOL    HW230102   6.372   1.616   0.312
 9735SOL     OW30103   2.187   3.542   3.435
 9735SOL    HW130104   2.172   3.635   3.468
 9735SOL    HW230105   2.147   3.532   3.343
 9736SOL     OW30106   5.854   1.722   5.888
 9736SOL    HW130107   5.812   1.678   5.809
 9736SOL    HW230108   5.950   1.742   5.870
 9737SOL     OW30109   5.111   2.413   3.101
 9737SOL    HW130110   5.144   2.480   3.034
 9737SOL    HW230111   5.117   2.452   3.192
 9738SOL     OW30112   2.223   6.993   0.124
 9738SOL    HW130113   2.235   6.972   0.027
 9738SOL    HW230114   2.165   6.923   0.166
 9739SOL     OW30115   5.140   5.691   1.072
 9739SOL    HW130116   5.172   5.607   1.028
 9739SOL    HW230117   5.186   5.769   1.030
 9740SOL     OW30118   0.355   0.977   3.575
 9740SOL    HW130119   0.361   0.974   3.675
 9740SOL    HW230120   0.293   1.050   3.548
 9741SOL     OW30121   3.769   1.821   2.291
 9741SOL    HW130122   3.738   1.904   2.244
 9741SOL    HW230123   3.830   1.847   2.366
 9742SOL     OW30124   4.179   1.577   0.366
 9742SOL    HW130125   4.238   1.501   0.393
 9742SOL    HW230126   4.107   1.590   0.435
 9743SOL     OW30127   6.747   3.395   4.189
 9743SOL    HW130128   6.769   3.315   4.132
 9743SOL    HW230129   6.656   3.383   4.229
 9744SOL     OW30130   1.324   6.775   2.027
 9744SOL    HW130131   1.281   6.685   2.021
 9744SOL    HW230132   1.402   6.779   1.965
 9745SOL     OW30133   5.263   2.445   6.359
 9745SOL    HW130134   5.322   2.480   6.287
 9745SOL    HW230135   5.233   2.352   6.336
 9746SOL     OW30136   6.282   0.725   5.636
 9746SOL    HW130137   6.322   0.739   5.726
 9746SOL    HW230138   6.233   0.807   5.608
 9747SOL     OW30139   2.748   1.979   1.844
 9747SOL    HW130140   2.785   1.887   1.858
 9747SOL    HW230141   2.806   2.045   1.893
 9748SOL     OW30142   6.737   6.804   3.498
 9748SOL    HW130143   6.701   6.758   3.417
 9748SOL    HW230144   6.694   6.767   3.580
 9749SOL     OW30145   2.371   0.277   4.179
 9749SOL    HW130146   2.281   0.310   4.208
 9749SOL    HW230147   2.387   0.304   4.084
 9750SOL     OW30148   5.845   4.308   3.636
 9750SOL    HW130149   5.823   4.315   3.539
 9750SOL    HW230150   5.762   4.324   3.690
 9751SOL     OW30151   2.502   0.847   0.858
 9751SOL    HW130152   2.432   0.796   0.807
 9751SOL    HW230153   2.591   0.804   0.843
 9752SOL     OW30154   3.737   2.189   5.241
 9752SOL    HW130155   3.697   2.270   5.283
 9752SOL    HW230156   3.711   2.185   5.145
 9753SOL     OW30157   6.947   5.624   6.453
 9753SOL    HW130158   6.922   5.546   6.396
 9753SOL    HW230159   6.966   5.593   6.546
 9754SOL     OW30160   1.652   0.360   0.688
 9754SOL    HW130161   1.681   0.402   0.775
 9754SOL    HW230162   1.641   0.261   0.702
 9755SOL     OW30163   3.599   3.622   4.211
 9755SOL    HW130164   3.645   3.701   4.252
 9755SOL    HW230165   3.517   3.653   4.163
 9756SOL     OW30166   5.955   2.598   6.712
 9756SOL    HW130167   5.932   2.691   6.682
 9756SOL    HW230168   6.013   2.555   6.643
 9757SOL     OW30169   6.151   4.473   4.110
 9757SOL    HW130170   6.083   4.547   4.113
 9757SOL    HW230171   6.105   4.386   4.094
 9758SOL     OW30172   2.846   0.185   6.280
 9758SOL    HW130173   2.811   0.091   6.283
 9758SOL    HW230174   2.875   0.207   6.186
 9759SOL     OW30175   1.355   0.512   0.114
 9759SOL    HW130176   1.306   0.426   0.099
 9759SOL    HW230177   1.298   0.575   0.167
 9760SOL     OW30178   5.239   3.142   5.546
 9760SOL    HW130179   5.304   3.213   5.520
 9760SOL    HW230180   5.289   3.057   5.564
 9761SOL     OW30181   0.489   1.504   2.506
 9761SOL    HW130182   0.433   1.505   2.423
 9761SOL    HW230183   0.467   1.424   2.560
 9762SOL     OW30184   3.230   1.737   4.762
 9762SOL    HW130185   3.259   1.725   4.857
 9762SOL    HW230186   3.154   1.802   4.759
 9763SOL     OW30187   4.798   1.853   2.270
 9763SOL    HW130188   4.733   1.838   2.195
 9763SOL    HW230189   4.845   1.767   2.291
 9764SOL     OW30190   0.033   2.945   3.167
 9764SOL    HW130191   0.081   2.968   3.251
 9764SOL    HW230192   0.099   2.928   3.093
 9765SOL     OW30193   6.624   6.438   3.453
 9765SOL    HW130194   6.700   6.448   3.389
 9765SOL    HW230195   6.571   6.523   3.455
 9766SOL     OW30196   2.674   0.433   2.233
 9766SOL    HW130197   2.760   0.410   2.187
 9766SOL    HW230198   2.609   0.469   2.166
 9767SOL     OW30199   3.911   1.322   5.332
 9767SOL    HW130200   3.882   1.418   5.333
 9767SOL    HW230201   3.947   1.297   5.422
 9768SOL     OW30202   5.776   0.916   2.001
 9768SOL    HW130203   5.761   1.014   1.983
 9768SOL    HW230204   5.869   0.892   1.972
 9769SOL     OW30205   4.320   0.810   4.541
 9769SOL    HW130206   4.404   0.863   4.533
 9769SOL    HW230207   4.340   0.724   4.588
 9770SOL     OW30208   4.237   1.440   5.968
 9770SOL    HW130209   4.151   1.393   5.988
 9770SOL    HW230210   4.270   1.486   6.050
 9771SOL     OW30211   2.753   6.421   0.566
 9771SOL    HW130212   2.792   6.414   0.658
 9771SOL    HW230213   2.672   6.479   0.569
 9772SOL     OW30214   1.735   6.116   1.560
 9772SOL    HW130215   1.790   6.185   1.607
 9772SOL    HW230216   1.784   6.028   1.562
 9773SOL     OW30217   4.931   5.506   3.914
 9773SOL    HW130218   4.994   5.456   3.974
 9773SOL    HW230219   4.859   5.549   3.969
 9774SOL     OW30220   0.052   5.238   1.840
 9774SOL    HW130221   7.017   5.235   1.922
 9774SOL    HW230222   0.000   5.280   1.765
 9775SOL     OW30223   3.231   0.775   3.145
 9775SOL    HW130224   3.174   0.698   3.113
 9775SOL    HW230225   3.294   0.742   3.215
 9776SOL     OW30226   1.150   4.397   4.993
 9776SOL    HW130227   1.176   4.485   5.032
 9776SOL    HW230228   1.205   4.325   5.034
 9777SOL     OW30229   6.178   5.868   0.122
 9777SOL    HW130230   6.084   5.886   0.094
 9777SOL    HW230231   6.237   5.942   0.091
 9778SOL     OW30232   0.447   1.211   4.155
 9778SOL    HW130233   0.425   1.123   4.113
 9778SOL    HW230234   0.419   1.211   4.251
 9779SOL     OW30235   1.061   1.528   4.152
 9779SOL    HW130236   1.110   1.582   4.084
 9779SOL    HW230237   1.042   1.584   4.233
 9780SOL     OW30238   2.272   2.380   1.028
 9780SOL    HW130239   2.246   2.316   1.100
 9780SOL    HW230240   2.338   2.446   1.065
 9781SOL     OW30241   2.245   2.721   4.611
 9781SOL    HW130242   2.332   2.674   4.624
 9781SOL    HW230243   2.241   2.801   4.670
 9782SOL     OW30244   0.021   1.074   1.245
 9782SOL    HW130245   0.111   1.106   1.275
 9782SOL    HW230246   0.019   0.974   1.245
 9783SOL     OW30247   4.327   2.095   3.566
 9783SOL    HW130248   4.255   2.071   3.501
 9783SOL    HW230249   4.409   2.042   3.547
 9784SOL     OW30250   2.758   1.931   5.759
 9784SOL    HW130251   2.725   2.015   5.715
 9784SOL    HW230252   2.695   1.905   5.832
 9785SOL     OW30253   1.309   2.555   6.127
 9785SOL    HW130254   1.372   2.633   6.134
 9785SOL    HW230255   1.355   2.479   6.082
 9786SOL     OW30256   2.415   4.135   0.097
 9786SOL    HW130257   2.411   4.047   0.145
 9786SOL    HW230258   2.345   4.137   0.026
 9787SOL     OW30259   3.294   3.874   2.630
 9787SOL    HW130260   3.207   3.924   2.621
 9787SOL    HW230261   3.330   3.887   2.722
 9788SOL     OW30262   1.285   0.325   3.488
 9788SOL    HW130263   1.347   0.386   3.538
 9788SOL    HW230264   1.205   0.305   3.545
 9789SOL     OW30265   2.067   5.959   0.504
 9789SOL    HW130266   2.020   5.985   0.588
 9789SOL    HW230267   2.019   5.998   0.426
 9790SOL     OW30268   6.624   4.584   6.414
 9790SOL    HW130269   6.570   4.502   6.435
 9790SOL    HW230270   6.587   4.662   6.464
 9791SOL     OW30271   0.096   1.029   0.931
 9791SOL    HW130272   0.138   1.104   0.983
 9791SOL    HW230273   0.007   1.008   0.970
 9792SOL     OW30274   3.985   4.364   0.356
 9792SOL    HW130275   4.068   4.404   0.319
 9792SOL    HW230276   3.906   4.417   0.325
 9793SOL     OW30277   4.408   6.668   2.662
 9793SOL    HW130278   4.455   6.673   2.750
 9793SOL    HW230279   4.375   6.574   2.647
 9794SOL     OW30280   0.175   4.237   6.819
 9794SOL    HW130281   0.185   4.172   6.744
 9794SOL    HW230282   0.243   4.216   6.890
 9795SOL     OW30283   2.184   1.759   4.494
 9795SOL    HW130284   2.188   1.764   4.594
 9795SOL    HW230285   2.139   1.841   4.458
 9796SOL     OW30286   3.140   3.018   2.401
 9796SOL    HW130287   3.178   2.952   2.336
 9796SOL    HW230288   3.090   3.089   2.351
 9797SOL     OW30289   1.922   5.991   6.983
 9797SOL    HW130290   1.936   5.893   6.974
 9797SOL    HW230291   1.825   6.010   6.999
 9798SOL     OW30292   2.826   0.159   2.550
 9798SOL    HW130293   2.755   0.118   2.493
 9798SOL    HW230294   2.804   0.255   2.568
 9799SOL     OW30295   3.039   3.480   5.153
 9799SOL    HW130296   3.023   3.575   5.128
 9799SOL    HW230297   3.122   3.473   5.208
 9800SOL     OW30298   4.093   5.186   5.000
 9800SOL    HW130299   4.000   5.161   4.973
 9800SOL    HW230300   4.089   5.266   5.060
 9801SOL     OW30301   4.420   4.255   0.111
 9801SOL    HW130302   4.349   4.216   0.054
 9801SOL    HW230303   4.381   4.282   0.199
 9802SOL     OW30304   0.027   4.117   1.827
 9802SOL    HW130305   6.968   4.071   1.789
 9802SOL    HW230306   0.092   4.136   1.754
 9803SOL     OW30307   1.773   2.373   6.697
 9803SOL    HW130308   1.773   2.399   6.794
 9803SOL    HW230309   1.679   2.358   6.667
 9804SOL     OW30310   1.247   5.942   3.374
 9804SOL    HW130311   1.176   5.914   3.439
 9804SOL    HW230312   1.240   5.887   3.291
 9805SOL     OW30313   1.082   6.520   4.317
 9805SOL    HW130314   1.102   6.426   4.289
 9805SOL    HW230315   1.102   6.583   4.242
 9806SOL     OW30316   1.236   1.243   6.745
 9806SOL    HW130317   1.235   1.198   6.834
 9806SOL    HW230318   1.167   1.202   6.686
 9807SOL     OW30319   3.082   4.454   0.241
 9807SOL    HW130320   3.164   4.399   0.257
 9807SOL    HW230321   3.006   4.393   0.217
 9808SOL     OW30322   4.181   0.247   5.493
 9808SOL    HW130323   4.217   0.195   5.415
 9808SOL    HW230324   4.117   0.190   5.544
 9809SOL     OW30325   1.532   2.697   6.119
 9809SOL    HW130326   1.618   2.657   6.088
 9809SOL    HW230327   1.539   2.719   6.216
 9810SOL     OW30328   1.824   2.739   3.858
 9810SOL    HW130329   1.904   2.703   3.907
 9810SOL    HW230330   1.854   2.809   3.794
 9811SOL     OW30331   5.214   4.629   3.205
 9811SOL    HW130332   5.213   4.716   3.253
 9811SOL    HW230333   5.123   4.587   3.210
 9812SOL     OW30334   3.579   2.702   5.830
 9812SOL    HW130335   3.634   2.620   5.843
 9812SOL    HW230336   3.556   2.711   5.733
 9813SOL     OW30337   5.200   1.442   0.926
 9813SOL    HW130338   5.278   1.379   0.925
 9813SOL    HW230339   5.232   1.536   0.936
 9814SOL     OW30340   6.728   0.172   0.358
 9814SOL    HW130341   6.662   0.102   0.388
 9814SOL    HW230342   6.795   0.187   0.430
 9815SOL     OW30343   5.492   4.509   4.133
 9815SOL    HW130344   5.446   4.564   4.203
 9815SOL    HW230345   5.479   4.412   4.154
 9816SOL     OW30346   0.799   1.418   6.434
 9816SOL    HW130347   0.701   1.424   6.449
 9816SOL    HW230348   0.843   1.381   6.516
 9817SOL     OW30349   3.066   6.927   3.409
 9817SOL    HW130350   3.141   6.874   3.450
 9817SOL    HW230351   3.011   6.968   3.482
 9818SOL     OW30352   1.443   0.726   4.116
 9818SOL    HW130353   1.542   0.716   4.121
 9818SOL    HW230354   1.399   0.656   4.173
 9819SOL     OW30355   4.899   3.127   3.767
 9819SOL    HW130356   4.913   3.196   3.838
 9819SOL    HW230357   4.971   3.058   3.774
 9820SOL     OW30358   4.313   3.499   6.800
 9820SOL    HW130359   4.355   3.492   6.710
 9820SOL    HW230360   4.374   3.547   6.862
 9821SOL     OW30361   5.210   0.886   6.549
 9821SOL    HW130362   5.119   0.862   6.516
 9821SOL    HW230363   5.250   0.807   6.597
 9822SOL     OW30364   2.511   6.124   3.532
 9822SOL    HW130365   2.498   6.182   3.613
 9822SOL    HW230366   2.604   6.135   3.497
 9823SOL     OW30367   2.598   1.177   0.048
 9823SOL    HW130368   2.639   1.114   7.003
 9823SOL    HW230369   2.641   1.267   0.039
 9824SOL     OW30370   1.981   4.783   4.676
 9824SOL    HW130371   1.940   4.712   4.619
 9824SOL    HW230372   1.966   4.873   4.633
 9825SOL     OW30373   5.163   5.612   4.953
 9825SOL    HW130374   5.092   5.557   4.997
 9825SOL    HW230375   5.127   5.704   4.935
 9826SOL     OW30376   4.532   5.283   5.606
 9826SOL    HW130377   4.525   5.320   5.513
 9826SOL    HW230378   4.448   5.302   5.656
 9827SOL     OW30379   2.155   3.538   3.877
 9827SOL    HW130380   2.176   3.482   3.797
 9827SOL    HW230381   2.172   3.634   3.855
 9828SOL     OW30382   2.381   2.441   5.592
 9828SOL    HW130383   2.406   2.386   5.671
 9828SOL    HW230384   2.302   2.498   5.614
 9829SOL     OW30385   3.776   5.241   6.141
 9829SOL    HW130386   3.865   5.205   6.113
 9829SOL    HW230387   3.779   5.341   6.139
 9830SOL     OW30388   5.565   2.256   2.314
 9830SOL    HW130389   5.481   2.294   2.353
 9830SOL    HW230390   5.546   2.221   2.222
 9831SOL     OW30391   2.440   5.465   1.287
 9831SOL    HW130392   2.533   5.497   1.270
 9831SOL    HW230393   2.390   5.460   1.201
 9832SOL     OW30394   4.881   6.128   2.520
 9832SOL    HW130395   4.921   6.177   2.442
 9832SOL    HW230396   4.869   6.032   2.495
 9833SOL     OW30397   2.862   3.582   4.893
 9833SOL    HW130398   2.888   3.537   4.807
 9833SOL    HW230399   2.832   3.513   4.958
 9834SOL     OW30400   2.645   4.310   5.276
 9834SOL    HW130401   2.723   4.278   5.330
 9834SOL    HW230402   2.568   4.248   5.289
 9835SOL     OW30403   4.123   3.305   5.006
 9835SOL    HW130404   4.167   3.253   4.933
 9835SOL    HW230405   4.191   3.325   5.077
 9836SOL     OW30406   6.857   4.319   3.918
 9836SOL    HW130407   6.944   4.272   3.904
 9836SOL    HW230408   6.790   4.253   3.953
 9837SOL     OW30409   3.660   0.016   2.346
 9837SOL    HW130410   3.717   0.057   2.417
 9837SOL    HW230411   3.598   0.085   2.308
 9838SOL     OW30412   1.638   6.617   0.122
 9838SOL    HW130413   1.576   6.668   0.063
 9838SOL    HW230414   1.588   6.546   0.171
 9839SOL     OW30415   5.042   0.148   3.547
 9839SOL    HW130416   5.076   0.100   3.467
 9839SOL    HW230417   5.114   0.152   3.617
 9840SOL     OW30418   5.458   1.961   0.877
 9840SOL    HW130419   5.557   1.949   0.879
 9840SOL    HW230420   5.422   1.930   0.789
 9841SOL     OW30421   1.579   4.763   4.776
 9841SOL    HW130422   1.596   4.861   4.779
 9841SOL    HW230423   1.489   4.746   4.735
 9842SOL     OW30424   3.436   3.409   1.617
 9842SOL    HW130425   3.365   3.380   1.681
 9842SOL    HW230426   3.398   3.414   1.525
 9843SOL     OW30427   6.417   0.843   1.670
 9843SOL    HW130428   6.515   0.833   1.690
 9843SOL    HW230429   6.405   0.909   1.597
 9844SOL     OW30430   6.384   0.811   2.749
 9844SOL    HW130431   6.466   0.783   2.699
 9844SOL    HW230432   6.356   0.902   2.719
 9845SOL     OW30433   2.298   2.816   3.235
 9845SOL    HW130434   2.312   2.745   3.166
 9845SOL    HW230435   2.303   2.775   3.326
 9846SOL     OW30436   3.823   3.028   2.099
 9846SOL    HW130437   3.882   3.016   2.179
 9846SOL    HW230438   3.820   3.125   2.075
 9847SOL     OW30439   3.564   2.892   3.570
 9847SOL    HW130440   3.560   2.831   3.650
 9847SOL    HW230441   3.567   2.987   3.602
 9848SOL     OW30442   4.317   3.377   5.231
 9848SOL    HW130443   4.378   3.452   5.204
 9848SOL    HW230444   4.233   3.415   5.269
 9849SOL     OW30445   0.799   6.832   6.637
 9849SOL    HW130446   0.847   6.880   6.564
 9849SOL    HW230447   0.763   6.746   6.601
 9850SOL     OW30448   6.046   6.927   4.396
 9850SOL    HW130449   6.069   6.829   4.394
 9850SOL    HW230450   6.126   6.980   4.424
 9851SOL     OW30451   6.989   0.358   4.434
 9851SOL    HW130452   0.061   0.344   4.467
 9851SOL    HW230453   6.991   0.411   4.349
 9852SOL     OW30454   3.484   1.613   3.729
 9852SOL    HW130455   3.546   1.591   3.805
 9852SOL    HW230456   3.393   1.576   3.749
 9853SOL     OW30457   4.952   3.972   4.542
 9853SOL    HW130458   4.926   3.876   4.536
 9853SOL    HW230459   4.908   4.014   4.622
 9854SOL     OW30460   6.696   5.681   4.977
 9854SOL    HW130461   6.626   5.753   4.969
 9854SOL    HW230462   6.659   5.595   4.941
 9855SOL     OW30463   1.756   3.984   1.016
 9855SOL    HW130464   1.796   4.054   0.957
 9855SOL    HW230465   1.820   3.908   1.026
 9856SOL     OW30466   4.684   4.311   4.516
 9856SOL    HW130467   4.680   4.284   4.612
 9856SOL    HW230468   4.710   4.408   4.510
 9857SOL     OW30469   4.779   2.346   2.731
 9857SOL    HW130470   4.729   2.265   2.699
 9857SOL    HW230471   4.837   2.320   2.808
 9858SOL     OW30472   6.940   0.921   2.116
 9858SOL    HW130473   6.994   0.933   2.199
 9858SOL    HW230474   6.987   0.857   2.054
 9859SOL     OW30475   6.261   6.316   2.837
 9859SOL    HW130476   6.201   6.366   2.899
 9859SOL    HW230477   6.300   6.380   2.770
 9860SOL     OW30478   1.854   1.871   3.532
 9860SOL    HW130479   1.881   1.860   3.628
 9860SOL    HW230480   1.850   1.968   3.509
 9861SOL     OW30481   3.143   0.481   3.429
 9861SOL    HW130482   3.147   0.428   3.344
 9861SOL    HW230483   3.050   0.479   3.465
 9862SOL     OW30484   3.600   2.980   6.634
 9862SOL    HW130485   3.620   3.068   6.676
 9862SOL    HW230486   3.663   2.911   6.668
 9863SOL     OW30487   3.796   6.821   2.504
 9863SOL    HW130488   3.740   6.871   2.439
 9863SOL    HW230489   3.893   6.841   2.487
 9864SOL     OW30490   3.729   6.593   3.743
 9864SOL    HW130491   3.734   6.692   3.757
 9864SOL    HW230492   3.754   6.570   3.649
 9865SOL     OW30493   1.843   6.995   4.326
 9865SOL    HW130494   1.838   6.918   4.388
 9865SOL    HW230495   1.888   6.967   4.241
 9866SOL     OW30496   4.723   4.572   6.270
 9866SOL    HW130497   4.794   4.502   6.264
 9866SOL    HW230498   4.642   4.534   6.315
 9867SOL     OW30499   6.698   1.757   1.058
 9867SOL    HW130500   6.622   1.821   1.051
 9867SOL    HW230501   6.663   1.664   1.065
 9868SOL     OW30502   0.822   3.437   5.209
 9868SOL    HW130503   0.818   3.443   5.109
 9868SOL    HW230504   0.853   3.524   5.246
 9869SOL     OW30505   1.042   2.442   1.695
 9869SOL    HW130506   1.061   2.417   1.600
 9869SOL    HW230507   1.014   2.360   1.746
 9870SOL     OW30508   3.864   5.643   2.388
 9870SOL    HW130509   3.886   5.679   2.298
 9870SOL    HW230510   3.795   5.571   2.379
 9871SOL     OW30511   6.897   5.463   6.226
 9871SOL    HW130512   6.944   5.491   6.142
 9871SOL    HW230513   6.805   5.431   6.203
 9872SOL     OW30514   2.668   5.241   5.092
 9872SOL    HW130515   2.766   5.244   5.112
 9872SOL    HW230516   2.650   5.172   5.022
 9873SOL     OW30517   2.317   2.536   0.624
 9873SOL    HW130518   2.380   2.564   0.552
 9873SOL    HW230519   2.223   2.556   0.596
 9874SOL     OW30520   5.559   3.347   4.817
 9874SOL    HW130521   5.606   3.429   4.847
 9874SOL    HW230522   5.467   3.372   4.784
 9875SOL     OW30523   6.044   5.760   1.589
 9875SOL    HW130524   6.070   5.781   1.495
 9875SOL    HW230525   5.959   5.708   1.589
 9876SOL     OW30526   5.743   0.882   3.943
 9876SOL    HW130527   5.697   0.794   3.934
 9876SOL    HW230528   5.758   0.922   3.853
 9877SOL     OW30529   6.571   5.181   4.441
 9877SOL    HW130530   6.607   5.151   4.529
 9877SOL    HW230531   6.541   5.101   4.388
 9878SOL     OW30532   2.666   4.290   5.562
 9878SOL    HW130533   2.575   4.250   5.558
 9878SOL    HW230534   2.724   4.236   5.623
 9879SOL     OW30535   5.172   5.868   5.500
 9879SOL    HW130536   5.164   5.829   5.408
 9879SOL    HW230537   5.245   5.937   5.500
 9880SOL     OW30538   3.619   0.649   0.235
 9880SOL    HW130539   3.549   0.658   0.165
 9880SOL    HW230540   3.685   0.723   0.226
 9881SOL     OW30541   1.511   1.658   4.867
 9881SOL    HW130542   1.512   1.579   4.928
 9881SOL    HW230543   1.431   1.653   4.808
 9882SOL     OW30544   1.836   3.736   5.020
 9882SOL    HW130545   1.917   3.748   5.078
 9882SOL    HW230546   1.865   3.705   4.929
 9883SOL     OW30547   1.282   6.096   0.820
 9883SOL    HW130548   1.301   6.184   0.865
 9883SOL    HW230549   1.187   6.095   0.789
 9884SOL     OW30550   4.721   2.315   1.283
 9884SOL    HW130551   4.657   2.288   1.355
 9884SOL    HW230552   4.681   2.294   1.193
 9885SOL     OW30553   6.887   2.141   4.783
 9885SOL    HW130554   6.872   2.162   4.879
 9885SOL    HW230555   6.970   2.188   4.751
 9886SOL     OW30556   1.428   5.220   1.877
 9886SOL    HW130557   1.490   5.209   1.798
 9886SOL    HW230558   1.358   5.149   1.874
 9887SOL     OW30559   3.986   0.624   0.051
 9887SOL    HW130560   3.966   0.574   6.989
 9887SOL    HW230561   3.904   0.672   0.082
 9888SOL     OW30562   5.253   4.902   2.641
 9888SOL    HW130563   5.265   4.803   2.650
 9888SOL    HW230564   5.323   4.949   2.696
 9889SOL     OW30565   6.030   4.517   0.682
 9889SOL    HW130566   5.998   4.445   0.744
 9889SOL    HW230567   5.952   4.560   0.638
 9890SOL     OW30568   0.660   2.616   1.462
 9890SOL    HW130569   0.583   2.671   1.495
 9890SOL    HW230570   0.732   2.613   1.532
 9891SOL     OW30571   6.048   3.197   1.735
 9891SOL    HW130572   6.062   3.149   1.822
 9891SOL    HW230573   6.024   3.132   1.664
 9892SOL     OW30574   1.758   4.886   2.400
 9892SOL    HW130575   1.745   4.984   2.389
 9892SOL    HW230576   1.679   4.837   2.364
 9893SOL     OW30577   6.608   0.690   2.570
 9893SOL    HW130578   6.690   0.633   2.561
 9893SOL    HW230579   6.527   0.635   2.553
 9894SOL     OW30580   3.099   2.008   6.849
 9894SOL    HW130581   3.108   1.918   6.893
 9894SOL    HW230582   3.040   2.066   6.904
 9895SOL     OW30583   4.996   3.896   5.309
 9895SOL    HW130584   5.034   3.865   5.396
 9895SOL    HW230585   4.910   3.849   5.292
 9896SOL     OW30586   5.478   1.440   1.180
 9896SOL    HW130587   5.485   1.343   1.154
 9896SOL    HW230588   5.437   1.492   1.105
 9897SOL     OW30589   5.878   7.018   2.220
 9897SOL    HW130590   5.849   7.005   2.315
 9897SOL    HW230591   5.900   0.092   2.206
 9898SOL     OW30592   0.723   4.728   6.189
 9898SOL    HW130593   0.712   4.774   6.278
 9898SOL    HW230594   0.702   4.792   6.116
 9899SOL     OW30595   1.115   5.008   2.102
 9899SOL    HW130596   1.136   5.070   2.027
 9899SOL    HW230597   1.154   4.918   2.082
 9900SOL     OW30598   1.615   3.019   2.040
 9900SOL    HW130599   1.515   3.015   2.047
 9900SOL    HW230600   1.651   2.925   2.039
 9901SOL     OW30601   2.912   0.781   6.858
 9901SOL    HW130602   2.930   0.682   6.864
 9901SOL    HW230603   2.973   0.822   6.790
 9902SOL     OW30604   3.785   4.353   1.442
 9902SOL    HW130605   3.742   4.318   1.525
 9902SOL    HW230606   3.787   4.281   1.373
 9903SOL     OW30607   5.678   1.566   1.538
 9903SOL    HW130608   5.619   1.615   1.603
 9903SOL    HW230609   5.664   1.602   1.446
 9904SOL     OW30610   0.076   3.921   6.340
 9904SOL    HW130611   0.056   4.008   6.294
 9904SOL    HW230612   0.143   3.870   6.287
 9905SOL     OW30613   2.346   0.550   5.897
 9905SOL    HW130614   2.323   0.606   5.817
 9905SOL    HW230615   2.351   0.609   5.978
 9906SOL     OW30616   1.937   3.497   0.795
 9906SOL    HW130617   1.915   3.419   0.735
 9906SOL    HW230618   1.856   3.555   0.805
 9907SOL     OW30619   1.173   0.635   1.673
 9907SOL    HW130620   1.229   0.603   1.749
 9907SOL    HW230621   1.211   0.600   1.587
 9908SOL     OW30622   6.756   2.488   5.098
 9908SOL    HW130623   6.824   2.475   5.170
 9908SOL    HW230624   6.713   2.577   5.109
 9909SOL     OW30625   4.069   1.079   2.659
 9909SOL    HW130626   4.051   0.981   2.655
 9909SOL    HW230627   4.055   1.112   2.753
 9910SOL     OW30628   1.433   5.128   1.309
 9910SOL    HW130629   1.348   5.181   1.310
 9910SOL    HW230630   1.416   5.038   1.270
 9911SOL     OW30631   2.891   5.797   1.760
 9911SOL    HW130632   2.915   5.760   1.670
 9911SOL    HW230633   2.793   5.784   1.776
 9912SOL     OW30634   3.697   1.257   0.805
 9912SOL    HW130635   3.760   1.312   0.751
 9912SOL    HW230636   3.604   1.268   0.768
 9913SOL     OW30637   5.771   3.095   0.876
 9913SOL    HW130638   5.740   3.064   0.966
 9913SOL    HW230639   5.834   3.028   0.837
 9914SOL     OW30640   6.949   6.876   5.941
 9914SOL    HW130641   6.952   6.776   5.947
 9914SOL    HW230642   6.999   6.915   6.019
 9915SOL     OW30643   5.632   0.787   3.600
 9915SOL    HW130644   5.719   0.829   3.626
 9915SOL    HW230645   5.650   0.700   3.555
 9916SOL     OW30646   1.986   2.163   3.209
 9916SOL    HW130647   2.025   2.254   3.221
 9916SOL    HW230648   2.059   2.098   3.188
 9917SOL     OW30649   3.539   3.692   5.376
 9917SOL    HW130650   3.461   3.754   5.382
 9917SOL    HW230651   3.510   3.605   5.336
 9918SOL     OW30652   1.187   3.129   2.592
 9918SOL    HW130653   1.134   3.153   2.511
 9918SOL    HW230654   1.198   3.210   2.650
 9919SOL     OW30655   2.595   5.414   2.120
 9919SOL    HW130656   2.679   5.414   2.066
 9919SOL    HW230657   2.615   5.444   2.213
 9920SOL     OW30658   4.743   0.588   2.403
 9920SOL    HW130659   4.673   0.660   2.405
 9920SOL    HW230660   4.827   0.622   2.445
 9921SOL     OW30661   4.587   6.920   4.757
 9921SOL    HW130662   4.678   6.887   4.780
 9921SOL    HW230663   4.559   6.883   4.668
 9922SOL     OW30664   3.766   4.231   1.160
 9922SOL    HW130665   3.765   4.166   1.084
 9922SOL    HW230666   3.673   4.246   1.193
 9923SOL     OW30667   6.144   3.741   0.366
 9923SOL    HW130668   6.044   3.739   0.366
 9923SOL    HW230669   6.175   3.834   0.346
 9924SOL     OW30670   5.250   1.628   3.154
 9924SOL    HW130671   5.224   1.723   3.168
 9924SOL    HW230672   5.255   1.608   3.056
 9925SOL     OW30673   0.534   4.792   3.671
 9925SOL    HW130674   0.503   4.868   3.729
 9925SOL    HW230675   0.561   4.715   3.729
 9926SOL     OW30676   3.698   2.901   0.656
 9926SOL    HW130677   3.657   2.943   0.575
 9926SOL    HW230678   3.795   2.924   0.659
 9927SOL     OW30679   1.055   1.266   0.474
 9927SOL    HW130680   1.136   1.320   0.451
 9927SOL    HW230681   0.977   1.300   0.422
 9928SOL     OW30682   5.422   4.212   3.267
 9928SOL    HW130683   5.400   4.250   3.178
 9928SOL    HW230684   5.444   4.286   3.331
 9929SOL     OW30685   3.812   4.067   4.225
 9929SOL    HW130686   3.890   4.048   4.165
 9929SOL    HW230687   3.840   4.058   4.320
 9930SOL     OW30688   0.713   6.715   6.184
 9930SOL    HW130689   0.704   6.615   6.182
 9930SOL    HW230690   0.801   6.741   6.145
 9931SOL     OW30691   6.784   5.997   4.068
 9931SOL    HW130692   6.746   5.992   3.976
 9931SOL    HW230693   6.715   5.970   4.135
 9932SOL     OW30694   2.608   2.571   5.858
 9932SOL    HW130695   2.577   2.627   5.781
 9932SOL    HW230696   2.681   2.619   5.907
 9933SOL     OW30697   1.666   6.726   4.228
 9933SOL    HW130698   1.735   6.795   4.205
 9933SOL    HW230699   1.655   6.664   4.151
 9934SOL     OW30700   6.998   2.004   6.270
 9934SOL    HW130701   6.968   1.912   6.245
 9934SOL    HW230702   6.941   2.038   6.345
 9935SOL     OW30703   2.658   7.001   1.289
 9935SOL    HW130704   2.736   0.031   1.322
 9935SOL    HW230705   2.639   0.003   1.194
 9936SOL     OW30706   6.876   4.894   0.615
 9936SOL    HW130707   6.897   4.899   0.713
 9936SOL    HW230708   6.781   4.922   0.600
 9937SOL     OW30709   0.447   1.288   1.890
 9937SOL    HW130710   0.474   1.207   1.942
 9937SOL    HW230711   0.407   1.355   1.953
 9938SOL     OW30712   5.776   5.357   4.276
 9938SOL    HW130713   5.697   5.309   4.240
 9938SOL    HW230714   5.838   5.381   4.201
 9939SOL     OW30715   3.355   2.904   1.014
 9939SOL    HW130716   3.391   2.874   1.103
 9939SOL    HW230717   3.337   3.002   1.017
 9940SOL     OW30718   1.156   0.163   2.272
 9940SOL    HW130719   1.074   0.207   2.235
 9940SOL    HW230720   1.200   0.223   2.338
 9941SOL     OW30721   3.074   4.381   6.097
 9941SOL    HW130722   3.115   4.471   6.109
 9941SOL    HW230723   3.025   4.377   6.010
 9942SOL     OW30724   3.932   5.263   2.337
 9942SOL    HW130725   3.846   5.214   2.324
 9942SOL    HW230726   3.929   5.349   2.285
 9943SOL     OW30727   0.783   4.938   6.826
 9943SOL    HW130728   0.685   4.944   6.809
 9943SOL    HW230729   0.833   4.956   6.742
 9944SOL     OW30730   0.745   4.528   6.683
 9944SOL    HW130731   0.788   4.607   6.638
 9944SOL    HW230732   0.676   4.489   6.623
 9945SOL     OW30733   4.698   5.504   0.078
 9945SOL    HW130734   4.703   5.406   0.098
 9945SOL    HW230735   4.625   5.520   0.011
 9946SOL     OW30736   6.669   0.022   3.171
 9946SOL    HW130737   6.719   0.071   3.099
 9946SOL    HW230738   6.653   0.082   3.249
 9947SOL     OW30739   2.703   2.323   4.652
 9947SOL    HW130740   2.678   2.227   4.668
 9947SOL    HW230741   2.743   2.361   4.735
 9948SOL     OW30742   6.636   5.419   4.867
 9948SOL    HW130743   6.719   5.382   4.910
 9948SOL    HW230744   6.556   5.370   4.901
 9949SOL     OW30745   0.382   4.934   3.877
 9949SOL    HW130746   0.406   5.017   3.827
 9949SOL    HW230747   0.283   4.922   3.877
 9950SOL     OW30748   6.008   6.352   0.063
 9950SOL    HW130749   5.909   6.357   0.056
 9950SOL    HW230750   6.034   6.273   0.120
 9951SOL     OW30751   1.131   2.683   3.196
 9951SOL    HW130752   1.120   2.782   3.202
 9951SOL    HW230753   1.044   2.638   3.218
 9952SOL     OW30754   1.515   4.300   0.516
 9952SOL    HW130755   1.461   4.316   0.599
 9952SOL    HW230756   1.609   4.277   0.541
 9953SOL     OW30757   6.131   1.835   3.947
 9953SOL    HW130758   6.157   1.815   4.042
 9953SOL    HW230759   6.081   1.921   3.943
 9954SOL     OW30760   1.215   0.010   5.176
 9954SOL    HW130761   1.249   7.002   5.265
 9954SOL    HW230762   1.277   7.000   5.104
 9955SOL     OW30763   4.347   3.861   6.604
 9955SOL    HW130764   4.298   3.889   6.521
 9955SOL    HW230765   4.441   3.838   6.580
 9956SOL     OW30766   0.479   5.178   3.815
 9956SOL    HW130767   0.416   5.250   3.843
 9956SOL    HW230768   0.545   5.161   3.889
 9957SOL     OW30769   6.193   0.270   1.729
 9957SOL    HW130770   6.256   0.325   1.784
 9957SOL    HW230771   6.227   0.176   1.723
 9958SOL     OW30772   2.848   6.041   0.050
 9958SOL    HW130773   2.913   6.029   0.125
 9958SOL    HW230774   2.897   6.059   6.987
 9959SOL     OW30775   4.027   3.689   3.323
 9959SOL    HW130776   3.929   3.704   3.314
 9959SOL    HW230777   4.076   3.762   3.276
 9960SOL     OW30778   0.655   0.041   2.647
 9960SOL    HW130779   0.640   6.987   2.585
 9960SOL    HW230780   0.724   0.103   2.609
 9961SOL     OW30781   1.563   4.902   4.353
 9961SOL    HW130782   1.464   4.889   4.354
 9961SOL    HW230783   1.585   4.993   4.387
 9962SOL     OW30784   4.645   0.589   2.815
 9962SOL    HW130785   4.742   0.595   2.791
 9962SOL    HW230786   4.591   0.645   2.751
 9963SOL     OW30787   2.301   2.294   6.440
 9963SOL    HW130788   2.286   2.202   6.403
 9963SOL    HW230789   2.294   2.291   6.540
 9964SOL     OW30790   4.001   4.296   6.105
 9964SOL    HW130791   4.042   4.271   6.018
 9964SOL    HW230792   4.011   4.395   6.120
 9965SOL     OW30793   3.675   4.858   5.227
 9965SOL    HW130794   3.585   4.848   5.269
 9965SOL    HW230795   3.665   4.905   5.139
 9966SOL     OW30796   2.898   5.293   2.290
 9966SOL    HW130797   2.920   5.350   2.369
 9966SOL    HW230798   2.858   5.350   2.218
 9967SOL     OW30799   5.818   5.679   1.143
 9967SOL    HW130800   5.761   5.645   1.218
 9967SOL    HW230801   5.838   5.776   1.157
 9968SOL     OW30802   3.205   5.030   6.376
 9968SOL    HW130803   3.261   5.074   6.446
 9968SOL    HW230804   3.251   5.035   6.288
 9969SOL     OW30805   0.960   2.490   4.065
 9969SOL    HW130806   1.048   2.453   4.095
 9969SOL    HW230807   0.892   2.476   4.137
 9970SOL     OW30808   6.490   4.424   1.997
 9970SOL    HW130809   6.574   4.381   1.962
 9970SOL    HW230810   6.495   4.523   1.984
 9971SOL     OW30811   2.320   3.817   0.219
 9971SOL    HW130812   2.297   3.788   0.126
 9971SOL    HW230813   2.314   3.738   0.280
 9972SOL     OW30814   3.254   4.272   0.043
 9972SOL    HW130815   3.159   4.276   0.011
 9972SOL    HW230816   3.315   4.261   6.986
 9973SOL     OW30817   4.293   2.111   4.775
 9973SOL    HW130818   4.216   2.057   4.811
 9973SOL    HW230819   4.349   2.053   4.716
 9974SOL     OW30820   5.911   3.233   3.557
 9974SOL    HW130821   5.811   3.229   3.555
 9974SOL    HW230822   5.949   3.147   3.523
 9975SOL     OW30823   0.054   4.453   0.242
 9975SOL    HW130824   6.986   4.497   0.234
 9975SOL    HW230825   0.045   4.355   0.229
 9976SOL     OW30826   6.863   5.360   5.592
 9976SOL    HW130827   6.941   5.383   5.535
 9976SOL    HW230828   6.865   5.262   5.613
 9977SOL     OW30829   6.805   5.005   6.091
 9977SOL    HW130830   6.884   4.946   6.072
 9977SOL    HW230831   6.735   4.990   6.021
 9978SOL     OW30832   6.088   2.023   3.627
 9978SOL    HW130833   6.104   2.021   3.528
 9978SOL    HW230834   6.058   1.933   3.657
 9979SOL     OW30835   6.531   5.202   6.379
 9979SOL    HW130836   6.613   5.145   6.383
 9979SOL    HW230837   6.465   5.161   6.317
 9980SOL     OW30838   1.692   1.292   6.644
 9980SOL    HW130839   1.631   1.354   6.693
 9980SOL    HW230840   1.741   1.235   6.710
 9981SOL     OW30841   2.789   1.990   1.210
 9981SOL    HW130842   2.868   2.050   1.222
 9981SOL    HW230843   2.811   1.920   1.142
 9982SOL     OW30844   0.610   0.992   3.233
 9982SOL    HW130845   0.617   0.913   3.172
 9982SOL    HW230846   0.702   1.027   3.254
 9983SOL     OW30847   1.570   1.853   2.099
 9983SOL    HW130848   1.566   1.766   2.149
 9983SOL    HW230849   1.637   1.845   2.025
 9984SOL     OW30850   1.139   0.071   0.260
 9984SOL    HW130851   1.083   0.100   0.338
 9984SOL    HW230852   1.236   0.078   0.284
 9985SOL     OW30853   2.904   0.646   1.540
 9985SOL    HW130854   2.940   0.641   1.633
 9985SOL    HW230855   2.859   0.559   1.518
 9986SOL     OW30856   5.477   4.137   6.543
 9986SOL    HW130857   5.550   4.204   6.557
 9986SOL    HW230858   5.487   4.095   6.453
 9987SOL     OW30859   5.044   1.537   2.819
 9987SOL    HW130860   5.120   1.486   2.859
 9987SOL    HW230861   5.030   1.509   2.724
 9988SOL     OW30862   0.271   5.439   5.230
 9988SOL    HW130863   0.265   5.507   5.157
 9988SOL    HW230864   0.331   5.364   5.200
 9989SOL     OW30865   5.336   3.784   2.695
 9989SOL    HW130866   5.253   3.788   2.751
 9989SOL    HW230867   5.399   3.716   2.732
 9990SOL     OW30868   2.503   6.723   3.085
 9990SOL    HW130869   2.601   6.711   3.065
 9990SOL    HW230870   2.463   6.784   3.017
 9991SOL     OW30871   1.377   3.191   5.409
 9991SOL    HW130872   1.317   3.201   5.330
 9991SOL    HW230873   1.472   3.200   5.380
 9992SOL     OW30874   4.825   3.791   0.603
 9992SOL    HW130875   4.802   3.699   0.573
 9992SOL    HW230876   4.826   3.853   0.525
 9993SOL     OW30877   4.497   6.866   2.483
 9993SOL    HW130878   4.463   6.801   2.551
 9993SOL    HW230879   4.552   6.817   2.415
 9994SOL     OW30880   6.661   3.679   4.102
 9994SOL    HW130881   6.587   3.628   4.147
 9994SOL    HW230882   6.729   3.707   4.170
 9995SOL     OW30883   3.009   0.061   2.743
 9995SOL    HW130884   3.062   6.998   2.733
 9995SOL    HW230885   2.957   0.077   2.659
 9996SOL     OW30886   2.591   2.484   1.046
 9996SOL    HW130887   2.619   2.489   0.950
 9996SOL    HW230888   2.663   2.437   1.098
 9997SOL     OW30889   3.965   2.414   1.167
 9997SOL    HW130890   3.988   2.466   1.086
 9997SOL    HW230891   3.865   2.408   1.177
 9998SOL     OW30892   6.614   3.786   1.995
 9998SOL    HW130893   6.681   3.854   1.965
 9998SOL    HW230894   6.634   3.760   2.089
 9999SOL     OW30895   6.539   4.775   4.503
 9999SOL    HW130896   6.478   4.703   4.469
 9999SOL    HW230897   6.633   4.741   4.506
10000SOL     OW30898   5.712   2.509   0.083
10000SOL    HW130899   5.747   2.509   7.011
10000SOL    HW230900   5.662   2.425   0.100
10001SOL     OW30901   4.934   1.188   1.868
10001SOL    HW130902   4.911   1.282   1.843
10001SOL    HW230903   4.894   1.125   1.801
10002SOL     OW30904   1.277   0.643   1.264
10002SOL    HW130905   1.292   0.729   1.215
10002SOL    HW230906   1.182   0.639   1.296
10003SOL     OW30907   4.090   1.761   3.584
10003SOL    HW130908   4.169   1.762   3.645
10003SOL    HW230909   4.022   1.696   3.618
10004SOL     OW30910   4.693   2.893   4.406
10004SOL    HW130911   4.632   2.822   4.371
10004SOL    HW230912   4.756   2.854   4.472
10005SOL     OW30913   5.178   5.921   3.674
10005SOL    HW130914   5.139   5.948   3.762
10005SOL    HW230915   5.118   5.853   3.630
10006SOL     OW30916   5.461   0.736   4.354
10006SOL    HW130917   5.451   0.799   4.432
10006SOL    HW230918   5.533   0.670   4.374
10007SOL     OW30919   0.590   4.624   5.078
10007SOL    HW130920   0.604   4.526   5.064
10007SOL    HW230921   0.543   4.639   5.165
10008SOL     OW30922   4.461   1.310   4.155
10008SOL    HW130923   4.429   1.269   4.070
10008SOL    HW230924   4.458   1.410   4.147
10009SOL     OW30925   1.919   3.861   1.573
10009SOL    HW130926   1.994   3.923   1.551
10009SOL    HW230927   1.947   3.766   1.554
10010SOL     OW30928   2.123   6.879   6.898
10010SOL    HW130929   2.098   6.813   6.828
10010SOL    HW230930   2.041   6.910   6.946
10011SOL     OW30931   6.869   2.233   5.030
10011SOL    HW130932   6.963   2.268   5.031
10011SOL    HW230933   6.805   2.308   5.045
10012SOL     OW30934   5.008   7.016   2.893
10012SOL    HW130935   5.037   6.978   2.805
10012SOL    HW230936   5.089   0.007   2.951
10013SOL     OW30937   2.007   1.575   4.397
10013SOL    HW130938   1.919   1.623   4.386
10013SOL    HW230939   2.074   1.638   4.435
10014SOL     OW30940   6.432   2.834   0.089
10014SOL    HW130941   6.350   2.836   0.146
10014SOL    HW230942   6.413   2.784   0.005
10015SOL     OW30943   2.752   4.267   0.109
10015SOL    HW130944   2.668   4.320   0.118
10015SOL    HW230945   2.769   4.216   0.193
10016SOL     OW30946   2.437   0.304   4.740
10016SOL    HW130947   2.391   0.308   4.829
10016SOL    HW230948   2.438   0.210   4.707
10017SOL     OW30949   1.980   2.648   2.296
10017SOL    HW130950   2.049   2.635   2.225
10017SOL    HW230951   1.891   2.665   2.254
10018SOL     OW30952   5.305   6.618   5.812
10018SOL    HW130953   5.214   6.627   5.772
10018SOL    HW230954   5.334   6.522   5.810
10019SOL     OW30955   1.465   1.653   2.948
10019SOL    HW130956   1.450   1.555   2.943
10019SOL    HW230957   1.475   1.690   2.855
10020SOL     OW30958   0.363   2.507   1.679
10020SOL    HW130959   0.392   2.418   1.644
10020SOL    HW230960   0.341   2.499   1.776
10021SOL     OW30961   0.574   3.175   1.650
10021SOL    HW130962   0.624   3.101   1.607
10021SOL    HW230963   0.475   3.160   1.639
10022SOL     OW30964   3.393   0.018   0.724
10022SOL    HW130965   3.420   0.114   0.728
10022SOL    HW230966   3.365   7.010   0.816
10023SOL     OW30967   1.636   5.285   5.943
10023SOL    HW130968   1.548   5.320   5.972
10023SOL    HW230969   1.631   5.256   5.848
10024SOL     OW30970   2.472   6.701   1.869
10024SOL    HW130971   2.492   6.688   1.773
10024SOL    HW230972   2.388   6.755   1.879
10025SOL     OW30973   1.145   0.971   1.430
10025SOL    HW130974   1.212   0.898   1.416
10025SOL    HW230975   1.191   1.059   1.426
10026SOL     OW30976   4.869   6.585   3.829
10026SOL    HW130977   4.900   6.674   3.862
10026SOL    HW230978   4.913   6.566   3.741
10027SOL     OW30979   0.330   4.290   4.912
10027SOL    HW130980   0.355   4.375   4.866
10027SOL    HW230981   0.408   4.227   4.911
10028SOL     OW30982   1.309   1.981   1.530
10028SOL    HW130983   1.400   2.022   1.540
10028SOL    HW230984   1.262   1.981   1.618
10029SOL     OW30985   3.288   2.088   3.883
10029SOL    HW130986   3.247   2.103   3.973
10029SOL    HW230987   3.387   2.079   3.893
10030SOL     OW30988   2.465   6.308   3.753
10030SOL    HW130989   2.491   6.342   3.843
10030SOL    HW230990   2.433   6.384   3.696
10031SOL     OW30991   5.916   5.053   3.722
10031SOL    HW130992   6.005   5.040   3.678
10031SOL    HW230993   5.845   5.057   3.652
10032SOL     OW30994   3.177   1.124   5.472
10032SOL    HW130995   3.080   1.133   5.492
10032SOL    HW230996   3.230   1.136   5.556
10033SOL     OW30997   4.935   2.228   3.904
10033SOL    HW130998   4.881   2.149   3.876
10033SOL    HW230999   5.011   2.198   3.962
10034SOL     OW31000   3.101   0.310   4.100
10034SOL    HW131001   3.019   0.365   4.118
10034SOL    HW231002   3.111   0.297   4.001
10035SOL     OW31003   6.702   4.268   1.911
10035SOL    HW131004   6.722   4.302   1.820
10035SOL    HW231005   6.785   4.272   1.967
10036SOL     OW31006   5.400   1.619   0.962
10036SOL    HW131007   5.416   1.628   0.864
10036SOL    HW231008   5.399   1.709   1.004
10037SOL     OW31009   5.864   1.145   1.135
10037SOL    HW131010   5.801   1.124   1.211
10037SOL    HW231011   5.905   1.060   1.102
10038SOL     OW31012   4.030   0.831   6.696
10038SOL    HW131013   4.083   0.830   6.611
10038SOL    HW231014   4.042   0.920   6.741
10039SOL     OW31015   3.373   0.131   3.529
10039SOL    HW131016   3.274   0.146   3.526
10039SOL    HW231017   3.411   0.137   3.437
10040SOL     OW31018   4.257   5.661   6.330
10040SOL    HW131019   4.220   5.731   6.270
10040SOL    HW231020   4.207   5.661   6.417
10041SOL     OW31021   3.915   6.225   6.304
10041SOL    HW131022   3.945   6.299   6.244
10041SOL    HW231023   3.943   6.245   6.398
10042SOL     OW31024   1.221   1.764   4.557
10042SOL    HW131025   1.193   1.799   4.646
10042SOL    HW231026   1.141   1.755   4.498
10043SOL     OW31027   6.879   1.774   4.914
10043SOL    HW131028   6.952   1.838   4.938
10043SOL    HW231029   6.839   1.736   4.998
10044SOL     OW31030   2.717   1.517   5.027
10044SOL    HW131031   2.762   1.553   5.108
10044SOL    HW231032   2.785   1.484   4.962
10045SOL     OW31033   3.680   0.642   3.246
10045SOL    HW131034   3.739   0.723   3.242
10045SOL    HW231035   3.634   0.630   3.158
10046SOL     OW31036   2.070   4.110   0.805
10046SOL    HW131037   2.053   4.013   0.821
10046SOL    HW231038   2.122   4.121   0.720
10047SOL     OW31039   0.993   3.817   4.777
10047SOL    HW131040   1.046   3.753   4.832
10047SOL    HW231041   1.046   3.844   4.697
10048SOL     OW31042   6.247   0.810   2.996
10048SOL    HW131043   6.307   0.852   2.929
10048SOL    HW231044   6.187   0.880   3.035
10049SOL     OW31045   1.085   1.996   6.368
10049SOL    HW131046   1.087   1.979   6.466
10049SOL    HW231047   1.068   1.910   6.320
10050SOL     OW31048   5.237   3.633   4.485
10050SOL    HW131049   5.187   3.547   4.494
10050SOL    HW231050   5.213   3.694   4.560
10051SOL     OW31051   6.296   3.868   5.634
10051SOL    HW131052   6.307   3.776   5.597
10051SOL    HW231053   6.241   3.923   5.571
10052SOL     OW31054   2.069   1.059   2.921
10052SOL    HW131055   2.132   1.007   2.863
10052SOL    HW231056   2.009   1.114   2.864
10053SOL     OW31057   3.891   5.396   3.034
10053SOL    HW131058   3.867   5.302   3.009
10053SOL    HW231059   3.821   5.434   3.094
10054SOL     OW31060   5.251   6.168   6.436
10054SOL    HW131061   5.193   6.119   6.500
10054SOL    HW231062   5.314   6.228   6.486
10055SOL     OW31063   6.273   1.334   4.849
10055SOL    HW131064   6.174   1.333   4.843
10055SOL    HW231065   6.305   1.429   4.859
10056SOL     OW31066   5.423   4.305   2.998
10056SOL    HW131067   5.404   4.216   2.956
10056SOL    HW231068   5.433   4.374   2.926
10057SOL     OW31069   4.205   2.402   5.879
10057SOL    HW131070   4.255   2.385   5.794
10057SOL    HW231071   4.110   2.423   5.859
10058SOL     OW31072   6.485   3.801   5.288
10058SOL    HW131073   6.577   3.763   5.293
10058SOL    HW231074   6.458   3.833   5.379
10059SOL     OW31075   0.002   1.345   0.548
10059SOL    HW131076   7.015   1.272   0.615
10059SOL    HW231077   0.068   1.413   0.581
10060SOL     OW31078   2.300   2.822   2.310
10060SOL    HW131079   2.364   2.899   2.314
10060SOL    HW231080   2.266   2.813   2.216
10061SOL     OW31081   4.857   1.524   4.248
10061SOL    HW131082   4.897   1.575   4.172
10061SOL    HW231083   4.773   1.568   4.277
10062SOL     OW31084   5.502   0.138   3.926
10062SOL    HW131085   5.562   0.111   4.000
10062SOL    HW231086   5.451   0.221   3.952
10063SOL     OW31087   3.000   1.154   4.298
10063SOL    HW131088   3.046   1.102   4.370
10063SOL    HW231089   2.953   1.233   4.339
10064SOL     OW31090   5.059   6.845   0.496
10064SOL    HW131091   5.010   6.928   0.472
10064SOL    HW231092   4.994   6.775   0.525
10065SOL     OW31093   2.685   0.332   2.881
10065SOL    HW131094   2.656   0.278   2.960
10065SOL    HW231095   2.609   0.340   2.816
10066SOL     OW31096   0.616   2.233   4.542
10066SOL    HW131097   0.666   2.317   4.521
10066SOL    HW231098   0.679   2.156   4.546
10067SOL     OW31099   0.411   3.433   5.180
10067SOL    HW131100   0.322   3.396   5.156
10067SOL    HW231101   0.483   3.369   5.154
10068SOL     OW31102   0.460   3.566   3.571
10068SOL    HW131103   0.525   3.510   3.621
10068SOL    HW231104   0.505   3.606   3.491
10069SOL     OW31105   3.429   4.962   1.435
10069SOL    HW131106   3.411   4.973   1.533
10069SOL    HW231107   3.504   4.898   1.422
10070SOL     OW31108   0.085   6.364   4.993
10070SOL    HW131109   0.085   6.462   4.977
10070SOL    HW231110   0.060   6.316   4.909
10071SOL     OW31111   0.007   5.939   4.203
10071SOL    HW131112   0.082   5.902   4.149
10071SOL    HW231113   6.959   5.978   4.143
10072SOL     OW31114   0.583   0.072   4.422
10072SOL    HW131115   0.587   7.005   4.376
10072SOL    HW231116   0.586   0.145   4.353
10073SOL     OW31117   6.950   3.940   4.014
10073SOL    HW131118   6.863   3.958   3.969
10073SOL    HW231119   6.987   3.852   3.983
10074SOL     OW31120   2.035   0.303   6.345
10074SOL    HW131121   1.938   0.284   6.354
10074SOL    HW231122   2.083   0.218   6.322
10075SOL     OW31123   1.381   2.377   1.889
10075SOL    HW131124   1.439   2.420   1.820
10075SOL    HW231125   1.363   2.442   1.963
10076SOL     OW31126   5.803   6.333   3.121
10076SOL    HW131127   5.821   6.290   3.033
10076SOL    HW231128   5.842   6.425   3.121
10077SOL     OW31129   4.532   3.562   0.360
10077SOL    HW131130   4.483   3.634   0.310
10077SOL    HW231131   4.473   3.482   0.369
10078SOL     OW31132   6.356   6.070   4.213
10078SOL    HW131133   6.366   6.014   4.296
10078SOL    HW231134   6.323   6.161   4.238
10079SOL     OW31135   5.960   3.094   3.202
10079SOL    HW131136   6.050   3.136   3.209
10079SOL    HW231137   5.906   3.142   3.133
10080SOL     OW31138   5.588   1.129   6.306
10080SOL    HW131139   5.511   1.130   6.243
10080SOL    HW231140   5.609   1.035   6.333
10081SOL     OW31141   0.700   1.816   0.111
10081SOL    HW131142   0.654   1.729   0.092
10081SOL    HW231143   0.784   1.798   0.163
10082SOL     OW31144   0.616   5.618   2.015
10082SOL    HW131145   0.536   5.676   2.032
10082SOL    HW231146   0.585   5.529   1.980
10083SOL     OW31147   3.799   0.432   3.771
10083SOL    HW131148   3.872   0.421   3.704
10083SOL    HW231149   3.712   0.403   3.730
10084SOL     OW31150   1.347   0.550   5.693
10084SOL    HW131151   1.249   0.568   5.682
10084SOL    HW231152   1.389   0.541   5.603
10085SOL     OW31153   3.514   6.887   0.517
10085SOL    HW131154   3.488   6.954   0.587
10085SOL    HW231155   3.442   6.818   0.508
10086SOL     OW31156   5.805   5.864   2.961
10086SOL    HW131157   5.863   5.933   3.003
10086SOL    HW231158   5.712   5.898   2.954
10087SOL     OW31159   6.204   5.726   4.070
10087SOL    HW131160   6.245   5.678   4.147
10087SOL    HW231161   6.188   5.662   3.995
10088SOL     OW31162   0.041   7.021   2.578
10088SOL    HW131163   7.004   6.972   2.641
10088SOL    HW231164   0.092   0.070   2.628
10089SOL     OW31165   2.764   2.125   3.492
10089SOL    HW131166   2.837   2.080   3.440
10089SOL    HW231167   2.678   2.118   3.442
10090SOL     OW31168   0.120   5.029   1.679
10090SOL    HW131169   0.065   4.946   1.692
10090SOL    HW231170   0.101   5.092   1.754
10091SOL     OW31171   6.532   5.774   6.750
10091SOL    HW131172   6.476   5.718   6.810
10091SOL    HW231173   6.540   5.866   6.787
10092SOL     OW31174   1.697   2.996   6.381
10092SOL    HW131175   1.717   3.072   6.319
10092SOL    HW231176   1.763   2.997   6.457
10093SOL     OW31177   4.896   3.369   5.191
10093SOL    HW131178   4.831   3.294   5.207
10093SOL    HW231179   4.845   3.454   5.178
10094SOL     OW31180   2.713   6.243   1.436
10094SOL    HW131181   2.646   6.170   1.445
10094SOL    HW231182   2.795   6.220   1.488
10095SOL     OW31183   5.439   1.282   4.543
10095SOL    HW131184   5.353   1.329   4.559
10095SOL    HW231185   5.512   1.328   4.595
10096SOL     OW31186   4.730   6.468   2.394
10096SOL    HW131187   4.755   6.413   2.474
10096SOL    HW231188   4.799   6.458   2.323
10097SOL     OW31189   1.335   1.920   0.096
10097SOL    HW131190   1.344   1.998   0.035
10097SOL    HW231191   1.314   1.838   0.043
10098SOL     OW31192   2.959   7.001   5.214
10098SOL    HW131193   2.860   6.999   5.197
10098SOL    HW231194   2.977   0.031   5.298
10099SOL     OW31195   0.944   4.834   1.075
10099SOL    HW131196   0.891   4.814   1.158
10099SOL    HW231197   0.917   4.772   1.002
10100SOL     OW31198   5.234   6.256   5.365
10100SOL    HW131199   5.216   6.335   5.424
10100SOL    HW231200   5.292   6.284   5.288
10101SOL     OW31201   0.028   3.083   2.041
10101SOL    HW131202   0.058   2.996   2.001
10101SOL    HW231203   0.006   3.147   1.968
10102SOL     OW31204   6.939   0.909   1.688
10102SOL    HW131205   6.975   0.863   1.607
10102SOL    HW231206   7.013   0.958   1.734
10103SOL     OW31207   2.177   0.322   5.626
10103SOL    HW131208   2.188   0.410   5.581
10103SOL    HW231209   2.246   0.311   5.697
10104SOL     OW31210   1.631   1.737   5.530
10104SOL    HW131211   1.650   1.805   5.601
10104SOL    HW231212   1.556   1.769   5.472
10105SOL     OW31213   2.129   0.584   6.302
10105SOL    HW131214   2.066   0.585   6.224
10105SOL    HW231215   2.150   0.490   6.328
10106SOL     OW31216   3.587   6.568   0.427
10106SOL    HW131217   3.590   6.488   0.488
10106SOL    HW231218   3.597   6.651   0.481
10107SOL     OW31219   5.242   1.645   6.163
10107SOL    HW131220   5.235   1.550   6.192
10107SOL    HW231221   5.165   1.697   6.199
10108SOL     OW31222   6.843   1.542   0.433
10108SOL    HW131223   6.883   1.633   0.441
10108SOL    HW231224   6.901   1.476   0.482
10109SOL     OW31225   0.381   0.997   1.091
10109SOL    HW131226   0.332   0.938   1.026
10109SOL    HW231227   0.381   1.091   1.057
10110SOL     OW31228   4.938   4.693   4.115
10110SOL    HW131229   4.968   4.694   4.211
10110SOL    HW231230   4.999   4.635   4.062
10111SOL     OW31231   6.716   4.006   3.573
10111SOL    HW131232   6.682   3.962   3.490
10111SOL    HW231233   6.643   4.014   3.640
10112SOL     OW31234   5.740   2.976   2.734
10112SOL    HW131235   5.803   2.907   2.699
10112SOL    HW231236   5.779   3.067   2.718
10113SOL     OW31237   4.823   0.024   0.474
10113SOL    HW131238   4.789   6.997   0.393
10113SOL    HW231239   4.748   0.074   0.517
10114SOL     OW31240   4.173   2.207   2.203
10114SOL    HW131241   4.141   2.256   2.122
10114SOL    HW231242   4.246   2.259   2.246
10115SOL     OW31243   4.311   1.974   5.083
10115SOL    HW131244   4.232   1.977   5.145
10115SOL    HW231245   4.343   1.880   5.075
10116SOL     OW31246   0.538   6.540   6.790
10116SOL    HW131247   0.459   6.596   6.815
10116SOL    HW231248   0.520   6.445   6.815
10117SOL     OW31249   6.790   6.296   5.907
10117SOL    HW131250   6.846   6.235   5.851
10117SOL    HW231251   6.789   6.263   6.002
10118SOL     OW31252   2.378   4.877   3.570
10118SOL    HW131253   2.434   4.913   3.645
10118SOL    HW231254   2.420   4.794   3.535
10119SOL     OW31255   6.788   4.933   3.867
10119SOL    HW131256   6.725   4.973   3.933
10119SOL    HW231257   6.830   4.851   3.906
10120SOL     OW31258   1.707   3.701   4.301
10120SOL    HW131259   1.652   3.666   4.226
10120SOL    HW231260   1.654   3.768   4.353
10121SOL     OW31261   5.805   3.377   6.850
10121SOL    HW131262   5.753   3.297   6.821
10121SOL    HW231263   5.835   3.429   6.769
10122SOL     OW31264   5.291   1.936   3.459
10122SOL    HW131265   5.202   1.897   3.483
10122SOL    HW231266   5.343   1.955   3.543
10123SOL     OW31267   5.689   6.151   0.915
10123SOL    HW131268   5.705   6.223   0.848
10123SOL    HW231269   5.591   6.134   0.923
10124SOL     OW31270   1.538   4.854   0.762
10124SOL    HW131271   1.497   4.931   0.712
10124SOL    HW231272   1.618   4.886   0.813
10125SOL     OW31273   2.343   1.061   0.767
10125SOL    HW131274   2.390   0.973   0.773
10125SOL    HW231275   2.405   1.133   0.800
10126SOL     OW31276   0.160   0.103   6.767
10126SOL    HW131277   0.132   0.104   6.863
10126SOL    HW231278   0.083   0.076   6.710
10127SOL     OW31279   2.170   3.636   0.707
10127SOL    HW131280   2.103   3.571   0.741
10127SOL    HW231281   2.138   3.675   0.620
10128SOL     OW31282   3.349   0.771   5.545
10128SOL    HW131283   3.293   0.839   5.591
10128SOL    HW231284   3.297   0.729   5.471
10129SOL     OW31285   6.849   1.273   2.361
10129SOL    HW131286   6.813   1.233   2.277
10129SOL    HW231287   6.903   1.355   2.339
10130SOL     OW31288   0.448   3.684   1.752
10130SOL    HW131289   0.487   3.595   1.730
10130SOL    HW231290   0.382   3.674   1.826
10131SOL     OW31291   1.863   0.240   4.156
10131SOL    HW131292   1.864   0.153   4.206
10131SOL    HW231293   1.942   0.295   4.184
10132SOL     OW31294   1.784   0.338   3.325
10132SOL    HW131295   1.813   0.433   3.312
10132SOL    HW231296   1.731   0.331   3.409
10133SOL     OW31297   4.665   6.642   0.996
10133SOL    HW131298   4.729   6.716   0.979
10133SOL    HW231299   4.573   6.670   0.968
10134SOL     OW31300   5.540   1.134   2.894
10134SOL    HW131301   5.585   1.160   2.980
10134SOL    HW231302   5.441   1.138   2.906
10135SOL     OW31303   5.133   2.215   4.197
10135SOL    HW131304   5.159   2.197   4.102
10135SOL    HW231305   5.033   2.222   4.203
10136SOL     OW31306   5.424   1.698   2.489
10136SOL    HW131307   5.439   1.632   2.416
10136SOL    HW231308   5.340   1.677   2.538
10137SOL     OW31309   0.370   4.699   5.267
10137SOL    HW131310   0.335   4.784   5.308
10137SOL    HW231311   0.306   4.667   5.198
10138SOL     OW31312   5.721   3.449   0.260
10138SOL    HW131313   5.767   3.400   0.186
10138SOL    HW231314   5.670   3.384   0.317
10139SOL     OW31315   3.088   4.043   4.653
10139SOL    HW131316   3.059   3.955   4.692
10139SOL    HW231317   3.016   4.111   4.666
10140SOL     OW31318   0.286   6.639   6.862
10140SOL    HW131319   0.242   6.655   6.773
10140SOL    HW231320   0.265   6.714   6.924
10141SOL     OW31321   4.764   1.147   4.756
10141SOL    HW131322   4.761   1.175   4.852
10141SOL    HW231323   4.810   1.218   4.702
10142SOL     OW31324   6.115   6.583   5.913
10142SOL    HW131325   6.050   6.531   5.857
10142SOL    HW231326   6.208   6.562   5.885
10143SOL     OW31327   5.655   2.578   0.395
10143SOL    HW131328   5.668   2.515   0.318
10143SOL    HW231329   5.739   2.631   0.409
10144SOL     OW31330   4.508   6.578   5.512
10144SOL    HW131331   4.426   6.527   5.538
10144SOL    HW231332   4.498   6.611   5.418
10145SOL     OW31333   3.720   5.447   2.745
10145SOL    HW131334   3.676   5.360   2.721
10145SOL    HW231335   3.685   5.479   2.833
10146SOL     OW31336   6.453   3.856   4.494
10146SOL    HW131337   6.454   3.801   4.577
10146SOL    HW231338   6.366   3.905   4.488
10147SOL     OW31339   5.049   3.776   6.689
10147SOL    HW131340   4.954   3.779   6.718
10147SOL    HW231341   5.080   3.869   6.667
10148SOL     OW31342   5.727   4.427   0.492
10148SOL    HW131343   5.750   4.341   0.445
10148SOL    HW231344   5.776   4.503   0.449
10149SOL     OW31345   5.274   4.297   1.223
10149SOL    HW131346   5.247   4.362   1.153
10149SOL    HW231347   5.317   4.218   1.180
10150SOL     OW31348   4.343   3.469   1.582
10150SOL    HW131349   4.268   3.535   1.579
10150SOL    HW231350   4.363   3.446   1.677
10151SOL     OW31351   1.224   0.122   6.576
10151SOL    HW131352   1.128   0.137   6.597
10151SOL    HW231353   1.238   0.026   6.549
10152SOL     OW31354   6.641   5.843   3.535
10152SOL    HW131355   6.559   5.821   3.587
10152SOL    HW231356   6.716   5.784   3.566
10153SOL     OW31357   4.921   6.101   4.298
10153SOL    HW131358   4.980   6.024   4.276
10153SOL    HW231359   4.839   6.098   4.240
10154SOL     OW31360   3.758   6.354   5.492
10154SOL    HW131361   3.723   6.356   5.399
10154SOL    HW231362   3.683   6.367   5.556
10155SOL     OW31363   5.019   2.698   5.254
10155SOL    HW131364   4.930   2.684   5.211
10155SOL    HW231365   5.076   2.756   5.195
10156SOL     OW31366   5.378   0.405   1.750
10156SOL    HW131367   5.371   0.433   1.654
10156SOL    HW231368   5.459   0.349   1.763
10157SOL     OW31369   7.006   2.623   0.283
10157SOL    HW131370   0.077   2.590   0.262
10157SOL    HW231371   6.950   2.619   0.201
10158SOL     OW31372   6.349   6.733   1.306
10158SOL    HW131373   6.265   6.696   1.346
10158SOL    HW231374   6.415   6.659   1.292
10159SOL     OW31375   3.775   3.335   2.622
10159SOL    HW131376   3.709   3.307   2.553
10159SOL    HW231377   3.857   3.278   2.615
10160SOL     OW31378   1.706   4.120   3.448
10160SOL    HW131379   1.734   4.150   3.356
10160SOL    HW231380   1.611   4.147   3.464
10161SOL     OW31381   3.567   4.679   6.650
10161SOL    HW131382   3.571   4.763   6.595
10161SOL    HW231383   3.543   4.702   6.744
10162SOL     OW31384   2.697   4.475   0.362
10162SOL    HW131385   2.729   4.564   0.330
10162SOL    HW231386   2.625   4.441   0.300
10163SOL     OW31387   0.496   4.901   6.804
10163SOL    HW131388   0.508   4.810   6.843
10163SOL    HW231389   0.431   4.953   6.859
10164SOL     OW31390   5.737   3.557   4.624
10164SOL    HW131391   5.807   3.485   4.631
10164SOL    HW231392   5.755   3.627   4.693
10165SOL     OW31393   6.779   2.231   3.472
10165SOL    HW131394   6.757   2.324   3.502
10165SOL    HW231395   6.850   2.235   3.402
10166SOL     OW31396   1.879   1.608   1.661
10166SOL    HW131397   1.834   1.537   1.607
10166SOL    HW231398   1.960   1.640   1.613
10167SOL     OW31399   6.859   5.872   6.811
10167SOL    HW131400   6.819   5.907   6.726
10167SOL    HW231401   6.927   5.802   6.789
10168SOL     OW31402   6.641   2.056   6.110
10168SOL    HW131403   6.593   2.047   6.197
10168SOL    HW231404   6.655   2.153   6.090
10169SOL     OW31405   6.126   3.435   3.121
10169SOL    HW131406   6.110   3.401   3.214
10169SOL    HW231407   6.177   3.366   3.069
10170SOL     OW31408   6.098   5.979   6.147
10170SOL    HW131409   6.022   5.915   6.154
10170SOL    HW231410   6.135   5.998   6.238
10171SOL     OW31411   0.529   2.425   3.994
10171SOL    HW131412   0.515   2.435   4.092
10171SOL    HW231413   0.459   2.365   3.956
10172SOL     OW31414   0.317   6.610   4.515
10172SOL    HW131415   0.376   6.622   4.595
10172SOL    HW231416   0.229   6.654   4.532
10173SOL     OW31417   1.799   3.501   6.582
10173SOL    HW131418   1.899   3.500   6.582
10173SOL    HW231419   1.765   3.481   6.675
10174SOL     OW31420   4.798   4.779   3.507
10174SOL    HW131421   4.860   4.773   3.429
10174SOL    HW231422   4.733   4.703   3.504
10175SOL     OW31423   6.024   1.760   3.675
10175SOL    HW131424   6.118   1.729   3.689
10175SOL    HW231425   5.969   1.739   3.756
10176SOL     OW31426   6.497   2.840   5.463
10176SOL    HW131427   6.516   2.904   5.389
10176SOL    HW231428   6.458   2.756   5.426
10177SOL     OW31429   1.642   0.091   0.769
10177SOL    HW131430   1.588   0.027   0.822
10177SOL    HW231431   1.661   0.052   0.679
10178SOL     OW31432   1.103   0.850   0.520
10178SOL    HW131433   1.198   0.872   0.502
10178SOL    HW231434   1.074   0.893   0.605
10179SOL     OW31435   0.821   3.477   6.361
10179SOL    HW131436   0.857   3.384   6.353
10179SOL    HW231437   0.856   3.518   6.445
10180SOL     OW31438   4.599   0.366   1.027
10180SOL    HW131439   4.656   0.413   1.094
10180SOL    HW231440   4.640   0.278   1.004
10181SOL     OW31441   0.725   3.043   1.312
10181SOL    HW131442   0.661   3.073   1.241
10181SOL    HW231443   0.743   2.945   1.303
10182SOL     OW31444   4.886   1.418   6.978
10182SOL    HW131445   4.914   1.436   6.884
10182SOL    HW231446   4.920   1.491   0.016
10183SOL     OW31447   5.864   2.708   5.915
10183SOL    HW131448   5.903   2.624   5.876
10183SOL    HW231449   5.923   2.786   5.891
10184SOL     OW31450   5.006   2.851   6.953
10184SOL    HW131451   4.986   2.835   6.856
10184SOL    HW231452   5.084   2.914   6.961
10185SOL     OW31453   6.148   5.936   2.422
10185SOL    HW131454   6.068   5.895   2.466
10185SOL    HW231455   6.186   5.872   2.356
10186SOL     OW31456   4.936   3.645   4.810
10186SOL    HW131457   4.892   3.668   4.897
10186SOL    HW231458   4.936   3.546   4.798
10187SOL     OW31459   1.829   3.597   5.641
10187SOL    HW131460   1.776   3.594   5.556
10187SOL    HW231461   1.785   3.539   5.710
10188SOL     OW31462   2.758   4.963   6.506
10188SOL    HW131463   2.791   4.869   6.513
10188SOL    HW231464   2.776   5.011   6.592
10189SOL     OW31465   1.030   0.844   6.116
10189SOL    HW131466   1.018   0.932   6.162
10189SOL    HW231467   0.956   0.782   6.142
10190SOL     OW31468   4.274   3.214   1.766
10190SOL    HW131469   4.350   3.153   1.742
10190SOL    HW231470   4.245   3.196   1.860
10191SOL     OW31471   4.872   5.411   0.398
10191SOL    HW131472   4.958   5.414   0.449
10191SOL    HW231473   4.842   5.316   0.390
10192SOL     OW31474   3.174   1.840   5.225
10192SOL    HW131475   3.090   1.894   5.235
10192SOL    HW231476   3.216   1.828   5.314
10193SOL     OW31477   2.984   3.804   2.278
10193SOL    HW131478   3.041   3.878   2.243
10193SOL    HW231479   2.942   3.754   2.202
10194SOL     OW31480   4.688   0.569   4.251
10194SOL    HW131481   4.597   0.597   4.219
10194SOL    HW231482   4.757   0.628   4.209
10195SOL     OW31483   6.858   0.316   1.974
10195SOL    HW131484   6.943   0.276   1.941
10195SOL    HW231485   6.855   0.413   1.952
10196SOL     OW31486   4.860   1.915   3.704
10196SOL    HW131487   4.886   2.010   3.684
10196SOL    HW231488   4.885   1.893   3.799
10197SOL     OW31489   4.805   1.529   3.963
10197SOL    HW131490   4.723   1.580   3.936
10197SOL    HW231491   4.778   1.448   4.016
10198SOL     OW31492   3.998   6.527   0.629
10198SOL    HW131493   3.946   6.610   0.609
10198SOL    HW231494   4.044   6.537   0.717
10199SOL     OW31495   0.777   2.352   0.006
10199SOL    HW131496   0.852   2.392   6.976
10199SOL    HW231497   0.747   2.268   6.983
10200SOL     OW31498   5.193   3.603   5.506
10200SOL    HW131499   5.220   3.634   5.597
10200SOL    HW231500   5.225   3.668   5.437
10201SOL     OW31501   0.472   6.248   0.877
10201SOL    HW131502   0.429   6.158   0.868
10201SOL    HW231503   0.569   6.237   0.898
10202SOL     OW31504   1.163   4.422   0.104
10202SOL    HW131505   1.194   4.328   0.118
10202SOL    HW231506   1.177   4.475   0.188
10203SOL     OW31507   1.279   3.014   1.819
10203SOL    HW131508   1.215   2.941   1.792
10203SOL    HW231509   1.305   3.002   1.914
10204SOL     OW31510   3.185   5.509   6.271
10204SOL    HW131511   3.088   5.497   6.256
10204SOL    HW231512   3.223   5.429   6.317
10205SOL     OW31513   3.500   1.178   2.275
10205SOL    HW131514   3.464   1.178   2.182
10205SOL    HW231515   3.424   1.182   2.340
10206SOL     OW31516   5.210   0.004   6.036
10206SOL    HW131517   5.221   0.023   6.134
10206SOL    HW231518   5.190   0.089   5.988
10207SOL     OW31519   2.488   1.214   0.289
10207SOL    HW131520   2.527   1.200   0.198
10207SOL    HW231521   2.552   1.180   0.358
10208SOL     OW31522   6.683   4.679   3.677
10208SOL    HW131523   6.617   4.607   3.653
10208SOL    HW231524   6.635   4.765   3.691
10209SOL     OW31525   0.267   0.549   5.589
10209SOL    HW131526   0.233   0.556   5.495
10209SOL    HW231527   0.334   0.475   5.596
10210SOL     OW31528   5.115   0.013   1.882
10210SOL    HW131529   5.210   7.006   1.867
10210SOL    HW231530   5.113   0.111   1.901
10211SOL     OW31531   3.994   6.450   5.405
10211SOL    HW131532   4.005   6.404   5.317
10211SOL    HW231533   3.902   6.435   5.440
10212SOL     OW31534   6.955   0.736   4.786
10212SOL    HW131535   6.890   0.727   4.861
10212SOL    HW231536   6.907   0.769   4.704
10213SOL     OW31537   5.263   2.634   2.579
10213SOL    HW131538   5.276   2.633   2.480
10213SOL    HW231539   5.173   2.597   2.601
10214SOL     OW31540   1.223   1.860   2.425
10214SOL    HW131541   1.262   1.900   2.342
10214SOL    HW231542   1.151   1.795   2.399
10215SOL     OW31543   3.612   2.846   3.827
10215SOL    HW131544   3.533   2.900   3.856
10215SOL    HW231545   3.668   2.823   3.908
10216SOL     OW31546   0.820   0.386   0.935
10216SOL    HW131547   0.755   0.414   0.864
10216SOL    HW231548   0.913   0.400   0.902
10217SOL     OW31549   2.533   1.833   3.570
10217SOL    HW131550   2.448   1.784   3.591
10217SOL    HW231551   2.589   1.839   3.653
10218SOL     OW31552   1.690   0.502   1.953
10218SOL    HW131553   1.730   0.416   1.985
10218SOL    HW231554   1.740   0.534   1.873
10219SOL     OW31555   0.211   3.381   2.056
10219SOL    HW131556   0.160   3.318   1.996
10219SOL    HW231557   0.253   3.329   2.131
10220SOL     OW31558   4.369   1.672   1.517
10220SOL    HW131559   4.290   1.702   1.570
10220SOL    HW231560   4.441   1.742   1.522
10221SOL     OW31561   1.824   2.833   4.414
10221SOL    HW131562   1.826   2.928   4.444
10221SOL    HW231563   1.799   2.829   4.317
10222SOL     OW31564   2.385   3.368   6.340
10222SOL    HW131565   2.388   3.270   6.323
10222SOL    HW231566   2.418   3.417   6.259
10223SOL     OW31567   1.658   5.755   6.610
10223SOL    HW131568   1.641   5.851   6.631
10223SOL    HW231569   1.723   5.717   6.676
10224SOL     OW31570   0.046   1.680   5.206
10224SOL    HW131571   0.117   1.745   5.233
10224SOL    HW231572   0.089   1.596   5.172
10225SOL     OW31573   2.018   6.218   6.264
10225SOL    HW131574   2.012   6.182   6.357
10225SOL    HW231575   1.983   6.311   6.262
10226SOL     OW31576   2.342   0.136   6.664
10226SOL    HW131577   2.319   0.229   6.637
10226SOL    HW231578   2.280   0.071   6.619
10227SOL     OW31579   4.837   5.023   0.878
10227SOL    HW131580   4.837   4.941   0.934
10227SOL    HW231581   4.839   4.997   0.781
10228SOL     OW31582   0.891   5.560   2.051
10228SOL    HW131583   0.934   5.645   2.082
10228SOL    HW231584   0.797   5.579   2.024
10229SOL     OW31585   1.233   1.714   4.034
10229SOL    HW131586   1.230   1.767   3.949
10229SOL    HW231587   1.266   1.773   4.108
10230SOL     OW31588   6.096   6.132   3.273
10230SOL    HW131589   6.059   6.217   3.309
10230SOL    HW231590   6.176   6.105   3.327
10231SOL     OW31591   6.481   5.740   5.354
10231SOL    HW131592   6.439   5.763   5.266
10231SOL    HW231593   6.543   5.662   5.341
10232SOL     OW31594   2.922   0.671   4.624
10232SOL    HW131595   2.948   0.623   4.540
10232SOL    HW231596   2.973   0.634   4.701
10233SOL     OW31597   4.709   3.806   5.293
10233SOL    HW131598   4.699   3.879   5.225
10233SOL    HW231599   4.718   3.718   5.247
10234SOL     OW31600   5.097   1.311   0.462
10234SOL    HW131601   5.130   1.350   0.377
10234SOL    HW231602   5.011   1.263   0.446
10235SOL     OW31603   4.572   2.831   0.028
10235SOL    HW131604   4.622   2.898   6.994
10235SOL    HW231605   4.637   2.769   0.071
10236SOL     OW31606   2.353   0.293   1.893
10236SOL    HW131607   2.315   0.327   1.807
10236SOL    HW231608   2.284   0.298   1.965
10237SOL     OW31609   6.505   4.340   0.803
10237SOL    HW131610   6.477   4.336   0.899
10237SOL    HW231611   6.574   4.411   0.790
10238SOL     OW31612   3.267   3.897   3.605
10238SOL    HW131613   3.258   3.950   3.520
10238SOL    HW231614   3.252   3.958   3.683
10239SOL     OW31615   1.448   3.920   5.315
10239SOL    HW131616   1.492   4.006   5.287
10239SOL    HW231617   1.518   3.853   5.339
10240SOL     OW31618   2.101   4.907   3.723
10240SOL    HW131619   2.169   4.878   3.656
10240SOL    HW231620   2.124   4.999   3.756
10241SOL     OW31621   6.577   0.293   2.309
10241SOL    HW131622   6.554   0.322   2.216
10241SOL    HW231623   6.633   0.209   2.304
10242SOL     OW31624   6.901   0.871   6.986
10242SOL    HW131625   6.805   0.869   6.958
10242SOL    HW231626   6.937   0.777   6.988
10243SOL     OW31627   0.964   5.032   1.516
10243SOL    HW131628   0.979   5.100   1.588
10243SOL    HW231629   0.894   5.065   1.453
10244SOL     OW31630   0.881   4.237   0.574
10244SOL    HW131631   0.922   4.239   0.666
10244SOL    HW231632   0.952   4.216   0.507
10245SOL     OW31633   2.825   4.716   6.712
10245SOL    HW131634   2.903   4.777   6.704
10245SOL    HW231635   2.855   4.626   6.742
10246SOL     OW31636   3.242   4.027   3.848
10246SOL    HW131637   3.305   4.103   3.869
10246SOL    HW231638   3.215   3.982   3.933
10247SOL     OW31639   0.211   5.430   5.669
10247SOL    HW131640   0.287   5.447   5.732
10247SOL    HW231641   0.124   5.443   5.717
10248SOL     OW31642   3.476   6.687   2.086
10248SOL    HW131643   3.430   6.614   2.036
10248SOL    HW231644   3.434   6.774   2.064
10249SOL     OW31645   3.513   1.310   5.981
10249SOL    HW131646   3.451   1.246   6.026
10249SOL    HW231647   3.544   1.378   6.047
10250SOL     OW31648   6.528   2.896   0.904
10250SOL    HW131649   6.477   2.839   0.969
10250SOL    HW231650   6.520   2.858   0.812
10251SOL     OW31651   2.266   2.176   5.414
10251SOL    HW131652   2.267   2.197   5.316
10251SOL    HW231653   2.343   2.223   5.459
10252SOL     OW31654   5.027   5.035   0.064
10252SOL    HW131655   5.040   5.134   0.059
10252SOL    HW231656   4.997   5.000   6.997
10253SOL     OW31657   4.281   5.515   0.173
10253SOL    HW131658   4.312   5.434   0.223
10253SOL    HW231659   4.361   5.565   0.139
10254SOL     OW31660   4.963   1.804   5.424
10254SOL    HW131661   4.903   1.867   5.472
10254SOL    HW231662   4.916   1.717   5.409
10255SOL     OW31663   1.609   6.743   1.369
10255SOL    HW131664   1.652   6.758   1.458
10255SOL    HW231665   1.680   6.723   1.301
10256SOL     OW31666   5.921   0.737   1.751
10256SOL    HW131667   5.998   0.723   1.689
10256SOL    HW231668   5.953   0.739   1.845
10257SOL     OW31669   2.120   5.441   4.465
10257SOL    HW131670   2.167   5.467   4.549
10257SOL    HW231671   2.186   5.435   4.390
10258SOL     OW31672   4.118   0.953   4.644
10258SOL    HW131673   4.061   0.988   4.570
10258SOL    HW231674   4.200   0.910   4.606
10259SOL     OW31675   0.354   4.337   3.051
10259SOL    HW131676   0.429   4.354   2.987
10259SOL    HW231677   0.344   4.415   3.113
10260SOL     OW31678   0.880   0.506   3.506
10260SOL    HW131679   0.960   0.527   3.561
10260SOL    HW231680   0.798   0.542   3.552
10261SOL     OW31681   6.942   5.120   2.967
10261SOL    HW131682   6.847   5.151   2.968
10261SOL    HW231683   6.964   5.083   2.876
10262SOL     OW31684   2.370   6.544   4.351
10262SOL    HW131685   2.380   6.582   4.443
10262SOL    HW231686   2.277   6.513   4.338
10263SOL     OW31687   4.954   0.857   6.397
10263SOL    HW131688   4.883   0.923   6.421
10263SOL    HW231689   5.004   0.890   6.316
10264SOL     OW31690   5.842   2.566   6.140
10264SOL    HW131691   5.834   2.621   6.056
10264SOL    HW231692   5.810   2.473   6.122
10265SOL     OW31693   3.161   2.178   2.965
10265SOL    HW131694   3.112   2.105   3.012
10265SOL    HW231695   3.110   2.206   2.884
10266SOL     OW31696   3.044   3.083   5.162
10266SOL    HW131697   3.113   3.010   5.164
10266SOL    HW231698   2.970   3.060   5.225
10267SOL     OW31699   6.379   1.514   0.160
10267SOL    HW131700   6.380   1.446   0.087
10267SOL    HW231701   6.424   1.598   0.128
10268SOL     OW31702   5.217   5.232   1.712
10268SOL    HW131703   5.279   5.301   1.749
10268SOL    HW231704   5.206   5.157   1.778
10269SOL     OW31705   0.634   2.585   5.131
10269SOL    HW131706   0.652   2.637   5.047
10269SOL    HW231707   0.655   2.642   5.211
10270SOL     OW31708   3.309   5.203   3.135
10270SOL    HW131709   3.406   5.180   3.128
10270SOL    HW231710   3.273   5.222   3.044
10271SOL     OW31711   3.509   2.812   0.226
10271SOL    HW131712   3.570   2.739   0.254
10271SOL    HW231713   3.435   2.775   0.170
10272SOL     OW31714   0.442   0.078   5.288
10272SOL    HW131715   0.410   0.039   5.374
10272SOL    HW231716   0.414   0.019   5.212
10273SOL     OW31717   4.082   5.408   3.236
10273SOL    HW131718   4.171   5.380   3.199
10273SOL    HW231719   4.014   5.407   3.164
10274SOL     OW31720   0.412   4.678   4.483
10274SOL    HW131721   0.427   4.742   4.408
10274SOL    HW231722   0.483   4.691   4.553
10275SOL     OW31723   0.784   6.744   1.939
10275SOL    HW131724   0.698   6.751   1.989
10275SOL    HW231725   0.815   6.649   1.939
10276SOL     OW31726   5.979   5.821   5.675
10276SOL    HW131727   5.947   5.913   5.653
10276SOL    HW231728   6.060   5.827   5.735
10277SOL     OW31729   2.111   5.274   4.015
10277SOL    HW131730   2.040   5.204   4.023
10277SOL    HW231731   2.074   5.363   4.041
10278SOL     OW31732   6.598   1.156   4.603
10278SOL    HW131733   6.636   1.248   4.611
10278SOL    HW231734   6.665   1.089   4.635
10279SOL     OW31735   2.044   5.871   4.825
10279SOL    HW131736   2.024   5.919   4.910
10279SOL    HW231737   2.012   5.925   4.748
10280SOL     OW31738   1.206   4.336   1.387
10280SOL    HW131739   1.173   4.277   1.461
10280SOL    HW231740   1.133   4.399   1.360
10281SOL     OW31741   6.010   0.972   3.044
10281SOL    HW131742   5.919   1.006   3.018
10281SOL    HW231743   6.046   1.030   3.117
10282SOL     OW31744   6.601   4.360   4.253
10282SOL    HW131745   6.531   4.421   4.292
10282SOL    HW231746   6.592   4.360   4.153
10283SOL     OW31747   0.489   3.381   0.982
10283SOL    HW131748   0.450   3.313   0.919
10283SOL    HW231749   0.578   3.349   1.013
10284SOL     OW31750   5.418   3.661   5.071
10284SOL    HW131751   5.359   3.609   5.010
10284SOL    HW231752   5.502   3.610   5.088
10285SOL     OW31753   4.796   0.902   1.049
10285SOL    HW131754   4.809   0.944   1.139
10285SOL    HW231755   4.709   0.852   1.048
10286SOL     OW31756   3.107   1.747   3.946
10286SOL    HW131757   3.030   1.810   3.951
10286SOL    HW231758   3.073   1.653   3.939
10287SOL     OW31759   2.604   6.001   0.932
10287SOL    HW131760   2.526   6.029   0.989
10287SOL    HW231761   2.592   5.906   0.904
10288SOL     OW31762   5.343   5.850   2.132
10288SOL    HW131763   5.428   5.829   2.180
10288SOL    HW231764   5.266   5.834   2.193
10289SOL     OW31765   3.461   0.784   2.204
10289SOL    HW131766   3.522   0.840   2.260
10289SOL    HW231767   3.367   0.792   2.239
10290SOL     OW31768   3.066   3.916   1.965
10290SOL    HW131769   3.126   3.957   1.896
10290SOL    HW231770   3.084   3.957   2.054
10291SOL     OW31771   3.794   0.918   3.567
10291SOL    HW131772   3.822   0.980   3.494
10291SOL    HW231773   3.722   0.961   3.622
10292SOL     OW31774   2.096   0.505   4.846
10292SOL    HW131775   2.009   0.468   4.813
10292SOL    HW231776   2.080   0.594   4.890
10293SOL     OW31777   1.680   5.389   3.208
10293SOL    HW131778   1.643   5.421   3.121
10293SOL    HW231779   1.653   5.453   3.280
10294SOL     OW31780   5.183   3.833   2.456
10294SOL    HW131781   5.120   3.762   2.425
10294SOL    HW231782   5.250   3.793   2.519
10295SOL     OW31783   5.748   5.645   5.805
10295SOL    HW131784   5.810   5.710   5.760
10295SOL    HW231785   5.677   5.618   5.740
10296SOL     OW31786   4.771   3.141   0.190
10296SOL    HW131787   4.776   3.077   0.268
10296SOL    HW231788   4.676   3.168   0.176
10297SOL     OW31789   1.775   6.453   6.422
10297SOL    HW131790   1.718   6.526   6.385
10297SOL    HW231791   1.869   6.486   6.433
10298SOL     OW31792   3.618   4.990   1.822
10298SOL    HW131793   3.633   4.894   1.844
10298SOL    HW231794   3.706   5.035   1.807
10299SOL     OW31795   4.837   4.941   2.743
10299SOL    HW131796   4.755   4.994   2.720
10299SOL    HW231797   4.881   4.910   2.658
10300SOL     OW31798   1.682   4.810   3.169
10300SOL    HW131799   1.689   4.860   3.255
10300SOL    HW231800   1.728   4.861   3.097
10301SOL     OW31801   5.901   2.210   3.747
10301SOL    HW131802   5.985   2.162   3.721
10301SOL    HW231803   5.822   2.152   3.726
10302SOL     OW31804   0.683   5.583   3.685
10302SOL    HW131805   0.623   5.568   3.764
10302SOL    HW231806   0.638   5.550   3.602
10303SOL     OW31807   1.877   5.707   2.395
10303SOL    HW131808   1.786   5.733   2.364
10303SOL    HW231809   1.886   5.728   2.493
10304SOL     OW31810   4.906   0.586   2.719
10304SOL    HW131811   4.991   0.545   2.751
10304SOL    HW231812   4.922   0.638   2.635
10305SOL     OW31813   0.324   4.642   0.006
10305SOL    HW131814   0.258   4.612   6.960
10305SOL    HW231815   0.414   4.651   6.985
10306SOL     OW31816   4.316   6.852   0.040
10306SOL    HW131817   4.240   6.792   0.064
10306SOL    HW231818   4.395   6.797   0.012
10307SOL     OW31819   2.210   2.517   4.947
10307SOL    HW131820   2.120   2.477   4.934
10307SOL    HW231821   2.275   2.473   4.886
10308SOL     OW31822   2.789   5.324   4.309
10308SOL    HW131823   2.734   5.354   4.386
10308SOL    HW231824   2.773   5.384   4.231
10309SOL     OW31825   6.010   1.089   3.872
10309SOL    HW131826   5.985   1.175   3.828
10309SOL    HW231827   5.960   1.014   3.828
10310SOL     OW31828   4.275   2.798   1.634
10310SOL    HW131829   4.228   2.818   1.548
10310SOL    HW231830   4.337   2.873   1.656
10311SOL     OW31831   0.745   6.221   0.943
10311SOL    HW131832   0.797   6.214   1.029
10311SOL    HW231833   0.762   6.310   0.901
10312SOL     OW31834   2.353   6.339   1.075
10312SOL    HW131835   2.433   6.389   1.041
10312SOL    HW231836   2.339   6.361   1.172
10313SOL     OW31837   4.227   6.935   1.409
10313SOL    HW131838   4.144   6.982   1.442
10313SOL    HW231839   4.284   7.000   1.359
10314SOL     OW31840   0.260   0.394   2.322
10314SOL    HW131841   0.323   0.412   2.397
10314SOL    HW231842   0.166   0.412   2.353
10315SOL     OW31843   6.052   5.081   4.045
10315SOL    HW131844   6.064   5.022   4.125
10315SOL    HW231845   5.955   5.094   4.027
10316SOL     OW31846   6.653   2.439   4.846
10316SOL    HW131847   6.561   2.476   4.836
10316SOL    HW231848   6.680   2.442   4.942
10317SOL     OW31849   3.545   5.921   5.754
10317SOL    HW131850   3.578   5.853   5.688
10317SOL    HW231851   3.621   5.981   5.780
10318SOL     OW31852   4.906   5.963   7.002
10318SOL    HW131853   4.909   5.881   0.036
10318SOL    HW231854   4.869   5.941   6.912
10319SOL     OW31855   2.247   2.707   5.736
10319SOL    HW131856   2.215   2.641   5.803
10319SOL    HW231857   2.169   2.743   5.684
10320SOL     OW31858   0.829   0.595   1.606
10320SOL    HW131859   0.780   0.508   1.598
10320SOL    HW231860   0.853   0.611   1.701
10321SOL     OW31861   4.443   0.591   3.384
10321SOL    HW131862   4.516   0.651   3.350
10321SOL    HW231863   4.374   0.579   3.313
10322SOL     OW31864   6.299   6.040   6.403
10322SOL    HW131865   6.338   6.128   6.375
10322SOL    HW231866   6.244   6.053   6.486
10323SOL     OW31867   6.543   3.949   5.706
10323SOL    HW131868   6.563   4.042   5.736
10323SOL    HW231869   6.445   3.938   5.692
10324SOL     OW31870   2.944   3.221   3.097
10324SOL    HW131871   2.996   3.192   3.017
10324SOL    HW231872   3.006   3.230   3.175
10325SOL     OW31873   6.201   3.974   3.020
10325SOL    HW131874   6.280   3.961   3.080
10325SOL    HW231875   6.233   4.001   2.929
10326SOL     OW31876   4.195   3.237   0.005
10326SOL    HW131877   4.201   3.147   0.048
10326SOL    HW231878   4.104   3.276   0.019
10327SOL     OW31879   2.499   1.880   1.780
10327SOL    HW131880   2.591   1.917   1.794
10327SOL    HW231881   2.443   1.901   1.860
10328SOL     OW31882   6.329   3.484   1.377
10328SOL    HW131883   6.313   3.454   1.284
10328SOL    HW231884   6.275   3.429   1.441
10329SOL     OW31885   3.497   0.146   4.582
10329SOL    HW131886   3.504   0.121   4.485
10329SOL    HW231887   3.469   0.241   4.590
10330SOL     OW31888   3.707   5.105   2.339
10330SOL    HW131889   3.610   5.129   2.332
10330SOL    HW231890   3.718   5.028   2.401
10331SOL     OW31891   6.675   0.502   3.803
10331SOL    HW131892   6.695   0.420   3.750
10331SOL    HW231893   6.649   0.576   3.741
10332SOL     OW31894   6.095   1.453   0.254
10332SOL    HW131895   6.073   1.543   0.294
10332SOL    HW231896   6.192   1.450   0.230
10333SOL     OW31897   6.830   4.411   4.390
10333SOL    HW131898   6.833   4.324   4.440
10333SOL    HW231899   6.755   4.410   4.325
10334SOL     OW31900   2.233   5.642   3.989
10334SOL    HW131901   2.153   5.585   4.006
10334SOL    HW231902   2.245   5.706   4.064
10335SOL     OW31903   2.514   4.708   0.106
10335SOL    HW131904   2.503   4.763   0.188
10335SOL    HW231905   2.424   4.678   0.073
10336SOL     OW31906   5.779   6.611   3.128
10336SOL    HW131907   5.838   6.691   3.126
10336SOL    HW231908   5.734   6.605   3.217
10337SOL     OW31909   6.570   6.738   5.704
10337SOL    HW131910   6.620   6.817   5.739
10337SOL    HW231911   6.495   6.770   5.647
10338SOL     OW31912   3.077   6.222   1.966
10338SOL    HW131913   3.008   6.270   1.911
10338SOL    HW231914   3.104   6.137   1.920
10339SOL     OW31915   3.364   5.569   0.538
10339SOL    HW131916   3.355   5.551   0.440
10339SOL    HW231917   3.459   5.591   0.559
10340SOL     OW31918   1.624   5.526   0.436
10340SOL    HW131919   1.564   5.553   0.510
10340SOL    HW231920   1.577   5.460   0.377
10341SOL     OW31921   2.193   3.228   1.753
10341SOL    HW131922   2.247   3.312   1.764
10341SOL    HW231923   2.133   3.217   1.832
10342SOL     OW31924   2.128   6.148   5.750
10342SOL    HW131925   2.145   6.206   5.830
10342SOL    HW231926   2.214   6.109   5.719
10343SOL     OW31927   1.734   4.102   0.302
10343SOL    HW131928   1.745   4.198   0.277
10343SOL    HW231929   1.788   4.083   0.384
10344SOL     OW31930   4.105   3.546   2.098
10344SOL    HW131931   4.077   3.604   2.175
10344SOL    HW231932   4.133   3.603   2.021
10345SOL     OW31933   1.803   0.619   6.280
10345SOL    HW131934   1.850   0.559   6.215
10345SOL    HW231935   1.746   0.684   6.230
10346SOL     OW31936   6.264   0.971   1.179
10346SOL    HW131937   6.186   0.962   1.118
10346SOL    HW231938   6.344   0.927   1.137
10347SOL     OW31939   5.323   2.359   2.367
10347SOL    HW131940   5.262   2.321   2.436
10347SOL    HW231941   5.294   2.452   2.344
10348SOL     OW31942   6.672   1.448   6.657
10348SOL    HW131943   6.601   1.474   6.723
10348SOL    HW231944   6.721   1.529   6.626
10349SOL     OW31945   6.992   1.854   0.231
10349SOL    HW131946   0.022   1.804   0.300
10349SOL    HW231947   6.956   1.939   0.271
10350SOL     OW31948   2.907   6.559   4.768
10350SOL    HW131949   2.977   6.489   4.774
10350SOL    HW231950   2.928   6.634   4.831
10351SOL     OW31951   5.707   5.577   6.089
10351SOL    HW131952   5.662   5.649   6.142
10351SOL    HW231953   5.690   5.591   5.992
10352SOL     OW31954   5.405   1.547   6.476
10352SOL    HW131955   5.487   1.493   6.460
10352SOL    HW231956   5.431   1.637   6.512
10353SOL     OW31957   6.702   2.624   4.410
10353SOL    HW131958   6.603   2.615   4.404
10353SOL    HW231959   6.732   2.702   4.356
10354SOL     OW31960   0.526   2.054   1.829
10354SOL    HW131961   0.439   2.007   1.816
10354SOL    HW231962   0.599   2.002   1.785
10355SOL     OW31963   1.093   0.489   0.914
10355SOL    HW131964   1.110   0.468   1.011
10355SOL    HW231965   1.163   0.445   0.858
10356SOL     OW31966   6.998   3.850   5.523
10356SOL    HW131967   6.980   3.815   5.615
10356SOL    HW231968   0.066   3.894   5.522
10357SOL     OW31969   4.181   2.861   6.504
10357SOL    HW131970   4.218   2.771   6.480
10357SOL    HW231971   4.093   2.874   6.460
10358SOL     OW31972   0.267   2.664   3.839
10358SOL    HW131973   0.322   2.592   3.796
10358SOL    HW231974   0.306   2.689   3.927
10359SOL     OW31975   5.319   1.851   1.867
10359SOL    HW131976   5.262   1.901   1.933
10359SOL    HW231977   5.294   1.878   1.774
10360SOL     OW31978   5.221   5.857   1.883
10360SOL    HW131979   5.263   5.840   1.972
10360SOL    HW231980   5.265   5.936   1.839
10361SOL     OW31981   2.212   1.018   2.690
10361SOL    HW131982   2.152   0.964   2.630
10361SOL    HW231983   2.307   0.994   2.672
10362SOL     OW31984   0.674   4.893   3.110
10362SOL    HW131985   0.735   4.853   3.178
10362SOL    HW231986   0.618   4.965   3.152
10363SOL     OW31987   5.375   2.451   1.484
10363SOL    HW131988   5.312   2.491   1.417
10363SOL    HW231989   5.356   2.353   1.492
10364SOL     OW31990   4.473   4.034   1.353
10364SOL    HW131991   4.550   4.021   1.290
10364SOL    HW231992   4.423   4.117   1.327
10365SOL     OW31993   5.874   4.174   6.727
10365SOL    HW131994   5.854   4.078   6.708
10365SOL    HW231995   5.805   4.232   6.685
10366SOL     OW31996   3.284   6.363   3.719
10366SOL    HW131997   3.256   6.457   3.740
10366SOL    HW231998   3.321   6.360   3.626
10367SOL     OW31999   6.997   1.715   1.645
10367SOL    HW132000   6.909   1.667   1.636
10367SOL    HW232001   0.034   1.689   1.569
10368SOL     OW32002   1.735   1.401   2.135
10368SOL    HW132003   1.772   1.348   2.211
10368SOL    HW232004   1.684   1.340   2.074
10369SOL     OW32005   3.031   6.822   6.190
10369SOL    HW132006   2.941   6.850   6.223
10369SOL    HW232007   3.072   6.757   6.255
10370SOL     OW32008   6.998   1.123   5.140
10370SOL    HW132009   6.931   1.156   5.074
10370SOL    HW232010   0.064   1.108   5.093
10371SOL     OW32011   2.161   6.524   4.678
10371SOL    HW132012   2.259   6.506   4.681
10371SOL    HW232013   2.127   6.503   4.586
10372SOL     OW32014   2.342   1.468   0.145
10372SOL    HW132015   2.351   1.369   0.137
10372SOL    HW232016   2.320   1.492   0.239
10373SOL     OW32017   1.203   6.696   5.061
10373SOL    HW132018   1.280   6.717   5.121
10373SOL    HW232019   1.224   6.615   5.006
10374SOL     OW32020   3.563   0.328   3.618
10374SOL    HW132021   3.514   0.242   3.608
10374SOL    HW232022   3.594   0.360   3.529
10375SOL     OW32023   2.420   2.481   6.020
10375SOL    HW132024   2.492   2.529   5.970
10375SOL    HW232025   2.428   2.501   6.118
10376SOL     OW32026   1.280   6.014   4.346
10376SOL    HW132027   1.271   5.945   4.274
10376SOL    HW232028   1.197   6.014   4.403
10377SOL     OW32029   0.202   0.814   2.082
10377SOL    HW132030   0.286   0.771   2.115
10377SOL    HW232031   0.139   0.743   2.050
10378SOL     OW32032   5.915   6.000   5.271
10378SOL    HW132033   6.002   6.047   5.287
10378SOL    HW232034   5.872   5.977   5.358
10379SOL     OW32035   3.243   5.719   4.731
10379SOL    HW132036   3.309   5.657   4.773
10379SOL    HW232037   3.175   5.746   4.800
10380SOL     OW32038   1.172   2.507   4.429
10380SOL    HW132039   1.129   2.582   4.379
10380SOL    HW232040   1.247   2.543   4.485
10381SOL     OW32041   4.461   3.863   1.020
10381SOL    HW132042   4.440   3.862   0.923
10381SOL    HW232043   4.387   3.818   1.070
10382SOL     OW32044   2.782   5.171   1.435
10382SOL    HW132045   2.725   5.092   1.455
10382SOL    HW232046   2.814   5.166   1.340
10383SOL     OW32047   1.158   4.119   0.791
10383SOL    HW132048   1.195   4.075   0.872
10383SOL    HW232049   1.153   4.053   0.716
10384SOL     OW32050   6.819   6.836   0.929
10384SOL    HW132051   6.725   6.820   0.899
10384SOL    HW232052   6.824   6.920   0.983
10385SOL     OW32053   3.908   5.958   6.388
10385SOL    HW132054   3.884   6.055   6.377
10385SOL    HW232055   3.880   5.908   6.306
10386SOL     OW32056   0.219   1.100   5.663
10386SOL    HW132057   0.248   1.017   5.616
10386SOL    HW232058   0.174   1.075   5.749
10387SOL     OW32059   4.557   2.413   3.347
10387SOL    HW132060   4.628   2.410   3.277
10387SOL    HW232061   4.467   2.404   3.305
10388SOL     OW32062   1.893   5.903   1.861
10388SOL    HW132063   1.986   5.937   1.877
10388SOL    HW232064   1.865   5.843   1.937
10389SOL     OW32065   6.689   4.963   0.907
10389SOL    HW132066   6.626   4.886   0.891
10389SOL    HW232067   6.782   4.929   0.916
10390SOL     OW32068   1.966   3.821   0.456
10390SOL    HW132069   1.999   3.824   0.361
10390SOL    HW232070   1.950   3.913   0.489
10391SOL     OW32071   0.253   5.965   3.571
10391SOL    HW132072   0.284   5.884   3.622
10391SOL    HW232073   0.156   5.981   3.589
10392SOL     OW32074   6.251   4.598   5.720
10392SOL    HW132075   6.243   4.697   5.720
10392SOL    HW232076   6.263   4.565   5.627
10393SOL     OW32077   2.417   2.571   3.110
10393SOL    HW132078   2.505   2.534   3.140
10393SOL    HW232079   2.428   2.617   3.022
10394SOL     OW32080   2.159   5.203   5.697
10394SOL    HW132081   2.150   5.299   5.722
10394SOL    HW232082   2.127   5.189   5.604
10395SOL     OW32083   0.798   0.892   1.798
10395SOL    HW132084   0.780   0.987   1.822
10395SOL    HW232085   0.879   0.887   1.740
10396SOL     OW32086   3.784   1.145   4.015
10396SOL    HW132087   3.723   1.191   3.950
10396SOL    HW232088   3.748   1.054   4.035
10397SOL     OW32089   3.549   1.064   4.867
10397SOL    HW132090   3.646   1.069   4.843
10397SOL    HW232091   3.525   1.142   4.924
10398SOL     OW32092   6.033   1.990   0.830
10398SOL    HW132093   6.095   1.921   0.792
10398SOL    HW232094   6.049   2.078   0.786
10399SOL     OW32095   5.093   1.760   3.593
10399SOL    HW132096   5.002   1.775   3.555
10399SOL    HW232097   5.103   1.664   3.619
10400SOL     OW32098   4.214   5.759   0.045
10400SOL    HW132099   4.133   5.781   0.100
10400SOL    HW232100   4.206   5.666   0.010
10401SOL     OW32101   0.157   6.664   2.262
10401SOL    HW132102   0.189   6.705   2.177
10401SOL    HW232103   0.089   6.594   2.242
10402SOL     OW32104   0.256   1.571   5.842
10402SOL    HW132105   0.249   1.602   5.748
10402SOL    HW232106   0.166   1.546   5.877
10403SOL     OW32107   4.406   2.227   3.186
10403SOL    HW132108   4.405   2.270   3.096
10403SOL    HW232109   4.490   2.174   3.198
10404SOL     OW32110   6.580   5.857   4.181
10404SOL    HW132111   6.506   5.825   4.240
10404SOL    HW232112   6.571   5.816   4.090
10405SOL     OW32113   1.247   6.136   4.803
10405SOL    HW132114   1.279   6.041   4.806
10405SOL    HW232115   1.257   6.171   4.710
10406SOL     OW32116   1.879   3.394   4.853
10406SOL    HW132117   1.969   3.398   4.810
10406SOL    HW232118   1.873   3.313   4.911
10407SOL     OW32119   2.798   6.918   6.282
10407SOL    HW132120   2.810   6.949   6.376
10407SOL    HW232121   2.729   6.846   6.279
10408SOL     OW32122   4.610   0.050   1.246
10408SOL    HW132123   4.510   0.055   1.242
10408SOL    HW232124   4.646   0.134   1.287
10409SOL     OW32125   6.658   4.756   1.121
10409SOL    HW132126   6.587   4.688   1.103
10409SOL    HW232127   6.745   4.708   1.139
10410SOL     OW32128   5.008   2.082   1.829
10410SOL    HW132129   5.077   2.020   1.865
10410SOL    HW232130   4.917   2.048   1.851
10411SOL     OW32131   3.108   6.082   3.501
10411SOL    HW132132   3.139   6.116   3.590
10411SOL    HW232133   3.100   6.159   3.437
10412SOL     OW32134   0.838   1.343   1.062
10412SOL    HW132135   0.841   1.422   1.001
10412SOL    HW232136   0.792   1.368   1.147
10413SOL     OW32137   6.323   2.948   1.522
10413SOL    HW132138   6.383   2.936   1.443
10413SOL    HW232139   6.232   2.915   1.500
10414SOL     OW32140   3.409   4.806   5.854
10414SOL    HW132141   3.484   4.828   5.916
10414SOL    HW232142   3.445   4.756   5.775
10415SOL     OW32143   1.727   4.294   3.924
10415SOL    HW132144   1.820   4.258   3.921
10415SOL    HW232145   1.683   4.266   4.010
10416SOL     OW32146   6.019   0.301   4.990
10416SOL    HW132147   6.019   0.277   5.087
10416SOL    HW232148   6.103   0.352   4.968
10417SOL     OW32149   3.756   5.001   3.753
10417SOL    HW132150   3.775   5.080   3.811
10417SOL    HW232151   3.784   5.020   3.659
10418SOL     OW32152   6.659   4.531   5.750
10418SOL    HW132153   6.646   4.529   5.651
10418SOL    HW232154   6.571   4.517   5.795
10419SOL     OW32155   3.282   6.635   6.728
10419SOL    HW132156   3.301   6.732   6.739
10419SOL    HW232157   3.368   6.587   6.708
10420SOL     OW32158   0.364   3.491   4.050
10420SOL    HW132159   0.415   3.565   4.093
10420SOL    HW232160   0.280   3.527   4.010
10421SOL     OW32161   1.136   3.257   3.873
10421SOL    HW132162   1.063   3.308   3.918
10421SOL    HW232163   1.150   3.170   3.921
10422SOL     OW32164   6.232   3.612   4.950
10422SOL    HW132165   6.222   3.701   4.995
10422SOL    HW232166   6.205   3.620   4.854
10423SOL     OW32167   5.988   5.270   6.080
10423SOL    HW132168   5.976   5.338   6.007
10423SOL    HW232169   6.072   5.289   6.130
10424SOL     OW32170   4.099   3.142   0.644
10424SOL    HW132171   4.181   3.146   0.700
10424SOL    HW232172   4.122   3.161   0.548
10425SOL     OW32173   1.211   6.328   2.424
10425SOL    HW132174   1.209   6.423   2.395
10425SOL    HW232175   1.123   6.285   2.403
10426SOL     OW32176   5.517   4.403   0.241
10426SOL    HW132177   5.514   4.324   0.302
10426SOL    HW232178   5.466   4.383   0.158
10427SOL     OW32179   3.778   1.246   0.185
10427SOL    HW132180   3.748   1.164   0.235
10427SOL    HW232181   3.700   1.287   0.138
10428SOL     OW32182   3.570   1.042   3.707
10428SOL    HW132183   3.495   1.029   3.772
10428SOL    HW232184   3.534   1.036   3.613
10429SOL     OW32185   6.936   3.929   2.252
10429SOL    HW132186   6.869   3.927   2.326
10429SOL    HW232187   6.981   4.018   2.250
10430SOL     OW32188   5.207   0.163   5.030
10430SOL    HW132189   5.158   0.176   4.944
10430SOL    HW232190   5.294   0.213   5.027
10431SOL     OW32191   2.488   5.853   4.210
10431SOL    HW132192   2.391   5.830   4.205
10431SOL    HW232193   2.504   5.939   4.162
10432SOL     OW32194   6.200   0.500   4.248
10432SOL    HW132195   6.153   0.587   4.238
10432SOL    HW232196   6.295   0.510   4.218
10433SOL     OW32197   1.106   6.022   2.348
10433SOL    HW132198   1.105   6.068   2.260
10433SOL    HW232199   1.018   5.977   2.363
10434SOL     OW32200   3.601   5.854   2.799
10434SOL    HW132201   3.619   5.815   2.709
10434SOL    HW232202   3.683   5.898   2.833
10435SOL     OW32203   0.679   1.373   5.673
10435SOL    HW132204   0.612   1.306   5.704
10435SOL    HW232205   0.771   1.333   5.679
10436SOL     OW32206   6.292   4.668   5.433
10436SOL    HW132207   6.334   4.594   5.381
10436SOL    HW232208   6.308   4.755   5.387
10437SOL     OW32209   4.414   4.293   6.028
10437SOL    HW132210   4.508   4.328   6.023
10437SOL    HW232211   4.361   4.350   6.091
10438SOL     OW32212   6.860   6.334   6.788
10438SOL    HW132213   6.805   6.385   6.854
10438SOL    HW232214   6.890   6.248   6.829
10439SOL     OW32215   4.234   1.383   4.576
10439SOL    HW132216   4.326   1.412   4.550
10439SOL    HW232217   4.237   1.337   4.664
10440SOL     OW32218   0.334   6.671   0.723
10440SOL    HW132219   0.393   6.625   0.657
10440SOL    HW232220   0.361   6.767   0.732
10441SOL     OW32221   4.474   1.206   1.355
10441SOL    HW132222   4.394   1.190   1.413
10441SOL    HW232223   4.473   1.300   1.321
10442SOL     OW32224   4.204   6.819   6.481
10442SOL    HW132225   4.254   6.905   6.482
10442SOL    HW232226   4.222   6.769   6.566
10443SOL     OW32227   4.981   3.422   3.723
10443SOL    HW132228   4.945   3.360   3.793
10443SOL    HW232229   4.979   3.516   3.757
10444SOL     OW32230   4.444   5.873   3.389
10444SOL    HW132231   4.520   5.836   3.442
10444SOL    HW232232   4.415   5.960   3.429
10445SOL     OW32233   0.635   4.205   4.434
10445SOL    HW132234   0.562   4.183   4.368
10445SOL    HW232235   0.721   4.164   4.403
10446SOL     OW32236   2.217   3.081   5.551
10446SOL    HW132237   2.154   3.154   5.579
10446SOL    HW232238   2.165   2.998   5.532
10447SOL     OW32239   0.277   0.929   2.667
10447SOL    HW132240   0.278   0.971   2.576
10447SOL    HW232241   0.332   0.985   2.729
10448SOL     OW32242   4.520   0.754   2.646
10448SOL    HW132243   4.578   0.808   2.585
10448SOL    HW232244   4.426   0.789   2.643
10449SOL     OW32245   1.730   5.230   5.328
10449SOL    HW132246   1.663   5.304   5.336
10449SOL    HW232247   1.822   5.269   5.327
10450SOL     OW32248   0.758   1.095   0.979
10450SOL    HW132249   0.739   1.013   1.034
10450SOL    HW232250   0.755   1.176   1.037
10451SOL     OW32251   2.359   5.392   2.633
10451SOL    HW132252   2.267   5.430   2.624
10451SOL    HW232253   2.427   5.466   2.631
10452SOL     OW32254   6.679   3.350   2.044
10452SOL    HW132255   6.647   3.272   1.991
10452SOL    HW232256   6.604   3.384   2.102
10453SOL     OW32257   4.887   0.028   1.227
10453SOL    HW132258   4.791   0.020   1.202
10453SOL    HW232259   4.922   6.960   1.254
10454SOL     OW32260   5.198   3.131   0.525
10454SOL    HW132261   5.215   3.133   0.426
10454SOL    HW232262   5.106   3.096   0.542
10455SOL     OW32263   6.065   6.355   3.512
10455SOL    HW132264   6.161   6.351   3.487
10455SOL    HW232265   6.039   6.268   3.556
10456SOL     OW32266   1.874   5.625   0.365
10456SOL    HW132267   1.838   5.717   0.350
10456SOL    HW232268   1.800   5.565   0.397
10457SOL     OW32269   3.578   2.992   1.442
10457SOL    HW132270   3.607   3.057   1.512
10457SOL    HW232271   3.584   2.899   1.478
10458SOL     OW32272   6.471   0.622   6.519
10458SOL    HW132273   6.478   0.663   6.428
10458SOL    HW232274   6.381   0.641   6.557
10459SOL     OW32275   4.628   6.045   1.781
10459SOL    HW132276   4.568   5.967   1.761
10459SOL    HW232277   4.723   6.014   1.782
10460SOL     OW32278   0.634   4.115   2.167
10460SOL    HW132279   0.727   4.122   2.132
10460SOL    HW232280   0.627   4.034   2.225
10461SOL     OW32281   6.650   5.077   5.870
10461SOL    HW132282   6.634   5.172   5.898
10461SOL    HW232283   6.563   5.034   5.846
10462SOL     OW32284   5.594   1.261   3.596
10462SOL    HW132285   5.583   1.193   3.523
10462SOL    HW232286   5.505   1.276   3.640
10463SOL     OW32287   4.716   3.426   6.157
10463SOL    HW132288   4.631   3.377   6.173
10463SOL    HW232289   4.768   3.380   6.085
10464SOL     OW32290   6.333   6.651   1.599
10464SOL    HW132291   6.316   6.723   1.532
10464SOL    HW232292   6.430   6.651   1.625
10465SOL     OW32293   5.844   5.891   0.578
10465SOL    HW132294   5.897   5.811   0.550
10465SOL    HW232295   5.860   5.967   0.515
10466SOL     OW32296   4.685   5.201   5.864
10466SOL    HW132297   4.682   5.108   5.826
10466SOL    HW232298   4.594   5.242   5.857
10467SOL     OW32299   2.893   0.952   0.072
10467SOL    HW132300   2.889   0.899   7.009
10467SOL    HW232301   2.945   1.036   0.056
10468SOL     OW32302   3.855   5.128   3.025
10468SOL    HW132303   3.814   5.107   2.936
10468SOL    HW232304   3.802   5.084   3.098
10469SOL     OW32305   3.685   4.505   5.584
10469SOL    HW132306   3.699   4.409   5.561
10469SOL    HW232307   3.681   4.515   5.683
10470SOL     OW32308   2.312   2.867   3.705
10470SOL    HW132309   2.268   2.846   3.793
10470SOL    HW232310   2.311   2.966   3.690
10471SOL     OW32311   2.997   1.461   0.816
10471SOL    HW132312   2.990   1.531   0.745
10471SOL    HW232313   2.923   1.473   0.882
10472SOL     OW32314   3.853   5.526   0.574
10472SOL    HW132315   3.850   5.427   0.587
10472SOL    HW232316   3.772   5.568   0.615
10473SOL     OW32317   6.949   0.024   6.624
10473SOL    HW132318   6.885   0.009   6.699
10473SOL    HW232319   6.904   0.001   6.537
10474SOL     OW32320   3.306   2.099   4.431
10474SOL    HW132321   3.375   2.112   4.502
10474SOL    HW232322   3.217   2.085   4.474
10475SOL     OW32323   4.756   6.398   0.898
10475SOL    HW132324   4.828   6.423   0.833
10475SOL    HW232325   4.703   6.480   0.921
10476SOL     OW32326   6.827   6.179   0.119
10476SOL    HW132327   6.864   6.105   0.175
10476SOL    HW232328   6.731   6.194   0.142
10477SOL     OW32329   0.480   1.367   4.901
10477SOL    HW132330   0.452   1.368   4.997
10477SOL    HW232331   0.523   1.279   4.880
10478SOL     OW32332   0.045   0.790   1.251
10478SOL    HW132333   0.091   0.817   1.167
10478SOL    HW232334   6.988   0.733   1.229
10479SOL     OW32335   0.123   2.124   2.500
10479SOL    HW132336   0.171   2.083   2.578
10479SOL    HW232337   0.181   2.194   2.458
10480SOL     OW32338   6.151   0.131   2.051
10480SOL    HW132339   6.114   0.074   1.978
10480SOL    HW232340   6.217   0.078   2.105
10481SOL     OW32341   2.920   0.007   4.372
10481SOL    HW132342   2.998   0.019   4.433
10481SOL    HW232343   2.951   0.011   4.277
10482SOL     OW32344   6.422   4.981   4.337
10482SOL    HW132345   6.327   4.963   4.362
10482SOL    HW232346   6.483   4.922   4.390
10483SOL     OW32347   6.704   4.826   0.116
10483SOL    HW132348   6.686   4.730   0.132
10483SOL    HW232349   6.620   4.872   0.088
10484SOL     OW32350   5.968   1.198   2.095
10484SOL    HW132351   5.869   1.192   2.082
10484SOL    HW232352   5.999   1.290   2.072
10485SOL     OW32353   2.841   3.679   0.944
10485SOL    HW132354   2.781   3.745   0.898
10485SOL    HW232355   2.924   3.725   0.976
10486SOL     OW32356   0.029   1.016   0.166
10486SOL    HW132357   6.958   0.984   0.145
10486SOL    HW232358   0.084   1.015   0.083
10487SOL     OW32359   4.784   1.852   1.975
10487SOL    HW132360   4.779   1.950   1.957
10487SOL    HW232361   4.706   1.806   1.931
10488SOL     OW32362   2.992   1.909   5.611
10488SOL    HW132363   2.905   1.911   5.661
10488SOL    HW232364   3.027   1.816   5.608
10489SOL     OW32365   0.187   0.359   4.585
10489SOL    HW132366   0.179   0.445   4.635
10489SOL    HW232367   0.282   0.343   4.561
10490SOL     OW32368   5.747   1.911   0.825
10490SOL    HW132369   5.845   1.932   0.820
10490SOL    HW232370   5.720   1.858   0.745
10491SOL     OW32371   2.492   1.884   5.955
10491SOL    HW132372   2.507   1.931   6.042
10491SOL    HW232373   2.453   1.949   5.889
10492SOL     OW32374   5.611   5.352   0.652
10492SOL    HW132375   5.702   5.312   0.643
10492SOL    HW232376   5.592   5.411   0.574
10493SOL     OW32377   3.348   6.926   2.068
10493SOL    HW132378   3.297   6.863   2.009
10493SOL    HW232379   3.291   7.004   2.090
10494SOL     OW32380   5.728   4.665   5.680
10494SOL    HW132381   5.803   4.627   5.733
10494SOL    HW232382   5.746   4.652   5.582
10495SOL     OW32383   1.020   6.394   1.288
10495SOL    HW132384   1.006   6.440   1.201
10495SOL    HW232385   1.118   6.381   1.303
10496SOL     OW32386   6.309   3.416   6.192
10496SOL    HW132387   6.312   3.501   6.245
10496SOL    HW232388   6.229   3.363   6.218
10497SOL     OW32389   2.216   6.784   1.879
10497SOL    HW132390   2.164   6.827   1.953
10497SOL    HW232391   2.167   6.703   1.847
10498SOL     OW32392   4.494   5.566   0.600
10498SOL    HW132393   4.510   5.574   0.698
10498SOL    HW232394   4.424   5.632   0.572
10499SOL     OW32395   4.410   0.214   2.264
10499SOL    HW132396   4.377   0.124   2.292
10499SOL    HW232397   4.505   0.207   2.233
10500SOL     OW32398   6.153   1.496   6.062
10500SOL    HW132399   6.232   1.525   6.116
10500SOL    HW232400   6.085   1.455   6.123
10501SOL     OW32401   2.070   5.566   2.281
10501SOL    HW132402   1.992   5.621   2.311
10501SOL    HW232403   2.072   5.561   2.181
10502SOL     OW32404   2.264   1.842   1.961
10502SOL    HW132405   2.260   1.899   2.043
10502SOL    HW232406   2.240   1.748   1.985
10503SOL     OW32407   4.725   2.930   1.176
10503SOL    HW132408   4.699   2.947   1.270
10503SOL    HW232409   4.715   2.833   1.155
10504SOL     OW32410   1.357   2.681   5.782
10504SOL    HW132411   1.396   2.685   5.690
10504SOL    HW232412   1.292   2.605   5.787
10505SOL     OW32413   5.542   5.032   0.846
10505SOL    HW132414   5.640   5.023   0.865
10505SOL    HW232415   5.527   5.111   0.787
10506SOL     OW32416   0.406   3.651   0.304
10506SOL    HW132417   0.447   3.742   0.304
10506SOL    HW232418   0.451   3.594   0.235
10507SOL     OW32419   1.684   6.442   0.908
10507SOL    HW132420   1.605   6.451   0.848
10507SOL    HW232421   1.733   6.530   0.912
10508SOL     OW32422   6.638   5.595   4.653
10508SOL    HW132423   6.614   5.524   4.719
10508SOL    HW232424   6.683   5.553   4.574
10509SOL     OW32425   6.949   5.755   5.621
10509SOL    HW132426   6.973   5.794   5.533
10509SOL    HW232427   6.850   5.763   5.636
10510SOL     OW32428   4.808   5.858   6.768
10510SOL    HW132429   4.801   5.916   6.687
10510SOL    HW232430   4.738   5.786   6.764
10511SOL     OW32431   2.799   1.319   1.928
10511SOL    HW132432   2.723   1.381   1.946
10511SOL    HW232433   2.781   1.267   1.844
10512SOL     OW32434   4.612   0.499   5.725
10512SOL    HW132435   4.692   0.478   5.782
10512SOL    HW232436   4.639   0.497   5.628
10513SOL     OW32437   6.441   2.663   3.839
10513SOL    HW132438   6.376   2.601   3.794
10513SOL    HW232439   6.403   2.694   3.925
10514SOL     OW32440   0.673   3.319   1.424
10514SOL    HW132441   0.628   3.295   1.510
10514SOL    HW232442   0.608   3.368   1.366
10515SOL     OW32443   0.764   3.202   3.863
10515SOL    HW132444   0.793   3.243   3.949
10515SOL    HW232445   0.843   3.163   3.817
10516SOL     OW32446   3.795   1.798   0.405
10516SOL    HW132447   3.860   1.739   0.454
10516SOL    HW232448   3.730   1.741   0.356
10517SOL     OW32449   0.469   3.055   1.093
10517SOL    HW132450   0.382   3.084   1.135
10517SOL    HW232451   0.475   2.955   1.095
10518SOL     OW32452   6.756   5.970   0.546
10518SOL    HW132453   6.848   5.935   0.530
10518SOL    HW232454   6.751   6.065   0.515
10519SOL     OW32455   3.107   3.254   0.681
10519SOL    HW132456   3.052   3.172   0.664
10519SOL    HW232457   3.051   3.321   0.730
10520SOL     OW32458   0.820   2.395   6.327
10520SOL    HW132459   0.898   2.437   6.279
10520SOL    HW232460   0.814   2.298   6.302
10521SOL     OW32461   6.493   5.629   1.718
10521SOL    HW132462   6.455   5.541   1.749
10521SOL    HW232463   6.535   5.676   1.795
10522SOL     OW32464   0.362   0.704   4.709
10522SOL    HW132465   0.334   0.648   4.786
10522SOL    HW232466   0.432   0.655   4.656
10523SOL     OW32467   0.746   4.595   2.843
10523SOL    HW132468   0.817   4.560   2.782
10523SOL    HW232469   0.788   4.619   2.931
10524SOL     OW32470   0.581   6.587   3.938
10524SOL    HW132471   0.581   6.491   3.967
10524SOL    HW232472   0.647   6.638   3.992
10525SOL     OW32473   4.185   0.417   5.755
10525SOL    HW132474   4.168   0.400   5.658
10525SOL    HW232475   4.225   0.336   5.797
10526SOL     OW32476   1.231   6.336   3.154
10526SOL    HW132477   1.288   6.389   3.091
10526SOL    HW232478   1.147   6.307   3.107
10527SOL     OW32479   0.951   0.954   5.486
10527SOL    HW132480   0.960   0.891   5.563
10527SOL    HW232481   0.863   0.940   5.442
10528SOL     OW32482   1.592   3.419   6.074
10528SOL    HW132483   1.591   3.430   6.173
10528SOL    HW232484   1.511   3.463   6.035
10529SOL     OW32485   3.090   6.550   4.089
10529SOL    HW132486   3.092   6.599   4.176
10529SOL    HW232487   3.160   6.479   4.089
10530SOL     OW32488   0.991   0.321   6.574
10530SOL    HW132489   1.007   0.374   6.491
10530SOL    HW232490   1.055   0.351   6.645
10531SOL     OW32491   1.676   2.474   4.174
10531SOL    HW132492   1.685   2.404   4.104
10531SOL    HW232493   1.704   2.563   4.136
10532SOL     OW32494   0.953   6.878   6.116
10532SOL    HW132495   0.958   6.967   6.160
10532SOL    HW232496   0.965   6.889   6.017
10533SOL     OW32497   2.985   6.698   3.265
10533SOL    HW132498   2.916   6.648   3.319
10533SOL    HW232499   3.009   6.782   3.313
10534SOL     OW32500   6.283   5.573   2.405
10534SOL    HW132501   6.373   5.531   2.414
10534SOL    HW232502   6.241   5.582   2.495
10535SOL     OW32503   1.506   2.163   2.156
10535SOL    HW132504   1.536   2.126   2.243
10535SOL    HW232505   1.450   2.095   2.108
10536SOL     OW32506   4.231   0.724   4.292
10536SOL    HW132507   4.141   0.680   4.288
10536SOL    HW232508   4.245   0.763   4.383
10537SOL     OW32509   4.200   6.453   4.452
10537SOL    HW132510   4.187   6.394   4.372
10537SOL    HW232511   4.173   6.403   4.534
10538SOL     OW32512   6.102   3.445   0.795
10538SOL    HW132513   6.071   3.540   0.800
10538SOL    HW232514   6.182   3.433   0.853
10539SOL     OW32515   0.526   4.781   0.214
10539SOL    HW132516   0.458   4.760   0.144
10539SOL    HW232517   0.501   4.736   0.300
10540SOL     OW32518   1.535   3.152   5.706
10540SOL    HW132519   1.517   3.124   5.612
10540SOL    HW232520   1.634   3.161   5.719
10541SOL     OW32521   3.459   3.801   1.755
10541SOL    HW132522   3.511   3.729   1.801
10541SOL    HW232523   3.508   3.830   1.673
10542SOL     OW32524   0.258   0.854   5.550
10542SOL    HW132525   0.276   0.755   5.547
10542SOL    HW232526   0.209   0.882   5.468
10543SOL     OW32527   0.330   1.514   4.740
10543SOL    HW132528   0.385   1.597   4.745
10543SOL    HW232529   0.368   1.445   4.802
10544SOL     OW32530   2.764   6.702   1.903
10544SOL    HW132531   2.665   6.698   1.891
10544SOL    HW232532   2.803   6.610   1.898
10545SOL     OW32533   0.507   1.846   1.006
10545SOL    HW132534   0.446   1.791   1.064
10545SOL    HW232535   0.493   1.943   1.025
10546SOL     OW32536   1.453   6.903   0.586
10546SOL    HW132537   1.452   6.906   0.686
10546SOL    HW232538   1.539   6.863   0.555
10547SOL     OW32539   5.363   2.852   3.323
10547SOL    HW132540   5.311   2.852   3.408
10547SOL    HW232541   5.450   2.806   3.336
10548SOL     OW32542   5.803   4.514   4.315
10548SOL    HW132543   5.831   4.594   4.370
10548SOL    HW232544   5.721   4.536   4.263
10549SOL     OW32545   0.721   0.334   1.886
10549SOL    HW132546   0.690   0.338   1.791
10549SOL    HW232547   0.819   0.317   1.888
10550SOL     OW32548   5.019   6.835   3.890
10550SOL    HW132549   4.954   6.907   3.914
10550SOL    HW232550   5.036   6.837   3.791
10551SOL     OW32551   1.376   2.658   0.013
10551SOL    HW132552   1.357   2.701   0.102
10551SOL    HW232553   1.461   2.695   6.999
10552SOL     OW32554   2.448   1.122   5.602
10552SOL    HW132555   2.353   1.113   5.572
10552SOL    HW232556   2.465   1.216   5.631
10553SOL     OW32557   0.600   4.473   1.060
10553SOL    HW132558   0.546   4.496   0.979
10553SOL    HW232559   0.632   4.379   1.052
10554SOL     OW32560   5.204   4.635   0.817
10554SOL    HW132561   5.196   4.734   0.825
10554SOL    HW232562   5.294   4.611   0.780
10555SOL     OW32563   2.072   2.204   0.601
10555SOL    HW132564   2.136   2.240   0.668
10555SOL    HW232565   2.045   2.111   0.626
10556SOL     OW32566   1.534   1.635   4.534
10556SOL    HW132567   1.495   1.607   4.622
10556SOL    HW232568   1.507   1.729   4.515
10557SOL     OW32569   1.800   3.071   3.048
10557SOL    HW132570   1.743   3.130   3.104
10557SOL    HW232571   1.814   3.113   2.958
10558SOL     OW32572   4.174   6.854   5.001
10558SOL    HW132573   4.264   6.887   5.030
10558SOL    HW232574   4.177   6.755   4.990
10559SOL     OW32575   4.909   0.776   1.733
10559SOL    HW132576   4.968   0.842   1.688
10559SOL    HW232577   4.957   0.737   1.812
10560SOL     OW32578   4.927   6.456   2.204
10560SOL    HW132579   5.011   6.501   2.234
10560SOL    HW232580   4.908   6.483   2.110
10561SOL     OW32581   3.679   4.312   1.690
10561SOL    HW132582   3.754   4.280   1.746
10561SOL    HW232583   3.639   4.394   1.731
10562SOL     OW32584   3.839   5.343   0.225
10562SOL    HW132585   3.831   5.391   0.312
10562SOL    HW232586   3.806   5.249   0.235
10563SOL     OW32587   0.331   0.999   3.191
10563SOL    HW132588   0.281   0.925   3.236
10563SOL    HW232589   0.428   0.993   3.215
10564SOL     OW32590   5.746   5.603   2.978
10564SOL    HW132591   5.657   5.577   2.941
10564SOL    HW232592   5.762   5.700   2.963
10565SOL     OW32593   0.603   6.791   5.919
10565SOL    HW132594   0.644   6.712   5.874
10565SOL    HW232595   0.622   6.788   6.017
10566SOL     OW32596   3.591   1.850   6.742
10566SOL    HW132597   3.641   1.936   6.755
10566SOL    HW232598   3.635   1.778   6.795
10567SOL     OW32599   2.326   2.021   5.029
10567SOL    HW132600   2.331   2.102   5.088
10567SOL    HW232601   2.416   1.977   5.025
10568SOL     OW32602   6.685   2.987   1.236
10568SOL    HW132603   6.663   2.919   1.307
10568SOL    HW232604   6.600   3.025   1.201
10569SOL     OW32605   5.278   1.150   2.272
10569SOL    HW132606   5.231   1.074   2.318
10569SOL    HW232607   5.365   1.118   2.235
10570SOL     OW32608   1.229   4.399   2.938
10570SOL    HW132609   1.155   4.348   2.981
10570SOL    HW232610   1.307   4.339   2.924
10571SOL     OW32611   6.947   4.460   4.958
10571SOL    HW132612   7.007   4.519   4.903
10571SOL    HW232613   6.917   4.510   5.039
10572SOL     OW32614   6.649   4.550   2.830
10572SOL    HW132615   6.621   4.455   2.813
10572SOL    HW232616   6.748   4.558   2.819
10573SOL     OW32617   5.621   0.374   4.917
10573SOL    HW132618   5.659   0.405   5.004
10573SOL    HW232619   5.565   0.292   4.933
10574SOL     OW32620   0.814   1.494   4.060
10574SOL    HW132621   0.763   1.499   4.145
10574SOL    HW232622   0.911   1.508   4.078
10575SOL     OW32623   0.109   1.062   3.929
10575SOL    HW132624   0.027   1.007   3.917
10575SOL    HW232625   0.083   1.157   3.949
10576SOL     OW32626   0.155   5.595   4.998
10576SOL    HW132627   0.146   5.505   4.956
10576SOL    HW232628   0.099   5.661   4.948
10577SOL     OW32629   1.978   4.472   0.144
10577SOL    HW132630   1.896   4.514   0.106
10577SOL    HW232631   2.029   4.541   0.197
10578SOL     OW32632   4.834   1.506   3.085
10578SOL    HW132633   4.904   1.556   3.033
10578SOL    HW232634   4.751   1.499   3.030
10579SOL     OW32635   4.461   3.007   1.699
10579SOL    HW132636   4.497   3.075   1.636
10579SOL    HW232637   4.525   2.994   1.774
10580SOL     OW32638   6.678   0.679   6.705
10580SOL    HW132639   6.672   0.615   6.781
10580SOL    HW232640   6.606   0.658   6.638
10581SOL     OW32641   5.631   0.021   3.022
10581SOL    HW132642   5.586   7.004   3.102
10581SOL    HW232643   5.711   0.073   3.050
10582SOL     OW32644   4.497   4.422   5.662
10582SOL    HW132645   4.579   4.365   5.667
10582SOL    HW232646   4.517   4.512   5.700
10583SOL     OW32647   3.420   1.294   3.943
10583SOL    HW132648   3.505   1.286   3.890
10583SOL    HW232649   3.431   1.364   4.013
10584SOL     OW32650   6.778   0.602   0.402
10584SOL    HW132651   6.809   0.693   0.373
10584SOL    HW232652   6.821   0.532   0.345
10585SOL     OW32653   2.693   2.095   5.289
10585SOL    HW132654   2.768   2.041   5.327
10585SOL    HW232655   2.731   2.170   5.235
10586SOL     OW32656   6.005   4.895   5.289
10586SOL    HW132657   5.935   4.960   5.317
10586SOL    HW232658   5.965   4.805   5.277
10587SOL     OW32659   6.396   4.919   0.096
10587SOL    HW132660   6.308   4.886   0.128
10587SOL    HW232661   6.419   5.004   0.143
10588SOL     OW32662   1.597   3.061   4.656
10588SOL    HW132663   1.575   2.968   4.625
10588SOL    HW232664   1.694   3.066   4.680
10589SOL     OW32665   6.264   0.888   4.649
10589SOL    HW132666   6.290   0.951   4.723
10589SOL    HW232667   6.261   0.938   4.563
10590SOL     OW32668   0.280   0.773   0.916
10590SOL    HW132669   0.358   0.730   0.961
10590SOL    HW232670   0.196   0.724   0.940
10591SOL     OW32671   1.588   2.122   0.226
10591SOL    HW132672   1.619   2.209   0.189
10591SOL    HW232673   1.551   2.065   0.153
10592SOL     OW32674   5.975   3.623   2.970
10592SOL    HW132675   6.017   3.554   3.029
10592SOL    HW232676   5.948   3.701   3.026
10593SOL     OW32677   2.269   5.830   0.396
10593SOL    HW132678   2.205   5.894   0.438
10593SOL    HW232679   2.274   5.849   0.298
10594SOL     OW32680   5.264   1.112   3.265
10594SOL    HW132681   5.186   1.075   3.213
10594SOL    HW232682   5.290   1.200   3.227
10595SOL     OW32683   5.236   6.673   6.970
10595SOL    HW132684   5.206   6.730   6.894
10595SOL    HW232685   5.220   6.721   0.035
10596SOL     OW32686   4.463   1.251   0.484
10596SOL    HW132687   4.450   1.183   0.557
10596SOL    HW232688   4.532   1.217   0.420
10597SOL     OW32689   3.115   1.424   5.837
10597SOL    HW132690   3.149   1.393   5.926
10597SOL    HW232691   3.027   1.471   5.849
10598SOL     OW32692   3.067   2.647   6.888
10598SOL    HW132693   3.068   2.727   6.947
10598SOL    HW232694   3.113   2.571   6.934
10599SOL     OW32695   5.581   3.491   6.237
10599SOL    HW132696   5.501   3.503   6.178
10599SOL    HW232697   5.568   3.545   6.321
10600SOL     OW32698   3.357   2.509   0.735
10600SOL    HW132699   3.258   2.506   0.743
10600SOL    HW232700   3.390   2.600   0.759
10601SOL     OW32701   1.450   4.734   5.207
10601SOL    HW132702   1.484   4.795   5.279
10601SOL    HW232703   1.454   4.782   5.119
10602SOL     OW32704   2.401   0.731   1.892
10602SOL    HW132705   2.355   0.818   1.873
10602SOL    HW232706   2.407   0.678   1.807
10603SOL     OW32707   3.773   0.121   3.309
10603SOL    HW132708   3.799   0.167   3.394
10603SOL    HW232709   3.783   0.185   3.232
10604SOL     OW32710   6.417   5.814   5.627
10604SOL    HW132711   6.419   5.776   5.534
10604SOL    HW232712   6.388   5.909   5.623
10605SOL     OW32713   2.020   6.738   6.652
10605SOL    HW132714   2.086   6.727   6.578
10605SOL    HW232715   1.936   6.778   6.617
10606SOL     OW32716   0.415   0.350   1.678
10606SOL    HW132717   0.392   0.384   1.770
10606SOL    HW232718   0.376   0.411   1.609
10607SOL     OW32719   3.977   5.298   5.959
10607SOL    HW132720   3.912   5.337   5.895
10607SOL    HW232721   4.031   5.372   6.001
10608SOL     OW32722   6.282   3.434   5.179
10608SOL    HW132723   6.200   3.377   5.179
10608SOL    HW232724   6.277   3.500   5.104
10609SOL     OW32725   2.875   6.469   7.018
10609SOL    HW132726   2.916   6.433   0.079
10609SOL    HW232727   2.946   6.505   6.958
10610SOL     OW32728   0.993   2.144   4.107
10610SOL    HW132729   1.011   2.189   4.019
10610SOL    HW232730   1.019   2.205   4.182
10611SOL     OW32731   2.038   4.051   6.632
10611SOL    HW132732   1.943   4.024   6.615
10611SOL    HW232733   2.078   4.086   6.547
10612SOL     OW32734   3.364   1.976   4.747
10612SOL    HW132735   3.322   1.890   4.776
10612SOL    HW232736   3.306   2.052   4.776
10613SOL     OW32737   5.368   6.033   5.498
10613SOL    HW132738   5.395   6.113   5.445
10613SOL    HW232739   5.445   5.970   5.505
10614SOL     OW32740   5.044   1.843   5.015
10614SOL    HW132741   4.952   1.884   5.020
10614SOL    HW232742   5.111   1.915   4.998
10615SOL     OW32743   4.407   0.597   5.412
10615SOL    HW132744   4.507   0.592   5.418
10615SOL    HW232745   4.376   0.551   5.329
10616SOL     OW32746   1.895   0.085   0.311
10616SOL    HW132747   1.919   0.178   0.338
10616SOL    HW232748   1.899   0.076   0.212
10617SOL     OW32749   2.960   4.049   1.162
10617SOL    HW132750   2.985   3.956   1.189
10617SOL    HW232751   2.886   4.082   1.219
10618SOL     OW32752   1.176   3.700   5.988
10618SOL    HW132753   1.215   3.754   5.913
10618SOL    HW232754   1.181   3.753   6.073
10619SOL     OW32755   0.484   2.865   2.693
10619SOL    HW132756   0.518   2.821   2.610
10619SOL    HW232757   0.452   2.795   2.757
10620SOL     OW32758   1.180   6.476   5.267
10620SOL    HW132759   1.182   6.504   5.171
10620SOL    HW232760   1.088   6.488   5.303
10621SOL     OW32761   0.630   5.055   1.543
10621SOL    HW132762   0.550   5.109   1.569
10621SOL    HW232763   0.685   5.106   1.477
10622SOL     OW32764   5.122   1.903   2.031
10622SOL    HW132765   5.108   1.977   2.097
10622SOL    HW232766   5.084   1.818   2.067
10623SOL     OW32767   0.704   4.996   5.560
10623SOL    HW132768   0.615   5.001   5.515
10623SOL    HW232769   0.743   5.088   5.567
10624SOL     OW32770   1.051   2.333   4.975
10624SOL    HW132771   0.959   2.323   5.013
10624SOL    HW232772   1.087   2.423   4.997
10625SOL     OW32773   0.360   4.884   0.923
10625SOL    HW132774   0.456   4.858   0.924
10625SOL    HW232775   0.351   4.977   0.885
10626SOL     OW32776   2.419   2.936   0.443
10626SOL    HW132777   2.465   3.025   0.451
10626SOL    HW232778   2.324   2.950   0.415
10627SOL     OW32779   5.113   0.361   0.132
10627SOL    HW132780   5.166   0.430   0.085
10627SOL    HW232781   5.144   0.270   0.104
10628SOL     OW32782   4.723   6.091   0.445
10628SOL    HW132783   4.637   6.108   0.492
10628SOL    HW232784   4.706   6.079   0.347
10629SOL     OW32785   2.699   5.021   4.929
10629SOL    HW132786   2.790   4.982   4.917
10629SOL    HW232787   2.647   4.966   4.995
10630SOL     OW32788   6.244   1.035   3.704
10630SOL    HW132789   6.301   1.109   3.669
10630SOL    HW232790   6.175   1.072   3.766
10631SOL     OW32791   3.486   5.067   5.048
10631SOL    HW132792   3.480   5.125   5.130
10631SOL    HW232793   3.401   5.015   5.038
10632SOL     OW32794   5.255   0.145   3.775
10632SOL    HW132795   5.327   0.091   3.816
10632SOL    HW232796   5.198   0.185   3.847
10633SOL     OW32797   2.468   2.798   0.707
10633SOL    HW132798   2.423   2.796   0.618
10633SOL    HW232799   2.441   2.717   0.759
10634SOL     OW32800   3.045   4.183   0.243
10634SOL    HW132801   3.074   4.188   0.147
10634SOL    HW232802   3.049   4.088   0.274
10635SOL     OW32803   1.953   3.411   6.995
10635SOL    HW132804   1.946   3.464   0.058
10635SOL    HW232805   2.049   3.385   6.980
10636SOL     OW32806   0.444   2.125   0.984
10636SOL    HW132807   0.353   2.086   0.966
10636SOL    HW232808   0.436   2.224   0.992
10637SOL     OW32809   1.968   4.628   5.795
10637SOL    HW132810   2.041   4.666   5.851
10637SOL    HW232811   2.000   4.544   5.751
10638SOL     OW32812   5.853   5.421   2.691
10638SOL    HW132813   5.910   5.476   2.752
10638SOL    HW232814   5.908   5.392   2.612
10639SOL     OW32815   1.099   3.576   3.123
10639SOL    HW132816   1.015   3.583   3.177
10639SOL    HW232817   1.078   3.598   3.027
10640SOL     OW32818   4.447   6.985   5.001
10640SOL    HW132819   4.470   6.941   4.915
10640SOL    HW232820   4.434   0.061   4.986
10641SOL     OW32821   2.080   2.055   2.108
10641SOL    HW132822   2.163   2.101   2.140
10641SOL    HW232823   2.063   1.974   2.164
10642SOL     OW32824   6.577   2.648   1.655
10642SOL    HW132825   6.646   2.661   1.726
10642SOL    HW232826   6.486   2.646   1.695
10643SOL     OW32827   1.381   5.474   4.564
10643SOL    HW132828   1.311   5.407   4.538
10643SOL    HW232829   1.342   5.566   4.561
10644SOL     OW32830   5.317   2.850   2.747
10644SOL    HW132831   5.369   2.835   2.831
10644SOL    HW232832   5.306   2.763   2.699
10645SOL     OW32833   1.973   2.648   4.554
10645SOL    HW132834   1.920   2.703   4.489
10645SOL    HW232835   2.058   2.696   4.577
10646SOL     OW32836   0.744   0.293   6.987
10646SOL    HW132837   0.826   0.346   6.966
10646SOL    HW232838   0.713   0.246   6.905
10647SOL     OW32839   3.148   5.283   4.794
10647SOL    HW132840   3.051   5.274   4.770
10647SOL    HW232841   3.196   5.332   4.721
10648SOL     OW32842   5.883   3.966   6.215
10648SOL    HW132843   5.840   3.882   6.182
10648SOL    HW232844   5.959   3.943   6.276
10649SOL     OW32845   0.123   4.614   2.421
10649SOL    HW132846   0.149   4.601   2.325
10649SOL    HW232847   0.191   4.673   2.466
10650SOL     OW32848   1.191   0.546   3.951
10650SOL    HW132849   1.106   0.594   3.973
10650SOL    HW232850   1.235   0.517   4.035
10651SOL     OW32851   5.607   6.802   0.227
10651SOL    HW132852   5.557   6.715   0.229
10651SOL    HW232853   5.704   6.785   0.242
10652SOL     OW32854   3.589   6.894   5.435
10652SOL    HW132855   3.688   6.898   5.442
10652SOL    HW232856   3.556   6.806   5.468
10653SOL     OW32857   3.912   5.400   3.444
10653SOL    HW132858   3.969   5.389   3.525
10653SOL    HW232859   3.971   5.401   3.362
10654SOL     OW32860   5.158   0.917   1.330
10654SOL    HW132861   5.173   0.986   1.259
10654SOL    HW232862   5.118   0.835   1.289
10655SOL     OW32863   2.508   5.710   0.502
10655SOL    HW132864   2.567   5.689   0.425
10655SOL    HW232865   2.443   5.781   0.477
10656SOL     OW32866   6.855   1.882   2.738
10656SOL    HW132867   6.781   1.927   2.787
10656SOL    HW232868   6.858   1.915   2.644
10657SOL     OW32869   5.984   0.878   5.847
10657SOL    HW132870   6.049   0.802   5.842
10657SOL    HW232871   5.904   0.850   5.900
10658SOL     OW32872   6.564   4.815   5.113
10658SOL    HW132873   6.553   4.798   5.211
10658SOL    HW232874   6.484   4.780   5.064
10659SOL     OW32875   0.542   5.302   1.350
10659SOL    HW132876   0.501   5.260   1.269
10659SOL    HW232877   0.550   5.400   1.337
10660SOL     OW32878   5.029   4.214   6.379
10660SOL    HW132879   5.021   4.314   6.384
10660SOL    HW232880   4.966   4.178   6.311
10661SOL     OW32881   1.030   6.704   1.562
10661SOL    HW132882   1.099   6.659   1.620
10661SOL    HW232883   1.058   6.798   1.545
10662SOL     OW32884   5.461   6.667   3.338
10662SOL    HW132885   5.468   6.580   3.291
10662SOL    HW232886   5.405   6.730   3.284
10663SOL     OW32887   0.535   2.079   2.525
10663SOL    HW132888   0.530   1.993   2.577
10663SOL    HW232889   0.584   2.147   2.579
10664SOL     OW32890   6.198   4.240   4.947
10664SOL    HW132891   6.148   4.281   4.871
10664SOL    HW232892   6.272   4.182   4.912
10665SOL     OW32893   1.059   1.918   0.836
10665SOL    HW132894   0.989   1.955   0.776
10665SOL    HW232895   1.034   1.936   0.931
10666SOL     OW32896   3.454   4.142   1.616
10666SOL    HW132897   3.550   4.156   1.639
10666SOL    HW232898   3.447   4.090   1.531
10667SOL     OW32899   4.559   3.370   5.550
10667SOL    HW132900   4.543   3.405   5.458
10667SOL    HW232901   4.471   3.351   5.594
10668SOL     OW32902   2.817   0.272   4.997
10668SOL    HW132903   2.750   0.346   4.986
10668SOL    HW232904   2.841   0.263   5.093
10669SOL     OW32905   5.446   6.807   1.266
10669SOL    HW132906   5.392   6.741   1.318
10669SOL    HW232907   5.420   6.802   1.170
10670SOL     OW32908   5.365   4.269   5.240
10670SOL    HW132909   5.455   4.233   5.215
10670SOL    HW232910   5.299   4.194   5.245
10671SOL     OW32911   2.638   2.402   3.159
10671SOL    HW132912   2.595   2.314   3.140
10671SOL    HW232913   2.724   2.409   3.107
10672SOL     OW32914   6.581   3.186   0.824
10672SOL    HW132915   6.577   3.097   0.868
10672SOL    HW232916   6.672   3.200   0.785
10673SOL     OW32917   1.277   1.057   6.342
10673SOL    HW132918   1.359   1.039   6.396
10673SOL    HW232919   1.202   1.084   6.402
10674SOL     OW32920   3.767   4.047   2.209
10674SOL    HW132921   3.852   3.994   2.219
10674SOL    HW232922   3.789   4.144   2.201
10675SOL     OW32923   1.818   0.349   6.665
10675SOL    HW132924   1.905   0.301   6.668
10675SOL    HW232925   1.805   0.387   6.573
10676SOL     OW32926   6.746   6.208   6.174
10676SOL    HW132927   6.845   6.196   6.175
10676SOL    HW232928   6.723   6.302   6.201
10677SOL     OW32929   1.441   0.501   2.286
10677SOL    HW132930   1.518   0.438   2.280
10677SOL    HW232931   1.366   0.458   2.336
10678SOL     OW32932   4.027   5.784   4.419
10678SOL    HW132933   4.006   5.771   4.515
10678SOL    HW232934   4.097   5.855   4.409
10679SOL     OW32935   4.491   5.807   5.986
10679SOL    HW132936   4.422   5.830   6.056
10679SOL    HW232937   4.582   5.817   6.026
10680SOL     OW32938   3.173   1.723   3.029
10680SOL    HW132939   3.259   1.681   3.000
10680SOL    HW232940   3.139   1.783   2.957
10681SOL     OW32941   0.646   3.538   0.535
10681SOL    HW132942   0.602   3.595   0.604
10681SOL    HW232943   0.599   3.450   0.530
10682SOL     OW32944   1.393   1.138   4.943
10682SOL    HW132945   1.338   1.145   5.027
10682SOL    HW232946   1.334   1.149   4.863
10683SOL     OW32947   3.526   1.833   3.561
10683SOL    HW132948   3.524   1.759   3.628
10683SOL    HW232949   3.433   1.867   3.546
10684SOL     OW32950   5.551   4.062   1.328
10684SOL    HW132951   5.572   4.138   1.388
10684SOL    HW232952   5.581   3.976   1.370
10685SOL     OW32953   0.532   5.562   2.468
10685SOL    HW132954   0.522   5.484   2.530
10685SOL    HW232955   0.488   5.643   2.508
10686SOL     OW32956   1.095   4.961   6.169
10686SOL    HW132957   1.035   4.885   6.142
10686SOL    HW232958   1.164   4.927   6.233
10687SOL     OW32959   6.667   5.172   1.567
10687SOL    HW132960   6.604   5.235   1.520
10687SOL    HW232961   6.630   5.079   1.563
10688SOL     OW32962   6.556   4.298   2.838
10688SOL    HW132963   6.479   4.282   2.777
10688SOL    HW232964   6.593   4.210   2.869
10689SOL     OW32965   0.642   5.821   3.367
10689SOL    HW132966   0.601   5.907   3.397
10689SOL    HW232967   0.731   5.839   3.324
10690SOL     OW32968   0.384   6.246   3.216
10690SOL    HW132969   0.412   6.290   3.302
10690SOL    HW232970   0.297   6.199   3.229
10691SOL     OW32971   0.726   2.221   2.336
10691SOL    HW132972   0.743   2.127   2.364
10691SOL    HW232973   0.812   2.272   2.338
10692SOL     OW32974   2.839   5.939   3.018
10692SOL    HW132975   2.921   5.995   3.002
10692SOL    HW232976   2.765   5.972   2.960
10693SOL     OW32977   2.389   6.857   6.873
10693SOL    HW132978   2.434   6.945   6.861
10693SOL    HW232979   2.295   6.872   6.905
10694SOL     OW32980   5.121   6.287   1.615
10694SOL    HW132981   5.055   6.293   1.690
10694SOL    HW232982   5.198   6.348   1.633
10695SOL     OW32983   5.173   1.889   3.203
10695SOL    HW132984   5.232   1.912   3.279
10695SOL    HW232985   5.206   1.933   3.120
10696SOL     OW32986   6.940   3.711   3.822
10696SOL    HW132987   6.896   3.763   3.748
10696SOL    HW232988   6.873   3.647   3.861
10697SOL     OW32989   0.058   6.226   4.348
10697SOL    HW132990   6.999   6.212   4.404
10697SOL    HW232991   0.044   6.184   4.258
10698SOL     OW32992   4.745   5.642   5.243
10698SOL    HW132993   4.704   5.727   5.212
10698SOL    HW232994   4.795   5.658   5.328
10699SOL     OW32995   4.060   3.270   2.130
10699SOL    HW132996   3.977   3.298   2.083
10699SOL    HW232997   4.117   3.350   2.147
10700SOL     OW32998   6.961   6.917   1.896
10700SOL    HW132999   6.990   7.012   1.884
10700SOL    HW233000   6.909   6.889   1.816
10701SOL     OW33001   3.438   6.076   6.978
10701SOL    HW133002   3.380   6.078   6.896
10701SOL    HW233003   3.534   6.073   6.949
10702SOL     OW33004   5.688   3.072   2.289
10702SOL    HW133005   5.599   3.025   2.284
10702SOL    HW233006   5.685   3.140   2.362
10703SOL     OW33007   3.254   4.101   5.046
10703SOL    HW133008   3.233   4.152   5.130
10703SOL    HW233009   3.353   4.102   5.030
10704SOL     OW33010   6.354   5.395   1.846
10704SOL    HW133011   6.440   5.344   1.844
10704SOL    HW233012   6.282   5.342   1.802
10705SOL     OW33013   6.256   4.780   1.739
10705SOL    HW133014   6.275   4.684   1.716
10705SOL    HW233015   6.341   4.828   1.758
10706SOL     OW33016   4.833   6.826   2.574
10706SOL    HW133017   4.812   6.734   2.608
10706SOL    HW233018   4.771   6.849   2.499
10707SOL     OW33019   0.258   6.260   3.638
10707SOL    HW133020   0.255   6.309   3.726
10707SOL    HW233021   0.290   6.167   3.653
10708SOL     OW33022   4.099   0.886   2.370
10708SOL    HW133023   4.031   0.946   2.411
10708SOL    HW233024   4.089   0.794   2.406
10709SOL     OW33025   6.344   6.597   4.915
10709SOL    HW133026   6.284   6.669   4.881
10709SOL    HW233027   6.397   6.558   4.840
10710SOL     OW33028   0.435   6.567   4.999
10710SOL    HW133029   0.479   6.619   4.926
10710SOL    HW233030   0.453   6.611   5.087
10711SOL     OW33031   1.668   6.072   3.833
10711SOL    HW133032   1.594   6.135   3.854
10711SOL    HW233033   1.630   5.982   3.812
10712SOL     OW33034   2.937   1.175   1.546
10712SOL    HW133035   2.884   1.238   1.602
10712SOL    HW233036   2.877   1.135   1.476
10713SOL     OW33037   1.193   4.198   1.620
10713SOL    HW133038   1.185   4.172   1.716
10713SOL    HW233039   1.287   4.184   1.589
10714SOL     OW33040   6.121   3.926   4.749
10714SOL    HW133041   6.065   3.893   4.825
10714SOL    HW233042   6.217   3.905   4.767
10715SOL     OW33043   4.764   6.776   3.041
10715SOL    HW133044   4.746   6.850   3.107
10715SOL    HW233045   4.815   6.703   3.086
10716SOL     OW33046   5.597   2.467   4.768
10716SOL    HW133047   5.580   2.499   4.675
10716SOL    HW233048   5.651   2.383   4.765
10717SOL     OW33049   1.036   2.734   1.152
10717SOL    HW133050   1.052   2.669   1.078
10717SOL    HW233051   1.074   2.824   1.127
10718SOL     OW33052   1.586   3.224   6.523
10718SOL    HW133053   1.536   3.163   6.461
10718SOL    HW233054   1.678   3.189   6.538
10719SOL     OW33055   5.123   5.478   0.614
10719SOL    HW133056   5.078   5.512   0.696
10719SOL    HW233057   5.141   5.554   0.551
10720SOL     OW33058   6.689   3.408   5.243
10720SOL    HW133059   6.681   3.459   5.157
10720SOL    HW233060   6.609   3.425   5.300
10721SOL     OW33061   5.982   4.290   5.398
10721SOL    HW133062   5.940   4.304   5.487
10721SOL    HW233063   5.998   4.379   5.355
10722SOL     OW33064   0.308   3.530   0.733
10722SOL    HW133065   0.225   3.573   0.698
10722SOL    HW233066   0.285   3.444   0.778
10723SOL     OW33067   0.690   3.870   5.932
10723SOL    HW133068   0.708   3.806   5.857
10723SOL    HW233069   0.768   3.932   5.943
10724SOL     OW33070   4.360   1.142   0.066
10724SOL    HW133071   4.350   1.059   0.120
10724SOL    HW233072   4.347   1.121   6.991
10725SOL     OW33073   0.052   4.725   4.461
10725SOL    HW133074   0.085   4.643   4.415
10725SOL    HW233075   0.069   4.805   4.403
10726SOL     OW33076   5.313   6.739   6.081
10726SOL    HW133077   5.292   6.828   6.042
10726SOL    HW233078   5.311   6.669   6.009
10727SOL     OW33079   0.587   5.303   4.219
10727SOL    HW133080   0.634   5.239   4.280
10727SOL    HW233081   0.510   5.345   4.267
10728SOL     OW33082   6.081   6.158   1.115
10728SOL    HW133083   6.168   6.113   1.134
10728SOL    HW233084   6.082   6.250   1.154
10729SOL     OW33085   5.516   0.960   2.517
10729SOL    HW133086   5.582   0.926   2.450
10729SOL    HW233087   5.526   1.060   2.525
10730SOL     OW33088   2.225   0.421   1.691
10730SOL    HW133089   2.212   0.354   1.619
10730SOL    HW233090   2.218   0.513   1.653
10731SOL     OW33091   3.012   5.595   0.373
10731SOL    HW133092   3.047   5.607   0.280
10731SOL    HW233093   3.028   5.500   0.402
10732SOL     OW33094   4.888   5.509   2.356
10732SOL    HW133095   4.958   5.525   2.286
10732SOL    HW233096   4.834   5.592   2.368
10733SOL     OW33097   4.913   1.811   6.833
10733SOL    HW133098   4.995   1.759   6.807
10733SOL    HW233099   4.933   1.908   6.832
10734SOL     OW33100   1.159   0.310   0.075
10734SOL    HW133101   1.132   0.238   0.139
10734SOL    HW233102   1.213   0.270   0.001
10735SOL     OW33103   1.556   4.754   2.766
10735SOL    HW133104   1.518   4.817   2.699
10735SOL    HW233105   1.504   4.761   2.851
10736SOL     OW33106   0.320   0.599   3.620
10736SOL    HW133107   0.314   0.654   3.536
10736SOL    HW233108   0.407   0.550   3.622
10737SOL     OW33109   1.382   1.607   0.629
10737SOL    HW133110   1.436   1.647   0.555
10737SOL    HW233111   1.358   1.677   0.695
10738SOL     OW33112   2.404   0.801   2.854
10738SOL    HW133113   2.380   0.745   2.775
10738SOL    HW233114   2.331   0.795   2.923
10739SOL     OW33115   0.165   1.612   1.425
10739SOL    HW133116   0.235   1.585   1.358
10739SOL    HW233117   0.134   1.532   1.475
10740SOL     OW33118   1.129   4.808   5.414
10740SOL    HW133119   1.215   4.855   5.395
10740SOL    HW233120   1.066   4.871   5.460
10741SOL     OW33121   0.188   0.567   3.035
10741SOL    HW133122   0.266   0.552   3.096
10741SOL    HW233123   0.205   0.647   2.978
10742SOL     OW33124   5.978   0.226   1.315
10742SOL    HW133125   5.891   0.184   1.292
10742SOL    HW233126   6.025   0.253   1.230
10743SOL     OW33127   2.380   1.547   4.611
10743SOL    HW133128   2.467   1.502   4.591
10743SOL    HW233129   2.350   1.600   4.531
10744SOL     OW33130   2.966   1.168   2.282
10744SOL    HW133131   2.932   1.262   2.285
10744SOL    HW233132   3.057   1.167   2.241
10745SOL     OW33133   1.178   4.690   1.091
10745SOL    HW133134   1.113   4.765   1.098
10745SOL    HW233135   1.262   4.723   1.047
10746SOL     OW33136   1.690   3.662   1.482
10746SOL    HW133137   1.753   3.622   1.549
10746SOL    HW233138   1.739   3.685   1.398
10747SOL     OW33139   4.417   0.718   3.036
10747SOL    HW133140   4.495   0.768   2.998
10747SOL    HW233141   4.443   0.623   3.052
10748SOL     OW33142   3.362   0.617   1.160
10748SOL    HW133143   3.423   0.582   1.230
10748SOL    HW233144   3.393   0.587   1.070
10749SOL     OW33145   0.133   4.902   3.878
10749SOL    HW133146   0.130   4.823   3.939
10749SOL    HW233147   0.090   4.980   3.924
10750SOL     OW33148   4.001   6.006   4.632
10750SOL    HW133149   3.969   6.095   4.665
10750SOL    HW233150   3.965   5.934   4.690
10751SOL     OW33151   0.836   4.095   4.936
10751SOL    HW133152   0.877   4.167   4.993
10751SOL    HW233153   0.897   4.015   4.935
10752SOL     OW33154   6.561   3.687   6.217
10752SOL    HW133155   6.652   3.682   6.177
10752SOL    HW233156   6.492   3.691   6.145
10753SOL     OW33157   5.158   0.507   4.300
10753SOL    HW133158   5.178   0.555   4.215
10753SOL    HW233159   5.237   0.452   4.327
10754SOL     OW33160   1.508   1.867   3.745
10754SOL    HW133161   1.409   1.868   3.752
10754SOL    HW233162   1.544   1.782   3.784
10755SOL     OW33163   0.514   2.404   0.458
10755SOL    HW133164   0.504   2.305   0.447
10755SOL    HW233165   0.565   2.441   0.380
10756SOL     OW33166   6.590   4.701   6.808
10756SOL    HW133167   6.642   4.692   6.893
10756SOL    HW233168   6.500   4.740   6.827
10757SOL     OW33169   1.101   3.123   0.438
10757SOL    HW133170   1.176   3.168   0.487
10757SOL    HW233171   1.137   3.050   0.380
10758SOL     OW33172   0.987   6.872   5.171
10758SOL    HW133173   0.955   6.924   5.092
10758SOL    HW233174   1.048   6.799   5.140
10759SOL     OW33175   1.771   3.197   0.051
10759SOL    HW133176   1.692   3.257   0.047
10759SOL    HW233177   1.853   3.247   0.022
10760SOL     OW33178   6.533   1.168   0.404
10760SOL    HW133179   6.550   1.142   0.309
10760SOL    HW233180   6.620   1.177   0.452
10761SOL     OW33181   1.304   2.049   6.161
10761SOL    HW133182   1.209   2.052   6.129
10761SOL    HW233183   1.307   2.066   6.259
10762SOL     OW33184   3.776   1.830   4.947
10762SOL    HW133185   3.822   1.821   5.035
10762SOL    HW233186   3.773   1.926   4.920
10763SOL     OW33187   4.631   6.466   1.236
10763SOL    HW133188   4.642   6.513   1.149
10763SOL    HW233189   4.648   6.369   1.225
10764SOL     OW33190   5.962   2.047   5.287
10764SOL    HW133191   6.007   1.982   5.225
10764SOL    HW233192   5.893   2.099   5.235
10765SOL     OW33193   5.677   2.943   1.122
10765SOL    HW133194   5.687   2.964   1.219
10765SOL    HW233195   5.667   2.845   1.110
10766SOL     OW33196   3.658   3.114   1.044
10766SOL    HW133197   3.731   3.058   1.005
10766SOL    HW233198   3.638   3.190   0.982
10767SOL     OW33199   1.518   0.516   6.906
10767SOL    HW133200   1.449   0.510   6.978
10767SOL    HW233201   1.475   0.502   6.817
10768SOL     OW33202   4.082   5.458   1.208
10768SOL    HW133203   4.003   5.410   1.168
10768SOL    HW233204   4.107   5.414   1.294
10769SOL     OW33205   2.036   5.149   4.983
10769SOL    HW133206   2.079   5.219   5.041
10769SOL    HW233207   2.056   5.058   5.020
10770SOL     OW33208   5.838   0.322   4.735
10770SOL    HW133209   5.897   0.302   4.813
10770SOL    HW233210   5.746   0.343   4.767
10771SOL     OW33211   5.219   1.181   4.773
10771SOL    HW133212   5.266   1.245   4.834
10771SOL    HW233213   5.183   1.231   4.694
10772SOL     OW33214   6.528   6.451   4.780
10772SOL    HW133215   6.604   6.492   4.832
10772SOL    HW233216   6.562   6.374   4.727
10773SOL     OW33217   6.362   5.596   6.583
10773SOL    HW133218   6.306   5.651   6.521
10773SOL    HW233219   6.445   5.646   6.607
10774SOL     OW33220   1.657   1.517   6.891
10774SOL    HW133221   1.683   1.590   6.828
10774SOL    HW233222   1.577   1.469   6.855
10775SOL     OW33223   0.327   2.831   0.841
10775SOL    HW133224   0.242   2.784   0.818
10775SOL    HW233225   0.386   2.835   0.760
10776SOL     OW33226   1.534   6.368   6.947
10776SOL    HW133227   1.509   6.308   6.870
10776SOL    HW233228   1.630   6.394   6.938
10777SOL     OW33229   4.163   6.327   4.226
10777SOL    HW133230   4.094   6.265   4.263
10777SOL    HW233231   4.123   6.384   4.154
10778SOL     OW33232   5.674   6.186   5.075
10778SOL    HW133233   5.765   6.150   5.094
10778SOL    HW233234   5.607   6.112   5.078
10779SOL     OW33235   6.414   4.902   3.460
10779SOL    HW133236   6.467   4.885   3.543
10779SOL    HW233237   6.422   4.999   3.435
10780SOL     OW33238   1.418   0.261   3.759
10780SOL    HW133239   1.372   0.285   3.844
10780SOL    HW233240   1.367   0.189   3.712
10781SOL     OW33241   3.836   1.811   2.790
10781SOL    HW133242   3.794   1.769   2.870
10781SOL    HW233243   3.843   1.909   2.803
10782SOL     OW33244   0.001   1.646   3.535
10782SOL    HW133245   0.096   1.667   3.517
10782SOL    HW233246   6.964   1.701   3.476
10783SOL     OW33247   1.015   3.416   3.617
10783SOL    HW133248   1.105   3.406   3.660
10783SOL    HW233249   1.014   3.369   3.529
10784SOL     OW33250   3.158   0.404   3.167
10784SOL    HW133251   3.123   0.324   3.118
10784SOL    HW233252   3.101   0.484   3.145
10785SOL     OW33253   0.619   4.811   0.973
10785SOL    HW133254   0.705   4.760   0.971
10785SOL    HW233255   0.636   4.901   1.012
10786SOL     OW33256   4.966   4.581   2.332
10786SOL    HW133257   5.006   4.650   2.272
10786SOL    HW233258   5.038   4.519   2.363
10787SOL     OW33259   3.375   1.504   4.137
10787SOL    HW133260   3.409   1.501   4.231
10787SOL    HW233261   3.383   1.598   4.102
10788SOL     OW33262   2.441   4.730   6.487
10788SOL    HW133263   2.507   4.750   6.559
10788SOL    HW233264   2.423   4.632   6.484
10789SOL     OW33265   5.836   2.819   0.427
10789SOL    HW133266   5.844   2.788   0.333
10789SOL    HW233267   5.838   2.919   0.430
10790SOL     OW33268   1.485   0.634   2.854
10790SOL    HW133269   1.426   0.553   2.846
10790SOL    HW233270   1.429   0.715   2.871
10791SOL     OW33271   0.114   0.570   1.040
10791SOL    HW133272   0.201   0.522   1.034
10791SOL    HW233273   0.039   0.507   1.017
10792SOL     OW33274   3.970   3.886   2.174
10792SOL    HW133275   4.014   3.837   2.250
10792SOL    HW233276   4.020   3.868   2.090
10793SOL     OW33277   5.334   2.548   4.350
10793SOL    HW133278   5.313   2.459   4.390
10793SOL    HW233279   5.391   2.536   4.268
10794SOL     OW33280   2.980   3.796   3.614
10794SOL    HW133281   3.058   3.738   3.591
10794SOL    HW233282   3.002   3.853   3.693
10795SOL     OW33283   6.920   3.519   3.423
10795SOL    HW133284   6.908   3.506   3.521
10795SOL    HW233285   6.838   3.563   3.385
10796SOL     OW33286   5.002   6.589   0.337
10796SOL    HW133287   4.949   6.674   0.335
10796SOL    HW233288   4.939   6.511   0.332
10797SOL     OW33289   3.644   1.950   1.291
10797SOL    HW133290   3.625   1.986   1.200
10797SOL    HW233291   3.615   2.017   1.360
10798SOL     OW33292   2.577   6.400   0.894
10798SOL    HW133293   2.534   6.462   0.828
10798SOL    HW233294   2.593   6.311   0.851
10799SOL     OW33295   3.781   0.860   2.133
10799SOL    HW133296   3.799   0.945   2.183
10799SOL    HW233297   3.704   0.874   2.071
10800SOL     OW33298   0.595   0.130   0.309
10800SOL    HW133299   0.585   0.165   0.402
10800SOL    HW233300   0.652   0.192   0.255
10801SOL     OW33301   0.870   6.551   5.588
10801SOL    HW133302   0.874   6.523   5.492
10801SOL    HW233303   0.922   6.636   5.600
10802SOL     OW33304   1.514   2.813   3.229
10802SOL    HW133305   1.599   2.864   3.216
10802SOL    HW233306   1.446   2.872   3.273
10803SOL     OW33307   3.723   4.225   5.539
10803SOL    HW133308   3.758   4.150   5.483
10803SOL    HW233309   3.770   4.225   5.627
10804SOL     OW33310   5.783   3.230   1.926
10804SOL    HW133311   5.850   3.234   2.000
10804SOL    HW233312   5.827   3.252   1.839
10805SOL     OW33313   4.113   0.060   7.000
10805SOL    HW133314   4.043   0.073   6.930
10805SOL    HW233315   4.167   7.000   6.979
10806SOL     OW33316   4.668   4.374   6.008
10806SOL    HW133317   4.667   4.470   6.036
10806SOL    HW233318   4.762   4.340   6.009
10807SOL     OW33319   1.316   6.535   3.378
10807SOL    HW133320   1.287   6.445   3.345
10807SOL    HW233321   1.238   6.597   3.379
10808SOL     OW33322   6.604   3.795   6.544
10808SOL    HW133323   6.701   3.794   6.568
10808SOL    HW233324   6.594   3.765   6.449
10809SOL     OW33325   3.018   5.839   3.612
10809SOL    HW133326   3.085   5.790   3.668
10809SOL    HW233327   3.050   5.932   3.595
10810SOL     OW33328   2.276   0.326   4.960
10810SOL    HW133329   2.240   0.280   5.042
10810SOL    HW233330   2.211   0.395   4.929
10811SOL     OW33331   4.221   4.743   5.726
10811SOL    HW133332   4.189   4.750   5.821
10811SOL    HW233333   4.173   4.811   5.670
10812SOL     OW33334   0.949   3.510   1.748
10812SOL    HW133335   1.006   3.434   1.779
10812SOL    HW233336   0.938   3.576   1.823
10813SOL     OW33337   1.988   5.479   0.145
10813SOL    HW133338   1.964   5.550   0.210
10813SOL    HW233339   2.080   5.444   0.166
10814SOL     OW33340   1.456   6.482   6.519
10814SOL    HW133341   1.522   6.541   6.566
10814SOL    HW233342   1.450   6.509   6.423
10815SOL     OW33343   4.662   4.241   3.261
10815SOL    HW133344   4.709   4.158   3.231
10815SOL    HW233345   4.653   4.240   3.361
10816SOL     OW33346   1.757   2.400   1.243
10816SOL    HW133347   1.832   2.419   1.307
10816SOL    HW233348   1.771   2.311   1.201
10817SOL     OW33349   5.537   6.618   2.599
10817SOL    HW133350   5.549   6.708   2.643
10817SOL    HW233351   5.582   6.548   2.655
10818SOL     OW33352   4.476   4.493   5.408
10818SOL    HW133353   4.479   4.393   5.402
10818SOL    HW233354   4.456   4.520   5.502
10819SOL     OW33355   6.856   4.409   0.003
10819SOL    HW133356   6.899   4.320   7.006
10819SOL    HW233357   6.887   4.475   6.958
10820SOL     OW33358   5.917   5.640   3.893
10820SOL    HW133359   6.014   5.614   3.892
10820SOL    HW233360   5.898   5.698   3.814
10821SOL     OW33361   5.637   6.263   2.148
10821SOL    HW133362   5.639   6.181   2.206
10821SOL    HW233363   5.570   6.251   2.075
10822SOL     OW33364   1.032   2.939   3.248
10822SOL    HW133365   0.956   2.921   3.311
10822SOL    HW233366   1.016   3.024   3.199
10823SOL     OW33367   1.796   5.515   1.636
10823SOL    HW133368   1.804   5.418   1.660
10823SOL    HW233369   1.881   5.562   1.658
10824SOL     OW33370   5.857   0.917   3.702
10824SOL    HW133371   5.937   0.870   3.665
10824SOL    HW233372   5.847   1.006   3.657
10825SOL     OW33373   3.206   0.227   6.284
10825SOL    HW133374   3.257   0.298   6.236
10825SOL    HW233375   3.164   0.165   6.216
10826SOL     OW33376   0.300   3.560   3.327
10826SOL    HW133377   0.224   3.620   3.302
10826SOL    HW233378   0.321   3.571   3.424
10827SOL     OW33379   6.274   4.266   4.377
10827SOL    HW133380   6.182   4.239   4.347
10827SOL    HW233381   6.341   4.201   4.341
10828SOL     OW33382   0.809   5.171   1.785
10828SOL    HW133383   0.742   5.221   1.731
10828SOL    HW233384   0.764   5.095   1.832
10829SOL     OW33385   3.627   2.490   0.865
10829SOL    HW133386   3.574   2.468   0.946
10829SOL    HW233387   3.565   2.512   0.789
10830SOL     OW33388   5.398   1.822   3.878
10830SOL    HW133389   5.360   1.730   3.866
10830SOL    HW233390   5.457   1.824   3.958
10831SOL     OW33391   3.880   6.048   2.178
10831SOL    HW133392   3.858   6.104   2.098
10831SOL    HW233393   3.834   6.085   2.259
10832SOL     OW33394   1.066   2.549   0.598
10832SOL    HW133395   1.051   2.451   0.584
10832SOL    HW233396   1.159   2.564   0.631
10833SOL     OW33397   1.409   1.365   2.189
10833SOL    HW133398   1.432   1.368   2.091
10833SOL    HW233399   1.328   1.309   2.202
10834SOL     OW33400   1.493   2.428   6.613
10834SOL    HW133401   1.462   2.518   6.644
10834SOL    HW233402   1.441   2.400   6.532
10835SOL     OW33403   6.515   2.453   6.976
10835SOL    HW133404   6.557   2.363   6.968
10835SOL    HW233405   6.566   2.508   0.019
10836SOL     OW33406   0.122   1.895   4.680
10836SOL    HW133407   0.104   1.913   4.777
10836SOL    HW233408   0.089   1.804   4.656
10837SOL     OW33409   6.996   4.872   0.266
10837SOL    HW133410   6.986   4.940   0.338
10837SOL    HW233411   6.947   4.789   0.292
10838SOL     OW33412   5.968   6.341   4.705
10838SOL    HW133413   5.977   6.373   4.611
10838SOL    HW233414   6.039   6.273   4.724
10839SOL     OW33415   3.898   3.038   0.898
10839SOL    HW133416   3.908   3.115   0.835
10839SOL    HW233417   3.880   2.954   0.845
10840SOL     OW33418   3.975   5.488   2.150
10840SOL    HW133419   3.881   5.506   2.122
10840SOL    HW233420   4.022   5.436   2.079
10841SOL     OW33421   4.767   5.805   0.182
10841SOL    HW133422   4.813   5.741   0.243
10841SOL    HW233423   4.717   5.755   0.112
10842SOL     OW33424   5.129   2.777   1.375
10842SOL    HW133425   5.118   2.850   1.307
10842SOL    HW233426   5.179   2.701   1.333
10843SOL     OW33427   0.804   2.406   1.379
10843SOL    HW133428   0.738   2.333   1.362
10843SOL    HW233429   0.754   2.490   1.400
10844SOL     OW33430   0.317   6.981   4.074
10844SOL    HW133431   0.248   6.948   4.139
10844SOL    HW233432   0.272   7.005   3.988
10845SOL     OW33433   3.247   0.294   5.859
10845SOL    HW133434   3.273   0.204   5.824
10845SOL    HW233435   3.221   0.353   5.783
10846SOL     OW33436   4.496   2.691   1.333
10846SOL    HW133437   4.412   2.640   1.316
10846SOL    HW233438   4.567   2.659   1.271
10847SOL     OW33439   3.659   3.733   6.434
10847SOL    HW133440   3.654   3.639   6.401
10847SOL    HW233441   3.664   3.796   6.356
10848SOL     OW33442   2.628   2.678   0.142
10848SOL    HW133443   2.574   2.757   0.111
10848SOL    HW233444   2.711   2.670   0.085
10849SOL     OW33445   2.741   5.128   2.938
10849SOL    HW133446   2.656   5.092   2.977
10849SOL    HW233447   2.738   5.120   2.838
10850SOL     OW33448   3.801   5.721   0.239
10850SOL    HW133449   3.704   5.744   0.249
10850SOL    HW233450   3.810   5.642   0.180
10851SOL     OW33451   2.485   3.015   6.477
10851SOL    HW133452   2.489   3.067   6.392
10851SOL    HW233453   2.496   2.918   6.457
10852SOL     OW33454   0.894   6.682   6.961
10852SOL    HW133455   0.910   6.721   6.870
10852SOL    HW233456   0.799   6.696   6.987
10853SOL     OW33457   3.533   2.262   5.758
10853SOL    HW133458   3.567   2.182   5.807
10853SOL    HW233459   3.464   2.233   5.691
10854SOL     OW33460   5.282   0.391   5.287
10854SOL    HW133461   5.356   0.331   5.317
10854SOL    HW233462   5.309   0.438   5.203
10855SOL     OW33463   2.709   6.420   1.737
10855SOL    HW133464   2.658   6.334   1.729
10855SOL    HW233465   2.807   6.400   1.744
10856SOL     OW33466   5.957   1.967   2.017
10856SOL    HW133467   5.925   2.051   1.973
10856SOL    HW233468   5.918   1.888   1.971
10857SOL     OW33469   5.810   2.305   3.090
10857SOL    HW133470   5.844   2.336   3.179
10857SOL    HW233471   5.726   2.252   3.103
10858SOL     OW33472   0.673   2.284   6.694
10858SOL    HW133473   0.732   2.362   6.712
10858SOL    HW233474   0.663   2.230   6.778
10859SOL     OW33475   2.089   3.361   4.074
10859SOL    HW133476   2.124   3.276   4.035
10859SOL    HW233477   2.093   3.433   4.004
10860SOL     OW33478   6.306   1.064   6.034
10860SOL    HW133479   6.356   1.149   6.019
10860SOL    HW233480   6.264   1.034   5.948
10861SOL     OW33481   4.091   3.183   3.099
10861SOL    HW133482   4.139   3.114   3.153
10861SOL    HW233483   4.107   3.273   3.140
10862SOL     OW33484   2.441   1.607   6.213
10862SOL    HW133485   2.517   1.664   6.243
10862SOL    HW233486   2.355   1.654   6.230
10863SOL     OW33487   3.932   0.584   2.895
10863SOL    HW133488   3.858   0.638   2.855
10863SOL    HW233489   4.000   0.645   2.936
10864SOL     OW33490   3.572   5.341   0.697
10864SOL    HW133491   3.581   5.363   0.795
10864SOL    HW233492   3.599   5.421   0.643
10865SOL     OW33493   6.157   1.343   2.883
10865SOL    HW133494   6.225   1.272   2.903
10865SOL    HW233495   6.205   1.428   2.859
10866SOL     OW33496   4.413   4.749   0.284
10866SOL    HW133497   4.324   4.760   0.239
10866SOL    HW233498   4.401   4.748   0.383
10867SOL     OW33499   3.042   3.923   0.391
10867SOL    HW133500   3.072   3.830   0.410
10867SOL    HW233501   3.004   3.964   0.474
10868SOL     OW33502   2.571   2.174   3.706
10868SOL    HW133503   2.499   2.208   3.646
10868SOL    HW233504   2.655   2.159   3.652
10869NA      NA33505   0.566   2.458   6.299
10870NA      NA33506   4.336   4.641   5.254
10871NA      NA33507   2.053   4.187   2.258
10872NA      NA33508   5.003   4.154   3.595
10873NA      NA33509   4.329   2.206   4.990
10874NA      NA33510   3.171   4.446   1.538
10875NA      NA33511   0.183   4.549   0.403
10876NA      NA33512   3.157   3.557   2.844
10877NA      NA33513   4.816   5.226   0.986
10878NA      NA33514   3.451   0.066   5.338
10879NA      NA33515   5.801   5.692   0.908
10880NA      NA33516   2.391   0.876   4.985
10881NA      NA33517   4.185   5.027   1.820
10882NA      NA33518   4.095   3.221   1.622
   7.02183   7.02183   7.02183
