Generated by trjconv : CNT in water t= 415.00000
33518
    1C        C    1   2.846   2.770   4.745
    1C        C    2   2.900   2.720   4.866
    1C        C    3   2.844   2.775   4.982
    1C        C    4   2.847   2.770   4.258
    1C        C    5   2.902   2.725   4.380
    1C        C    6   2.849   2.772   4.502
    1C        C    7   3.013   2.638   4.625
    1C        C    8   2.896   2.718   4.624
    1C        C    9   3.078   2.603   4.746
    1C        C   10   3.011   2.634   4.866
    1C        C   11   3.179   2.492   4.977
    1C        C   12   3.058   2.561   4.977
    1C        C   13   2.848   2.771   3.771
    1C        C   14   2.899   2.722   3.893
    1C        C   15   2.852   2.777   4.014
    1C        C   16   3.019   2.646   4.135
    1C        C   17   2.905   2.728   4.136
    1C        C   18   3.079   2.615   4.259
    1C        C   19   3.021   2.649   4.384
    1C        C   20   3.207   2.549   4.503
    1C        C   21   3.076   2.601   4.505
    1C        C   22   3.278   2.529   4.624
    1C        C   23   3.209   2.548   4.745
    1C        C   24   3.411   2.487   4.867
    1C        C   25   3.269   2.502   4.866
    1C        C   26   3.489   2.475   4.982
    1C        C   27   2.848   2.767   3.280
    1C        C   28   2.902   2.724   3.403
    1C        C   29   2.851   2.773   3.526
    1C        C   30   3.018   2.644   3.648
    1C        C   31   2.900   2.722   3.649
    1C        C   32   3.077   2.606   3.771
    1C        C   33   3.013   2.640   3.892
    1C        C   34   3.208   2.550   4.015
    1C        C   35   3.079   2.607   4.013
    1C        C   36   3.278   2.536   4.137
    1C        C   37   3.209   2.560   4.258
    1C        C   38   3.414   2.508   4.377
    1C        C   39   3.274   2.531   4.380
    1C        C   40   3.483   2.500   4.500
    1C        C   41   3.417   2.501   4.625
    1C        C   42   3.629   2.486   4.742
    1C        C   43   3.487   2.481   4.746
    1C        C   44   3.704   2.483   4.862
    1C        C   45   3.629   2.476   4.979
    1C        C   46   2.834   2.748   2.794
    1C        C   47   2.890   2.704   2.916
    1C        C   48   2.841   2.757   3.037
    1C        C   49   3.016   2.635   3.159
    1C        C   50   2.900   2.716   3.159
    1C        C   51   3.079   2.607   3.282
    1C        C   52   3.020   2.647   3.404
    1C        C   53   3.207   2.549   3.527
    1C        C   54   3.082   2.615   3.526
    1C        C   55   3.273   2.522   3.649
    1C        C   56   3.206   2.547   3.771
    1C        C   57   3.414   2.508   3.890
    1C        C   58   3.274   2.527   3.893
    1C        C   59   3.485   2.499   4.012
    1C        C   60   3.416   2.505   4.135
    1C        C   61   3.627   2.494   4.257
    1C        C   62   3.486   2.491   4.257
    1C        C   63   3.698   2.504   4.378
    1C        C   64   3.624   2.505   4.498
    1C        C   65   3.832   2.545   4.620
    1C        C   66   3.697   2.503   4.619
    1C        C   67   3.902   2.566   4.740
    1C        C   68   3.837   2.531   4.860
    1C        C   69   4.052   2.579   4.974
    1C        C   70   3.920   2.533   4.973
    1C        C   71   2.820   2.730   2.307
    1C        C   72   2.880   2.693   2.429
    1C        C   73   2.831   2.746   2.550
    1C        C   74   3.007   2.627   2.670
    1C        C   75   2.888   2.703   2.672
    1C        C   76   3.070   2.593   2.792
    1C        C   77   3.008   2.627   2.915
    1C        C   78   3.207   2.549   3.035
    1C        C   79   3.074   2.596   3.036
    1C        C   80   3.273   2.528   3.158
    1C        C   81   3.209   2.552   3.282
    1C        C   82   3.413   2.499   3.398
    1C        C   83   3.275   2.528   3.405
    1C        C   84   3.481   2.498   3.522
    1C        C   85   3.413   2.503   3.646
    1C        C   86   3.625   2.495   3.767
    1C        C   87   3.484   2.494   3.767
    1C        C   88   3.695   2.505   3.890
    1C        C   89   3.626   2.504   4.013
    1C        C   90   3.834   2.542   4.130
    1C        C   91   3.697   2.508   4.135
    1C        C   92   3.900   2.567   4.252
    1C        C   93   3.835   2.540   4.374
    1C        C   94   4.025   2.628   4.495
    1C        C   95   3.900   2.563   4.498
    1C        C   96   4.090   2.665   4.615
    1C        C   97   4.034   2.619   4.736
    1C        C   98   4.189   2.761   4.860
    1C        C   99   4.098   2.652   4.859
    1C        C  100   4.212   2.841   4.974
    1C        C  101   2.818   2.728   2.066
    1C        C  102   2.988   2.594   2.189
    1C        C  103   2.874   2.680   2.185
    1C        C  104   3.063   2.576   2.308
    1C        C  105   3.002   2.622   2.428
    1C        C  106   3.203   2.544   2.549
    1C        C  107   3.071   2.594   2.548
    1C        C  108   3.270   2.521   2.671
    1C        C  109   3.200   2.539   2.792
    1C        C  110   3.409   2.491   2.912
    1C        C  111   3.270   2.517   2.913
    1C        C  112   3.481   2.495   3.034
    1C        C  113   3.412   2.503   3.157
    1C        C  114   3.626   2.492   3.277
    1C        C  115   3.485   2.487   3.277
    1C        C  116   3.694   2.504   3.400
    1C        C  117   3.622   2.499   3.522
    1C        C  118   3.830   2.540   3.643
    1C        C  119   3.693   2.507   3.644
    1C        C  120   3.897   2.567   3.765
    1C        C  121   3.833   2.538   3.887
    1C        C  122   4.025   2.632   4.009
    1C        C  123   3.902   2.562   4.008
    1C        C  124   4.088   2.667   4.131
    1C        C  125   4.026   2.631   4.253
    1C        C  126   4.193   2.761   4.374
    1C        C  127   4.089   2.666   4.375
    1C        C  128   4.240   2.818   4.494
    1C        C  129   4.192   2.763   4.615
    1C        C  130   4.320   2.932   4.737
    1C        C  131   4.237   2.816   4.738
    1C        C  132   4.350   3.002   4.855
    1C        C  133   4.281   2.961   4.970
    1C        C  134   3.168   2.468   2.080
    1C        C  135   3.035   2.513   2.080
    1C        C  136   3.260   2.480   2.185
    1C        C  137   3.195   2.525   2.302
    1C        C  138   3.401   2.478   2.423
    1C        C  139   3.263   2.511   2.425
    1C        C  140   3.475   2.480   2.543
    1C        C  141   3.409   2.495   2.667
    1C        C  142   3.620   2.494   2.788
    1C        C  143   3.479   2.484   2.790
    1C        C  144   3.691   2.503   2.910
    1C        C  145   3.622   2.495   3.033
    1C        C  146   3.833   2.532   3.152
    1C        C  147   3.696   2.499   3.154
    1C        C  148   3.897   2.560   3.275
    1C        C  149   3.831   2.538   3.397
    1C        C  150   4.022   2.627   3.520
    1C        C  151   3.896   2.562   3.520
    1C        C  152   4.087   2.659   3.641
    1C        C  153   4.023   2.630   3.764
    1C        C  154   4.194   2.757   3.887
    1C        C  155   4.081   2.671   3.886
    1C        C  156   4.245   2.808   4.008
    1C        C  157   4.196   2.758   4.131
    1C        C  158   4.334   2.920   4.252
    1C        C  159   4.246   2.809   4.252
    1C        C  160   4.371   2.982   4.373
    1C        C  161   4.327   2.929   4.496
    1C        C  162   4.432   3.115   4.611
    1C        C  163   4.367   2.990   4.617
    1C        C  164   4.460   3.181   4.733
    1C        C  165   4.433   3.117   4.856
    1C        C  166   4.513   3.318   4.971
    1C        C  167   4.475   3.184   4.971
    1C        C  168   3.475   2.438   2.070
    1C        C  169   3.399   2.458   2.186
    1C        C  170   3.617   2.460   2.305
    1C        C  171   3.475   2.458   2.305
    1C        C  172   3.689   2.486   2.424
    1C        C  173   3.616   2.488   2.545
    1C        C  174   3.827   2.528   2.666
    1C        C  175   3.689   2.499   2.665
    1C        C  176   3.898   2.554   2.785
    1C        C  177   3.830   2.531   2.907
    1C        C  178   4.024   2.617   3.030
    1C        C  179   3.898   2.553   3.028
    1C        C  180   4.086   2.656   3.151
    1C        C  181   4.024   2.623   3.273
    1C        C  182   4.193   2.748   3.395
    1C        C  183   4.083   2.659   3.397
    1C        C  184   4.243   2.800   3.517
    1C        C  185   4.197   2.748   3.640
    1C        C  186   4.331   2.912   3.761
    1C        C  187   4.244   2.801   3.762
    1C        C  188   4.373   2.973   3.882
    1C        C  189   4.336   2.916   4.006
    1C        C  190   4.442   3.100   4.124
    1C        C  191   4.375   2.976   4.128
    1C        C  192   4.466   3.169   4.245
    1C        C  193   4.437   3.107   4.368
    1C        C  194   4.509   3.310   4.489
    1C        C  195   4.467   3.175   4.488
    1C        C  196   4.516   3.385   4.609
    1C        C  197   4.507   3.316   4.732
    1C        C  198   4.550   3.531   4.849
    1C        C  199   4.527   3.390   4.851
    1C        C  200   4.583   3.617   4.958
    1C        C  201   3.613   2.416   2.070
    1C        C  202   3.827   2.500   2.182
    1C        C  203   3.691   2.453   2.184
    1C        C  204   3.895   2.537   2.301
    1C        C  205   3.827   2.517   2.423
    1C        C  206   4.020   2.612   2.542
    1C        C  207   3.895   2.547   2.543
    1C        C  208   4.083   2.654   2.661
    1C        C  209   4.023   2.618   2.784
    1C        C  210   4.193   2.742   2.905
    1C        C  211   4.085   2.651   2.907
    1C        C  212   4.244   2.793   3.027
    1C        C  213   4.198   2.742   3.150
    1C        C  214   4.332   2.906   3.269
    1C        C  215   4.247   2.793   3.272
    1C        C  216   4.365   2.966   3.392
    1C        C  217   4.333   2.908   3.517
    1C        C  218   4.431   3.097   3.635
    1C        C  219   4.371   2.969   3.639
    1C        C  220   4.455   3.165   3.756
    1C        C  221   4.431   3.101   3.880
    1C        C  222   4.487   3.307   4.004
    1C        C  223   4.460   3.168   4.001
    1C        C  224   4.509   3.378   4.124
    1C        C  225   4.503   3.306   4.245
    1C        C  226   4.518   3.519   4.362
    1C        C  227   4.517   3.378   4.366
    1C        C  228   4.514   3.593   4.482
    1C        C  229   4.518   3.526   4.606
    1C        C  230   4.500   3.738   4.724
    1C        C  231   4.532   3.600   4.726
    1C        C  232   4.494   3.816   4.841
    1C        C  233   4.547   3.752   4.954
    1C        C  234   4.014   2.603   2.063
    1C        C  235   3.890   2.540   2.063
    1C        C  236   4.083   2.643   2.178
    1C        C  237   4.020   2.605   2.299
    1C        C  238   4.194   2.732   2.417
    1C        C  239   4.082   2.644   2.419
    1C        C  240   4.249   2.783   2.537
    1C        C  241   4.193   2.742   2.660
    1C        C  242   4.334   2.900   2.784
    1C        C  243   4.243   2.792   2.783
    1C        C  244   4.373   2.961   2.905
    1C        C  245   4.333   2.903   3.028
    1C        C  246   4.440   3.090   3.145
    1C        C  247   4.376   2.964   3.148
    1C        C  248   4.457   3.157   3.268
    1C        C  249   4.425   3.095   3.391
    1C        C  250   4.490   3.299   3.512
    1C        C  251   4.451   3.163   3.512
    1C        C  252   4.500   3.369   3.634
    1C        C  253   4.493   3.301   3.758
    1C        C  254   4.516   3.513   3.873
    1C        C  255   4.504   3.372   3.880
    1C        C  256   4.516   3.586   3.994
    1C        C  257   4.516   3.519   4.118
    1C        C  258   4.488   3.729   4.236
    1C        C  259   4.514   3.590   4.240
    1C        C  260   4.468   3.797   4.359
    1C        C  261   4.492   3.733   4.482
    1C        C  262   4.432   3.940   4.602
    1C        C  263   4.477   3.806   4.602
    1C        C  264   4.407   4.009   4.722
    1C        C  265   4.435   3.944   4.844
    1C        C  266   4.315   4.130   4.953
    1C        C  267   4.392   4.014   4.958
    1C        C  268   4.255   2.778   2.060
    1C        C  269   4.195   2.730   2.178
    1C        C  270   4.341   2.888   2.296
    1C        C  271   4.255   2.775   2.297
    1C        C  272   4.374   2.954   2.416
    1C        C  273   4.336   2.895   2.539
    1C        C  274   4.441   3.080   2.658
    1C        C  275   4.374   2.956   2.660
    1C        C  276   4.472   3.149   2.778
    1C        C  277   4.441   3.085   2.899
    1C        C  278   4.495   3.291   3.021
    1C        C  279   4.464   3.153   3.021
    1C        C  280   4.510   3.361   3.143
    1C        C  281   4.494   3.294   3.266
    1C        C  282   4.510   3.506   3.386
    1C        C  283   4.505   3.365   3.388
    1C        C  284   4.512   3.578   3.507
    1C        C  285   4.512   3.510   3.631
    1C        C  286   4.489   3.724   3.748
    1C        C  287   4.512   3.584   3.751
    1C        C  288   4.476   3.795   3.869
    1C        C  289   4.491   3.725   3.991
    1C        C  290   4.428   3.929   4.114
    1C        C  291   4.477   3.796   4.113
    1C        C  292   4.401   3.995   4.236
    1C        C  293   4.426   3.932   4.359
    1C        C  294   4.328   4.124   4.475
    1C        C  295   4.398   4.001   4.479
    1C        C  296   4.283   4.183   4.595
    1C        C  297   4.327   4.127   4.717
    1C        C  298   4.199   4.311   4.834
    1C        C  299   4.282   4.194   4.834
    1C        C  300   4.170   4.397   4.945
    1C        C  301   4.343   2.885   2.058
    1C        C  302   4.465   3.067   2.175
    1C        C  303   4.392   2.944   2.176
    1C        C  304   4.481   3.142   2.295
    1C        C  305   4.441   3.078   2.414
    1C        C  306   4.509   3.281   2.535
    1C        C  307   4.468   3.145   2.536
    1C        C  308   4.516   3.355   2.655
    1C        C  309   4.501   3.287   2.778
    1C        C  310   4.518   3.502   2.899
    1C        C  311   4.508   3.361   2.899
    1C        C  312   4.515   3.572   3.021
    1C        C  313   4.514   3.502   3.144
    1C        C  314   4.480   3.715   3.262
    1C        C  315   4.506   3.576   3.264
    1C        C  316   4.468   3.786   3.384
    1C        C  317   4.489   3.718   3.506
    1C        C  318   4.428   3.926   3.623
    1C        C  319   4.471   3.791   3.625
    1C        C  320   4.395   3.988   3.746
    1C        C  321   4.425   3.927   3.869
    1C        C  322   4.317   4.109   3.988
    1C        C  323   4.397   3.992   3.991
    1C        C  324   4.278   4.166   4.111
    1C        C  325   4.323   4.113   4.234
    1C        C  326   4.190   4.285   4.350
    1C        C  327   4.285   4.180   4.352
    1C        C  328   4.136   4.334   4.471
    1C        C  329   4.190   4.289   4.594
    1C        C  330   4.024   4.434   4.709
    1C        C  331   4.140   4.351   4.710
    1C        C  332   3.968   4.485   4.827
    1C        C  333   4.053   4.473   4.938
    1C        C  334   4.556   3.264   2.061
    1C        C  335   4.533   3.126   2.064
    1C        C  336   4.536   3.348   2.171
    1C        C  337   4.515   3.280   2.293
    1C        C  338   4.525   3.494   2.409
    1C        C  339   4.523   3.352   2.414
    1C        C  340   4.521   3.566   2.530
    1C        C  341   4.525   3.496   2.653
    1C        C  342   4.492   3.707   2.770
    1C        C  343   4.515   3.568   2.774
    1C        C  344   4.477   3.778   2.891
    1C        C  345   4.490   3.711   3.015
    1C        C  346   4.426   3.914   3.135
    1C        C  347   4.466   3.779   3.136
    1C        C  348   4.396   3.982   3.255
    1C        C  349   4.424   3.920   3.379
    1C        C  350   4.319   4.106   3.500
    1C        C  351   4.395   3.987   3.500
    1C        C  352   4.277   4.165   3.621
    1C        C  353   4.319   4.107   3.743
    1C        C  354   4.178   4.266   3.864
    1C        C  355   4.278   4.166   3.865
    1C        C  356   4.123   4.310   3.986
    1C        C  357   4.179   4.268   4.109
    1C        C  358   4.012   4.401   4.225
    1C        C  359   4.131   4.326   4.228
    1C        C  360   3.953   4.442   4.347
    1C        C  361   4.018   4.411   4.469
    1C        C  362   3.823   4.505   4.590
    1C        C  363   3.953   4.451   4.588
    1C        C  364   3.760   4.543   4.711
    1C        C  365   3.836   4.535   4.830
    1C        C  366   3.626   4.591   4.947
    1C        C  367   3.764   4.576   4.943
    1C        C  368   4.514   3.561   2.049
    1C        C  369   4.527   3.489   2.168
    1C        C  370   4.493   3.704   2.283
    1C        C  371   4.519   3.565   2.287
    1C        C  372   4.490   3.776   2.404
    1C        C  373   4.504   3.706   2.526
    1C        C  374   4.425   3.906   2.646
    1C        C  375   4.477   3.774   2.646
    1C        C  376   4.393   3.972   2.767
    1C        C  377   4.425   3.910   2.889
    1C        C  378   4.323   4.096   3.007
    1C        C  379   4.399   3.977   3.011
    1C        C  380   4.276   4.151   3.128
    1C        C  381   4.318   4.100   3.253
    1C        C  382   4.174   4.256   3.373
    1C        C  383   4.274   4.156   3.376
    1C        C  384   4.117   4.298   3.495
    1C        C  385   4.173   4.261   3.619
    1C        C  386   4.007   4.389   3.739
    1C        C  387   4.122   4.309   3.742
    1C        C  388   3.946   4.426   3.861
    1C        C  389   4.005   4.388   3.984
    1C        C  390   3.812   4.479   4.105
    1C        C  391   3.945   4.430   4.104
    1C        C  392   3.749   4.504   4.228
    1C        C  393   3.822   4.493   4.349
    1C        C  394   3.614   4.550   4.473
    1C        C  395   3.753   4.523   4.469
    1C        C  396   3.544   4.558   4.595
    1C        C  397   3.619   4.554   4.715
    1C        C  398   3.407   4.546   4.837
    1C        C  399   3.546   4.571   4.834
    1C        C  400   3.338   4.517   4.955
    1C        C  401   4.501   3.700   2.046
    1C        C  402   4.454   3.914   2.163
    1C        C  403   4.483   3.776   2.162
    1C        C  404   4.415   3.976   2.284
    1C        C  405   4.443   3.909   2.405
    1C        C  406   4.325   4.092   2.519
    1C        C  407   4.402   3.974   2.524
    1C        C  408   4.279   4.146   2.641
    1C        C  409   4.316   4.090   2.765
    1C        C  410   4.176   4.250   2.883
    1C        C  411   4.279   4.154   2.886
    1C        C  412   4.122   4.296   3.006
    1C        C  413   4.176   4.250   3.128
    1C        C  414   4.000   4.371   3.249
    1C        C  415   4.123   4.302   3.249
    1C        C  416   3.940   4.407   3.371
    1C        C  417   3.998   4.375   3.496
    1C        C  418   3.810   4.474   3.617
    1C        C  419   3.940   4.418   3.617
    1C        C  420   3.742   4.492   3.740
    1C        C  421   3.814   4.477   3.860
    1C        C  422   3.609   4.533   3.984
    1C        C  423   3.748   4.504   3.982
    1C        C  424   3.540   4.532   4.107
    1C        C  425   3.609   4.524   4.230
    1C        C  426   3.401   4.539   4.355
    1C        C  427   3.542   4.545   4.352
    1C        C  428   3.329   4.538   4.477
    1C        C  429   3.403   4.548   4.597
    1C        C  430   3.191   4.508   4.720
    1C        C  431   3.331   4.535   4.718
    1C        C  432   3.122   4.489   4.843
    1C        C  433   3.201   4.493   4.959
    1C        C  434   4.382   4.117   2.049
    1C        C  435   4.444   3.992   2.047
    1C        C  436   4.299   4.155   2.159
    1C        C  437   4.333   4.092   2.281
    1C        C  438   4.177   4.247   2.396
    1C        C  439   4.278   4.148   2.398
    1C        C  440   4.125   4.294   2.519
    1C        C  441   4.178   4.245   2.640
    1C        C  442   4.003   4.371   2.763
    1C        C  443   4.121   4.293   2.760
    1C        C  444   3.942   4.410   2.884
    1C        C  445   4.005   4.375   3.005
    1C        C  446   3.808   4.459   3.128
    1C        C  447   3.938   4.402   3.126
    1C        C  448   3.745   4.484   3.252
    1C        C  449   3.810   4.462   3.376
    1C        C  450   3.604   4.522   3.493
    1C        C  451   3.742   4.497   3.495
    1C        C  452   3.535   4.529   3.617
    1C        C  453   3.604   4.520   3.740
    1C        C  454   3.395   4.539   3.865
    1C        C  455   3.536   4.536   3.863
    1C        C  456   3.327   4.527   3.989
    1C        C  457   3.399   4.528   4.110
    1C        C  458   3.191   4.499   4.234
    1C        C  459   3.330   4.527   4.234
    1C        C  460   3.124   4.479   4.357
    1C        C  461   3.191   4.509   4.478
    1C        C  462   2.991   4.433   4.600
    1C        C  463   3.121   4.488   4.599
    1C        C  464   2.925   4.397   4.720
    1C        C  465   2.988   4.439   4.840
    1C        C  466   2.796   4.333   4.956
    1C        C  467   2.904   4.423   4.955
    1C        C  468   4.120   4.280   2.035
    1C        C  469   4.185   4.242   2.153
    1C        C  470   4.002   4.363   2.276
    1C        C  471   4.121   4.286   2.272
    1C        C  472   3.938   4.398   2.397
    1C        C  473   4.004   4.368   2.518
    1C        C  474   3.814   4.463   2.641
    1C        C  475   3.942   4.404   2.640
    1C        C  476   3.743   4.485   2.761
    1C        C  477   3.810   4.461   2.883
    1C        C  478   3.604   4.510   3.008
    1C        C  479   3.742   4.481   3.005
    1C        C  480   3.535   4.523   3.130
    1C        C  481   3.608   4.516   3.251
    1C        C  482   3.392   4.526   3.375
    1C        C  483   3.534   4.528   3.371
    1C        C  484   3.323   4.521   3.498
    1C        C  485   3.394   4.530   3.620
    1C        C  486   3.188   4.493   3.744
    1C        C  487   3.325   4.530   3.743
    1C        C  488   3.124   4.470   3.867
    1C        C  489   3.189   4.498   3.990
    1C        C  490   2.996   4.415   4.113
    1C        C  491   3.123   4.477   4.113
    1C        C  492   2.935   4.379   4.235
    1C        C  493   2.996   4.421   4.356
    1C        C  494   2.820   4.304   4.477
    1C        C  495   2.933   4.390   4.479
    1C        C  496   2.768   4.253   4.598
    1C        C  497   2.812   4.311   4.719
    1C        C  498   2.665   4.160   4.839
    1C        C  499   2.746   4.275   4.839
    1C        C  500   2.590   4.115   4.948
    1C        C  501   4.001   4.352   2.038
    1C        C  502   3.813   4.458   2.152
    1C        C  503   3.943   4.403   2.155
    1C        C  504   3.741   4.476   2.273
    1C        C  505   3.807   4.453   2.395
    1C        C  506   3.604   4.500   2.518
    1C        C  507   3.744   4.477   2.519
    1C        C  508   3.532   4.507   2.639
    1C        C  509   3.603   4.508   2.761
    1C        C  510   3.394   4.521   2.884
    1C        C  511   3.535   4.520   2.885
    1C        C  512   3.324   4.518   3.007
    1C        C  513   3.394   4.521   3.130
    1C        C  514   3.184   4.493   3.253
    1C        C  515   3.323   4.519   3.252
    1C        C  516   3.118   4.470   3.375
    1C        C  517   3.185   4.491   3.498
    1C        C  518   2.993   4.410   3.622
    1C        C  519   3.120   4.471   3.622
    1C        C  520   2.937   4.371   3.745
    1C        C  521   2.999   4.403   3.867
    1C        C  522   2.826   4.286   3.991
    1C        C  523   2.939   4.372   3.991
    1C        C  524   2.780   4.234   4.114
    1C        C  525   2.829   4.286   4.236
    1C        C  526   2.689   4.130   4.359
    1C        C  527   2.773   4.244   4.358
    1C        C  528   2.649   4.074   4.482
    1C        C  529   2.680   4.143   4.601
    1C        C  530   2.580   3.956   4.728
    1C        C  531   2.634   4.087   4.722
    1C        C  532   2.542   3.898   4.853
    1C        C  533   2.527   3.990   4.961
    1C        C  534   3.615   4.548   2.036
    1C        C  535   3.749   4.506   2.037
    1C        C  536   3.533   4.531   2.152
    1C        C  537   3.603   4.509   2.274
    1C        C  538   3.392   4.519   2.395
    1C        C  539   3.533   4.512   2.397
    1C        C  540   3.321   4.509   2.516
    1C        C  541   3.391   4.510   2.639
    1C        C  542   3.184   4.480   2.762
    1C        C  543   3.323   4.507   2.763
    1C        C  544   3.118   4.463   2.886
    1C        C  545   3.186   4.489   3.007
    1C        C  546   2.994   4.403   3.130
    1C        C  547   3.119   4.467   3.130
    1C        C  548   2.935   4.364   3.252
    1C        C  549   2.995   4.401   3.375
    1C        C  550   2.824   4.283   3.500
    1C        C  551   2.935   4.371   3.499
    1C        C  552   2.779   4.230   3.623
    1C        C  553   2.827   4.281   3.745
    1C        C  554   2.694   4.121   3.870
    1C        C  555   2.774   4.238   3.869
    1C        C  556   2.655   4.061   3.992
    1C        C  557   2.696   4.121   4.113
    1C        C  558   2.597   3.938   4.242
    1C        C  559   2.656   4.067   4.237
    1C        C  560   2.566   3.878   4.366
    1C        C  561   2.589   3.946   4.488
    1C        C  562   2.527   3.745   4.611
    1C        C  563   2.558   3.883   4.610
    1C        C  564   2.512   3.678   4.735
    1C        C  565   2.517   3.757   4.854
    1C        C  566   2.508   3.544   4.975
    1C        C  567   2.525   3.682   4.972
    1C        C  568   3.326   4.467   2.039
    1C        C  569   3.392   4.511   2.154
    1C        C  570   3.179   4.475   2.278
    1C        C  571   3.317   4.507   2.275
    1C        C  572   3.111   4.455   2.400
    1C        C  573   3.183   4.478   2.519
    1C        C  574   2.985   4.402   2.642
    1C        C  575   3.114   4.460   2.641
    1C        C  576   2.929   4.361   2.765
    1C        C  577   2.992   4.399   2.886
    1C        C  578   2.824   4.273   3.013
    1C        C  579   2.931   4.365   3.009
    1C        C  580   2.772   4.224   3.135
    1C        C  581   2.824   4.277   3.255
    1C        C  582   2.695   4.113   3.380
    1C        C  583   2.775   4.229   3.379
    1C        C  584   2.660   4.053   3.503
    1C        C  585   2.695   4.116   3.624
    1C        C  586   2.597   3.933   3.751
    1C        C  587   2.657   4.061   3.748
    1C        C  588   2.574   3.867   3.874
    1C        C  589   2.600   3.931   3.997
    1C        C  590   2.532   3.734   4.121
    1C        C  591   2.571   3.869   4.121
    1C        C  592   2.520   3.670   4.247
    1C        C  593   2.529   3.742   4.368
    1C        C  594   2.517   3.531   4.496
    1C        C  595   2.518   3.672   4.491
    1C        C  596   2.513   3.460   4.618
    1C        C  597   2.505   3.536   4.737
    1C        C  598   2.521   3.325   4.860
    1C        C  599   2.505   3.465   4.859
    1C        C  600   2.517   3.244   4.975
    1C        C  601   3.191   4.436   2.040
    1C        C  602   2.979   4.390   2.156
    1C        C  603   3.114   4.437   2.157
    1C        C  604   2.918   4.359   2.281
    1C        C  605   2.983   4.395   2.401
    1C        C  606   2.812   4.272   2.525
    1C        C  607   2.920   4.363   2.523
    1C        C  608   2.768   4.218   2.648
    1C        C  609   2.822   4.269   2.768
    1C        C  610   2.682   4.113   2.892
    1C        C  611   2.772   4.222   2.892
    1C        C  612   2.651   4.050   3.015
    1C        C  613   2.692   4.108   3.137
    1C        C  614   2.592   3.923   3.262
    1C        C  615   2.653   4.050   3.260
    1C        C  616   2.569   3.860   3.386
    1C        C  617   2.597   3.927   3.507
    1C        C  618   2.535   3.727   3.636
    1C        C  619   2.570   3.863   3.631
    1C        C  620   2.517   3.659   3.759
    1C        C  621   2.531   3.733   3.878
    1C        C  622   2.510   3.522   4.007
    1C        C  623   2.518   3.662   4.000
    1C        C  624   2.510   3.455   4.131
    1C        C  625   2.509   3.529   4.251
    1C        C  626   2.533   3.320   4.376
    1C        C  627   2.513   3.460   4.374
    1C        C  628   2.551   3.250   4.497
    1C        C  629   2.535   3.321   4.618
    1C        C  630   2.591   3.118   4.738
    1C        C  631   2.544   3.252   4.741
    1C        C  632   2.613   3.048   4.860
    1C        C  633   2.554   3.109   4.976
    1C        C  634   2.773   4.312   2.053
    1C        C  635   2.887   4.394   2.046
    1C        C  636   2.744   4.229   2.162
    1C        C  637   2.806   4.273   2.281
    1C        C  638   2.674   4.109   2.409
    1C        C  639   2.757   4.223   2.404
    1C        C  640   2.642   4.046   2.531
    1C        C  641   2.679   4.108   2.652
    1C        C  642   2.582   3.920   2.777
    1C        C  643   2.639   4.049   2.774
    1C        C  644   2.560   3.853   2.900
    1C        C  645   2.593   3.921   3.019
    1C        C  646   2.536   3.716   3.145
    1C        C  647   2.572   3.853   3.141
    1C        C  648   2.515   3.653   3.269
    1C        C  649   2.529   3.724   3.390
    1C        C  650   2.513   3.516   3.516
    1C        C  651   2.522   3.657   3.514
    1C        C  652   2.509   3.447   3.639
    1C        C  653   2.510   3.518   3.762
    1C        C  654   2.527   3.309   3.887
    1C        C  655   2.512   3.449   3.885
    1C        C  656   2.546   3.244   4.010
    1C        C  657   2.536   3.316   4.132
    1C        C  658   2.601   3.116   4.258
    1C        C  659   2.553   3.249   4.255
    1C        C  660   2.631   3.050   4.379
    1C        C  661   2.600   3.118   4.499
    1C        C  662   2.713   2.937   4.622
    1C        C  663   2.631   3.052   4.620
    1C        C  664   2.752   2.877   4.743
    1C        C  665   2.696   2.932   4.862
    1C        C  666   2.743   2.871   4.979
    1C        C  667   2.675   4.021   2.053
    1C        C  668   2.685   4.101   2.167
    1C        C  669   2.590   3.910   2.290
    1C        C  670   2.647   4.040   2.289
    1C        C  671   2.562   3.845   2.413
    1C        C  672   2.584   3.917   2.533
    1C        C  673   2.522   3.715   2.656
    1C        C  674   2.561   3.851   2.656
    1C        C  675   2.516   3.644   2.778
    1C        C  676   2.527   3.716   2.900
    1C        C  677   2.503   3.507   3.029
    1C        C  678   2.518   3.647   3.023
    1C        C  679   2.502   3.437   3.152
    1C        C  680   2.499   3.513   3.271
    1C        C  681   2.531   3.304   3.399
    1C        C  682   2.510   3.444   3.394
    1C        C  683   2.553   3.238   3.522
    1C        C  684   2.533   3.308   3.643
    1C        C  685   2.595   3.107   3.767
    1C        C  686   2.544   3.238   3.765
    1C        C  687   2.629   3.047   3.891
    1C        C  688   2.594   3.111   4.012
    1C        C  689   2.706   2.933   4.137
    1C        C  690   2.627   3.050   4.135
    1C        C  691   2.752   2.875   4.257
    1C        C  692   2.710   2.933   4.379
    1C        C  693   2.758   2.879   4.501
    1C        C  694   2.635   3.887   2.058
    1C        C  695   2.524   3.702   2.175
    1C        C  696   2.574   3.834   2.172
    1C        C  697   2.508   3.634   2.297
    1C        C  698   2.524   3.710   2.416
    1C        C  699   2.489   3.500   2.540
    1C        C  700   2.504   3.641   2.538
    1C        C  701   2.501   3.431   2.663
    1C        C  702   2.504   3.504   2.784
    1C        C  703   2.526   3.295   2.909
    1C        C  704   2.505   3.435   2.907
    1C        C  705   2.546   3.228   3.032
    1C        C  706   2.527   3.298   3.153
    1C        C  707   2.590   3.100   3.276
    1C        C  708   2.545   3.234   3.277
    1C        C  709   2.624   3.040   3.399
    1C        C  710   2.596   3.103   3.522
    1C        C  711   2.700   2.924   3.647
    1C        C  712   2.619   3.039   3.646
    1C        C  713   2.752   2.875   3.769
    1C        C  714   2.709   2.931   3.892
    1C        C  715   2.753   2.879   4.015
    1C        C  716   2.444   3.497   2.062
    1C        C  717   2.484   3.632   2.060
    1C        C  718   2.463   3.419   2.181
    1C        C  719   2.481   3.495   2.300
    1C        C  720   2.509   3.285   2.420
    1C        C  721   2.481   3.424   2.422
    1C        C  722   2.528   3.217   2.542
    1C        C  723   2.519   3.291   2.662
    1C        C  724   2.584   3.093   2.788
    1C        C  725   2.533   3.225   2.787
    1C        C  726   2.616   3.028   2.909
    1C        C  727   2.587   3.093   3.031
    1C        C  728   2.703   2.920   3.156
    1C        C  729   2.618   3.033   3.155
    1C        C  730   2.751   2.870   3.279
    1C        C  731   2.707   2.925   3.402
    1C        C  732   2.750   2.872   3.525
    1C        C  733   2.495   3.197   2.066
    1C        C  734   2.483   3.278   2.180
    1C        C  735   2.574   3.080   2.303
    1C        C  736   2.520   3.211   2.300
    1C        C  737   2.607   3.015   2.425
    1C        C  738   2.585   3.088   2.544
    1C        C  739   2.697   2.910   2.668
    1C        C  740   2.618   3.027   2.667
    1C        C  741   2.743   2.857   2.791
    1C        C  742   2.697   2.912   2.912
    1C        C  743   2.746   2.862   3.035
    1C        C  744   2.536   3.064   2.073
    1C        C  745   2.679   2.892   2.183
    1C        C  746   2.602   3.010   2.184
    1C        C  747   2.720   2.831   2.304
    1C        C  748   2.684   2.897   2.424
    1C        C  749   2.733   2.848   2.547
    1C        C  750   2.727   2.833   2.065
    1C        C  751   3.653   2.320   1.965
    1C        O  752   3.730   2.221   1.983
    1C        O  753   3.638   2.372   1.836
    1C        C  754   4.645   3.050   2.005
    1C        O  755   4.642   3.005   1.887
    1C        O  756   4.733   2.971   2.080
    1C        C  757   4.418   4.203   1.933
    1C        O  758   4.444   4.326   1.942
    1C        O  759   4.417   4.148   1.804
    1C        C  760   3.596   4.659   1.941
    1C        O  761   3.630   4.778   1.966
    1C        O  762   3.594   4.619   1.807
    1C        C  763   2.889   4.505   1.948
    1C        O  764   2.891   4.486   1.824
    1C        O  765   2.843   4.630   1.990
    1C        C  766   2.339   3.469   1.962
    1C        O  767   2.364   3.476   1.839
    1C        O  768   2.204   3.439   1.988
    1C        C  769   4.699   3.597   5.048
    1C        O  770   4.683   3.557   5.166
    1C        O  771   4.820   3.645   4.998
    1C        C  772   4.284   4.465   5.011
    1C        O  773   4.304   4.437   5.132
    1C        O  774   4.406   4.487   4.945
    1C        C  775   4.150   2.492   5.044
    1C        O  776   4.146   2.367   5.034
    1C        O  777   4.227   2.528   5.155
    1C        C  778   2.888   4.515   5.069
    1C        O  779   2.811   4.615   5.060
    1C        O  780   2.936   4.483   5.196
    1C        C  781   2.479   3.021   5.069
    1C        O  782   2.388   2.945   5.027
    1C        O  783   2.503   3.025   5.206
    1C        C  784   2.396   4.010   5.027
    1C        O  785   2.287   3.995   4.965
    1C        O  786   2.379   4.019   5.166
    1C        C  787   2.944   2.436   1.992
    1C        O  788   2.928   2.479   1.875
    1C        O  789   2.913   2.300   1.990
    1C        C  790   3.187   2.372   5.064
    1C        O  791   3.150   2.258   5.025
    1C        O  792   3.190   2.374   5.204
    1C        H  793   4.260   3.032   5.048
    1C        H  794   4.175   2.810   5.069
    1C        H  795   4.441   3.143   5.064
    1C        H  796   4.505   3.367   5.066
    1C        H  797   4.594   3.816   5.027
    1C        H  798   4.418   3.980   5.056
    1C        H  799   4.245   4.142   5.033
    1C        H  800   4.041   4.549   5.013
    1C        H  801   3.815   4.615   5.029
    1C        H  802   3.589   4.618   5.044
    1C        H  803   3.395   4.491   5.042
    1C        H  804   3.150   4.469   5.050
    1C        H  805   3.899   2.466   5.054
    1C        H  806   3.676   2.450   5.072
    1C        H  807   2.982   2.517   5.039
    1C        H  808   3.440   2.492   5.076
    1C        H  809   2.874   2.747   5.081
    1C        H  810   2.705   2.897   5.076
    1C        H  811   2.446   3.275   5.049
    1C        H  812   2.451   3.510   5.060
    1C        H  813   2.600   3.719   5.039
    1C        H  814   2.597   4.177   5.035
    1C        H  815   2.772   4.292   5.052
    1C        H  816   2.723   2.885   1.972
    1C        H  817   2.811   2.665   1.980
    1C        H  818   3.201   2.422   1.989
    1C        H  819   3.426   2.373   1.999
    1C        H  820   3.863   2.483   1.977
    1C        H  821   4.041   2.654   1.974
    1C        H  822   4.244   2.725   1.968
    1C        H  823   4.379   2.918   1.963
    1C        H  824   4.643   3.293   2.005
    1C        H  825   4.464   3.516   1.966
    1C        H  826   4.489   3.743   1.949
    1C        H  827   3.808   4.531   1.952
    1C        H  828   3.935   4.344   1.954
    1C        H  829   4.172   4.273   1.942
    1C        H  830   4.519   3.978   1.972
    1C        H  831   2.698   3.819   2.004
    1C        H  832   2.738   4.051   1.972
    1C        H  833   2.687   4.344   1.998
    1C        H  834   3.389   4.432   1.960
    1C        H  835   3.139   4.467   1.951
    1C        H  836   2.479   2.992   2.016
    1C        H  837   2.481   3.239   1.969
    1C        H  838   2.475   3.681   1.966
    2V3OU   H29  839   2.797   3.555   4.748
    2V3OU   C27  840   2.792   3.506   4.848
    2V3OU   H27  841   2.737   3.567   4.925
    2V3OU   H28  842   2.742   3.406   4.843
    2V3OU   O11  843   2.914   3.476   4.916
    2V3OU   C15  844   2.917   3.393   5.026
    2V3OU   C13  845   3.046   3.382   5.082
    2V3OU   C14  846   3.073   3.268   5.159
    2V3OU   C16  847   2.969   3.180   5.187
    2V3OU    H6  848   2.990   3.098   5.257
    2V3OU   C12  849   3.211   3.227   5.192
    2V3OU    O2  850   3.243   3.125   5.257
    2V3OU   C10  851   3.322   3.305   5.136
    2V3OU    C8  852   3.455   3.267   5.155
    2V3OU   O10  853   3.490   3.151   5.217
    2V3OU   H26  854   3.403   3.109   5.218
    2V3OU    C6  855   3.563   3.346   5.105
    2V3OU    C5  856   3.537   3.465   5.038
    2V3OU    C4  857   3.702   3.292   5.103
    2V3OU    H4  858   3.722   3.228   5.194
    2V3OU    H5  859   3.711   3.223   5.014
    2V3OU    C2  860   3.815   3.395   5.094
    2V3OU    O6  861   3.812   3.475   5.212
    2V3OU   H21  862   3.763   3.556   5.187
    2V3OU    C3  863   3.780   3.496   4.984
    2V3OU    H2  864   3.861   3.573   4.978
    2V3OU    H3  865   3.778   3.436   4.889
    2V3OU   C25  866   3.950   3.326   5.072
    2V3OU    O7  867   3.997   3.296   4.962
    2V3OU   C26  868   4.031   3.287   5.195
    2V3OU   H22  869   4.069   3.377   5.250
    2V3OU   H23  870   4.110   3.214   5.166
    2V3OU    O8  871   3.948   3.203   5.272
    2V3OU   H24  872   3.927   3.263   5.345
    2V3OU    C1  873   3.646   3.563   5.006
    2V3OU    H1  874   3.620   3.619   4.911
    2V3OU    O3  875   3.656   3.656   5.114
    2V3OU   C19  876   3.618   3.793   5.102
    2V3OU    H9  877   3.521   3.810   5.048
    2V3OU    O4  878   3.709   3.852   5.011
    2V3OU   C20  879   3.840   3.874   5.063
    2V3OU   H10  880   3.883   3.770   5.070
    2V3OU   C24  881   3.609   3.852   5.243
    2V3OU   H16  882   3.542   3.790   5.309
    2V3OU   H17  883   3.563   3.954   5.236
    2V3OU   C23  884   3.749   3.873   5.300
    2V3OU   H15  885   3.792   3.768   5.314
    2V3OU    N1  886   3.736   3.951   5.422
    2V3OU   H19  887   3.808   3.923   5.485
    2V3OU   H20  888   3.649   3.920   5.461
    2V3OU   C21  889   3.844   3.944   5.199
    2V3OU   H11  890   3.950   3.926   5.232
    2V3OU    O5  891   3.819   4.084   5.192
    2V3OU   H18  892   3.774   4.106   5.275
    2V3OU   C22  893   3.909   3.946   4.948
    2V3OU   H12  894   3.860   4.046   4.936
    2V3OU   H13  895   3.907   3.884   4.855
    2V3OU   H14  896   4.017   3.965   4.973
    2V3OU   C11  897   3.157   3.469   5.043
    2V3OU    O1  898   3.133   3.584   5.001
    2V3OU    C9  899   3.297   3.421   5.058
    2V3OU    C7  900   3.401   3.500   5.012
    2V3OU    O9  901   3.382   3.621   4.947
    2V3OU   H25  902   3.286   3.626   4.957
    2V3OU   C17  903   2.813   3.308   5.066
    2V3OU    H7  904   2.712   3.351   5.062
    2V3OU   C18  905   2.837   3.197   5.146
    2V3OU    H8  906   2.754   3.146   5.197
    3SOL     OW  907   3.519   4.240   4.486
    3SOL    HW1  908   3.545   4.306   4.556
    3SOL    HW2  909   3.601   4.207   4.439
    4SOL     OW  910   6.584   0.236   0.218
    4SOL    HW1  911   6.582   0.173   0.296
    4SOL    HW2  912   6.628   0.192   0.140
    5SOL     OW  913   3.885   1.362   1.084
    5SOL    HW1  914   3.829   1.424   1.029
    5SOL    HW2  915   3.941   1.415   1.148
    6SOL     OW  916   5.561   6.984   2.560
    6SOL    HW1  917   5.508   0.013   2.631
    6SOL    HW2  918   5.653   0.004   2.556
    7SOL     OW  919   1.979   4.572   3.890
    7SOL    HW1  920   1.941   4.496   3.943
    7SOL    HW2  921   1.918   4.650   3.895
    8SOL     OW  922   1.945   3.110   5.737
    8SOL    HW1  923   1.859   3.149   5.704
    8SOL    HW2  924   1.927   3.051   5.816
    9SOL     OW  925   6.231   0.997   6.539
    9SOL    HW1  926   6.155   0.978   6.600
    9SOL    HW2  927   6.312   1.020   6.593
   10SOL     OW  928   4.873   4.942   3.487
   10SOL    HW1  929   4.842   4.895   3.570
   10SOL    HW2  930   4.875   4.877   3.411
   11SOL     OW  931   2.103   1.031   0.631
   11SOL    HW1  932   2.189   1.060   0.590
   11SOL    HW2  933   2.038   1.006   0.559
   12SOL     OW  934   3.419   5.060   3.411
   12SOL    HW1  935   3.413   5.045   3.312
   12SOL    HW2  936   3.331   5.035   3.453
   13SOL     OW  937   4.481   5.830   2.005
   13SOL    HW1  938   4.544   5.753   2.014
   13SOL    HW2  939   4.532   5.916   2.000
   14SOL     OW  940   4.695   4.906   4.965
   14SOL    HW1  941   4.667   4.978   4.901
   14SOL    HW2  942   4.778   4.934   5.014
   15SOL     OW  943   0.378   5.554   5.858
   15SOL    HW1  944   0.378   5.516   5.951
   15SOL    HW2  945   0.343   5.648   5.861
   16SOL     OW  946   0.108   3.255   5.644
   16SOL    HW1  947   0.120   3.242   5.546
   16SOL    HW2  948   0.090   3.166   5.687
   17SOL     OW  949   6.289   1.174   5.148
   17SOL    HW1  950   6.371   1.209   5.192
   17SOL    HW2  951   6.313   1.127   5.063
   18SOL     OW  952   3.569   0.229   5.461
   18SOL    HW1  953   3.617   0.240   5.373
   18SOL    HW2  954   3.621   0.276   5.532
   19SOL     OW  955   1.025   1.528   2.880
   19SOL    HW1  956   0.966   1.606   2.861
   19SOL    HW2  957   1.120   1.551   2.857
   20SOL     OW  958   5.752   2.186   5.194
   20SOL    HW1  959   5.779   2.165   5.100
   20SOL    HW2  960   5.713   2.277   5.198
   21SOL     OW  961   2.927   5.878   2.431
   21SOL    HW1  962   2.904   5.910   2.523
   21SOL    HW2  963   3.012   5.826   2.434
   22SOL     OW  964   2.545   6.516   4.873
   22SOL    HW1  965   2.515   6.423   4.895
   22SOL    HW2  966   2.546   6.571   4.957
   23SOL     OW  967   5.331   4.292   2.260
   23SOL    HW1  968   5.355   4.388   2.265
   23SOL    HW2  969   5.415   4.237   2.255
   24SOL     OW  970   4.379   0.506   1.448
   24SOL    HW1  971   4.471   0.509   1.488
   24SOL    HW2  972   4.350   0.598   1.425
   25SOL     OW  973   2.699   0.105   3.766
   25SOL    HW1  974   2.755   0.086   3.686
   25SOL    HW2  975   2.751   0.084   3.849
   26SOL     OW  976   0.687   2.848   0.128
   26SOL    HW1  977   0.632   2.781   0.078
   26SOL    HW2  978   0.720   2.919   0.065
   27SOL     OW  979   6.193   1.419   1.387
   27SOL    HW1  980   6.153   1.444   1.475
   27SOL    HW2  981   6.289   1.392   1.401
   28SOL     OW  982   2.312   0.519   4.822
   28SOL    HW1  983   2.343   0.549   4.732
   28SOL    HW2  984   2.352   0.430   4.844
   29SOL     OW  985   0.150   0.470   0.404
   29SOL    HW1  986   0.161   0.484   0.306
   29SOL    HW2  987   0.112   0.552   0.446
   30SOL     OW  988   4.069   0.829   4.958
   30SOL    HW1  989   4.106   0.816   5.050
   30SOL    HW2  990   4.093   0.751   4.901
   31SOL     OW  991   1.174   3.031   5.411
   31SOL    HW1  992   1.115   3.110   5.392
   31SOL    HW2  993   1.159   2.960   5.343
   32SOL     OW  994   1.658   0.318   1.400
   32SOL    HW1  995   1.566   0.310   1.361
   32SOL    HW2  996   1.673   0.412   1.430
   33SOL     OW  997   0.554   4.379   5.746
   33SOL    HW1  998   0.493   4.312   5.788
   33SOL    HW2  999   0.582   4.347   5.655
   34SOL     OW 1000   1.687   4.957   5.161
   34SOL    HW1 1001   1.644   4.947   5.251
   34SOL    HW2 1002   1.626   4.920   5.091
   35SOL     OW 1003   3.692   2.589   6.971
   35SOL    HW1 1004   3.652   2.665   0.003
   35SOL    HW2 1005   3.680   2.504   0.004
   36SOL     OW 1006   4.786   0.597   4.079
   36SOL    HW1 1007   4.844   0.516   4.093
   36SOL    HW2 1008   4.836   0.664   4.024
   37SOL     OW 1009   1.954   1.133   3.684
   37SOL    HW1 1010   1.897   1.072   3.628
   37SOL    HW2 1011   2.026   1.172   3.628
   38SOL     OW 1012   1.388   4.767   1.969
   38SOL    HW1 1013   1.382   4.753   2.068
   38SOL    HW2 1014   1.300   4.801   1.935
   39SOL     OW 1015   6.565   5.442   6.564
   39SOL    HW1 1016   6.620   5.359   6.552
   39SOL    HW2 1017   6.480   5.433   6.512
   40SOL     OW 1018   3.420   0.868   6.056
   40SOL    HW1 1019   3.325   0.894   6.035
   40SOL    HW2 1020   3.462   0.940   6.112
   41SOL     OW 1021   6.163   3.992   2.068
   41SOL    HW1 1022   6.105   3.944   2.134
   41SOL    HW2 1023   6.259   3.967   2.084
   42SOL     OW 1024   2.303   5.945   5.582
   42SOL    HW1 1025   2.252   6.031   5.585
   42SOL    HW2 1026   2.400   5.965   5.565
   43SOL     OW 1027   5.183   6.784   4.925
   43SOL    HW1 1028   5.195   6.715   4.997
   43SOL    HW2 1029   5.150   6.739   4.842
   44SOL     OW 1030   6.017   2.425   5.412
   44SOL    HW1 1031   5.983   2.331   5.420
   44SOL    HW2 1032   5.947   2.482   5.368
   45SOL     OW 1033   3.960   5.074   6.902
   45SOL    HW1 1034   3.905   4.991   6.900
   45SOL    HW2 1035   3.981   5.098   6.997
   46SOL     OW 1036   0.561   3.193   4.526
   46SOL    HW1 1037   0.488   3.157   4.584
   46SOL    HW2 1038   0.603   3.118   4.475
   47SOL     OW 1039   5.842   2.820   1.742
   47SOL    HW1 1040   5.776   2.847   1.812
   47SOL    HW2 1041   5.899   2.746   1.778
   48SOL     OW 1042   6.712   4.144   6.826
   48SOL    HW1 1043   6.777   4.095   6.767
   48SOL    HW2 1044   6.671   4.079   6.891
   49SOL     OW 1045   4.392   3.406   6.914
   49SOL    HW1 1046   4.382   3.427   7.011
   49SOL    HW2 1047   4.409   3.491   6.863
   50SOL     OW 1048   6.291   3.052   6.332
   50SOL    HW1 1049   6.208   3.067   6.385
   50SOL    HW2 1050   6.354   3.128   6.346
   51SOL     OW 1051   2.351   5.165   3.224
   51SOL    HW1 1052   2.260   5.170   3.265
   51SOL    HW2 1053   2.370   5.070   3.197
   52SOL     OW 1054   5.813   2.578   1.512
   52SOL    HW1 1055   5.724   2.533   1.512
   52SOL    HW2 1056   5.814   2.651   1.581
   53SOL     OW 1057   3.694   0.655   2.806
   53SOL    HW1 1058   3.652   0.700   2.727
   53SOL    HW2 1059   3.699   0.720   2.882
   54SOL     OW 1060   5.108   6.652   6.822
   54SOL    HW1 1061   5.052   6.685   6.898
   54SOL    HW2 1062   5.074   6.690   6.737
   55SOL     OW 1063   1.654   3.177   6.288
   55SOL    HW1 1064   1.649   3.166   6.189
   55SOL    HW2 1065   1.617   3.266   6.313
   56SOL     OW 1066   1.557   2.363   6.860
   56SOL    HW1 1067   1.552   2.455   6.899
   56SOL    HW2 1068   1.625   2.361   6.786
   57SOL     OW 1069   4.280   0.761   0.153
   57SOL    HW1 1070   4.180   0.773   0.155
   57SOL    HW2 1071   4.308   0.707   0.232
   58SOL     OW 1072   0.829   0.948   6.352
   58SOL    HW1 1073   0.891   0.999   6.412
   58SOL    HW2 1074   0.755   0.909   6.407
   59SOL     OW 1075   5.446   3.556   6.599
   59SOL    HW1 1076   5.403   3.519   6.681
   59SOL    HW2 1077   5.426   3.497   6.521
   60SOL     OW 1078   5.398   0.608   2.910
   60SOL    HW1 1079   5.497   0.611   2.918
   60SOL    HW2 1080   5.360   0.700   2.920
   61SOL     OW 1081   0.255   6.960   5.014
   61SOL    HW1 1082   0.312   6.972   4.933
   61SOL    HW2 1083   0.310   6.922   5.089
   62SOL     OW 1084   0.026   2.324   2.119
   62SOL    HW1 1085   7.008   2.415   2.102
   62SOL    HW2 1086   0.029   2.306   2.218
   63SOL     OW 1087   4.332   6.198   4.534
   63SOL    HW1 1088   4.384   6.164   4.456
   63SOL    HW2 1089   4.249   6.243   4.502
   64SOL     OW 1090   1.185   4.914   6.832
   64SOL    HW1 1091   1.165   4.861   6.750
   64SOL    HW2 1092   1.225   5.002   6.806
   65SOL     OW 1093   0.273   0.430   5.186
   65SOL    HW1 1094   0.304   0.510   5.238
   65SOL    HW2 1095   0.306   0.347   5.231
   66SOL     OW 1096   4.172   0.784   1.945
   66SOL    HW1 1097   4.195   0.784   1.847
   66SOL    HW2 1098   4.224   0.856   1.991
   67SOL     OW 1099   0.371   2.905   1.209
   67SOL    HW1 1100   0.322   2.851   1.141
   67SOL    HW2 1101   0.374   3.001   1.179
   68SOL     OW 1102   6.656   2.365   5.469
   68SOL    HW1 1103   6.611   2.292   5.418
   68SOL    HW2 1104   6.592   2.402   5.537
   69SOL     OW 1105   0.941   5.242   6.196
   69SOL    HW1 1106   0.842   5.228   6.186
   69SOL    HW2 1107   0.974   5.302   6.124
   70SOL     OW 1108   5.296   2.983   4.428
   70SOL    HW1 1109   5.257   2.892   4.444
   70SOL    HW2 1110   5.235   3.053   4.464
   71SOL     OW 1111   4.143   1.739   4.458
   71SOL    HW1 1112   4.059   1.772   4.413
   71SOL    HW2 1113   4.118   1.675   4.531
   72SOL     OW 1114   6.690   0.786   3.571
   72SOL    HW1 1115   6.636   0.744   3.498
   72SOL    HW2 1116   6.707   0.883   3.549
   73SOL     OW 1117   2.689   0.810   0.768
   73SOL    HW1 1118   2.592   0.814   0.745
   73SOL    HW2 1119   2.711   0.720   0.805
   74SOL     OW 1120   1.799   1.679   0.239
   74SOL    HW1 1121   1.805   1.673   0.139
   74SOL    HW2 1122   1.865   1.746   0.272
   75SOL     OW 1123   4.553   1.781   0.815
   75SOL    HW1 1124   4.606   1.861   0.844
   75SOL    HW2 1125   4.504   1.744   0.894
   76SOL     OW 1126   3.094   4.277   5.263
   76SOL    HW1 1127   3.166   4.323   5.314
   76SOL    HW2 1128   3.028   4.344   5.229
   77SOL     OW 1129   1.756   4.316   3.986
   77SOL    HW1 1130   1.708   4.241   4.033
   77SOL    HW2 1131   1.744   4.401   4.038
   78SOL     OW 1132   4.417   1.347   0.999
   78SOL    HW1 1133   4.495   1.291   0.972
   78SOL    HW2 1134   4.355   1.357   0.921
   79SOL     OW 1135   1.607   5.179   2.137
   79SOL    HW1 1136   1.622   5.165   2.039
   79SOL    HW2 1137   1.652   5.105   2.188
   80SOL     OW 1138   5.100   1.964   5.033
   80SOL    HW1 1139   5.113   1.976   5.132
   80SOL    HW2 1140   5.002   1.968   5.012
   81SOL     OW 1141   3.277   5.908   1.474
   81SOL    HW1 1142   3.264   5.994   1.524
   81SOL    HW2 1143   3.198   5.892   1.415
   82SOL     OW 1144   1.164   6.336   1.448
   82SOL    HW1 1145   1.165   6.375   1.356
   82SOL    HW2 1146   1.222   6.255   1.450
   83SOL     OW 1147   5.560   1.522   4.998
   83SOL    HW1 1148   5.585   1.614   4.969
   83SOL    HW2 1149   5.462   1.508   4.987
   84SOL     OW 1150   6.193   2.858   3.140
   84SOL    HW1 1151   6.237   2.817   3.061
   84SOL    HW2 1152   6.132   2.790   3.183
   85SOL     OW 1153   2.284   0.330   4.078
   85SOL    HW1 1154   2.245   0.400   4.137
   85SOL    HW2 1155   2.335   0.374   4.004
   86SOL     OW 1156   5.926   0.969   6.411
   86SOL    HW1 1157   5.961   1.054   6.373
   86SOL    HW2 1158   5.887   0.986   6.501
   87SOL     OW 1159   3.336   3.838   6.416
   87SOL    HW1 1160   3.434   3.859   6.413
   87SOL    HW2 1161   3.285   3.912   6.374
   88SOL     OW 1162   3.213   3.491   6.527
   88SOL    HW1 1163   3.160   3.443   6.457
   88SOL    HW2 1164   3.292   3.536   6.485
   89SOL     OW 1165   3.223   3.684   3.219
   89SOL    HW1 1166   3.197   3.733   3.135
   89SOL    HW2 1167   3.145   3.681   3.281
   90SOL     OW 1168   4.735   4.364   3.020
   90SOL    HW1 1169   4.831   4.360   2.992
   90SOL    HW2 1170   4.676   4.337   2.944
   91SOL     OW 1171   5.538   5.161   6.367
   91SOL    HW1 1172   5.476   5.164   6.445
   91SOL    HW2 1173   5.517   5.237   6.305
   92SOL     OW 1174   5.596   4.091   6.939
   92SOL    HW1 1175   5.618   4.099   0.018
   92SOL    HW2 1176   5.675   4.054   6.890
   93SOL     OW 1177   2.826   3.153   1.405
   93SOL    HW1 1178   2.893   3.161   1.479
   93SOL    HW2 1179   2.783   3.063   1.408
   94SOL     OW 1180   3.121   0.947   6.043
   94SOL    HW1 1181   3.041   1.006   6.038
   94SOL    HW2 1182   3.109   0.880   6.116
   95SOL     OW 1183   0.050   0.494   3.709
   95SOL    HW1 1184   0.081   0.546   3.630
   95SOL    HW2 1185   0.088   0.401   3.706
   96SOL     OW 1186   4.572   5.145   0.369
   96SOL    HW1 1187   4.508   5.222   0.371
   96SOL    HW2 1188   4.558   5.088   0.450
   97SOL     OW 1189   1.771   5.206   5.232
   97SOL    HW1 1190   1.693   5.240   5.285
   97SOL    HW2 1191   1.750   5.115   5.197
   98SOL     OW 1192   1.149   2.955   3.234
   98SOL    HW1 1193   1.156   2.896   3.314
   98SOL    HW2 1194   1.207   2.918   3.161
   99SOL     OW 1195   4.100   3.359   4.146
   99SOL    HW1 1196   4.106   3.288   4.076
   99SOL    HW2 1197   4.109   3.449   4.103
  100SOL     OW 1198   6.721   0.309   3.678
  100SOL    HW1 1199   6.799   0.281   3.623
  100SOL    HW2 1200   6.752   0.368   3.753
  101SOL     OW 1201   0.039   3.494   2.617
  101SOL    HW1 1202   0.048   3.541   2.529
  101SOL    HW2 1203   6.997   3.415   2.607
  102SOL     OW 1204   2.494   6.252   0.995
  102SOL    HW1 1205   2.459   6.180   1.054
  102SOL    HW2 1206   2.432   6.266   0.918
  103SOL     OW 1207   1.848   1.077   1.940
  103SOL    HW1 1208   1.854   0.979   1.920
  103SOL    HW2 1209   1.872   1.092   2.036
  104SOL     OW 1210   1.526   4.717   1.576
  104SOL    HW1 1211   1.513   4.814   1.594
  104SOL    HW2 1212   1.443   4.679   1.536
  105SOL     OW 1213   4.849   1.949   6.363
  105SOL    HW1 1214   4.948   1.950   6.366
  105SOL    HW2 1215   4.815   1.857   6.384
  106SOL     OW 1216   6.052   4.902   2.311
  106SOL    HW1 1217   6.148   4.877   2.292
  106SOL    HW2 1218   5.992   4.828   2.281
  107SOL     OW 1219   6.413   0.758   0.772
  107SOL    HW1 1220   6.319   0.725   0.759
  107SOL    HW2 1221   6.478   0.690   0.738
  108SOL     OW 1222   1.660   0.498   5.855
  108SOL    HW1 1223   1.659   0.399   5.845
  108SOL    HW2 1224   1.694   0.522   5.946
  109SOL     OW 1225   2.285   1.450   3.573
  109SOL    HW1 1226   2.264   1.354   3.555
  109SOL    HW2 1227   2.368   1.456   3.627
  110SOL     OW 1228   2.718   4.476   5.678
  110SOL    HW1 1229   2.774   4.411   5.730
  110SOL    HW2 1230   2.754   4.485   5.586
  111SOL     OW 1231   6.570   1.857   2.279
  111SOL    HW1 1232   6.610   1.861   2.188
  111SOL    HW2 1233   6.471   1.869   2.273
  112SOL     OW 1234   4.892   0.142   6.606
  112SOL    HW1 1235   4.819   0.187   6.556
  112SOL    HW2 1236   4.868   0.137   6.703
  113SOL     OW 1237   6.577   6.376   2.366
  113SOL    HW1 1238   6.672   6.397   2.343
  113SOL    HW2 1239   6.527   6.461   2.380
  114SOL     OW 1240   0.988   4.099   3.410
  114SOL    HW1 1241   1.069   4.132   3.458
  114SOL    HW2 1242   1.001   4.004   3.382
  115SOL     OW 1243   5.680   1.415   3.326
  115SOL    HW1 1244   5.609   1.421   3.255
  115SOL    HW2 1245   5.636   1.405   3.415
  116SOL     OW 1246   1.434   5.270   0.540
  116SOL    HW1 1247   1.370   5.329   0.590
  116SOL    HW2 1248   1.384   5.220   0.470
  117SOL     OW 1249   2.391   1.469   0.031
  117SOL    HW1 1250   2.450   1.526   0.087
  117SOL    HW2 1251   2.432   1.457   6.959
  118SOL     OW 1252   1.623   1.406   4.721
  118SOL    HW1 1253   1.555   1.426   4.651
  118SOL    HW2 1254   1.590   1.332   4.780
  119SOL     OW 1255   0.003   6.034   6.214
  119SOL    HW1 1256   0.071   5.963   6.200
  119SOL    HW2 1257   7.005   6.045   6.313
  120SOL     OW 1258   4.709   1.721   4.647
  120SOL    HW1 1259   4.634   1.681   4.700
  120SOL    HW2 1260   4.713   1.819   4.665
  121SOL     OW 1261   1.077   3.687   6.412
  121SOL    HW1 1262   1.076   3.717   6.507
  121SOL    HW2 1263   1.101   3.590   6.407
  122SOL     OW 1264   1.068   4.095   0.468
  122SOL    HW1 1265   0.988   4.109   0.410
  122SOL    HW2 1266   1.039   4.085   0.563
  123SOL     OW 1267   1.293   1.460   1.941
  123SOL    HW1 1268   1.216   1.438   2.001
  123SOL    HW2 1269   1.282   1.552   1.904
  124SOL     OW 1270   2.523   2.507   0.811
  124SOL    HW1 1271   2.427   2.504   0.781
  124SOL    HW2 1272   2.529   2.557   0.898
  125SOL     OW 1273   3.615   3.004   0.332
  125SOL    HW1 1274   3.615   2.904   0.334
  125SOL    HW2 1275   3.610   3.040   0.426
  126SOL     OW 1276   3.894   3.201   4.267
  126SOL    HW1 1277   3.833   3.182   4.190
  126SOL    HW2 1278   3.985   3.224   4.232
  127SOL     OW 1279   0.599   6.334   5.846
  127SOL    HW1 1280   0.593   6.274   5.926
  127SOL    HW2 1281   0.559   6.423   5.868
  128SOL     OW 1282   4.556   3.490   1.015
  128SOL    HW1 1283   4.536   3.476   1.112
  128SOL    HW2 1284   4.630   3.429   0.988
  129SOL     OW 1285   2.002   6.016   0.913
  129SOL    HW1 1286   1.950   6.051   0.992
  129SOL    HW2 1287   1.996   5.917   0.911
  130SOL     OW 1288   5.602   2.409   4.652
  130SOL    HW1 1289   5.559   2.337   4.598
  130SOL    HW2 1290   5.532   2.473   4.684
  131SOL     OW 1291   6.802   2.610   3.459
  131SOL    HW1 1292   6.879   2.674   3.458
  131SOL    HW2 1293   6.751   2.618   3.374
  132SOL     OW 1294   3.517   4.091   1.978
  132SOL    HW1 1295   3.441   4.061   1.921
  132SOL    HW2 1296   3.591   4.126   1.920
  133SOL     OW 1297   5.270   6.950   5.499
  133SOL    HW1 1298   5.319   6.887   5.559
  133SOL    HW2 1299   5.324   6.966   5.416
  134SOL     OW 1300   5.599   1.052   1.962
  134SOL    HW1 1301   5.686   1.055   1.914
  134SOL    HW2 1302   5.579   1.141   2.003
  135SOL     OW 1303   5.058   3.652   4.311
  135SOL    HW1 1304   4.988   3.680   4.245
  135SOL    HW2 1305   5.107   3.733   4.344
  136SOL     OW 1306   3.585   6.949   5.494
  136SOL    HW1 1307   3.675   6.920   5.525
  136SOL    HW2 1308   3.588   0.026   5.464
  137SOL     OW 1309   2.956   2.285   5.280
  137SOL    HW1 1310   2.961   2.186   5.269
  137SOL    HW2 1311   3.042   2.327   5.252
  138SOL     OW 1312   1.202   5.566   5.473
  138SOL    HW1 1313   1.230   5.512   5.553
  138SOL    HW2 1314   1.117   5.530   5.437
  139SOL     OW 1315   2.332   6.255   6.715
  139SOL    HW1 1316   2.327   6.196   6.795
  139SOL    HW2 1317   2.344   6.350   6.744
  140SOL     OW 1318   2.332   0.832   2.971
  140SOL    HW1 1319   2.369   0.771   2.901
  140SOL    HW2 1320   2.246   0.873   2.938
  141SOL     OW 1321   6.914   4.581   0.239
  141SOL    HW1 1322   6.981   4.641   0.284
  141SOL    HW2 1323   6.919   4.593   0.140
  142SOL     OW 1324   1.438   4.034   2.124
  142SOL    HW1 1325   1.510   3.978   2.164
  142SOL    HW2 1326   1.415   3.999   2.033
  143SOL     OW 1327   4.691   6.753   1.724
  143SOL    HW1 1328   4.674   6.751   1.823
  143SOL    HW2 1329   4.698   6.659   1.690
  144SOL     OW 1330   3.047   4.832   3.406
  144SOL    HW1 1331   3.096   4.793   3.328
  144SOL    HW2 1332   3.112   4.880   3.465
  145SOL     OW 1333   0.098   4.663   2.965
  145SOL    HW1 1334   7.017   4.665   2.959
  145SOL    HW2 1335   0.134   4.757   2.959
  146SOL     OW 1336   6.144   1.549   6.146
  146SOL    HW1 1337   6.149   1.512   6.239
  146SOL    HW2 1338   6.055   1.592   6.132
  147SOL     OW 1339   4.511   1.514   5.606
  147SOL    HW1 1340   4.415   1.496   5.583
  147SOL    HW2 1341   4.554   1.429   5.635
  148SOL     OW 1342   1.288   5.142   1.171
  148SOL    HW1 1343   1.293   5.119   1.074
  148SOL    HW2 1344   1.351   5.217   1.191
  149SOL     OW 1345   2.035   2.382   5.749
  149SOL    HW1 1346   2.072   2.298   5.790
  149SOL    HW2 1347   2.084   2.402   5.664
  150SOL     OW 1348   4.442   1.703   4.540
  150SOL    HW1 1349   4.490   1.734   4.458
  150SOL    HW2 1350   4.343   1.706   4.524
  151SOL     OW 1351   4.329   2.203   0.704
  151SOL    HW1 1352   4.312   2.291   0.749
  151SOL    HW2 1353   4.428   2.188   0.697
  152SOL     OW 1354   0.610   1.129   0.184
  152SOL    HW1 1355   0.575   1.203   0.241
  152SOL    HW2 1356   0.707   1.146   0.164
  153SOL     OW 1357   2.679   1.112   4.049
  153SOL    HW1 1358   2.630   1.134   4.133
  153SOL    HW2 1359   2.619   1.061   3.987
  154SOL     OW 1360   5.759   2.248   1.505
  154SOL    HW1 1361   5.814   2.169   1.478
  154SOL    HW2 1362   5.753   2.311   1.428
  155SOL     OW 1363   1.376   6.764   1.819
  155SOL    HW1 1364   1.442   6.732   1.888
  155SOL    HW2 1365   1.361   6.862   1.829
  156SOL     OW 1366   5.320   2.322   0.500
  156SOL    HW1 1367   5.417   2.337   0.482
  156SOL    HW2 1368   5.269   2.405   0.477
  157SOL     OW 1369   5.139   5.005   0.225
  157SOL    HW1 1370   5.150   4.911   0.193
  157SOL    HW2 1371   5.058   5.046   0.182
  158SOL     OW 1372   0.538   3.155   2.945
  158SOL    HW1 1373   0.463   3.195   2.892
  158SOL    HW2 1374   0.516   3.159   3.042
  159SOL     OW 1375   5.646   5.606   0.475
  159SOL    HW1 1376   5.584   5.553   0.416
  159SOL    HW2 1377   5.634   5.577   0.570
  160SOL     OW 1378   6.487   0.081   1.370
  160SOL    HW1 1379   6.433   0.066   1.453
  160SOL    HW2 1380   6.446   0.155   1.317
  161SOL     OW 1381   0.592   0.143   0.253
  161SOL    HW1 1382   0.653   0.138   0.332
  161SOL    HW2 1383   0.635   0.197   0.181
  162SOL     OW 1384   3.754   6.785   0.461
  162SOL    HW1 1385   3.847   6.821   0.467
  162SOL    HW2 1386   3.753   6.705   0.400
  163SOL     OW 1387   0.290   3.579   3.820
  163SOL    HW1 1388   0.228   3.607   3.747
  163SOL    HW2 1389   0.261   3.621   3.906
  164SOL     OW 1390   1.740   2.019   3.423
  164SOL    HW1 1391   1.816   2.028   3.488
  164SOL    HW2 1392   1.666   2.081   3.450
  165SOL     OW 1393   1.132   5.390   3.064
  165SOL    HW1 1394   1.115   5.488   3.066
  165SOL    HW2 1395   1.045   5.341   3.069
  166SOL     OW 1396   6.907   3.985   2.834
  166SOL    HW1 1397   6.851   3.983   2.917
  166SOL    HW2 1398   6.914   3.893   2.796
  167SOL     OW 1399   4.813   1.912   0.149
  167SOL    HW1 1400   4.758   1.838   0.110
  167SOL    HW2 1401   4.756   1.993   0.160
  168SOL     OW 1402   4.915   3.845   1.947
  168SOL    HW1 1403   4.948   3.806   1.861
  168SOL    HW2 1404   4.863   3.929   1.927
  169SOL     OW 1405   6.098   2.518   0.928
  169SOL    HW1 1406   6.094   2.612   0.895
  169SOL    HW2 1407   6.035   2.507   1.005
  170SOL     OW 1408   0.635   4.800   2.269
  170SOL    HW1 1409   0.664   4.713   2.308
  170SOL    HW2 1410   0.660   4.803   2.172
  171SOL     OW 1411   2.934   3.319   0.472
  171SOL    HW1 1412   2.912   3.415   0.488
  171SOL    HW2 1413   2.896   3.263   0.545
  172SOL     OW 1414   6.355   2.175   1.367
  172SOL    HW1 1415   6.442   2.203   1.326
  172SOL    HW2 1416   6.337   2.079   1.345
  173SOL     OW 1417   6.646   1.834   5.771
  173SOL    HW1 1418   6.658   1.783   5.857
  173SOL    HW2 1419   6.608   1.925   5.792
  174SOL     OW 1420   6.012   5.354   5.526
  174SOL    HW1 1421   5.915   5.330   5.534
  174SOL    HW2 1422   6.021   5.433   5.464
  175SOL     OW 1423   0.737   0.555   0.721
  175SOL    HW1 1424   0.814   0.533   0.781
  175SOL    HW2 1425   0.679   0.475   0.711
  176SOL     OW 1426   5.221   4.543   2.790
  176SOL    HW1 1427   5.301   4.495   2.753
  176SOL    HW2 1428   5.149   4.547   2.721
  177SOL     OW 1429   5.689   2.172   4.273
  177SOL    HW1 1430   5.677   2.143   4.368
  177SOL    HW2 1431   5.602   2.209   4.238
  178SOL     OW 1432   1.919   6.508   5.800
  178SOL    HW1 1433   1.917   6.494   5.899
  178SOL    HW2 1434   1.887   6.600   5.779
  179SOL     OW 1435   4.073   5.141   0.896
  179SOL    HW1 1436   4.016   5.146   0.813
  179SOL    HW2 1437   4.151   5.080   0.879
  180SOL     OW 1438   4.114   1.403   0.870
  180SOL    HW1 1439   4.082   1.440   0.782
  180SOL    HW2 1440   4.074   1.313   0.884
  181SOL     OW 1441   3.471   2.282   5.506
  181SOL    HW1 1442   3.495   2.265   5.410
  181SOL    HW2 1443   3.379   2.248   5.523
  182SOL     OW 1444   4.798   2.156   6.521
  182SOL    HW1 1445   4.875   2.219   6.509
  182SOL    HW2 1446   4.808   2.080   6.457
  183SOL     OW 1447   3.393   1.513   3.890
  183SOL    HW1 1448   3.354   1.447   3.954
  183SOL    HW2 1449   3.460   1.468   3.832
  184SOL     OW 1450   6.424   6.522   2.794
  184SOL    HW1 1451   6.368   6.520   2.877
  184SOL    HW2 1452   6.520   6.534   2.819
  185SOL     OW 1453   0.318   1.057   4.180
  185SOL    HW1 1454   0.318   1.049   4.280
  185SOL    HW2 1455   0.290   0.969   4.140
  186SOL     OW 1456   4.643   5.746   3.744
  186SOL    HW1 1457   4.595   5.677   3.798
  186SOL    HW2 1458   4.651   5.715   3.649
  187SOL     OW 1459   4.301   6.105   2.206
  187SOL    HW1 1460   4.318   6.171   2.133
  187SOL    HW2 1461   4.208   6.115   2.241
  188SOL     OW 1462   2.383   2.701   3.123
  188SOL    HW1 1463   2.475   2.669   3.099
  188SOL    HW2 1464   2.351   2.765   3.053
  189SOL     OW 1465   6.165   5.106   6.219
  189SOL    HW1 1466   6.081   5.058   6.243
  189SOL    HW2 1467   6.144   5.198   6.189
  190SOL     OW 1468   5.889   0.049   0.181
  190SOL    HW1 1469   5.931   0.069   0.270
  190SOL    HW2 1470   5.874   0.134   0.131
  191SOL     OW 1471   5.987   0.839   5.580
  191SOL    HW1 1472   6.068   0.896   5.588
  191SOL    HW2 1473   5.931   0.872   5.504
  192SOL     OW 1474   0.549   5.198   0.394
  192SOL    HW1 1475   0.597   5.271   0.346
  192SOL    HW2 1476   0.464   5.177   0.346
  193SOL     OW 1477   2.820   5.335   6.084
  193SOL    HW1 1478   2.840   5.298   5.994
  193SOL    HW2 1479   2.809   5.260   6.149
  194SOL     OW 1480   3.561   6.877   2.225
  194SOL    HW1 1481   3.644   6.902   2.175
  194SOL    HW2 1482   3.492   6.949   2.212
  195SOL     OW 1483   2.999   0.779   1.728
  195SOL    HW1 1484   2.994   0.879   1.728
  195SOL    HW2 1485   2.997   0.745   1.822
  196SOL     OW 1486   2.090   0.892   6.893
  196SOL    HW1 1487   2.126   0.985   6.896
  196SOL    HW2 1488   2.153   0.834   6.841
  197SOL     OW 1489   2.338   5.638   0.335
  197SOL    HW1 1490   2.272   5.585   0.282
  197SOL    HW2 1491   2.295   5.723   0.366
  198SOL     OW 1492   4.060   6.406   6.842
  198SOL    HW1 1493   3.964   6.397   6.869
  198SOL    HW2 1494   4.065   6.433   6.746
  199SOL     OW 1495   6.041   6.700   3.030
  199SOL    HW1 1496   6.004   6.618   2.986
  199SOL    HW2 1497   6.083   6.759   2.962
  200SOL     OW 1498   0.492   4.249   3.012
  200SOL    HW1 1499   0.565   4.314   2.989
  200SOL    HW2 1500   0.492   4.174   2.945
  201SOL     OW 1501   2.981   0.774   6.990
  201SOL    HW1 1502   3.076   0.745   6.989
  201SOL    HW2 1503   2.931   0.720   0.040
  202SOL     OW 1504   3.829   6.948   3.470
  202SOL    HW1 1505   3.835   0.013   3.415
  202SOL    HW2 1506   3.822   6.973   3.567
  203SOL     OW 1507   5.361   3.667   6.170
  203SOL    HW1 1508   5.273   3.709   6.192
  203SOL    HW2 1509   5.347   3.570   6.148
  204SOL     OW 1510   2.222   6.642   0.680
  204SOL    HW1 1511   2.156   6.696   0.627
  204SOL    HW2 1512   2.308   6.692   0.687
  205SOL     OW 1513   5.836   1.964   1.056
  205SOL    HW1 1514   5.865   1.951   1.151
  205SOL    HW2 1515   5.795   1.879   1.022
  206SOL     OW 1516   0.043   4.963   1.576
  206SOL    HW1 1517   0.078   4.938   1.667
  206SOL    HW2 1518   6.994   5.035   1.586
  207SOL     OW 1519   4.739   0.879   5.785
  207SOL    HW1 1520   4.717   0.918   5.875
  207SOL    HW2 1521   4.661   0.826   5.752
  208SOL     OW 1522   4.793   5.485   6.098
  208SOL    HW1 1523   4.822   5.478   6.002
  208SOL    HW2 1524   4.713   5.427   6.113
  209SOL     OW 1525   6.683   5.428   5.846
  209SOL    HW1 1526   6.656   5.352   5.905
  209SOL    HW2 1527   6.772   5.464   5.876
  210SOL     OW 1528   3.794   1.895   1.230
  210SOL    HW1 1529   3.734   1.965   1.190
  210SOL    HW2 1530   3.872   1.880   1.169
  211SOL     OW 1531   0.649   1.409   1.117
  211SOL    HW1 1532   0.717   1.408   1.191
  211SOL    HW2 1533   0.600   1.322   1.115
  212SOL     OW 1534   1.151   5.095   3.738
  212SOL    HW1 1535   1.115   5.169   3.795
  212SOL    HW2 1536   1.218   5.131   3.674
  213SOL     OW 1537   5.302   1.880   0.077
  213SOL    HW1 1538   5.345   1.812   0.017
  213SOL    HW2 1539   5.204   1.861   0.084
  214SOL     OW 1540   0.920   6.312   2.440
  214SOL    HW1 1541   0.994   6.276   2.383
  214SOL    HW2 1542   0.952   6.391   2.491
  215SOL     OW 1543   3.373   3.077   2.148
  215SOL    HW1 1544   3.443   3.126   2.095
  215SOL    HW2 1545   3.392   2.979   2.147
  216SOL     OW 1546   0.799   0.315   5.183
  216SOL    HW1 1547   0.856   0.301   5.102
  216SOL    HW2 1548   0.750   0.231   5.204
  217SOL     OW 1549   0.903   3.150   3.922
  217SOL    HW1 1550   0.862   3.112   4.005
  217SOL    HW2 1551   0.998   3.121   3.916
  218SOL     OW 1552   0.952   2.945   5.174
  218SOL    HW1 1553   0.854   2.947   5.193
  218SOL    HW2 1554   0.997   2.881   5.236
  219SOL     OW 1555   4.529   4.873   0.500
  219SOL    HW1 1556   4.626   4.852   0.485
  219SOL    HW2 1557   4.478   4.855   0.416
  220SOL     OW 1558   2.614   5.025   6.908
  220SOL    HW1 1559   2.534   5.055   6.855
  220SOL    HW2 1560   2.698   5.052   6.860
  221SOL     OW 1561   5.459   2.777   3.988
  221SOL    HW1 1562   5.542   2.770   4.043
  221SOL    HW2 1563   5.383   2.806   4.046
  222SOL     OW 1564   0.789   5.879   5.831
  222SOL    HW1 1565   0.732   5.903   5.752
  222SOL    HW2 1566   0.812   5.782   5.826
  223SOL     OW 1567   0.229   3.698   2.155
  223SOL    HW1 1568   0.322   3.703   2.119
  223SOL    HW2 1569   0.189   3.790   2.156
  224SOL     OW 1570   2.726   2.126   2.074
  224SOL    HW1 1571   2.783   2.203   2.047
  224SOL    HW2 1572   2.639   2.130   2.026
  225SOL     OW 1573   5.895   0.600   0.128
  225SOL    HW1 1574   5.846   0.671   0.078
  225SOL    HW2 1575   5.837   0.519   0.138
  226SOL     OW 1576   1.106   6.038   0.558
  226SOL    HW1 1577   1.107   6.135   0.583
  226SOL    HW2 1578   1.064   6.027   0.468
  227SOL     OW 1579   1.749   3.704   4.020
  227SOL    HW1 1580   1.691   3.759   3.960
  227SOL    HW2 1581   1.697   3.626   4.056
  228SOL     OW 1582   4.378   6.189   3.799
  228SOL    HW1 1583   4.399   6.241   3.715
  228SOL    HW2 1584   4.446   6.116   3.810
  229SOL     OW 1585   5.879   6.225   1.934
  229SOL    HW1 1586   5.918   6.252   2.022
  229SOL    HW2 1587   5.932   6.266   1.860
  230SOL     OW 1588   2.203   4.302   4.971
  230SOL    HW1 1589   2.208   4.332   4.876
  230SOL    HW2 1590   2.227   4.205   4.976
  231SOL     OW 1591   0.520   3.643   6.276
  231SOL    HW1 1592   0.576   3.656   6.358
  231SOL    HW2 1593   0.450   3.574   6.295
  232SOL     OW 1594   1.438   3.580   0.066
  232SOL    HW1 1595   1.448   3.666   0.018
  232SOL    HW2 1596   1.398   3.597   0.156
  233SOL     OW 1597   1.988   1.504   5.551
  233SOL    HW1 1598   1.960   1.542   5.463
  233SOL    HW2 1599   1.987   1.576   5.621
  234SOL     OW 1600   2.445   4.749   6.838
  234SOL    HW1 1601   2.539   4.749   6.871
  234SOL    HW2 1602   2.398   4.667   6.871
  235SOL     OW 1603   3.221   3.473   4.047
  235SOL    HW1 1604   3.206   3.504   4.140
  235SOL    HW2 1605   3.137   3.431   4.012
  236SOL     OW 1606   6.569   2.603   5.308
  236SOL    HW1 1607   6.625   2.576   5.387
  236SOL    HW2 1608   6.476   2.567   5.319
  237SOL     OW 1609   0.396   6.905   1.414
  237SOL    HW1 1610   0.453   6.850   1.352
  237SOL    HW2 1611   0.332   6.845   1.463
  238SOL     OW 1612   5.334   3.316   2.726
  238SOL    HW1 1613   5.296   3.355   2.810
  238SOL    HW2 1614   5.313   3.377   2.650
  239SOL     OW 1615   6.799   5.962   6.931
  239SOL    HW1 1616   6.797   5.994   0.007
  239SOL    HW2 1617   6.727   6.009   6.879
  240SOL     OW 1618   0.395   4.194   5.861
  240SOL    HW1 1619   0.378   4.098   5.840
  240SOL    HW2 1620   0.433   4.201   5.953
  241SOL     OW 1621   0.288   0.832   3.335
  241SOL    HW1 1622   0.308   0.929   3.344
  241SOL    HW2 1623   0.214   0.819   3.269
  242SOL     OW 1624   1.411   3.505   4.407
  242SOL    HW1 1625   1.405   3.418   4.359
  242SOL    HW2 1626   1.329   3.519   4.463
  243SOL     OW 1627   5.645   6.801   5.124
  243SOL    HW1 1628   5.570   6.815   5.060
  243SOL    HW2 1629   5.608   6.778   5.214
  244SOL     OW 1630   5.411   1.965   4.985
  244SOL    HW1 1631   5.408   2.006   4.894
  244SOL    HW2 1632   5.329   1.990   5.036
  245SOL     OW 1633   6.714   2.657   4.090
  245SOL    HW1 1634   6.712   2.683   3.994
  245SOL    HW2 1635   6.629   2.685   4.134
  246SOL     OW 1636   4.982   3.573   3.549
  246SOL    HW1 1637   4.934   3.551   3.635
  246SOL    HW2 1638   5.003   3.670   3.547
  247SOL     OW 1639   1.875   1.535   3.665
  247SOL    HW1 1640   1.950   1.574   3.612
  247SOL    HW2 1641   1.788   1.574   3.634
  248SOL     OW 1642   5.459   1.743   3.856
  248SOL    HW1 1643   5.444   1.837   3.827
  248SOL    HW2 1644   5.539   1.706   3.808
  249SOL     OW 1645   3.456   6.766   4.380
  249SOL    HW1 1646   3.457   6.733   4.475
  249SOL    HW2 1647   3.499   6.856   4.375
  250SOL     OW 1648   5.167   3.408   5.672
  250SOL    HW1 1649   5.143   3.416   5.576
  250SOL    HW2 1650   5.219   3.324   5.688
  251SOL     OW 1651   4.449   2.629   6.795
  251SOL    HW1 1652   4.455   2.655   6.698
  251SOL    HW2 1653   4.360   2.585   6.811
  252SOL     OW 1654   6.655   0.607   5.977
  252SOL    HW1 1655   6.636   0.679   5.910
  252SOL    HW2 1656   6.598   0.527   5.958
  253SOL     OW 1657   2.725   3.048   0.286
  253SOL    HW1 1658   2.772   2.988   0.221
  253SOL    HW2 1659   2.739   3.143   0.259
  254SOL     OW 1660   5.965   3.223   4.982
  254SOL    HW1 1661   6.019   3.287   4.926
  254SOL    HW2 1662   6.010   3.134   4.982
  255SOL     OW 1663   2.949   2.239   3.210
  255SOL    HW1 1664   2.889   2.163   3.188
  255SOL    HW2 1665   2.902   2.302   3.272
  256SOL     OW 1666   5.491   5.061   0.196
  256SOL    HW1 1667   5.583   5.026   0.177
  256SOL    HW2 1668   5.450   5.009   0.271
  257SOL     OW 1669   2.879   5.637   6.370
  257SOL    HW1 1670   2.870   5.618   6.468
  257SOL    HW2 1671   2.935   5.566   6.327
  258SOL     OW 1672   5.631   4.490   4.264
  258SOL    HW1 1673   5.678   4.555   4.204
  258SOL    HW2 1674   5.621   4.402   4.217
  259SOL     OW 1675   1.626   2.301   2.851
  259SOL    HW1 1676   1.719   2.338   2.863
  259SOL    HW2 1677   1.601   2.307   2.754
  260SOL     OW 1678   6.020   0.349   5.919
  260SOL    HW1 1679   5.930   0.340   5.875
  260SOL    HW2 1680   6.081   0.279   5.882
  261SOL     OW 1681   1.130   3.931   2.223
  261SOL    HW1 1682   1.047   3.978   2.193
  261SOL    HW2 1683   1.199   3.999   2.249
  262SOL     OW 1684   0.910   4.088   2.140
  262SOL    HW1 1685   0.933   4.097   2.044
  262SOL    HW2 1686   0.818   4.050   2.149
  263SOL     OW 1687   0.853   1.646   5.215
  263SOL    HW1 1688   0.883   1.638   5.120
  263SOL    HW2 1689   0.920   1.603   5.275
  264SOL     OW 1690   2.061   4.457   6.460
  264SOL    HW1 1691   1.989   4.504   6.409
  264SOL    HW2 1692   2.080   4.507   6.544
  265SOL     OW 1693   5.583   4.556   3.942
  265SOL    HW1 1694   5.632   4.642   3.960
  265SOL    HW2 1695   5.649   4.486   3.914
  266SOL     OW 1696   4.416   1.531   0.672
  266SOL    HW1 1697   4.346   1.601   0.659
  266SOL    HW2 1698   4.417   1.469   0.593
  267SOL     OW 1699   1.295   1.947   6.538
  267SOL    HW1 1700   1.357   1.877   6.574
  267SOL    HW2 1701   1.342   2.000   6.466
  268SOL     OW 1702   4.059   4.853   4.663
  268SOL    HW1 1703   4.109   4.828   4.580
  268SOL    HW2 1704   4.104   4.812   4.742
  269SOL     OW 1705   0.821   2.289   6.194
  269SOL    HW1 1706   0.902   2.263   6.247
  269SOL    HW2 1707   0.802   2.218   6.126
  270SOL     OW 1708   5.225   1.046   2.642
  270SOL    HW1 1709   5.196   1.129   2.689
  270SOL    HW2 1710   5.150   0.979   2.642
  271SOL     OW 1711   1.483   0.568   0.040
  271SOL    HW1 1712   1.426   0.486   0.039
  271SOL    HW2 1713   1.424   0.649   0.036
  272SOL     OW 1714   3.155   5.808   3.423
  272SOL    HW1 1715   3.097   5.736   3.461
  272SOL    HW2 1716   3.244   5.769   3.399
  273SOL     OW 1717   2.650   6.129   5.248
  273SOL    HW1 1718   2.694   6.178   5.323
  273SOL    HW2 1719   2.552   6.148   5.248
  274SOL     OW 1720   6.203   2.673   2.788
  274SOL    HW1 1721   6.260   2.706   2.712
  274SOL    HW2 1722   6.123   2.731   2.797
  275SOL     OW 1723   6.591   6.141   5.368
  275SOL    HW1 1724   6.591   6.049   5.330
  275SOL    HW2 1725   6.683   6.180   5.360
  276SOL     OW 1726   6.331   6.336   3.610
  276SOL    HW1 1727   6.366   6.429   3.614
  276SOL    HW2 1728   6.283   6.322   3.524
  277SOL     OW 1729   4.128   1.729   5.419
  277SOL    HW1 1730   4.085   1.693   5.502
  277SOL    HW2 1731   4.195   1.800   5.444
  278SOL     OW 1732   5.552   3.518   2.881
  278SOL    HW1 1733   5.551   3.618   2.891
  278SOL    HW2 1734   5.467   3.480   2.919
  279SOL     OW 1735   0.001   2.369   3.426
  279SOL    HW1 1736   6.955   2.305   3.468
  279SOL    HW2 1737   6.979   2.460   3.424
  280SOL     OW 1738   3.960   0.251   4.366
  280SOL    HW1 1739   4.032   0.306   4.407
  280SOL    HW2 1740   3.933   0.178   4.429
  281SOL     OW 1741   5.018   6.291   3.956
  281SOL    HW1 1742   4.992   6.201   3.921
  281SOL    HW2 1743   4.996   6.361   3.887
  282SOL     OW 1744   4.237   1.969   0.059
  282SOL    HW1 1745   4.284   2.023   0.130
  282SOL    HW2 1746   4.287   1.978   6.991
  283SOL     OW 1747   6.414   1.378   4.944
  283SOL    HW1 1748   6.478   1.369   4.868
  283SOL    HW2 1749   6.343   1.444   4.921
  284SOL     OW 1750   6.238   5.294   4.451
  284SOL    HW1 1751   6.147   5.329   4.429
  284SOL    HW2 1752   6.234   5.235   4.531
  285SOL     OW 1753   4.381   0.416   6.720
  285SOL    HW1 1754   4.481   0.410   6.722
  285SOL    HW2 1755   4.347   0.448   6.809
  286SOL     OW 1756   3.768   5.117   4.870
  286SOL    HW1 1757   3.845   5.059   4.895
  286SOL    HW2 1758   3.753   5.112   4.771
  287SOL     OW 1759   2.700   6.288   5.480
  287SOL    HW1 1760   2.751   6.320   5.560
  287SOL    HW2 1761   2.603   6.306   5.494
  288SOL     OW 1762   3.281   1.117   0.358
  288SOL    HW1 1763   3.241   1.128   0.267
  288SOL    HW2 1764   3.375   1.151   0.357
  289SOL     OW 1765   0.584   6.446   3.940
  289SOL    HW1 1766   0.587   6.537   3.899
  289SOL    HW2 1767   0.491   6.427   3.971
  290SOL     OW 1768   3.613   0.599   4.227
  290SOL    HW1 1769   3.649   0.512   4.259
  290SOL    HW2 1770   3.665   0.629   4.147
  291SOL     OW 1771   4.136   0.588   4.802
  291SOL    HW1 1772   4.168   0.509   4.751
  291SOL    HW2 1773   4.069   0.639   4.747
  292SOL     OW 1774   3.602   0.164   3.588
  292SOL    HW1 1775   3.509   0.194   3.569
  292SOL    HW2 1776   3.667   0.225   3.542
  293SOL     OW 1777   5.790   6.757   3.131
  293SOL    HW1 1778   5.769   6.835   3.071
  293SOL    HW2 1779   5.881   6.723   3.110
  294SOL     OW 1780   5.790   1.217   5.859
  294SOL    HW1 1781   5.753   1.214   5.766
  294SOL    HW2 1782   5.784   1.311   5.893
  295SOL     OW 1783   1.325   1.785   5.405
  295SOL    HW1 1784   1.375   1.727   5.469
  295SOL    HW2 1785   1.382   1.803   5.324
  296SOL     OW 1786   6.746   1.589   1.557
  296SOL    HW1 1787   6.764   1.595   1.655
  296SOL    HW2 1788   6.708   1.499   1.535
  297SOL     OW 1789   5.898   4.378   3.538
  297SOL    HW1 1790   5.847   4.318   3.599
  297SOL    HW2 1791   5.975   4.420   3.587
  298SOL     OW 1792   3.592   1.081   0.213
  298SOL    HW1 1793   3.635   1.073   0.123
  298SOL    HW2 1794   3.521   1.012   0.222
  299SOL     OW 1795   2.308   1.579   6.718
  299SOL    HW1 1796   2.382   1.526   6.758
  299SOL    HW2 1797   2.269   1.529   6.640
  300SOL     OW 1798   3.984   1.033   2.998
  300SOL    HW1 1799   3.997   1.126   2.963
  300SOL    HW2 1800   3.903   1.030   3.056
  301SOL     OW 1801   6.121   6.015   1.436
  301SOL    HW1 1802   6.114   5.983   1.530
  301SOL    HW2 1803   6.217   6.019   1.409
  302SOL     OW 1804   6.318   6.506   0.981
  302SOL    HW1 1805   6.409   6.466   0.966
  302SOL    HW2 1806   6.248   6.435   0.972
  303SOL     OW 1807   5.957   5.883   2.476
  303SOL    HW1 1808   6.054   5.862   2.476
  303SOL    HW2 1809   5.927   5.905   2.383
  304SOL     OW 1810   1.300   0.009   5.213
  304SOL    HW1 1811   1.350   0.047   5.135
  304SOL    HW2 1812   1.223   0.069   5.236
  305SOL     OW 1813   1.730   2.534   2.473
  305SOL    HW1 1814   1.812   2.583   2.443
  305SOL    HW2 1815   1.674   2.595   2.530
  306SOL     OW 1816   6.399   0.902   3.182
  306SOL    HW1 1817   6.305   0.901   3.147
  306SOL    HW2 1818   6.403   0.956   3.266
  307SOL     OW 1819   3.359   3.251   2.379
  307SOL    HW1 1820   3.325   3.343   2.362
  307SOL    HW2 1821   3.349   3.195   2.297
  308SOL     OW 1822   5.676   1.358   4.035
  308SOL    HW1 1823   5.750   1.364   3.968
  308SOL    HW2 1824   5.695   1.282   4.098
  309SOL     OW 1825   0.973   6.535   6.173
  309SOL    HW1 1826   0.909   6.607   6.145
  309SOL    HW2 1827   0.959   6.454   6.115
  310SOL     OW 1828   5.359   5.545   5.072
  310SOL    HW1 1829   5.354   5.586   5.162
  310SOL    HW2 1830   5.455   5.527   5.049
  311SOL     OW 1831   1.827   5.613   2.965
  311SOL    HW1 1832   1.903   5.658   3.013
  311SOL    HW2 1833   1.788   5.677   2.899
  312SOL     OW 1834   4.721   2.362   3.324
  312SOL    HW1 1835   4.812   2.354   3.364
  312SOL    HW2 1836   4.711   2.296   3.249
  313SOL     OW 1837   3.615   3.381   3.431
  313SOL    HW1 1838   3.562   3.466   3.422
  313SOL    HW2 1839   3.608   3.347   3.524
  314SOL     OW 1840   2.356   6.459   5.252
  314SOL    HW1 1841   2.304   6.504   5.325
  314SOL    HW2 1842   2.390   6.371   5.284
  315SOL     OW 1843   6.454   1.334   3.778
  315SOL    HW1 1844   6.419   1.242   3.799
  315SOL    HW2 1845   6.534   1.352   3.835
  316SOL     OW 1846   3.879   1.709   5.246
  316SOL    HW1 1847   3.872   1.659   5.160
  316SOL    HW2 1848   3.975   1.734   5.262
  317SOL     OW 1849   1.312   1.664   1.717
  317SOL    HW1 1850   1.315   1.746   1.659
  317SOL    HW2 1851   1.307   1.583   1.659
  318SOL     OW 1852   0.097   0.778   5.325
  318SOL    HW1 1853   0.164   0.711   5.358
  318SOL    HW2 1854   0.101   0.782   5.225
  319SOL     OW 1855   1.216   2.327   2.184
  319SOL    HW1 1856   1.206   2.263   2.108
  319SOL    HW2 1857   1.312   2.351   2.196
  320SOL     OW 1858   6.129   2.520   6.960
  320SOL    HW1 1859   6.217   2.506   7.006
  320SOL    HW2 1860   6.087   2.431   6.942
  321SOL     OW 1861   3.988   3.212   0.921
  321SOL    HW1 1862   4.085   3.197   0.902
  321SOL    HW2 1863   3.933   3.166   0.851
  322SOL     OW 1864   4.298   3.221   6.657
  322SOL    HW1 1865   4.339   3.214   6.748
  322SOL    HW2 1866   4.353   3.282   6.601
  323SOL     OW 1867   0.457   3.458   3.661
  323SOL    HW1 1868   0.550   3.496   3.665
  323SOL    HW2 1869   0.398   3.507   3.724
  324SOL     OW 1870   1.614   0.206   3.246
  324SOL    HW1 1871   1.627   0.123   3.299
  324SOL    HW2 1872   1.553   0.188   3.169
  325SOL     OW 1873   0.841   3.696   2.690
  325SOL    HW1 1874   0.789   3.622   2.731
  325SOL    HW2 1875   0.779   3.760   2.645
  326SOL     OW 1876   2.049   6.319   6.544
  326SOL    HW1 1877   2.048   6.325   6.444
  326SOL    HW2 1878   2.106   6.392   6.581
  327SOL     OW 1879   4.196   5.539   3.710
  327SOL    HW1 1880   4.112   5.542   3.765
  327SOL    HW2 1881   4.173   5.532   3.613
  328SOL     OW 1882   2.453   4.408   2.202
  328SOL    HW1 1883   2.416   4.404   2.295
  328SOL    HW2 1884   2.523   4.338   2.190
  329SOL     OW 1885   3.177   4.162   1.487
  329SOL    HW1 1886   3.136   4.077   1.455
  329SOL    HW2 1887   3.133   4.189   1.573
  330SOL     OW 1888   3.980   4.943   0.293
  330SOL    HW1 1889   3.994   4.930   0.391
  330SOL    HW2 1890   3.973   4.853   0.248
  331SOL     OW 1891   4.868   5.615   0.239
  331SOL    HW1 1892   4.797   5.549   0.261
  331SOL    HW2 1893   4.950   5.568   0.207
  332SOL     OW 1894   5.442   2.110   2.777
  332SOL    HW1 1895   5.495   2.099   2.693
  332SOL    HW2 1896   5.345   2.104   2.755
  333SOL     OW 1897   3.574   1.065   5.874
  333SOL    HW1 1898   3.591   0.969   5.893
  333SOL    HW2 1899   3.475   1.083   5.877
  334SOL     OW 1900   4.024   3.724   3.272
  334SOL    HW1 1901   4.067   3.656   3.213
  334SOL    HW2 1902   3.948   3.681   3.322
  335SOL     OW 1903   3.656   0.259   6.394
  335SOL    HW1 1904   3.677   0.186   6.458
  335SOL    HW2 1905   3.570   0.302   6.420
  336SOL     OW 1906   2.782   1.835   3.126
  336SOL    HW1 1907   2.734   1.914   3.089
  336SOL    HW2 1908   2.740   1.807   3.212
  337SOL     OW 1909   1.611   1.745   6.031
  337SOL    HW1 1910   1.531   1.728   5.973
  337SOL    HW2 1911   1.672   1.666   6.027
  338SOL     OW 1912   4.407   2.539   1.249
  338SOL    HW1 1913   4.369   2.464   1.304
  338SOL    HW2 1914   4.438   2.612   1.310
  339SOL     OW 1915   4.025   5.114   4.587
  339SOL    HW1 1916   4.024   5.020   4.623
  339SOL    HW2 1917   3.935   5.155   4.598
  340SOL     OW 1918   4.783   2.213   4.439
  340SOL    HW1 1919   4.781   2.291   4.378
  340SOL    HW2 1920   4.846   2.230   4.514
  341SOL     OW 1921   5.904   6.452   3.316
  341SOL    HW1 1922   5.975   6.448   3.245
  341SOL    HW2 1923   5.818   6.484   3.275
  342SOL     OW 1924   4.618   2.305   1.343
  342SOL    HW1 1925   4.718   2.317   1.341
  342SOL    HW2 1926   4.580   2.356   1.421
  343SOL     OW 1927   1.288   5.405   3.346
  343SOL    HW1 1928   1.207   5.411   3.289
  343SOL    HW2 1929   1.364   5.454   3.303
  344SOL     OW 1930   1.955   1.177   1.517
  344SOL    HW1 1931   1.933   1.254   1.577
  344SOL    HW2 1932   1.874   1.152   1.464
  345SOL     OW 1933   6.413   2.386   4.052
  345SOL    HW1 1934   6.392   2.290   4.066
  345SOL    HW2 1935   6.505   2.395   4.014
  346SOL     OW 1936   1.683   0.376   2.865
  346SOL    HW1 1937   1.685   0.461   2.812
  346SOL    HW2 1938   1.670   0.299   2.803
  347SOL     OW 1939   2.900   5.301   0.321
  347SOL    HW1 1940   2.833   5.367   0.355
  347SOL    HW2 1941   2.980   5.350   0.286
  348SOL     OW 1942   4.932   5.496   2.005
  348SOL    HW1 1943   4.947   5.441   2.087
  348SOL    HW2 1944   4.939   5.438   1.924
  349SOL     OW 1945   0.065   3.900   1.226
  349SOL    HW1 1946   6.993   3.943   1.238
  349SOL    HW2 1947   0.065   3.846   1.142
  350SOL     OW 1948   3.574   2.870   6.763
  350SOL    HW1 1949   3.571   2.969   6.769
  350SOL    HW2 1950   3.578   2.831   6.855
  351SOL     OW 1951   3.424   4.542   0.612
  351SOL    HW1 1952   3.384   4.630   0.584
  351SOL    HW2 1953   3.449   4.546   0.708
  352SOL     OW 1954   4.438   5.970   3.393
  352SOL    HW1 1955   4.517   5.916   3.364
  352SOL    HW2 1956   4.458   6.068   3.381
  353SOL     OW 1957   2.672   6.782   6.293
  353SOL    HW1 1958   2.579   6.759   6.320
  353SOL    HW2 1959   2.736   6.754   6.364
  354SOL     OW 1960   5.807   2.735   0.986
  354SOL    HW1 1961   5.829   2.791   0.906
  354SOL    HW2 1962   5.888   2.724   1.043
  355SOL     OW 1963   1.983   2.660   2.402
  355SOL    HW1 1964   1.972   2.706   2.314
  355SOL    HW2 1965   2.008   2.727   2.472
  356SOL     OW 1966   1.665   0.415   5.509
  356SOL    HW1 1967   1.758   0.383   5.492
  356SOL    HW2 1968   1.657   0.444   5.605
  357SOL     OW 1969   5.644   6.916   4.717
  357SOL    HW1 1970   5.691   6.948   4.636
  357SOL    HW2 1971   5.706   6.860   4.772
  358SOL     OW 1972   5.127   5.837   0.775
  358SOL    HW1 1973   5.076   5.918   0.805
  358SOL    HW2 1974   5.156   5.784   0.855
  359SOL     OW 1975   3.158   1.925   1.873
  359SOL    HW1 1976   3.204   1.993   1.816
  359SOL    HW2 1977   3.222   1.852   1.896
  360SOL     OW 1978   0.992   5.075   4.224
  360SOL    HW1 1979   0.960   5.010   4.155
  360SOL    HW2 1980   0.915   5.128   4.259
  361SOL     OW 1981   6.761   6.039   3.150
  361SOL    HW1 1982   6.728   6.040   3.056
  361SOL    HW2 1983   6.720   5.962   3.199
  362SOL     OW 1984   3.834   4.287   0.805
  362SOL    HW1 1985   3.841   4.303   0.707
  362SOL    HW2 1986   3.742   4.252   0.827
  363SOL     OW 1987   6.423   4.984   2.654
  363SOL    HW1 1988   6.403   4.918   2.581
  363SOL    HW2 1989   6.338   5.028   2.683
  364SOL     OW 1990   1.118   5.330   6.654
  364SOL    HW1 1991   1.142   5.368   6.743
  364SOL    HW2 1992   1.104   5.231   6.663
  365SOL     OW 1993   3.175   1.026   2.033
  365SOL    HW1 1994   3.267   1.066   2.035
  365SOL    HW2 1995   3.108   1.095   2.057
  366SOL     OW 1996   5.800   3.429   0.462
  366SOL    HW1 1997   5.759   3.355   0.516
  366SOL    HW2 1998   5.729   3.473   0.407
  367SOL     OW 1999   4.555   1.974   5.753
  367SOL    HW1 2000   4.599   2.056   5.716
  367SOL    HW2 2001   4.569   1.897   5.691
  368SOL     OW 2002   6.548   2.398   5.915
  368SOL    HW1 2003   6.594   2.309   5.917
  368SOL    HW2 2004   6.613   2.470   5.942
  369SOL     OW 2005   5.655   3.766   3.042
  369SOL    HW1 2006   5.614   3.775   3.132
  369SOL    HW2 2007   5.745   3.810   3.041
  370SOL     OW 2008   1.951   2.487   4.172
  370SOL    HW1 2009   1.904   2.459   4.256
  370SOL    HW2 2010   2.047   2.460   4.177
  371SOL     OW 2011   1.952   3.861   6.688
  371SOL    HW1 2012   2.048   3.833   6.697
  371SOL    HW2 2013   1.939   3.905   6.599
  372SOL     OW 2014   2.553   6.630   5.139
  372SOL    HW1 2015   2.536   6.534   5.164
  372SOL    HW2 2016   2.572   6.682   5.222
  373SOL     OW 2017   5.816   6.768   4.901
  373SOL    HW1 2018   5.907   6.806   4.920
  373SOL    HW2 2019   5.754   6.790   4.976
  374SOL     OW 2020   2.591   1.595   2.666
  374SOL    HW1 2021   2.658   1.666   2.688
  374SOL    HW2 2022   2.626   1.538   2.592
  375SOL     OW 2023   0.595   5.459   5.114
  375SOL    HW1 2024   0.684   5.414   5.116
  375SOL    HW2 2025   0.524   5.393   5.089
  376SOL     OW 2026   2.577   1.487   4.252
  376SOL    HW1 2027   2.677   1.482   4.261
  376SOL    HW2 2028   2.537   1.398   4.276
  377SOL     OW 2029   1.602   2.148   0.016
  377SOL    HW1 2030   1.523   2.090   7.015
  377SOL    HW2 2031   1.595   2.232   6.980
  378SOL     OW 2032   2.833   1.416   0.024
  378SOL    HW1 2033   2.915   1.416   6.986
  378SOL    HW2 2034   2.853   1.458   0.113
  379SOL     OW 2035   5.841   2.554   6.551
  379SOL    HW1 2036   5.765   2.530   6.612
  379SOL    HW2 2037   5.824   2.644   6.511
  380SOL     OW 2038   3.442   1.304   1.129
  380SOL    HW1 2039   3.414   1.249   1.208
  380SOL    HW2 2040   3.381   1.382   1.119
  381SOL     OW 2041   1.318   4.778   4.049
  381SOL    HW1 2042   1.345   4.868   4.082
  381SOL    HW2 2043   1.220   4.766   4.061
  382SOL     OW 2044   6.152   0.659   0.090
  382SOL    HW1 2045   6.197   0.645   0.002
  382SOL    HW2 2046   6.058   0.626   0.085
  383SOL     OW 2047   3.802   2.955   0.918
  383SOL    HW1 2048   3.764   3.043   0.944
  383SOL    HW2 2049   3.784   2.938   0.821
  384SOL     OW 2050   6.963   3.740   4.071
  384SOL    HW1 2051   6.911   3.734   4.156
  384SOL    HW2 2052   6.946   3.828   4.027
  385SOL     OW 2053   3.946   5.257   6.068
  385SOL    HW1 2054   4.009   5.201   6.121
  385SOL    HW2 2055   3.928   5.343   6.117
  386SOL     OW 2056   4.517   0.356   4.195
  386SOL    HW1 2057   4.610   0.323   4.206
  386SOL    HW2 2058   4.455   0.298   4.248
  387SOL     OW 2059   2.468   5.095   2.885
  387SOL    HW1 2060   2.543   5.157   2.860
  387SOL    HW2 2061   2.392   5.149   2.921
  388SOL     OW 2062   2.109   2.168   6.547
  388SOL    HW1 2063   2.071   2.191   6.636
  388SOL    HW2 2064   2.043   2.110   6.497
  389SOL     OW 2065   3.684   4.048   2.905
  389SOL    HW1 2066   3.591   4.018   2.927
  389SOL    HW2 2067   3.721   4.100   2.982
  390SOL     OW 2068   2.380   0.987   3.660
  390SOL    HW1 2069   2.480   0.991   3.667
  390SOL    HW2 2070   2.340   1.067   3.705
  391SOL     OW 2071   1.720   2.971   0.464
  391SOL    HW1 2072   1.657   2.902   0.501
  391SOL    HW2 2073   1.669   3.035   0.406
  392SOL     OW 2074   2.188   4.997   1.533
  392SOL    HW1 2075   2.221   5.053   1.457
  392SOL    HW2 2076   2.265   4.944   1.570
  393SOL     OW 2077   6.076   4.595   5.361
  393SOL    HW1 2078   6.156   4.655   5.365
  393SOL    HW2 2079   6.067   4.547   5.448
  394SOL     OW 2080   0.477   6.797   0.374
  394SOL    HW1 2081   0.454   6.822   0.280
  394SOL    HW2 2082   0.395   6.761   0.420
  395SOL     OW 2083   4.958   3.694   2.341
  395SOL    HW1 2084   4.920   3.660   2.255
  395SOL    HW2 2085   4.977   3.616   2.401
  396SOL     OW 2086   3.852   3.479   3.075
  396SOL    HW1 2087   3.814   3.466   3.166
  396SOL    HW2 2088   3.945   3.516   3.082
  397SOL     OW 2089   4.297   2.739   5.583
  397SOL    HW1 2090   4.232   2.735   5.507
  397SOL    HW2 2091   4.258   2.794   5.657
  398SOL     OW 2092   0.806   5.691   2.399
  398SOL    HW1 2093   0.887   5.632   2.399
  398SOL    HW2 2094   0.752   5.672   2.481
  399SOL     OW 2095   4.875   5.650   2.363
  399SOL    HW1 2096   4.840   5.721   2.424
  399SOL    HW2 2097   4.935   5.588   2.414
  400SOL     OW 2098   7.018   0.342   5.406
  400SOL    HW1 2099   7.013   0.441   5.419
  400SOL    HW2 2100   7.003   0.321   5.309
  401SOL     OW 2101   4.792   0.929   6.424
  401SOL    HW1 2102   4.704   0.884   6.435
  401SOL    HW2 2103   4.787   0.995   6.349
  402SOL     OW 2104   6.568   6.321   3.034
  402SOL    HW1 2105   6.570   6.282   3.126
  402SOL    HW2 2106   6.661   6.332   3.000
  403SOL     OW 2107   4.744   2.385   5.907
  403SOL    HW1 2108   4.696   2.331   5.976
  403SOL    HW2 2109   4.842   2.370   5.915
  404SOL     OW 2110   1.608   6.926   3.337
  404SOL    HW1 2111   1.512   6.898   3.341
  404SOL    HW2 2112   1.646   6.902   3.248
  405SOL     OW 2113   1.798   2.097   1.119
  405SOL    HW1 2114   1.821   2.085   1.215
  405SOL    HW2 2115   1.881   2.113   1.065
  406SOL     OW 2116   1.273   2.969   4.123
  406SOL    HW1 2117   1.206   2.930   4.185
  406SOL    HW2 2118   1.362   2.973   4.169
  407SOL     OW 2119   2.685   6.845   4.318
  407SOL    HW1 2120   2.678   6.749   4.344
  407SOL    HW2 2121   2.775   6.880   4.344
  408SOL     OW 2122   1.773   0.717   3.354
  408SOL    HW1 2123   1.702   0.778   3.319
  408SOL    HW2 2124   1.826   0.681   3.277
  409SOL     OW 2125   5.819   3.136   2.849
  409SOL    HW1 2126   5.906   3.121   2.801
  409SOL    HW2 2127   5.781   3.048   2.876
  410SOL     OW 2128   2.465   0.238   0.386
  410SOL    HW1 2129   2.398   0.295   0.433
  410SOL    HW2 2130   2.546   0.226   0.443
  411SOL     OW 2131   5.825   6.142   6.641
  411SOL    HW1 2132   5.862   6.067   6.695
  411SOL    HW2 2133   5.775   6.205   6.700
  412SOL     OW 2134   4.082   6.591   2.577
  412SOL    HW1 2135   4.135   6.512   2.546
  412SOL    HW2 2136   3.985   6.578   2.555
  413SOL     OW 2137   3.822   4.575   0.766
  413SOL    HW1 2138   3.807   4.610   0.674
  413SOL    HW2 2139   3.849   4.479   0.763
  414SOL     OW 2140   4.372   5.303   2.321
  414SOL    HW1 2141   4.462   5.326   2.357
  414SOL    HW2 2142   4.302   5.332   2.385
  415SOL     OW 2143   1.612   5.830   0.349
  415SOL    HW1 2144   1.549   5.766   0.393
  415SOL    HW2 2145   1.565   5.917   0.334
  416SOL     OW 2146   4.381   5.504   4.980
  416SOL    HW1 2147   4.444   5.447   5.033
  416SOL    HW2 2148   4.308   5.447   4.942
  417SOL     OW 2149   2.842   6.648   1.292
  417SOL    HW1 2150   2.838   6.747   1.306
  417SOL    HW2 2151   2.833   6.602   1.381
  418SOL     OW 2152   4.883   6.101   0.351
  418SOL    HW1 2153   4.893   6.002   0.347
  418SOL    HW2 2154   4.807   6.130   0.293
  419SOL     OW 2155   0.921   0.388   1.556
  419SOL    HW1 2156   0.938   0.292   1.578
  419SOL    HW2 2157   0.979   0.445   1.614
  420SOL     OW 2158   6.039   3.855   1.235
  420SOL    HW1 2159   6.054   3.781   1.301
  420SOL    HW2 2160   6.058   3.821   1.142
  421SOL     OW 2161   0.680   5.222   6.185
  421SOL    HW1 2162   0.646   5.130   6.166
  421SOL    HW2 2163   0.655   5.247   6.279
  422SOL     OW 2164   6.384   5.660   0.955
  422SOL    HW1 2165   6.361   5.623   0.865
  422SOL    HW2 2166   6.480   5.638   0.977
  423SOL     OW 2167   6.063   3.262   0.169
  423SOL    HW1 2168   5.979   3.216   0.198
  423SOL    HW2 2169   6.137   3.237   0.231
  424SOL     OW 2170   3.169   3.349   0.342
  424SOL    HW1 2171   3.086   3.348   0.397
  424SOL    HW2 2172   3.170   3.268   0.282
  425SOL     OW 2173   5.107   1.235   1.710
  425SOL    HW1 2174   5.048   1.211   1.632
  425SOL    HW2 2175   5.051   1.276   1.782
  426SOL     OW 2176   5.596   2.412   5.201
  426SOL    HW1 2177   5.543   2.457   5.273
  426SOL    HW2 2178   5.540   2.403   5.119
  427SOL     OW 2179   5.612   4.922   2.519
  427SOL    HW1 2180   5.571   4.989   2.456
  427SOL    HW2 2181   5.546   4.848   2.536
  428SOL     OW 2182   4.562   0.453   5.284
  428SOL    HW1 2183   4.514   0.538   5.305
  428SOL    HW2 2184   4.537   0.423   5.192
  429SOL     OW 2185   2.805   5.330   0.870
  429SOL    HW1 2186   2.829   5.385   0.950
  429SOL    HW2 2187   2.847   5.239   0.879
  430SOL     OW 2188   0.964   6.969   4.202
  430SOL    HW1 2189   0.894   6.900   4.217
  430SOL    HW2 2190   1.054   6.930   4.222
  431SOL     OW 2191   2.913   1.017   6.928
  431SOL    HW1 2192   2.923   0.920   6.953
  431SOL    HW2 2193   2.832   1.054   6.973
  432SOL     OW 2194   6.531   2.773   0.806
  432SOL    HW1 2195   6.576   2.825   0.733
  432SOL    HW2 2196   6.598   2.713   0.850
  433SOL     OW 2197   2.613   0.206   4.028
  433SOL    HW1 2198   2.640   0.110   4.026
  433SOL    HW2 2199   2.530   0.217   4.082
  434SOL     OW 2200   4.956   5.067   1.356
  434SOL    HW1 2201   4.909   4.993   1.309
  434SOL    HW2 2202   5.053   5.044   1.367
  435SOL     OW 2203   3.701   2.635   5.344
  435SOL    HW1 2204   3.747   2.681   5.268
  435SOL    HW2 2205   3.768   2.614   5.415
  436SOL     OW 2206   2.157   6.670   0.944
  436SOL    HW1 2207   2.237   6.668   1.004
  436SOL    HW2 2208   2.183   6.702   0.854
  437SOL     OW 2209   0.254   0.227   6.379
  437SOL    HW1 2210   0.308   0.253   6.299
  437SOL    HW2 2211   0.226   0.309   6.429
  438SOL     OW 2212   1.729   3.146   2.378
  438SOL    HW1 2213   1.803   3.213   2.386
  438SOL    HW2 2214   1.679   3.161   2.293
  439SOL     OW 2215   5.715   4.525   3.404
  439SOL    HW1 2216   5.730   4.532   3.306
  439SOL    HW2 2217   5.771   4.451   3.442
  440SOL     OW 2218   1.140   2.117   4.722
  440SOL    HW1 2219   1.132   2.025   4.759
  440SOL    HW2 2220   1.197   2.173   4.782
  441SOL     OW 2221   0.323   1.688   3.112
  441SOL    HW1 2222   0.355   1.758   3.048
  441SOL    HW2 2223   0.398   1.659   3.171
  442SOL     OW 2224   1.745   4.489   0.075
  442SOL    HW1 2225   1.673   4.500   0.006
  442SOL    HW2 2226   1.768   4.392   0.083
  443SOL     OW 2227   1.025   4.202   5.219
  443SOL    HW1 2228   1.081   4.259   5.280
  443SOL    HW2 2229   1.032   4.107   5.248
  444SOL     OW 2230   5.034   2.536   6.144
  444SOL    HW1 2231   5.121   2.522   6.190
  444SOL    HW2 2232   5.038   2.619   6.088
  445SOL     OW 2233   1.786   5.558   3.303
  445SOL    HW1 2234   1.832   5.527   3.220
  445SOL    HW2 2235   1.844   5.540   3.382
  446SOL     OW 2236   4.088   4.792   3.417
  446SOL    HW1 2237   4.113   4.740   3.498
  446SOL    HW2 2238   4.053   4.731   3.346
  447SOL     OW 2239   0.476   3.599   6.790
  447SOL    HW1 2240   0.516   3.688   6.765
  447SOL    HW2 2241   0.408   3.573   6.722
  448SOL     OW 2242   3.491   0.476   4.799
  448SOL    HW1 2243   3.421   0.456   4.731
  448SOL    HW2 2244   3.455   0.459   4.891
  449SOL     OW 2245   4.705   0.830   5.450
  449SOL    HW1 2246   4.680   0.824   5.547
  449SOL    HW2 2247   4.757   0.749   5.424
  450SOL     OW 2248   1.082   5.806   2.963
  450SOL    HW1 2249   1.182   5.812   2.974
  450SOL    HW2 2250   1.058   5.828   2.868
  451SOL     OW 2251   1.120   2.148   2.379
  451SOL    HW1 2252   1.032   2.143   2.331
  451SOL    HW2 2253   1.187   2.195   2.321
  452SOL     OW 2254   6.295   5.802   0.395
  452SOL    HW1 2255   6.359   5.865   0.439
  452SOL    HW2 2256   6.326   5.781   0.303
  453SOL     OW 2257   2.909   0.033   5.547
  453SOL    HW1 2258   2.935   7.011   5.459
  453SOL    HW2 2259   2.987   0.086   5.583
  454SOL     OW 2260   0.036   5.431   5.810
  454SOL    HW1 2261   0.098   5.353   5.803
  454SOL    HW2 2262   0.017   5.467   5.718
  455SOL     OW 2263   6.507   0.554   4.165
  455SOL    HW1 2264   6.485   0.545   4.068
  455SOL    HW2 2265   6.498   0.649   4.193
  456SOL     OW 2266   4.470   5.972   4.974
  456SOL    HW1 2267   4.565   5.944   4.963
  456SOL    HW2 2268   4.412   5.921   4.910
  457SOL     OW 2269   1.989   3.594   3.561
  457SOL    HW1 2270   2.057   3.664   3.540
  457SOL    HW2 2271   1.904   3.637   3.592
  458SOL     OW 2272   4.713   5.521   4.622
  458SOL    HW1 2273   4.682   5.427   4.608
  458SOL    HW2 2274   4.781   5.522   4.696
  459SOL     OW 2275   1.355   0.281   3.921
  459SOL    HW1 2276   1.286   0.290   3.993
  459SOL    HW2 2277   1.401   0.193   3.931
  460SOL     OW 2278   0.351   0.923   2.463
  460SOL    HW1 2279   0.446   0.953   2.462
  460SOL    HW2 2280   0.316   0.921   2.370
  461SOL     OW 2281   5.694   6.473   4.524
  461SOL    HW1 2282   5.621   6.407   4.541
  461SOL    HW2 2283   5.654   6.561   4.500
  462SOL     OW 2284   4.118   2.246   5.857
  462SOL    HW1 2285   4.139   2.166   5.801
  462SOL    HW2 2286   4.037   2.292   5.819
  463SOL     OW 2287   5.976   6.487   2.875
  463SOL    HW1 2288   5.897   6.426   2.864
  463SOL    HW2 2289   6.042   6.469   2.801
  464SOL     OW 2290   2.800   2.008   6.443
  464SOL    HW1 2291   2.889   2.048   6.420
  464SOL    HW2 2292   2.814   1.927   6.500
  465SOL     OW 2293   1.428   2.230   4.100
  465SOL    HW1 2294   1.433   2.131   4.113
  465SOL    HW2 2295   1.491   2.258   4.028
  466SOL     OW 2296   0.770   5.526   3.177
  466SOL    HW1 2297   0.847   5.583   3.151
  466SOL    HW2 2298   0.689   5.554   3.126
  467SOL     OW 2299   1.082   0.446   6.228
  467SOL    HW1 2300   1.129   0.458   6.140
  467SOL    HW2 2301   1.125   0.371   6.278
  468SOL     OW 2302   3.096   6.136   0.265
  468SOL    HW1 2303   3.006   6.137   0.221
  468SOL    HW2 2304   3.166   6.111   0.198
  469SOL     OW 2305   2.643   4.539   0.916
  469SOL    HW1 2306   2.669   4.477   0.990
  469SOL    HW2 2307   2.630   4.631   0.952
  470SOL     OW 2308   3.336   0.711   2.387
  470SOL    HW1 2309   3.270   0.638   2.402
  470SOL    HW2 2310   3.391   0.724   2.470
  471SOL     OW 2311   1.600   2.379   4.570
  471SOL    HW1 2312   1.525   2.360   4.506
  471SOL    HW2 2313   1.586   2.469   4.611
  472SOL     OW 2314   5.413   3.881   0.068
  472SOL    HW1 2315   5.486   3.939   0.030
  472SOL    HW2 2316   5.338   3.876   0.003
  473SOL     OW 2317   0.178   3.088   1.397
  473SOL    HW1 2318   0.244   3.131   1.458
  473SOL    HW2 2319   0.204   3.106   1.302
  474SOL     OW 2320   4.658   4.956   4.029
  474SOL    HW1 2321   4.679   5.025   3.960
  474SOL    HW2 2322   4.575   4.981   4.078
  475SOL     OW 2323   5.991   0.887   6.717
  475SOL    HW1 2324   5.960   0.962   6.774
  475SOL    HW2 2325   5.923   0.814   6.716
  476SOL     OW 2326   0.537   4.248   2.371
  476SOL    HW1 2327   0.636   4.260   2.374
  476SOL    HW2 2328   0.515   4.163   2.324
  477SOL     OW 2329   1.945   4.574   5.069
  477SOL    HW1 2330   2.042   4.553   5.061
  477SOL    HW2 2331   1.928   4.668   5.039
  478SOL     OW 2332   3.330   6.603   2.339
  478SOL    HW1 2333   3.262   6.540   2.304
  478SOL    HW2 2334   3.302   6.697   2.319
  479SOL     OW 2335   4.500   2.305   0.041
  479SOL    HW1 2336   4.558   2.385   0.052
  479SOL    HW2 2337   4.404   2.334   0.035
  480SOL     OW 2338   2.259   0.707   0.401
  480SOL    HW1 2339   2.174   0.754   0.379
  480SOL    HW2 2340   2.312   0.692   0.317
  481SOL     OW 2341   1.788   6.930   0.141
  481SOL    HW1 2342   1.801   0.011   0.132
  481SOL    HW2 2343   1.707   6.913   0.197
  482SOL     OW 2344   4.319   4.698   2.757
  482SOL    HW1 2345   4.272   4.615   2.789
  482SOL    HW2 2346   4.309   4.706   2.658
  483SOL     OW 2347   6.472   2.098   1.662
  483SOL    HW1 2348   6.484   2.140   1.752
  483SOL    HW2 2349   6.539   2.136   1.599
  484SOL     OW 2350   1.078   3.041   4.967
  484SOL    HW1 2351   1.081   2.959   4.909
  484SOL    HW2 2352   1.030   3.020   5.052
  485SOL     OW 2353   4.201   5.673   1.943
  485SOL    HW1 2354   4.295   5.637   1.944
  485SOL    HW2 2355   4.203   5.768   1.913
  486SOL     OW 2356   0.253   1.905   1.014
  486SOL    HW1 2357   0.192   1.853   1.073
  486SOL    HW2 2358   0.326   1.945   1.070
  487SOL     OW 2359   0.329   2.158   0.447
  487SOL    HW1 2360   0.409   2.205   0.484
  487SOL    HW2 2361   0.355   2.109   0.364
  488SOL     OW 2362   0.519   1.173   1.553
  488SOL    HW1 2363   0.527   1.167   1.652
  488SOL    HW2 2364   0.439   1.120   1.523
  489SOL     OW 2365   3.948   6.149   6.611
  489SOL    HW1 2366   4.004   6.231   6.616
  489SOL    HW2 2367   3.854   6.171   6.636
  490SOL     OW 2368   6.787   6.233   3.418
  490SOL    HW1 2369   6.690   6.252   3.401
  490SOL    HW2 2370   6.796   6.146   3.466
  491SOL     OW 2371   0.347   2.847   2.836
  491SOL    HW1 2372   0.438   2.859   2.874
  491SOL    HW2 2373   0.306   2.763   2.872
  492SOL     OW 2374   2.964   0.180   4.942
  492SOL    HW1 2375   2.961   0.180   4.842
  492SOL    HW2 2376   2.894   0.243   4.977
  493SOL     OW 2377   5.225   5.901   5.313
  493SOL    HW1 2378   5.211   5.998   5.333
  493SOL    HW2 2379   5.303   5.891   5.252
  494SOL     OW 2380   0.852   7.012   6.861
  494SOL    HW1 2381   0.902   6.999   6.946
  494SOL    HW2 2382   0.797   0.077   6.866
  495SOL     OW 2383   5.227   6.103   2.862
  495SOL    HW1 2384   5.322   6.112   2.833
  495SOL    HW2 2385   5.203   6.178   2.924
  496SOL     OW 2386   5.262   3.490   2.952
  496SOL    HW1 2387   5.282   3.541   3.036
  496SOL    HW2 2388   5.220   3.552   2.885
  497SOL     OW 2389   3.165   1.655   5.693
  497SOL    HW1 2390   3.185   1.573   5.746
  497SOL    HW2 2391   3.164   1.734   5.754
  498SOL     OW 2392   1.505   3.811   1.670
  498SOL    HW1 2393   1.426   3.750   1.671
  498SOL    HW2 2394   1.578   3.772   1.726
  499SOL     OW 2395   3.093   0.278   4.332
  499SOL    HW1 2396   3.086   0.318   4.423
  499SOL    HW2 2397   3.144   0.193   4.337
  500SOL     OW 2398   1.092   3.733   2.600
  500SOL    HW1 2399   1.010   3.718   2.655
  500SOL    HW2 2400   1.168   3.683   2.640
  501SOL     OW 2401   3.228   0.285   0.640
  501SOL    HW1 2402   3.252   0.207   0.582
  501SOL    HW2 2403   3.128   0.289   0.651
  502SOL     OW 2404   6.341   4.621   6.274
  502SOL    HW1 2405   6.419   4.571   6.313
  502SOL    HW2 2406   6.349   4.718   6.298
  503SOL     OW 2407   5.716   5.662   5.812
  503SOL    HW1 2408   5.747   5.730   5.746
  503SOL    HW2 2409   5.739   5.692   5.905
  504SOL     OW 2410   2.728   5.698   3.004
  504SOL    HW1 2411   2.672   5.778   3.022
  504SOL    HW2 2412   2.770   5.666   3.089
  505SOL     OW 2413   3.833   6.878   5.576
  505SOL    HW1 2414   3.896   6.865   5.499
  505SOL    HW2 2415   3.811   6.789   5.616
  506SOL     OW 2416   1.539   5.257   4.522
  506SOL    HW1 2417   1.492   5.249   4.434
  506SOL    HW2 2418   1.565   5.353   4.536
  507SOL     OW 2419   3.736   0.849   4.380
  507SOL    HW1 2420   3.748   0.911   4.303
  507SOL    HW2 2421   3.708   0.759   4.347
  508SOL     OW 2422   6.494   4.062   2.756
  508SOL    HW1 2423   6.463   4.120   2.831
  508SOL    HW2 2424   6.499   3.967   2.787
  509SOL     OW 2425   2.850   1.016   0.927
  509SOL    HW1 2426   2.897   1.014   0.838
  509SOL    HW2 2427   2.753   0.999   0.914
  510SOL     OW 2428   6.372   5.089   5.800
  510SOL    HW1 2429   6.459   5.049   5.773
  510SOL    HW2 2430   6.377   5.189   5.793
  511SOL     OW 2431   0.566   6.731   6.760
  511SOL    HW1 2432   0.532   6.644   6.723
  511SOL    HW2 2433   0.541   6.738   6.857
  512SOL     OW 2434   6.755   3.246   0.440
  512SOL    HW1 2435   6.797   3.337   0.439
  512SOL    HW2 2436   6.815   3.182   0.486
  513SOL     OW 2437   5.717   6.313   2.917
  513SOL    HW1 2438   5.685   6.243   2.853
  513SOL    HW2 2439   5.702   6.404   2.878
  514SOL     OW 2440   6.836   2.514   3.720
  514SOL    HW1 2441   6.777   2.533   3.641
  514SOL    HW2 2442   6.865   2.600   3.762
  515SOL     OW 2443   1.533   0.337   6.602
  515SOL    HW1 2444   1.563   0.243   6.620
  515SOL    HW2 2445   1.610   0.399   6.610
  516SOL     OW 2446   3.008   4.624   1.628
  516SOL    HW1 2447   2.963   4.573   1.702
  516SOL    HW2 2448   3.089   4.671   1.664
  517SOL     OW 2449   4.739   6.401   2.352
  517SOL    HW1 2450   4.786   6.377   2.267
  517SOL    HW2 2451   4.654   6.349   2.359
  518SOL     OW 2452   3.088   2.131   2.088
  518SOL    HW1 2453   3.027   2.201   2.050
  518SOL    HW2 2454   3.088   2.051   2.028
  519SOL     OW 2455   0.056   0.628   4.675
  519SOL    HW1 2456   0.046   0.722   4.707
  519SOL    HW2 2457   0.141   0.589   4.711
  520SOL     OW 2458   6.271   4.836   6.695
  520SOL    HW1 2459   6.175   4.863   6.703
  520SOL    HW2 2460   6.299   4.839   6.598
  521SOL     OW 2461   6.301   2.785   6.230
  521SOL    HW1 2462   6.266   2.868   6.274
  521SOL    HW2 2463   6.293   2.794   6.131
  522SOL     OW 2464   3.778   2.977   5.231
  522SOL    HW1 2465   3.809   3.044   5.164
  522SOL    HW2 2466   3.763   3.021   5.319
  523SOL     OW 2467   0.237   4.762   2.507
  523SOL    HW1 2468   0.299   4.684   2.510
  523SOL    HW2 2469   0.182   4.758   2.423
  524SOL     OW 2470   2.100   1.293   6.716
  524SOL    HW1 2471   2.070   1.388   6.708
  524SOL    HW2 2472   2.095   1.249   6.626
  525SOL     OW 2473   2.945   3.678   6.365
  525SOL    HW1 2474   2.974   3.700   6.458
  525SOL    HW2 2475   2.924   3.762   6.316
  526SOL     OW 2476   2.683   0.258   4.960
  526SOL    HW1 2477   2.666   0.183   4.897
  526SOL    HW2 2478   2.642   0.342   4.924
  527SOL     OW 2479   5.738   3.118   6.109
  527SOL    HW1 2480   5.719   3.157   6.019
  527SOL    HW2 2481   5.743   3.018   6.102
  528SOL     OW 2482   0.919   1.585   4.270
  528SOL    HW1 2483   0.909   1.583   4.170
  528SOL    HW2 2484   0.829   1.579   4.313
  529SOL     OW 2485   0.663   5.488   4.192
  529SOL    HW1 2486   0.757   5.455   4.196
  529SOL    HW2 2487   0.624   5.488   4.285
  530SOL     OW 2488   2.847   2.934   5.550
  530SOL    HW1 2489   2.780   3.001   5.519
  530SOL    HW2 2490   2.935   2.979   5.562
  531SOL     OW 2491   0.333   0.734   1.599
  531SOL    HW1 2492   0.362   0.646   1.560
  531SOL    HW2 2493   0.405   0.801   1.586
  532SOL     OW 2494   0.964   2.743   6.876
  532SOL    HW1 2495   1.014   2.829   6.872
  532SOL    HW2 2496   0.983   2.697   6.963
  533SOL     OW 2497   4.462   5.816   4.170
  533SOL    HW1 2498   4.495   5.728   4.202
  533SOL    HW2 2499   4.539   5.878   4.157
  534SOL     OW 2500   5.468   5.411   3.503
  534SOL    HW1 2501   5.386   5.388   3.450
  534SOL    HW2 2502   5.539   5.447   3.442
  535SOL     OW 2503   1.046   3.984   4.613
  535SOL    HW1 2504   1.126   3.945   4.659
  535SOL    HW2 2505   0.984   3.910   4.587
  536SOL     OW 2506   6.938   4.812   2.091
  536SOL    HW1 2507   7.011   4.811   2.022
  536SOL    HW2 2508   6.856   4.854   2.053
  537SOL     OW 2509   2.042   6.083   3.883
  537SOL    HW1 2510   1.991   6.164   3.854
  537SOL    HW2 2511   2.089   6.103   3.970
  538SOL     OW 2512   1.849   5.871   3.894
  538SOL    HW1 2513   1.875   5.808   3.821
  538SOL    HW2 2514   1.906   5.953   3.890
  539SOL     OW 2515   0.552   5.957   0.102
  539SOL    HW1 2516   0.609   5.891   0.054
  539SOL    HW2 2517   0.466   5.913   0.130
  540SOL     OW 2518   0.305   1.642   1.892
  540SOL    HW1 2519   0.328   1.691   1.976
  540SOL    HW2 2520   0.353   1.554   1.891
  541SOL     OW 2521   2.957   6.699   4.305
  541SOL    HW1 2522   3.041   6.652   4.330
  541SOL    HW2 2523   2.952   6.708   4.205
  542SOL     OW 2524   6.987   6.901   0.421
  542SOL    HW1 2525   6.979   6.880   0.323
  542SOL    HW2 2526   6.939   6.986   0.440
  543SOL     OW 2527   0.113   5.252   5.309
  543SOL    HW1 2528   0.069   5.213   5.390
  543SOL    HW2 2529   0.191   5.195   5.283
  544SOL     OW 2530   1.941   4.264   1.255
  544SOL    HW1 2531   1.959   4.168   1.235
  544SOL    HW2 2532   1.874   4.270   1.329
  545SOL     OW 2533   3.638   1.263   3.470
  545SOL    HW1 2534   3.669   1.206   3.546
  545SOL    HW2 2535   3.591   1.206   3.403
  546SOL     OW 2536   1.679   3.111   1.203
  546SOL    HW1 2537   1.594   3.121   1.151
  546SOL    HW2 2538   1.660   3.119   1.301
  547SOL     OW 2539   2.416   1.044   6.747
  547SOL    HW1 2540   2.350   1.090   6.806
  547SOL    HW2 2541   2.426   0.949   6.776
  548SOL     OW 2542   4.053   3.113   2.810
  548SOL    HW1 2543   3.959   3.103   2.841
  548SOL    HW2 2544   4.072   3.047   2.738
  549SOL     OW 2545   4.477   3.737   1.507
  549SOL    HW1 2546   4.518   3.757   1.418
  549SOL    HW2 2547   4.377   3.743   1.500
  550SOL     OW 2548   0.103   3.487   3.399
  550SOL    HW1 2549   0.025   3.549   3.410
  550SOL    HW2 2550   0.091   3.407   3.458
  551SOL     OW 2551   6.858   1.250   1.052
  551SOL    HW1 2552   6.892   1.184   0.986
  551SOL    HW2 2553   6.765   1.277   1.027
  552SOL     OW 2554   4.484   5.272   0.829
  552SOL    HW1 2555   4.507   5.263   0.926
  552SOL    HW2 2556   4.518   5.192   0.779
  553SOL     OW 2557   1.739   6.779   2.474
  553SOL    HW1 2558   1.741   6.878   2.488
  553SOL    HW2 2559   1.754   6.732   2.561
  554SOL     OW 2560   5.133   7.013   6.488
  554SOL    HW1 2561   5.061   0.015   6.555
  554SOL    HW2 2562   5.158   6.917   6.495
  555SOL     OW 2563   2.339   5.356   4.407
  555SOL    HW1 2564   2.276   5.292   4.451
  555SOL    HW2 2565   2.397   5.398   4.476
  556SOL     OW 2566   6.145   1.745   4.397
  556SOL    HW1 2567   6.055   1.788   4.398
  556SOL    HW2 2568   6.207   1.800   4.341
  557SOL     OW 2569   0.036   5.441   6.551
  557SOL    HW1 2570   0.135   5.434   6.553
  557SOL    HW2 2571   0.000   5.399   6.468
  558SOL     OW 2572   3.822   4.117   4.512
  558SOL    HW1 2573   3.914   4.142   4.543
  558SOL    HW2 2574   3.767   4.091   4.591
  559SOL     OW 2575   5.976   5.988   6.816
  559SOL    HW1 2576   6.049   5.922   6.799
  559SOL    HW2 2577   5.959   5.994   6.914
  560SOL     OW 2578   3.732   6.407   0.980
  560SOL    HW1 2579   3.805   6.343   1.005
  560SOL    HW2 2580   3.700   6.386   0.888
  561SOL     OW 2581   6.454   6.908   6.536
  561SOL    HW1 2582   6.483   6.864   6.621
  561SOL    HW2 2583   6.358   6.935   6.544
  562SOL     OW 2584   4.586   0.584   6.388
  562SOL    HW1 2585   4.673   0.545   6.419
  562SOL    HW2 2586   4.597   0.620   6.296
  563SOL     OW 2587   2.781   0.132   3.144
  563SOL    HW1 2588   2.840   0.067   3.193
  563SOL    HW2 2589   2.791   0.223   3.184
  564SOL     OW 2590   2.352   2.006   5.891
  564SOL    HW1 2591   2.373   2.047   5.802
  564SOL    HW2 2592   2.412   1.928   5.907
  565SOL     OW 2593   4.374   3.158   5.308
  565SOL    HW1 2594   4.392   3.061   5.295
  565SOL    HW2 2595   4.461   3.206   5.324
  566SOL     OW 2596   4.498   4.578   3.497
  566SOL    HW1 2597   4.513   4.523   3.415
  566SOL    HW2 2598   4.496   4.675   3.472
  567SOL     OW 2599   3.082   3.651   3.830
  567SOL    HW1 2600   3.131   3.571   3.866
  567SOL    HW2 2601   3.148   3.725   3.813
  568SOL     OW 2602   3.677   2.582   1.119
  568SOL    HW1 2603   3.717   2.495   1.149
  568SOL    HW2 2604   3.678   2.587   1.019
  569SOL     OW 2605   1.583   3.282   0.582
  569SOL    HW1 2606   1.645   3.253   0.510
  569SOL    HW2 2607   1.597   3.225   0.663
  570SOL     OW 2608   1.349   6.664   6.652
  570SOL    HW1 2609   1.355   6.574   6.696
  570SOL    HW2 2610   1.253   6.687   6.637
  571SOL     OW 2611   3.306   6.133   2.517
  571SOL    HW1 2612   3.350   6.140   2.606
  571SOL    HW2 2613   3.364   6.173   2.447
  572SOL     OW 2614   2.431   4.736   5.721
  572SOL    HW1 2615   2.390   4.825   5.702
  572SOL    HW2 2616   2.383   4.665   5.669
  573SOL     OW 2617   3.753   1.576   5.035
  573SOL    HW1 2618   3.691   1.545   5.107
  573SOL    HW2 2619   3.700   1.620   4.962
  574SOL     OW 2620   2.229   2.389   4.283
  574SOL    HW1 2621   2.264   2.327   4.212
  574SOL    HW2 2622   2.304   2.445   4.317
  575SOL     OW 2623   6.131   4.396   6.703
  575SOL    HW1 2624   6.110   4.310   6.749
  575SOL    HW2 2625   6.207   4.441   6.750
  576SOL     OW 2626   1.392   1.977   1.689
  576SOL    HW1 2627   1.483   2.001   1.725
  576SOL    HW2 2628   1.330   1.959   1.764
  577SOL     OW 2629   2.366   1.622   3.306
  577SOL    HW1 2630   2.322   1.592   3.222
  577SOL    HW2 2631   2.396   1.542   3.359
  578SOL     OW 2632   0.077   3.221   3.488
  578SOL    HW1 2633   0.002   3.189   3.545
  578SOL    HW2 2634   0.164   3.193   3.529
  579SOL     OW 2635   3.472   2.323   1.121
  579SOL    HW1 2636   3.457   2.239   1.172
  579SOL    HW2 2637   3.570   2.346   1.122
  580SOL     OW 2638   0.689   4.918   6.084
  580SOL    HW1 2639   0.594   4.897   6.062
  580SOL    HW2 2640   0.749   4.850   6.042
  581SOL     OW 2641   3.407   2.911   3.126
  581SOL    HW1 2642   3.425   3.007   3.108
  581SOL    HW2 2643   3.409   2.860   3.039
  582SOL     OW 2644   5.651   4.315   2.540
  582SOL    HW1 2645   5.661   4.216   2.533
  582SOL    HW2 2646   5.711   4.349   2.612
  583SOL     OW 2647   2.626   4.894   6.397
  583SOL    HW1 2648   2.619   4.840   6.314
  583SOL    HW2 2649   2.544   4.881   6.453
  584SOL     OW 2650   0.245   5.014   6.171
  584SOL    HW1 2651   0.243   5.085   6.101
  584SOL    HW2 2652   0.279   4.929   6.131
  585SOL     OW 2653   6.249   2.811   5.954
  585SOL    HW1 2654   6.245   2.715   5.928
  585SOL    HW2 2655   6.285   2.865   5.878
  586SOL     OW 2656   3.089   6.656   0.295
  586SOL    HW1 2657   3.139   6.569   0.295
  586SOL    HW2 2658   3.019   6.654   0.367
  587SOL     OW 2659   2.114   1.820   5.024
  587SOL    HW1 2660   2.066   1.898   5.064
  587SOL    HW2 2661   2.171   1.851   4.948
  588SOL     OW 2662   3.623   6.971   1.639
  588SOL    HW1 2663   3.593   6.915   1.562
  588SOL    HW2 2664   3.664   0.037   1.605
  589SOL     OW 2665   4.106   5.089   1.689
  589SOL    HW1 2666   4.064   5.095   1.598
  589SOL    HW2 2667   4.194   5.042   1.681
  590SOL     OW 2668   0.150   2.738   2.376
  590SOL    HW1 2669   0.225   2.724   2.441
  590SOL    HW2 2670   0.149   2.833   2.347
  591SOL     OW 2671   3.926   6.880   3.732
  591SOL    HW1 2672   3.994   6.911   3.666
  591SOL    HW2 2673   3.969   6.867   3.821
  592SOL     OW 2674   4.402   0.943   0.456
  592SOL    HW1 2675   4.366   0.903   0.541
  592SOL    HW2 2676   4.328   0.985   0.405
  593SOL     OW 2677   4.374   2.152   3.544
  593SOL    HW1 2678   4.307   2.123   3.612
  593SOL    HW2 2679   4.397   2.076   3.484
  594SOL     OW 2680   4.242   2.710   6.556
  594SOL    HW1 2681   4.333   2.687   6.520
  594SOL    HW2 2682   4.196   2.626   6.587
  595SOL     OW 2683   4.669   6.849   3.918
  595SOL    HW1 2684   4.705   6.896   3.998
  595SOL    HW2 2685   4.571   6.869   3.909
  596SOL     OW 2686   0.965   3.963   1.718
  596SOL    HW1 2687   1.033   3.920   1.778
  596SOL    HW2 2688   0.941   3.899   1.645
  597SOL     OW 2689   4.149   6.535   6.235
  597SOL    HW1 2690   4.102   6.474   6.171
  597SOL    HW2 2691   4.159   6.625   6.193
  598SOL     OW 2692   3.591   4.303   0.535
  598SOL    HW1 2693   3.545   4.216   0.516
  598SOL    HW2 2694   3.522   4.374   0.553
  599SOL     OW 2695   0.370   0.953   2.917
  599SOL    HW1 2696   0.446   0.910   2.869
  599SOL    HW2 2697   0.336   1.031   2.864
  600SOL     OW 2698   0.411   0.029   0.588
  600SOL    HW1 2699   0.387   0.000   0.495
  600SOL    HW2 2700   0.366   0.116   0.608
  601SOL     OW 2701   2.833   5.646   3.247
  601SOL    HW1 2702   2.748   5.637   3.299
  601SOL    HW2 2703   2.901   5.583   3.284
  602SOL     OW 2704   1.146   0.593   0.555
  602SOL    HW1 2705   1.098   0.680   0.561
  602SOL    HW2 2706   1.205   0.583   0.635
  603SOL     OW 2707   3.813   1.782   3.903
  603SOL    HW1 2708   3.817   1.758   3.806
  603SOL    HW2 2709   3.819   1.881   3.913
  604SOL     OW 2710   1.011   2.843   0.447
  604SOL    HW1 2711   0.941   2.865   0.514
  604SOL    HW2 2712   1.083   2.913   0.448
  605SOL     OW 2713   0.003   6.002   3.273
  605SOL    HW1 2714   6.939   6.046   3.237
  605SOL    HW2 2715   0.082   6.031   3.219
  606SOL     OW 2716   4.697   0.957   5.211
  606SOL    HW1 2717   4.675   0.910   5.297
  606SOL    HW2 2718   4.720   1.052   5.231
  607SOL     OW 2719   5.721   1.140   4.207
  607SOL    HW1 2720   5.673   1.109   4.288
  607SOL    HW2 2721   5.818   1.117   4.213
  608SOL     OW 2722   3.256   6.976   0.707
  608SOL    HW1 2723   3.274   0.010   0.624
  608SOL    HW2 2724   3.226   6.884   0.682
  609SOL     OW 2725   3.483   2.943   4.664
  609SOL    HW1 2726   3.572   2.969   4.626
  609SOL    HW2 2727   3.495   2.912   4.759
  610SOL     OW 2728   5.446   2.603   3.143
  610SOL    HW1 2729   5.523   2.544   3.116
  610SOL    HW2 2730   5.391   2.556   3.211
  611SOL     OW 2731   0.520   0.631   6.673
  611SOL    HW1 2732   0.507   0.723   6.710
  611SOL    HW2 2733   0.599   0.588   6.717
  612SOL     OW 2734   3.458   5.596   6.020
  612SOL    HW1 2735   3.430   5.674   5.966
  612SOL    HW2 2736   3.547   5.563   5.987
  613SOL     OW 2737   3.848   1.155   5.477
  613SOL    HW1 2738   3.915   1.223   5.450
  613SOL    HW2 2739   3.892   1.066   5.489
  614SOL     OW 2740   6.128   5.411   0.839
  614SOL    HW1 2741   6.052   5.358   0.801
  614SOL    HW2 2742   6.103   5.508   0.840
  615SOL     OW 2743   0.906   0.459   6.498
  615SOL    HW1 2744   0.859   0.518   6.432
  615SOL    HW2 2745   0.931   0.373   6.453
  616SOL     OW 2746   5.571   1.816   4.289
  616SOL    HW1 2747   5.586   1.900   4.237
  616SOL    HW2 2748   5.574   1.737   4.228
  617SOL     OW 2749   0.193   4.727   6.068
  617SOL    HW1 2750   0.197   4.653   6.001
  617SOL    HW2 2751   0.284   4.741   6.108
  618SOL     OW 2752   6.333   3.331   1.687
  618SOL    HW1 2753   6.254   3.381   1.721
  618SOL    HW2 2754   6.307   3.235   1.670
  619SOL     OW 2755   3.407   0.087   6.704
  619SOL    HW1 2756   3.347   0.090   6.624
  619SOL    HW2 2757   3.384   0.007   6.760
  620SOL     OW 2758   5.727   3.502   2.220
  620SOL    HW1 2759   5.765   3.571   2.158
  620SOL    HW2 2760   5.627   3.500   2.210
  621SOL     OW 2761   2.502   6.952   5.625
  621SOL    HW1 2762   2.585   6.904   5.652
  621SOL    HW2 2763   2.515   6.992   5.534
  622SOL     OW 2764   0.860   2.911   5.529
  622SOL    HW1 2765   0.906   2.997   5.553
  622SOL    HW2 2766   0.837   2.861   5.613
  623SOL     OW 2767   6.068   6.481   4.995
  623SOL    HW1 2768   6.038   6.519   4.907
  623SOL    HW2 2769   6.096   6.386   4.982
  624SOL     OW 2770   6.292   0.977   6.823
  624SOL    HW1 2771   6.345   0.897   6.795
  624SOL    HW2 2772   6.210   0.947   6.872
  625SOL     OW 2773   2.103   0.896   0.281
  625SOL    HW1 2774   2.186   0.904   0.226
  625SOL    HW2 2775   2.038   0.967   0.252
  626SOL     OW 2776   1.810   5.843   3.570
  626SOL    HW1 2777   1.844   5.881   3.484
  626SOL    HW2 2778   1.851   5.753   3.585
  627SOL     OW 2779   6.533   6.443   0.538
  627SOL    HW1 2780   6.608   6.394   0.494
  627SOL    HW2 2781   6.570   6.514   0.598
  628SOL     OW 2782   5.474   3.759   5.344
  628SOL    HW1 2783   5.529   3.697   5.288
  628SOL    HW2 2784   5.500   3.854   5.325
  629SOL     OW 2785   0.317   0.926   0.176
  629SOL    HW1 2786   0.412   0.898   0.167
  629SOL    HW2 2787   0.298   0.950   0.272
  630SOL     OW 2788   6.618   0.593   0.660
  630SOL    HW1 2789   6.554   0.536   0.609
  630SOL    HW2 2790   6.640   0.675   0.606
  631SOL     OW 2791   2.632   2.413   4.875
  631SOL    HW1 2792   2.558   2.481   4.874
  631SOL    HW2 2793   2.683   2.421   4.961
  632SOL     OW 2794   4.564   3.157   0.646
  632SOL    HW1 2795   4.649   3.174   0.595
  632SOL    HW2 2796   4.576   3.075   0.702
  633SOL     OW 2797   2.470   5.187   1.011
  633SOL    HW1 2798   2.489   5.206   0.915
  633SOL    HW2 2799   2.548   5.140   1.052
  634SOL     OW 2800   3.612   3.785   3.459
  634SOL    HW1 2801   3.544   3.734   3.407
  634SOL    HW2 2802   3.574   3.809   3.549
  635SOL     OW 2803   4.633   0.900   0.306
  635SOL    HW1 2804   4.606   0.881   0.211
  635SOL    HW2 2805   4.552   0.928   0.357
  636SOL     OW 2806   3.153   0.154   5.370
  636SOL    HW1 2807   3.133   0.110   5.283
  636SOL    HW2 2808   3.213   0.095   5.424
  637SOL     OW 2809   6.212   1.634   2.317
  637SOL    HW1 2810   6.231   1.707   2.383
  637SOL    HW2 2811   6.135   1.579   2.349
  638SOL     OW 2812   6.008   3.592   4.085
  638SOL    HW1 2813   5.928   3.576   4.143
  638SOL    HW2 2814   6.092   3.580   4.138
  639SOL     OW 2815   5.691   4.910   3.147
  639SOL    HW1 2816   5.712   4.883   3.241
  639SOL    HW2 2817   5.596   4.941   3.142
  640SOL     OW 2818   0.063   3.511   3.121
  640SOL    HW1 2819   7.017   3.434   3.120
  640SOL    HW2 2820   0.103   3.519   3.212
  641SOL     OW 2821   1.536   4.391   5.273
  641SOL    HW1 2822   1.530   4.477   5.324
  641SOL    HW2 2823   1.565   4.317   5.334
  642SOL     OW 2824   1.217   3.633   4.548
  642SOL    HW1 2825   1.189   3.698   4.477
  642SOL    HW2 2826   1.158   3.552   4.545
  643SOL     OW 2827   6.530   6.362   6.949
  643SOL    HW1 2828   6.532   6.417   6.865
  643SOL    HW2 2829   6.492   6.272   6.929
  644SOL     OW 2830   0.504   0.349   4.479
  644SOL    HW1 2831   0.598   0.347   4.514
  644SOL    HW2 2832   0.449   0.410   4.535
  645SOL     OW 2833   3.545   5.092   2.903
  645SOL    HW1 2834   3.472   5.043   2.855
  645SOL    HW2 2835   3.593   5.030   2.965
  646SOL     OW 2836   3.764   0.479   4.909
  646SOL    HW1 2837   3.722   0.473   4.819
  646SOL    HW2 2838   3.715   0.547   4.964
  647SOL     OW 2839   4.766   2.224   4.823
  647SOL    HW1 2840   4.790   2.309   4.777
  647SOL    HW2 2841   4.674   2.232   4.863
  648SOL     OW 2842   6.192   2.209   3.365
  648SOL    HW1 2843   6.281   2.201   3.409
  648SOL    HW2 2844   6.202   2.256   3.277
  649SOL     OW 2845   2.654   4.190   0.547
  649SOL    HW1 2846   2.682   4.268   0.490
  649SOL    HW2 2847   2.561   4.164   0.523
  650SOL     OW 2848   6.617   5.707   0.685
  650SOL    HW1 2849   6.527   5.664   0.691
  650SOL    HW2 2850   6.682   5.654   0.739
  651SOL     OW 2851   1.595   0.743   5.544
  651SOL    HW1 2852   1.693   0.723   5.540
  651SOL    HW2 2853   1.552   0.683   5.612
  652SOL     OW 2854   3.928   0.241   1.705
  652SOL    HW1 2855   3.850   0.199   1.659
  652SOL    HW2 2856   3.941   0.334   1.670
  653SOL     OW 2857   0.260   6.399   0.759
  653SOL    HW1 2858   0.334   6.461   0.787
  653SOL    HW2 2859   0.179   6.418   0.814
  654SOL     OW 2860   0.023   6.120   5.422
  654SOL    HW1 2861   7.005   6.027   5.433
  654SOL    HW2 2862   0.123   6.118   5.427
  655SOL     OW 2863   0.042   5.413   1.801
  655SOL    HW1 2864   0.096   5.359   1.735
  655SOL    HW2 2865   0.048   5.510   1.777
  656SOL     OW 2866   3.186   6.392   0.665
  656SOL    HW1 2867   3.241   6.308   0.673
  656SOL    HW2 2868   3.090   6.367   0.655
  657SOL     OW 2869   3.140   3.497   1.853
  657SOL    HW1 2870   3.203   3.424   1.881
  657SOL    HW2 2871   3.046   3.469   1.873
  658SOL     OW 2872   1.791   4.224   4.428
  658SOL    HW1 2873   1.822   4.143   4.380
  658SOL    HW2 2874   1.844   4.303   4.398
  659SOL     OW 2875   3.551   5.631   5.402
  659SOL    HW1 2876   3.459   5.606   5.372
  659SOL    HW2 2877   3.611   5.636   5.322
  660SOL     OW 2878   4.960   5.115   2.512
  660SOL    HW1 2879   4.914   5.203   2.518
  660SOL    HW2 2880   4.897   5.043   2.542
  661SOL     OW 2881   5.122   4.282   4.101
  661SOL    HW1 2882   5.142   4.197   4.151
  661SOL    HW2 2883   5.151   4.360   4.156
  662SOL     OW 2884   4.655   1.858   6.793
  662SOL    HW1 2885   4.709   1.940   6.813
  662SOL    HW2 2886   4.559   1.876   6.814
  663SOL     OW 2887   0.400   4.931   6.698
  663SOL    HW1 2888   0.448   4.876   6.766
  663SOL    HW2 2889   0.375   4.873   6.620
  664SOL     OW 2890   1.711   5.313   6.651
  664SOL    HW1 2891   1.776   5.269   6.589
  664SOL    HW2 2892   1.632   5.346   6.600
  665SOL     OW 2893   4.227   5.748   1.439
  665SOL    HW1 2894   4.316   5.741   1.484
  665SOL    HW2 2895   4.207   5.662   1.391
  666SOL     OW 2896   3.478   2.114   0.463
  666SOL    HW1 2897   3.454   2.205   0.497
  666SOL    HW2 2898   3.555   2.078   0.516
  667SOL     OW 2899   0.025   2.399   4.337
  667SOL    HW1 2900   6.998   2.441   4.259
  667SOL    HW2 2901   0.066   2.470   4.394
  668SOL     OW 2902   4.243   6.445   0.003
  668SOL    HW1 2903   4.202   6.495   0.079
  668SOL    HW2 2904   4.171   6.409   6.962
  669SOL     OW 2905   1.398   6.867   3.072
  669SOL    HW1 2906   1.370   6.959   3.045
  669SOL    HW2 2907   1.466   6.832   3.007
  670SOL     OW 2908   3.019   3.314   3.011
  670SOL    HW1 2909   3.025   3.247   2.937
  670SOL    HW2 2910   3.021   3.266   3.099
  671SOL     OW 2911   1.969   5.615   6.131
  671SOL    HW1 2912   1.913   5.688   6.169
  671SOL    HW2 2913   2.001   5.641   6.039
  672SOL     OW 2914   0.702   3.337   3.803
  672SOL    HW1 2915   0.754   3.290   3.874
  672SOL    HW2 2916   0.652   3.269   3.748
  673SOL     OW 2917   4.548   0.141   6.978
  673SOL    HW1 2918   4.579   0.072   0.024
  673SOL    HW2 2919   4.590   0.229   6.999
  674SOL     OW 2920   0.813   2.445   4.429
  674SOL    HW1 2921   0.726   2.487   4.404
  674SOL    HW2 2922   0.824   2.448   4.528
  675SOL     OW 2923   0.908   2.215   4.590
  675SOL    HW1 2924   0.996   2.178   4.623
  675SOL    HW2 2925   0.882   2.293   4.645
  676SOL     OW 2926   2.874   4.832   4.122
  676SOL    HW1 2927   2.815   4.751   4.116
  676SOL    HW2 2928   2.824   4.906   4.167
  677SOL     OW 2929   5.923   0.301   7.004
  677SOL    HW1 2930   5.915   0.285   6.905
  677SOL    HW2 2931   6.018   0.319   0.009
  678SOL     OW 2932   2.349   1.519   5.079
  678SOL    HW1 2933   2.251   1.535   5.070
  678SOL    HW2 2934   2.376   1.531   5.175
  679SOL     OW 2935   3.826   0.612   3.729
  679SOL    HW1 2936   3.913   0.577   3.694
  679SOL    HW2 2937   3.827   0.613   3.829
  680SOL     OW 2938   6.127   4.321   6.409
  680SOL    HW1 2939   6.123   4.330   6.508
  680SOL    HW2 2940   6.094   4.230   6.383
  681SOL     OW 2941   7.004   6.430   0.839
  681SOL    HW1 2942   6.998   6.394   0.932
  681SOL    HW2 2943   6.973   6.360   0.774
  682SOL     OW 2944   2.199   6.982   6.682
  682SOL    HW1 2945   2.204   6.900   6.624
  682SOL    HW2 2946   2.193   0.045   6.625
  683SOL     OW 2947   4.015   0.799   5.793
  683SOL    HW1 2948   4.037   0.727   5.727
  683SOL    HW2 2949   3.923   0.834   5.774
  684SOL     OW 2950   6.877   0.356   6.509
  684SOL    HW1 2951   6.916   0.349   6.417
  684SOL    HW2 2952   6.782   0.326   6.507
  685SOL     OW 2953   5.040   0.281   6.253
  685SOL    HW1 2954   4.965   0.340   6.224
  685SOL    HW2 2955   5.075   0.312   6.342
  686SOL     OW 2956   5.435   3.306   3.494
  686SOL    HW1 2957   5.391   3.234   3.440
  686SOL    HW2 2958   5.374   3.385   3.500
  687SOL     OW 2959   0.035   3.221   6.442
  687SOL    HW1 2960   0.092   3.176   6.374
  687SOL    HW2 2961   6.973   3.164   6.461
  688SOL     OW 2962   1.861   3.265   0.499
  688SOL    HW1 2963   1.886   3.358   0.528
  688SOL    HW2 2964   1.878   3.201   0.574
  689SOL     OW 2965   1.133   4.476   5.849
  689SOL    HW1 2966   1.137   4.407   5.922
  689SOL    HW2 2967   1.060   4.452   5.785
  690SOL     OW 2968   1.141   2.602   3.737
  690SOL    HW1 2969   1.235   2.581   3.763
  690SOL    HW2 2970   1.083   2.604   3.819
  691SOL     OW 2971   1.472   2.252   6.095
  691SOL    HW1 2972   1.439   2.345   6.079
  691SOL    HW2 2973   1.564   2.243   6.058
  692SOL     OW 2974   3.072   6.699   3.077
  692SOL    HW1 2975   2.997   6.733   3.021
  692SOL    HW2 2976   3.131   6.639   3.022
  693SOL     OW 2977   6.477   1.630   2.996
  693SOL    HW1 2978   6.500   1.547   3.046
  693SOL    HW2 2979   6.550   1.698   3.008
  694SOL     OW 2980   3.705   5.811   1.432
  694SOL    HW1 2981   3.640   5.788   1.505
  694SOL    HW2 2982   3.723   5.909   1.434
  695SOL     OW 2983   4.849   5.113   4.508
  695SOL    HW1 2984   4.933   5.082   4.553
  695SOL    HW2 2985   4.770   5.083   4.562
  696SOL     OW 2986   3.321   5.365   2.796
  696SOL    HW1 2987   3.225   5.339   2.811
  696SOL    HW2 2988   3.370   5.363   2.883
  697SOL     OW 2989   1.012   3.282   5.353
  697SOL    HW1 2990   0.948   3.335   5.409
  697SOL    HW2 2991   1.086   3.342   5.321
  698SOL     OW 2992   4.949   6.953   3.982
  698SOL    HW1 2993   4.952   6.955   3.882
  698SOL    HW2 2994   4.961   6.859   4.014
  699SOL     OW 2995   1.951   4.575   1.190
  699SOL    HW1 2996   1.882   4.507   1.215
  699SOL    HW2 2997   1.934   4.660   1.240
  700SOL     OW 2998   2.978   1.841   3.301
  700SOL    HW1 2999   2.910   1.834   3.229
  700SOL    HW2 3000   2.933   1.863   3.388
  701SOL     OW 3001   1.637   4.654   0.278
  701SOL    HW1 3002   1.665   4.582   0.213
  701SOL    HW2 3003   1.707   4.663   0.349
  702SOL     OW 3004   5.107   6.201   5.700
  702SOL    HW1 3005   5.011   6.189   5.677
  702SOL    HW2 3006   5.117   6.215   5.798
  703SOL     OW 3007   4.462   3.658   6.799
  703SOL    HW1 3008   4.467   3.694   6.892
  703SOL    HW2 3009   4.545   3.685   6.749
  704SOL     OW 3010   0.798   1.352   6.207
  704SOL    HW1 3011   0.895   1.338   6.185
  704SOL    HW2 3012   0.788   1.360   6.306
  705SOL     OW 3013   4.948   0.459   3.837
  705SOL    HW1 3014   4.865   0.505   3.807
  705SOL    HW2 3015   5.027   0.519   3.821
  706SOL     OW 3016   3.795   1.710   3.642
  706SOL    HW1 3017   3.851   1.697   3.560
  706SOL    HW2 3018   3.705   1.669   3.627
  707SOL     OW 3019   4.501   0.201   1.690
  707SOL    HW1 3020   4.497   0.165   1.784
  707SOL    HW2 3021   4.420   0.171   1.640
  708SOL     OW 3022   4.855   0.426   0.820
  708SOL    HW1 3023   4.938   0.393   0.863
  708SOL    HW2 3024   4.847   0.387   0.728
  709SOL     OW 3025   1.496   4.982   1.666
  709SOL    HW1 3026   1.572   5.022   1.614
  709SOL    HW2 3027   1.522   4.974   1.762
  710SOL     OW 3028   3.107   3.970   2.942
  710SOL    HW1 3029   3.073   3.876   2.939
  710SOL    HW2 3030   3.135   3.998   2.850
  711SOL     OW 3031   6.685   2.462   5.092
  711SOL    HW1 3032   6.612   2.441   5.027
  711SOL    HW2 3033   6.649   2.522   5.163
  712SOL     OW 3034   1.239   3.564   1.424
  712SOL    HW1 3035   1.322   3.511   1.406
  712SOL    HW2 3036   1.257   3.661   1.406
  713SOL     OW 3037   3.568   3.750   1.913
  713SOL    HW1 3038   3.489   3.782   1.861
  713SOL    HW2 3039   3.650   3.751   1.855
  714SOL     OW 3040   5.468   4.076   5.436
  714SOL    HW1 3041   5.391   4.018   5.465
  714SOL    HW2 3042   5.508   4.038   5.353
  715SOL     OW 3043   4.447   5.850   6.806
  715SOL    HW1 3044   4.529   5.797   6.828
  715SOL    HW2 3045   4.425   5.839   6.709
  716SOL     OW 3046   0.754   5.295   1.061
  716SOL    HW1 3047   0.727   5.200   1.044
  716SOL    HW2 3048   0.845   5.296   1.103
  717SOL     OW 3049   5.996   4.768   6.706
  717SOL    HW1 3050   5.952   4.695   6.757
  717SOL    HW2 3051   5.998   4.745   6.609
  718SOL     OW 3052   4.173   2.236   6.122
  718SOL    HW1 3053   4.270   2.257   6.137
  718SOL    HW2 3054   4.155   2.231   6.024
  719SOL     OW 3055   6.823   2.724   1.420
  719SOL    HW1 3056   6.803   2.742   1.324
  719SOL    HW2 3057   6.889   2.791   1.454
  720SOL     OW 3058   2.414   1.829   5.233
  720SOL    HW1 3059   2.484   1.842   5.303
  720SOL    HW2 3060   2.328   1.799   5.276
  721SOL     OW 3061   1.251   1.063   5.506
  721SOL    HW1 3062   1.233   0.968   5.480
  721SOL    HW2 3063   1.191   1.124   5.453
  722SOL     OW 3064   4.263   6.632   4.882
  722SOL    HW1 3065   4.227   6.673   4.967
  722SOL    HW2 3066   4.237   6.689   4.804
  723SOL     OW 3067   2.292   2.622   2.241
  723SOL    HW1 3068   2.273   2.680   2.162
  723SOL    HW2 3069   2.296   2.679   2.323
  724SOL     OW 3070   0.966   1.834   5.750
  724SOL    HW1 3071   0.987   1.850   5.846
  724SOL    HW2 3072   1.035   1.879   5.693
  725SOL     OW 3073   2.728   5.190   1.904
  725SOL    HW1 3074   2.655   5.133   1.864
  725SOL    HW2 3075   2.817   5.153   1.877
  726SOL     OW 3076   3.220   4.831   6.874
  726SOL    HW1 3077   3.163   4.851   6.954
  726SOL    HW2 3078   3.282   4.908   6.858
  727SOL     OW 3079   4.050   6.142   4.201
  727SOL    HW1 3080   4.092   6.162   4.112
  727SOL    HW2 3081   4.060   6.045   4.221
  728SOL     OW 3082   6.812   3.663   5.170
  728SOL    HW1 3083   6.860   3.751   5.175
  728SOL    HW2 3084   6.734   3.672   5.108
  729SOL     OW 3085   2.034   0.483   0.802
  729SOL    HW1 3086   2.071   0.545   0.733
  729SOL    HW2 3087   1.988   0.406   0.757
  730SOL     OW 3088   5.304   0.767   3.336
  730SOL    HW1 3089   5.309   0.798   3.431
  730SOL    HW2 3090   5.283   0.670   3.334
  731SOL     OW 3091   5.737   2.958   5.464
  731SOL    HW1 3092   5.774   3.051   5.464
  731SOL    HW2 3093   5.653   2.955   5.411
  732SOL     OW 3094   0.641   3.272   1.540
  732SOL    HW1 3095   0.649   3.371   1.527
  732SOL    HW2 3096   0.649   3.226   1.451
  733SOL     OW 3097   5.257   3.791   4.094
  733SOL    HW1 3098   5.281   3.767   4.000
  733SOL    HW2 3099   5.326   3.755   4.157
  734SOL     OW 3100   0.131   5.182   1.938
  734SOL    HW1 3101   0.090   5.258   1.887
  734SOL    HW2 3102   0.122   5.200   2.036
  735SOL     OW 3103   2.074   3.132   0.869
  735SOL    HW1 3104   2.124   3.218   0.880
  735SOL    HW2 3105   2.094   3.093   0.779
  736SOL     OW 3106   6.398   6.803   2.662
  736SOL    HW1 3107   6.465   6.822   2.590
  736SOL    HW2 3108   6.386   6.705   2.672
  737SOL     OW 3109   4.306   3.479   1.545
  737SOL    HW1 3110   4.314   3.485   1.644
  737SOL    HW2 3111   4.264   3.563   1.510
  738SOL     OW 3112   1.032   4.888   3.889
  738SOL    HW1 3113   0.961   4.855   3.827
  738SOL    HW2 3114   1.079   4.966   3.847
  739SOL     OW 3115   4.631   6.713   5.671
  739SOL    HW1 3116   4.557   6.778   5.688
  739SOL    HW2 3117   4.686   6.744   5.593
  740SOL     OW 3118   5.257   0.287   0.746
  740SOL    HW1 3119   5.212   0.240   0.670
  740SOL    HW2 3120   5.290   0.219   0.812
  741SOL     OW 3121   1.673   6.530   3.343
  741SOL    HW1 3122   1.659   6.486   3.255
  741SOL    HW2 3123   1.591   6.519   3.399
  742SOL     OW 3124   2.277   6.389   2.968
  742SOL    HW1 3125   2.320   6.355   2.884
  742SOL    HW2 3126   2.336   6.459   3.009
  743SOL     OW 3127   1.608   4.116   4.120
  743SOL    HW1 3128   1.543   4.122   4.196
  743SOL    HW2 3129   1.657   4.029   4.124
  744SOL     OW 3130   0.496   6.456   6.690
  744SOL    HW1 3131   0.397   6.454   6.680
  744SOL    HW2 3132   0.539   6.416   6.609
  745SOL     OW 3133   0.887   5.893   4.258
  745SOL    HW1 3134   0.796   5.852   4.269
  745SOL    HW2 3135   0.880   5.974   4.200
  746SOL     OW 3136   0.275   6.338   5.148
  746SOL    HW1 3137   0.315   6.429   5.164
  746SOL    HW2 3138   0.200   6.347   5.083
  747SOL     OW 3139   4.190   5.099   4.065
  747SOL    HW1 3140   4.109   5.111   4.121
  747SOL    HW2 3141   4.165   5.053   3.980
  748SOL     OW 3142   4.446   5.174   1.828
  748SOL    HW1 3143   4.391   5.118   1.766
  748SOL    HW2 3144   4.420   5.155   1.922
  749SOL     OW 3145   6.848   2.806   4.840
  749SOL    HW1 3146   6.884   2.739   4.905
  749SOL    HW2 3147   6.907   2.886   4.839
  750SOL     OW 3148   2.366   3.035   0.715
  750SOL    HW1 3149   2.372   2.954   0.656
  750SOL    HW2 3150   2.306   3.103   0.673
  751SOL     OW 3151   4.311   2.145   6.678
  751SOL    HW1 3152   4.212   2.140   6.667
  751SOL    HW2 3153   4.355   2.126   6.590
  752SOL     OW 3154   4.494   2.482   1.873
  752SOL    HW1 3155   4.516   2.417   1.946
  752SOL    HW2 3156   4.529   2.572   1.898
  753SOL     OW 3157   2.199   3.183   4.584
  753SOL    HW1 3158   2.192   3.257   4.651
  753SOL    HW2 3159   2.132   3.199   4.511
  754SOL     OW 3160   5.879   3.640   6.567
  754SOL    HW1 3161   5.905   3.543   6.570
  754SOL    HW2 3162   5.793   3.650   6.517
  755SOL     OW 3163   1.023   5.448   0.123
  755SOL    HW1 3164   1.093   5.502   0.170
  755SOL    HW2 3165   0.979   5.387   0.188
  756SOL     OW 3166   5.137   0.534   1.825
  756SOL    HW1 3167   5.185   0.456   1.865
  756SOL    HW2 3168   5.113   0.599   1.896
  757SOL     OW 3169   1.051   6.024   3.124
  757SOL    HW1 3170   1.044   5.944   3.064
  757SOL    HW2 3171   1.133   6.017   3.180
  758SOL     OW 3172   3.373   1.464   1.401
  758SOL    HW1 3173   3.288   1.514   1.415
  758SOL    HW2 3174   3.355   1.366   1.402
  759SOL     OW 3175   0.087   0.959   0.575
  759SOL    HW1 3176   0.059   1.019   0.650
  759SOL    HW2 3177   0.015   0.955   0.506
  760SOL     OW 3178   5.007   1.490   6.216
  760SOL    HW1 3179   5.059   1.406   6.234
  760SOL    HW2 3180   4.924   1.490   6.272
  761SOL     OW 3181   5.844   3.864   0.050
  761SOL    HW1 3182   5.875   3.774   0.021
  761SOL    HW2 3183   5.801   3.911   6.991
  762SOL     OW 3184   1.964   6.018   3.376
  762SOL    HW1 3185   1.966   6.111   3.339
  762SOL    HW2 3186   1.936   5.955   3.305
  763SOL     OW 3187   3.727   5.583   6.207
  763SOL    HW1 3188   3.709   5.597   6.110
  763SOL    HW2 3189   3.653   5.530   6.248
  764SOL     OW 3190   3.859   0.397   4.128
  764SOL    HW1 3191   3.911   0.328   4.178
  764SOL    HW2 3192   3.761   0.378   4.137
  765SOL     OW 3193   1.354   6.159   0.868
  765SOL    HW1 3194   1.269   6.136   0.915
  765SOL    HW2 3195   1.421   6.192   0.935
  766SOL     OW 3196   6.649   1.148   6.921
  766SOL    HW1 3197   6.734   1.128   6.873
  766SOL    HW2 3198   6.631   1.246   6.920
  767SOL     OW 3199   0.817   6.471   2.090
  767SOL    HW1 3200   0.820   6.377   2.056
  767SOL    HW2 3201   0.724   6.492   2.121
  768SOL     OW 3202   2.234   1.134   2.755
  768SOL    HW1 3203   2.160   1.189   2.716
  768SOL    HW2 3204   2.322   1.168   2.722
  769SOL     OW 3205   3.205   6.591   4.408
  769SOL    HW1 3206   3.285   6.639   4.372
  769SOL    HW2 3207   3.224   6.558   4.500
  770SOL     OW 3208   2.862   5.073   2.859
  770SOL    HW1 3209   2.794   5.145   2.872
  770SOL    HW2 3210   2.818   4.983   2.866
  771SOL     OW 3211   1.972   5.405   2.613
  771SOL    HW1 3212   2.059   5.447   2.588
  771SOL    HW2 3213   1.954   5.327   2.552
  772SOL     OW 3214   6.887   5.125   0.838
  772SOL    HW1 3215   6.918   5.039   0.797
  772SOL    HW2 3216   6.891   5.117   0.938
  773SOL     OW 3217   0.172   2.795   3.674
  773SOL    HW1 3218   0.119   2.761   3.596
  773SOL    HW2 3219   0.254   2.840   3.640
  774SOL     OW 3220   1.611   1.734   1.660
  774SOL    HW1 3221   1.533   1.698   1.712
  774SOL    HW2 3222   1.686   1.669   1.663
  775SOL     OW 3223   1.021   2.121   3.997
  775SOL    HW1 3224   1.077   2.188   3.950
  775SOL    HW2 3225   1.079   2.058   4.048
  776SOL     OW 3226   0.299   0.444   6.158
  776SOL    HW1 3227   0.221   0.471   6.101
  776SOL    HW2 3228   0.371   0.408   6.099
  777SOL     OW 3229   3.329   0.321   0.882
  777SOL    HW1 3230   3.425   0.295   0.878
  777SOL    HW2 3231   3.286   0.304   0.793
  778SOL     OW 3232   3.854   1.274   3.869
  778SOL    HW1 3233   3.844   1.187   3.821
  778SOL    HW2 3234   3.946   1.280   3.907
  779SOL     OW 3235   0.277   2.094   2.031
  779SOL    HW1 3236   0.290   2.193   2.033
  779SOL    HW2 3237   0.180   2.074   2.016
  780SOL     OW 3238   5.492   3.168   4.532
  780SOL    HW1 3239   5.422   3.120   4.478
  780SOL    HW2 3240   5.573   3.109   4.540
  781SOL     OW 3241   6.463   1.115   5.713
  781SOL    HW1 3242   6.446   1.180   5.787
  781SOL    HW2 3243   6.561   1.115   5.690
  782SOL     OW 3244   1.438   3.989   0.863
  782SOL    HW1 3245   1.459   4.031   0.775
  782SOL    HW2 3246   1.491   3.905   0.873
  783SOL     OW 3247   3.659   4.653   0.275
  783SOL    HW1 3248   3.684   4.628   0.181
  783SOL    HW2 3249   3.569   4.696   0.275
  784SOL     OW 3250   4.641   0.719   5.136
  784SOL    HW1 3251   4.563   0.696   5.194
  784SOL    HW2 3252   4.658   0.818   5.140
  785SOL     OW 3253   6.142   2.014   2.822
  785SOL    HW1 3254   6.220   2.071   2.796
  785SOL    HW2 3255   6.155   1.980   2.916
  786SOL     OW 3256   0.510   0.605   0.330
  786SOL    HW1 3257   0.581   0.611   0.401
  786SOL    HW2 3258   0.523   0.680   0.265
  787SOL     OW 3259   2.675   1.052   5.730
  787SOL    HW1 3260   2.764   1.096   5.717
  787SOL    HW2 3261   2.627   1.096   5.806
  788SOL     OW 3262   2.139   2.394   4.826
  788SOL    HW1 3263   2.065   2.440   4.777
  788SOL    HW2 3264   2.226   2.436   4.799
  789SOL     OW 3265   5.984   4.203   1.996
  789SOL    HW1 3266   6.050   4.247   1.935
  789SOL    HW2 3267   6.024   4.120   2.034
  790SOL     OW 3268   1.977   1.656   3.959
  790SOL    HW1 3269   1.944   1.575   3.911
  790SOL    HW2 3270   2.060   1.690   3.914
  791SOL     OW 3271   3.989   0.184   3.906
  791SOL    HW1 3272   3.986   0.094   3.863
  791SOL    HW2 3273   3.923   0.245   3.861
  792SOL     OW 3274   6.386   6.851   1.670
  792SOL    HW1 3275   6.310   6.804   1.626
  792SOL    HW2 3276   6.366   6.949   1.675
  793SOL     OW 3277   4.434   6.295   2.005
  793SOL    HW1 3278   4.484   6.209   1.991
  793SOL    HW2 3279   4.499   6.371   2.000
  794SOL     OW 3280   1.891   4.605   5.353
  794SOL    HW1 3281   1.902   4.602   5.254
  794SOL    HW2 3282   1.962   4.548   5.396
  795SOL     OW 3283   2.849   5.060   5.446
  795SOL    HW1 3284   2.925   4.995   5.453
  795SOL    HW2 3285   2.830   5.099   5.536
  796SOL     OW 3286   0.396   2.056   6.507
  796SOL    HW1 3287   0.354   2.147   6.503
  796SOL    HW2 3288   0.348   2.000   6.575
  797SOL     OW 3289   5.203   2.519   2.325
  797SOL    HW1 3290   5.116   2.561   2.349
  797SOL    HW2 3291   5.278   2.572   2.364
  798SOL     OW 3292   4.869   0.671   0.919
  798SOL    HW1 3293   4.877   0.576   0.889
  798SOL    HW2 3294   4.790   0.713   0.876
  799SOL     OW 3295   6.465   1.818   3.440
  799SOL    HW1 3296   6.558   1.819   3.403
  799SOL    HW2 3297   6.409   1.754   3.387
  800SOL     OW 3298   5.636   0.530   2.579
  800SOL    HW1 3299   5.712   0.510   2.641
  800SOL    HW2 3300   5.600   0.621   2.598
  801SOL     OW 3301   1.377   3.202   3.300
  801SOL    HW1 3302   1.325   3.151   3.369
  801SOL    HW2 3303   1.399   3.141   3.224
  802SOL     OW 3304   5.169   1.402   0.495
  802SOL    HW1 3305   5.132   1.495   0.493
  802SOL    HW2 3306   5.095   1.336   0.485
  803SOL     OW 3307   6.215   6.249   4.954
  803SOL    HW1 3308   6.263   6.200   5.027
  803SOL    HW2 3309   6.251   6.220   4.865
  804SOL     OW 3310   6.630   6.373   0.250
  804SOL    HW1 3311   6.656   6.470   0.244
  804SOL    HW2 3312   6.539   6.360   0.210
  805SOL     OW 3313   4.449   2.508   5.627
  805SOL    HW1 3314   4.516   2.527   5.698
  805SOL    HW2 3315   4.393   2.589   5.610
  806SOL     OW 3316   3.686   2.062   5.015
  806SOL    HW1 3317   3.758   2.120   4.975
  806SOL    HW2 3318   3.618   2.041   4.945
  807SOL     OW 3319   1.092   1.316   3.554
  807SOL    HW1 3320   1.163   1.270   3.500
  807SOL    HW2 3321   1.011   1.328   3.497
  808SOL     OW 3322   5.135   3.248   6.612
  808SOL    HW1 3323   5.102   3.297   6.692
  808SOL    HW2 3324   5.061   3.242   6.544
  809SOL     OW 3325   1.581   5.118   1.422
  809SOL    HW1 3326   1.514   5.192   1.435
  809SOL    HW2 3327   1.608   5.115   1.325
  810SOL     OW 3328   4.238   2.858   0.683
  810SOL    HW1 3329   4.207   2.907   0.601
  810SOL    HW2 3330   4.338   2.862   0.687
  811SOL     OW 3331   4.747   5.161   3.878
  811SOL    HW1 3332   4.832   5.113   3.857
  811SOL    HW2 3333   4.720   5.218   3.801
  812SOL     OW 3334   0.011   0.673   1.612
  812SOL    HW1 3335   0.022   0.772   1.613
  812SOL    HW2 3336   0.085   0.631   1.665
  813SOL     OW 3337   4.478   5.808   3.104
  813SOL    HW1 3338   4.457   5.710   3.098
  813SOL    HW2 3339   4.408   5.853   3.161
  814SOL     OW 3340   5.256   6.635   3.114
  814SOL    HW1 3341   5.331   6.694   3.082
  814SOL    HW2 3342   5.286   6.540   3.111
  815SOL     OW 3343   6.060   2.790   2.296
  815SOL    HW1 3344   6.078   2.692   2.301
  815SOL    HW2 3345   6.077   2.831   2.386
  816SOL     OW 3346   0.157   6.873   0.182
  816SOL    HW1 3347   0.224   6.938   0.220
  816SOL    HW2 3348   0.193   6.780   0.189
  817SOL     OW 3349   1.967   4.218   2.172
  817SOL    HW1 3350   1.921   4.245   2.257
  817SOL    HW2 3351   1.920   4.260   2.094
  818SOL     OW 3352   6.508   2.906   0.501
  818SOL    HW1 3353   6.486   2.994   0.459
  818SOL    HW2 3354   6.423   2.862   0.530
  819SOL     OW 3355   6.194   3.003   4.390
  819SOL    HW1 3356   6.155   3.024   4.480
  819SOL    HW2 3357   6.249   3.081   4.359
  820SOL     OW 3358   1.347   2.939   5.596
  820SOL    HW1 3359   1.273   2.975   5.540
  820SOL    HW2 3360   1.315   2.928   5.690
  821SOL     OW 3361   2.557   4.662   0.445
  821SOL    HW1 3362   2.598   4.601   0.512
  821SOL    HW2 3363   2.622   4.735   0.422
  822SOL     OW 3364   0.905   5.390   4.233
  822SOL    HW1 3365   0.923   5.390   4.331
  822SOL    HW2 3366   0.974   5.445   4.186
  823SOL     OW 3367   4.790   4.296   6.837
  823SOL    HW1 3368   4.834   4.364   6.779
  823SOL    HW2 3369   4.694   4.322   6.851
  824SOL     OW 3370   5.089   1.293   5.406
  824SOL    HW1 3371   5.040   1.230   5.345
  824SOL    HW2 3372   5.113   1.246   5.490
  825SOL     OW 3373   2.172   3.010   2.199
  825SOL    HW1 3374   2.148   3.098   2.159
  825SOL    HW2 3375   2.188   3.020   2.297
  826SOL     OW 3376   6.158   4.242   0.508
  826SOL    HW1 3377   6.172   4.191   0.593
  826SOL    HW2 3378   6.228   4.313   0.499
  827SOL     OW 3379   3.318   5.676   5.615
  827SOL    HW1 3380   3.365   5.602   5.663
  827SOL    HW2 3381   3.295   5.646   5.522
  828SOL     OW 3382   6.118   0.752   4.983
  828SOL    HW1 3383   6.071   0.680   5.033
  828SOL    HW2 3384   6.060   0.784   4.907
  829SOL     OW 3385   3.170   3.556   4.322
  829SOL    HW1 3386   3.143   3.506   4.405
  829SOL    HW2 3387   3.098   3.619   4.296
  830SOL     OW 3388   5.205   4.713   5.910
  830SOL    HW1 3389   5.201   4.634   5.849
  830SOL    HW2 3390   5.116   4.757   5.915
  831SOL     OW 3391   0.018   6.495   4.344
  831SOL    HW1 3392   0.062   6.579   4.312
  831SOL    HW2 3393   6.953   6.518   4.394
  832SOL     OW 3394   2.146   1.341   0.106
  832SOL    HW1 3395   2.199   1.423   0.086
  832SOL    HW2 3396   2.068   1.365   0.164
  833SOL     OW 3397   6.758   5.954   6.130
  833SOL    HW1 3398   6.751   5.955   6.030
  833SOL    HW2 3399   6.853   5.968   6.156
  834SOL     OW 3400   3.547   3.543   2.362
  834SOL    HW1 3401   3.568   3.559   2.266
  834SOL    HW2 3402   3.448   3.551   2.376
  835SOL     OW 3403   4.252   6.420   3.642
  835SOL    HW1 3404   4.243   6.406   3.543
  835SOL    HW2 3405   4.342   6.458   3.662
  836SOL     OW 3406   3.289   6.310   6.526
  836SOL    HW1 3407   3.229   6.268   6.594
  836SOL    HW2 3408   3.357   6.243   6.495
  837SOL     OW 3409   4.906   0.389   6.853
  837SOL    HW1 3410   4.816   0.427   6.835
  837SOL    HW2 3411   4.970   0.463   6.875
  838SOL     OW 3412   0.697   6.989   4.907
  838SOL    HW1 3413   0.681   6.925   4.832
  838SOL    HW2 3414   0.781   6.963   4.955
  839SOL     OW 3415   2.751   1.392   2.992
  839SOL    HW1 3416   2.802   1.477   3.006
  839SOL    HW2 3417   2.655   1.414   2.974
  840SOL     OW 3418   6.740   1.338   5.792
  840SOL    HW1 3419   6.773   1.298   5.878
  840SOL    HW2 3420   6.765   1.278   5.716
  841SOL     OW 3421   5.941   4.422   0.483
  841SOL    HW1 3422   5.879   4.393   0.410
  841SOL    HW2 3423   6.023   4.366   0.481
  842SOL     OW 3424   4.474   5.456   3.406
  842SOL    HW1 3425   4.468   5.357   3.419
  842SOL    HW2 3426   4.386   5.498   3.425
  843SOL     OW 3427   6.016   2.144   0.192
  843SOL    HW1 3428   5.926   2.167   0.154
  843SOL    HW2 3429   6.055   2.068   0.140
  844SOL     OW 3430   4.664   6.177   0.536
  844SOL    HW1 3431   4.741   6.169   0.472
  844SOL    HW2 3432   4.581   6.143   0.492
  845SOL     OW 3433   6.246   2.792   4.998
  845SOL    HW1 3434   6.313   2.746   4.939
  845SOL    HW2 3435   6.263   2.768   5.093
  846SOL     OW 3436   5.876   1.696   6.562
  846SOL    HW1 3437   5.971   1.723   6.550
  846SOL    HW2 3438   5.817   1.754   6.506
  847SOL     OW 3439   6.120   3.287   0.755
  847SOL    HW1 3440   6.185   3.212   0.749
  847SOL    HW2 3441   6.030   3.251   0.782
  848SOL     OW 3442   5.997   0.733   6.286
  848SOL    HW1 3443   6.077   0.761   6.233
  848SOL    HW2 3444   5.964   0.810   6.340
  849SOL     OW 3445   0.050   5.693   5.068
  849SOL    HW1 3446   0.013   5.783   5.090
  849SOL    HW2 3447   0.138   5.703   5.022
  850SOL     OW 3448   4.373   0.201   3.517
  850SOL    HW1 3449   4.456   0.256   3.530
  850SOL    HW2 3450   4.348   0.201   3.420
  851SOL     OW 3451   0.126   1.583   0.581
  851SOL    HW1 3452   0.212   1.598   0.531
  851SOL    HW2 3453   0.062   1.657   0.559
  852SOL     OW 3454   2.252   2.428   6.608
  852SOL    HW1 3455   2.246   2.409   6.706
  852SOL    HW2 3456   2.173   2.388   6.562
  853SOL     OW 3457   0.827   3.759   3.004
  853SOL    HW1 3458   0.746   3.701   3.001
  853SOL    HW2 3459   0.841   3.801   2.914
  854SOL     OW 3460   5.084   6.586   2.121
  854SOL    HW1 3461   5.063   6.542   2.209
  854SOL    HW2 3462   5.158   6.652   2.134
  855SOL     OW 3463   6.067   0.173   1.657
  855SOL    HW1 3464   5.975   0.212   1.654
  855SOL    HW2 3465   6.131   0.241   1.695
  856SOL     OW 3466   1.979   0.827   5.358
  856SOL    HW1 3467   2.011   0.781   5.275
  856SOL    HW2 3468   2.054   0.879   5.399
  857SOL     OW 3469   5.494   5.028   1.447
  857SOL    HW1 3470   5.541   5.108   1.411
  857SOL    HW2 3471   5.554   4.948   1.438
  858SOL     OW 3472   2.804   4.844   1.795
  858SOL    HW1 3473   2.714   4.879   1.822
  858SOL    HW2 3474   2.830   4.770   1.857
  859SOL     OW 3475   5.569   5.147   6.775
  859SOL    HW1 3476   5.624   5.070   6.742
  859SOL    HW2 3477   5.622   5.201   6.840
  860SOL     OW 3478   4.356   3.872   0.107
  860SOL    HW1 3479   4.305   3.842   0.188
  860SOL    HW2 3480   4.435   3.812   0.094
  861SOL     OW 3481   2.561   6.950   4.549
  861SOL    HW1 3482   2.581   6.878   4.615
  861SOL    HW2 3483   2.612   6.934   4.465
  862SOL     OW 3484   5.694   4.544   5.030
  862SOL    HW1 3485   5.739   4.491   4.958
  862SOL    HW2 3486   5.762   4.574   5.097
  863SOL     OW 3487   1.246   0.264   0.970
  863SOL    HW1 3488   1.301   0.228   0.895
  863SOL    HW2 3489   1.243   0.364   0.964
  864SOL     OW 3490   5.056   4.614   3.517
  864SOL    HW1 3491   4.992   4.549   3.474
  864SOL    HW2 3492   5.103   4.666   3.446
  865SOL     OW 3493   1.017   0.217   4.185
  865SOL    HW1 3494   0.995   0.120   4.194
  865SOL    HW2 3495   0.933   0.271   4.182
  866SOL     OW 3496   2.874   1.464   1.977
  866SOL    HW1 3497   2.845   1.509   2.062
  866SOL    HW2 3498   2.802   1.475   1.908
  867SOL     OW 3499   3.242   2.686   0.232
  867SOL    HW1 3500   3.226   2.610   0.295
  867SOL    HW2 3501   3.240   2.652   0.138
  868SOL     OW 3502   5.980   0.183   2.111
  868SOL    HW1 3503   6.007   0.114   2.045
  868SOL    HW2 3504   5.914   0.246   2.069
  869SOL     OW 3505   6.677   5.566   2.777
  869SOL    HW1 3506   6.776   5.579   2.773
  869SOL    HW2 3507   6.644   5.587   2.868
  870SOL     OW 3508   6.542   2.883   1.422
  870SOL    HW1 3509   6.482   2.956   1.390
  870SOL    HW2 3510   6.533   2.804   1.361
  871SOL     OW 3511   6.915   3.049   2.146
  871SOL    HW1 3512   6.845   2.986   2.114
  871SOL    HW2 3513   7.005   3.019   2.113
  872SOL     OW 3514   6.453   2.865   4.592
  872SOL    HW1 3515   6.412   2.946   4.634
  872SOL    HW2 3516   6.552   2.874   4.593
  873SOL     OW 3517   3.856   0.054   2.922
  873SOL    HW1 3518   3.863   0.071   2.824
  873SOL    HW2 3519   3.763   0.075   2.953
  874SOL     OW 3520   1.887   4.191   5.203
  874SOL    HW1 3521   1.965   4.246   5.229
  874SOL    HW2 3522   1.910   4.135   5.123
  875SOL     OW 3523   5.224   4.887   0.694
  875SOL    HW1 3524   5.315   4.929   0.693
  875SOL    HW2 3525   5.230   4.795   0.655
  876SOL     OW 3526   6.558   3.809   2.842
  876SOL    HW1 3527   6.594   3.718   2.823
  876SOL    HW2 3528   6.615   3.854   2.910
  877SOL     OW 3529   4.869   4.739   0.175
  877SOL    HW1 3530   4.969   4.747   0.171
  877SOL    HW2 3531   4.833   4.730   0.082
  878SOL     OW 3532   3.573   5.085   6.444
  878SOL    HW1 3533   3.617   5.169   6.476
  878SOL    HW2 3534   3.486   5.073   6.492
  879SOL     OW 3535   4.314   1.811   2.801
  879SOL    HW1 3536   4.323   1.830   2.899
  879SOL    HW2 3537   4.264   1.725   2.789
  880SOL     OW 3538   3.671   4.450   6.761
  880SOL    HW1 3539   3.640   4.512   6.689
  880SOL    HW2 3540   3.657   4.355   6.732
  881SOL     OW 3541   4.373   4.625   4.691
  881SOL    HW1 3542   4.356   4.589   4.599
  881SOL    HW2 3543   4.344   4.557   4.759
  882SOL     OW 3544   1.496   0.854   4.794
  882SOL    HW1 3545   1.402   0.863   4.761
  882SOL    HW2 3546   1.496   0.814   4.885
  883SOL     OW 3547   4.047   5.024   5.512
  883SOL    HW1 3548   4.028   5.118   5.483
  883SOL    HW2 3549   4.137   4.996   5.477
  884SOL     OW 3550   6.565   3.316   1.871
  884SOL    HW1 3551   6.560   3.216   1.875
  884SOL    HW2 3552   6.501   3.350   1.802
  885SOL     OW 3553   5.542   6.266   0.189
  885SOL    HW1 3554   5.608   6.315   0.130
  885SOL    HW2 3555   5.520   6.323   0.268
  886SOL     OW 3556   4.315   1.191   6.818
  886SOL    HW1 3557   4.314   1.187   6.918
  886SOL    HW2 3558   4.237   1.139   6.782
  887SOL     OW 3559   4.222   0.047   6.302
  887SOL    HW1 3560   4.205   0.145   6.289
  887SOL    HW2 3561   4.155   7.013   6.249
  888SOL     OW 3562   0.189   6.319   3.696
  888SOL    HW1 3563   0.128   6.251   3.656
  888SOL    HW2 3564   0.141   6.406   3.704
  889SOL     OW 3565   0.255   6.261   5.433
  889SOL    HW1 3566   0.310   6.327   5.484
  889SOL    HW2 3567   0.295   6.248   5.343
  890SOL     OW 3568   2.699   4.791   2.150
  890SOL    HW1 3569   2.616   4.821   2.103
  890SOL    HW2 3570   2.732   4.706   2.108
  891SOL     OW 3571   5.609   3.430   1.562
  891SOL    HW1 3572   5.537   3.402   1.627
  891SOL    HW2 3573   5.592   3.523   1.532
  892SOL     OW 3574   2.807   4.070   0.781
  892SOL    HW1 3575   2.736   4.117   0.728
  892SOL    HW2 3576   2.819   3.978   0.745
  893SOL     OW 3577   1.697   0.127   0.354
  893SOL    HW1 3578   1.615   0.084   0.316
  893SOL    HW2 3579   1.717   0.087   0.443
  894SOL     OW 3580   1.136   5.232   4.008
  894SOL    HW1 3581   1.099   5.192   4.092
  894SOL    HW2 3582   1.236   5.224   4.008
  895SOL     OW 3583   2.156   6.961   4.346
  895SOL    HW1 3584   2.092   6.935   4.274
  895SOL    HW2 3585   2.209   0.023   4.317
  896SOL     OW 3586   5.898   6.152   3.935
  896SOL    HW1 3587   5.869   6.072   3.882
  896SOL    HW2 3588   5.996   6.168   3.920
  897SOL     OW 3589   5.250   2.086   0.418
  897SOL    HW1 3590   5.326   2.021   0.418
  897SOL    HW2 3591   5.282   2.175   0.450
  898SOL     OW 3592   5.412   6.436   3.684
  898SOL    HW1 3593   5.376   6.524   3.716
  898SOL    HW2 3594   5.394   6.366   3.752
  899SOL     OW 3595   0.714   4.868   6.598
  899SOL    HW1 3596   0.797   4.814   6.585
  899SOL    HW2 3597   0.667   4.878   6.511
  900SOL     OW 3598   0.114   6.001   2.012
  900SOL    HW1 3599   0.191   6.013   1.950
  900SOL    HW2 3600   0.073   5.911   1.999
  901SOL     OW 3601   0.055   1.280   4.419
  901SOL    HW1 3602   0.115   1.334   4.359
  901SOL    HW2 3603   0.053   1.320   4.510
  902SOL     OW 3604   6.640   0.270   6.360
  902SOL    HW1 3605   6.670   0.226   6.276
  902SOL    HW2 3606   6.603   0.361   6.338
  903SOL     OW 3607   6.857   4.482   0.837
  903SOL    HW1 3608   6.796   4.411   0.871
  903SOL    HW2 3609   6.888   4.460   0.745
  904SOL     OW 3610   1.309   1.282   3.230
  904SOL    HW1 3611   1.242   1.345   3.190
  904SOL    HW2 3612   1.295   1.190   3.194
  905SOL     OW 3613   4.807   2.302   6.213
  905SOL    HW1 3614   4.712   2.271   6.199
  905SOL    HW2 3615   4.868   2.223   6.209
  906SOL     OW 3616   0.489   4.254   6.986
  906SOL    HW1 3617   0.482   4.219   6.892
  906SOL    HW2 3618   0.502   4.178   0.031
  907SOL     OW 3619   6.304   2.254   2.482
  907SOL    HW1 3620   6.235   2.290   2.544
  907SOL    HW2 3621   6.260   2.196   2.413
  908SOL     OW 3622   1.437   0.086   4.202
  908SOL    HW1 3623   1.456   0.044   4.291
  908SOL    HW2 3624   1.514   0.143   4.174
  909SOL     OW 3625   2.622   0.655   0.462
  909SOL    HW1 3626   2.705   0.701   0.430
  909SOL    HW2 3627   2.595   0.693   0.550
  910SOL     OW 3628   1.078   0.553   0.104
  910SOL    HW1 3629   1.142   0.610   0.155
  910SOL    HW2 3630   0.990   0.550   0.152
  911SOL     OW 3631   0.484   4.746   1.675
  911SOL    HW1 3632   0.425   4.670   1.648
  911SOL    HW2 3633   0.577   4.730   1.643
  912SOL     OW 3634   0.351   1.717   5.594
  912SOL    HW1 3635   0.371   1.749   5.501
  912SOL    HW2 3636   0.429   1.737   5.653
  913SOL     OW 3637   2.245   0.497   3.585
  913SOL    HW1 3638   2.225   0.527   3.492
  913SOL    HW2 3639   2.270   0.577   3.641
  914SOL     OW 3640   2.328   5.785   4.104
  914SOL    HW1 3641   2.321   5.802   4.202
  914SOL    HW2 3642   2.397   5.715   4.088
  915SOL     OW 3643   0.584   3.764   0.237
  915SOL    HW1 3644   0.674   3.737   0.202
  915SOL    HW2 3645   0.513   3.726   0.177
  916SOL     OW 3646   2.467   2.127   2.635
  916SOL    HW1 3647   2.489   2.086   2.546
  916SOL    HW2 3648   2.516   2.078   2.707
  917SOL     OW 3649   3.607   0.890   1.113
  917SOL    HW1 3650   3.576   0.982   1.137
  917SOL    HW2 3651   3.556   0.822   1.167
  918SOL     OW 3652   2.689   6.156   6.395
  918SOL    HW1 3653   2.727   6.065   6.412
  918SOL    HW2 3654   2.594   6.158   6.427
  919SOL     OW 3655   1.353   5.192   2.314
  919SOL    HW1 3656   1.414   5.182   2.235
  919SOL    HW2 3657   1.294   5.272   2.299
  920SOL     OW 3658   2.580   0.369   2.924
  920SOL    HW1 3659   2.574   0.419   3.011
  920SOL    HW2 3660   2.653   0.408   2.869
  921SOL     OW 3661   6.318   4.636   4.336
  921SOL    HW1 3662   6.305   4.547   4.381
  921SOL    HW2 3663   6.352   4.702   4.403
  922SOL     OW 3664   2.937   3.788   6.891
  922SOL    HW1 3665   2.874   3.864   6.907
  922SOL    HW2 3666   2.906   3.707   6.941
  923SOL     OW 3667   2.443   5.821   6.802
  923SOL    HW1 3668   2.431   5.869   6.889
  923SOL    HW2 3669   2.354   5.797   6.764
  924SOL     OW 3670   5.743   3.465   3.392
  924SOL    HW1 3671   5.715   3.434   3.301
  924SOL    HW2 3672   5.742   3.388   3.455
  925SOL     OW 3673   0.442   2.046   5.670
  925SOL    HW1 3674   0.457   2.141   5.698
  925SOL    HW2 3675   0.513   1.988   5.709
  926SOL     OW 3676   5.688   6.128   0.714
  926SOL    HW1 3677   5.666   6.225   0.705
  926SOL    HW2 3678   5.611   6.073   0.682
  927SOL     OW 3679   4.695   4.360   4.219
  927SOL    HW1 3680   4.615   4.420   4.219
  927SOL    HW2 3681   4.771   4.406   4.173
  928SOL     OW 3682   1.726   0.033   0.625
  928SOL    HW1 3683   1.815   7.015   0.654
  928SOL    HW2 3684   1.653   7.007   0.678
  929SOL     OW 3685   0.506   2.662   2.229
  929SOL    HW1 3686   0.588   2.611   2.203
  929SOL    HW2 3687   0.486   2.647   2.325
  930SOL     OW 3688   5.487   4.584   4.471
  930SOL    HW1 3689   5.536   4.566   4.386
  930SOL    HW2 3690   5.548   4.569   4.548
  931SOL     OW 3691   0.615   2.765   3.180
  931SOL    HW1 3692   0.713   2.752   3.192
  931SOL    HW2 3693   0.598   2.820   3.099
  932SOL     OW 3694   4.157   6.063   1.147
  932SOL    HW1 3695   4.189   6.041   1.239
  932SOL    HW2 3696   4.234   6.061   1.084
  933SOL     OW 3697   1.378   4.560   3.004
  933SOL    HW1 3698   1.282   4.552   3.033
  933SOL    HW2 3699   1.410   4.653   3.019
  934SOL     OW 3700   3.373   0.730   5.095
  934SOL    HW1 3701   3.346   0.646   5.143
  934SOL    HW2 3702   3.296   0.793   5.093
  935SOL     OW 3703   4.571   3.639   6.360
  935SOL    HW1 3704   4.581   3.734   6.391
  935SOL    HW2 3705   4.486   3.601   6.397
  936SOL     OW 3706   0.625   0.301   1.217
  936SOL    HW1 3707   0.575   0.377   1.258
  936SOL    HW2 3708   0.564   0.223   1.204
  937SOL     OW 3709   4.594   1.750   4.330
  937SOL    HW1 3710   4.691   1.753   4.352
  937SOL    HW2 3711   4.564   1.842   4.301
  938SOL     OW 3712   6.901   3.569   5.615
  938SOL    HW1 3713   6.877   3.510   5.692
  938SOL    HW2 3714   6.995   3.602   5.626
  939SOL     OW 3715   5.280   1.107   6.142
  939SOL    HW1 3716   5.217   1.169   6.096
  939SOL    HW2 3717   5.368   1.107   6.094
  940SOL     OW 3718   0.035   1.119   3.157
  940SOL    HW1 3719   6.990   1.074   3.095
  940SOL    HW2 3720   0.027   1.079   3.248
  941SOL     OW 3721   5.398   1.387   3.990
  941SOL    HW1 3722   5.496   1.369   3.984
  941SOL    HW2 3723   5.359   1.394   3.898
  942SOL     OW 3724   5.294   6.733   5.236
  942SOL    HW1 3725   5.299   6.672   5.157
  942SOL    HW2 3726   5.380   6.729   5.287
  943SOL     OW 3727   6.226   2.846   2.507
  943SOL    HW1 3728   6.219   2.942   2.533
  943SOL    HW2 3729   6.317   2.828   2.469
  944SOL     OW 3730   6.075   3.045   4.647
  944SOL    HW1 3731   5.995   3.104   4.640
  944SOL    HW2 3732   6.077   3.002   4.737
  945SOL     OW 3733   4.518   4.712   4.200
  945SOL    HW1 3734   4.558   4.631   4.158
  945SOL    HW2 3735   4.533   4.791   4.141
  946SOL     OW 3736   5.755   2.728   6.027
  946SOL    HW1 3737   5.721   2.738   5.934
  946SOL    HW2 3738   5.678   2.731   6.091
  947SOL     OW 3739   3.301   3.164   6.224
  947SOL    HW1 3740   3.295   3.064   6.222
  947SOL    HW2 3741   3.209   3.202   6.222
  948SOL     OW 3742   3.087   1.277   0.536
  948SOL    HW1 3743   3.181   1.272   0.501
  948SOL    HW2 3744   3.085   1.244   0.630
  949SOL     OW 3745   6.209   5.525   6.539
  949SOL    HW1 3746   6.225   5.480   6.627
  949SOL    HW2 3747   6.253   5.471   6.466
  950SOL     OW 3748   3.955   5.020   1.423
  950SOL    HW1 3749   3.910   4.991   1.338
  950SOL    HW2 3750   4.053   5.001   1.417
  951SOL     OW 3751   0.664   0.608   1.889
  951SOL    HW1 3752   0.751   0.617   1.937
  951SOL    HW2 3753   0.674   0.640   1.795
  952SOL     OW 3754   5.105   0.843   2.929
  952SOL    HW1 3755   5.036   0.915   2.918
  952SOL    HW2 3756   5.196   0.883   2.918
  953SOL     OW 3757   4.639   6.497   5.335
  953SOL    HW1 3758   4.686   6.488   5.422
  953SOL    HW2 3759   4.643   6.592   5.304
  954SOL     OW 3760   6.344   0.085   1.605
  954SOL    HW1 3761   6.387   0.129   1.684
  954SOL    HW2 3762   6.249   0.113   1.599
  955SOL     OW 3763   0.908   4.974   3.189
  955SOL    HW1 3764   1.007   4.971   3.182
  955SOL    HW2 3765   0.882   5.029   3.268
  956SOL     OW 3766   1.235   1.404   1.641
  956SOL    HW1 3767   1.141   1.390   1.674
  956SOL    HW2 3768   1.298   1.400   1.717
  957SOL     OW 3769   1.234   4.825   5.642
  957SOL    HW1 3770   1.252   4.728   5.660
  957SOL    HW2 3771   1.237   4.876   5.728
  958SOL     OW 3772   5.245   2.078   1.086
  958SOL    HW1 3773   5.257   2.125   0.998
  958SOL    HW2 3774   5.289   1.988   1.081
  959SOL     OW 3775   3.201   5.081   2.628
  959SOL    HW1 3776   3.231   5.026   2.550
  959SOL    HW2 3777   3.245   5.171   2.624
  960SOL     OW 3778   2.018   5.996   4.342
  960SOL    HW1 3779   2.095   6.004   4.405
  960SOL    HW2 3780   1.939   6.044   4.380
  961SOL     OW 3781   3.900   7.018   2.342
  961SOL    HW1 3782   3.827   0.067   2.356
  961SOL    HW2 3783   3.873   6.955   2.269
  962SOL     OW 3784   1.977   1.155   3.204
  962SOL    HW1 3785   1.981   1.099   3.287
  962SOL    HW2 3786   2.044   1.229   3.210
  963SOL     OW 3787   5.911   0.438   1.517
  963SOL    HW1 3788   5.833   0.486   1.477
  963SOL    HW2 3789   5.978   0.418   1.446
  964SOL     OW 3790   5.465   3.339   0.842
  964SOL    HW1 3791   5.441   3.387   0.757
  964SOL    HW2 3792   5.389   3.347   0.907
  965SOL     OW 3793   6.721   1.548   0.857
  965SOL    HW1 3794   6.630   1.589   0.856
  965SOL    HW2 3795   6.758   1.554   0.950
  966SOL     OW 3796   6.192   1.521   2.924
  966SOL    HW1 3797   6.226   1.612   2.948
  966SOL    HW2 3798   6.267   1.467   2.885
  967SOL     OW 3799   1.553   5.562   0.454
  967SOL    HW1 3800   1.625   5.493   0.462
  967SOL    HW2 3801   1.470   5.520   0.418
  968SOL     OW 3802   4.610   2.642   2.621
  968SOL    HW1 3803   4.648   2.612   2.534
  968SOL    HW2 3804   4.605   2.742   2.623
  969SOL     OW 3805   3.937   6.615   6.007
  969SOL    HW1 3806   3.957   6.523   6.040
  969SOL    HW2 3807   3.839   6.624   5.989
  970SOL     OW 3808   4.345   1.666   5.221
  970SOL    HW1 3809   4.338   1.571   5.191
  970SOL    HW2 3810   4.286   1.681   5.300
  971SOL     OW 3811   6.946   1.571   2.445
  971SOL    HW1 3812   6.922   1.489   2.497
  971SOL    HW2 3813   6.974   1.644   2.508
  972SOL     OW 3814   6.397   4.529   0.814
  972SOL    HW1 3815   6.419   4.625   0.830
  972SOL    HW2 3816   6.479   4.474   0.831
  973SOL     OW 3817   0.025   4.510   6.423
  973SOL    HW1 3818   7.009   4.577   6.488
  973SOL    HW2 3819   6.978   4.435   6.414
  974SOL     OW 3820   3.171   0.515   2.506
  974SOL    HW1 3821   3.120   0.591   2.548
  974SOL    HW2 3822   3.175   0.438   2.571
  975SOL     OW 3823   3.080   5.806   6.269
  975SOL    HW1 3824   3.013   5.738   6.298
  975SOL    HW2 3825   3.060   5.893   6.313
  976SOL     OW 3826   6.892   3.302   2.550
  976SOL    HW1 3827   6.795   3.284   2.531
  976SOL    HW2 3828   6.948   3.233   2.503
  977SOL     OW 3829   1.190   0.988   3.908
  977SOL    HW1 3830   1.222   1.068   3.958
  977SOL    HW2 3831   1.183   0.910   3.971
  978SOL     OW 3832   5.928   4.366   4.141
  978SOL    HW1 3833   5.968   4.275   4.136
  978SOL    HW2 3834   5.999   4.432   4.166
  979SOL     OW 3835   6.115   1.553   3.339
  979SOL    HW1 3836   6.156   1.462   3.346
  979SOL    HW2 3837   6.032   1.548   3.284
  980SOL     OW 3838   5.741   2.730   3.559
  980SOL    HW1 3839   5.654   2.779   3.561
  980SOL    HW2 3840   5.734   2.652   3.497
  981SOL     OW 3841   1.175   1.859   4.844
  981SOL    HW1 3842   1.269   1.840   4.818
  981SOL    HW2 3843   1.170   1.871   4.943
  982SOL     OW 3844   1.246   2.600   2.078
  982SOL    HW1 3845   1.328   2.606   2.020
  982SOL    HW2 3846   1.273   2.603   2.174
  983SOL     OW 3847   5.956   2.171   3.472
  983SOL    HW1 3848   6.055   2.164   3.460
  983SOL    HW2 3849   5.910   2.152   3.385
  984SOL     OW 3850   4.565   1.054   5.448
  984SOL    HW1 3851   4.613   0.967   5.458
  984SOL    HW2 3852   4.488   1.057   5.511
  985SOL     OW 3853   4.229   5.489   0.303
  985SOL    HW1 3854   4.225   5.589   0.311
  985SOL    HW2 3855   4.135   5.453   0.298
  986SOL     OW 3856   5.209   5.603   6.331
  986SOL    HW1 3857   5.260   5.531   6.283
  986SOL    HW2 3858   5.111   5.594   6.312
  987SOL     OW 3859   3.094   6.546   1.739
  987SOL    HW1 3860   3.038   6.506   1.667
  987SOL    HW2 3861   3.094   6.645   1.730
  988SOL     OW 3862   3.675   2.813   0.541
  988SOL    HW1 3863   3.658   2.764   0.456
  988SOL    HW2 3864   3.603   2.791   0.607
  989SOL     OW 3865   0.376   0.695   5.950
  989SOL    HW1 3866   0.316   0.733   5.880
  989SOL    HW2 3867   0.321   0.651   6.021
  990SOL     OW 3868   4.756   0.116   4.066
  990SOL    HW1 3869   4.807   0.194   4.103
  990SOL    HW2 3870   4.817   0.038   4.055
  991SOL     OW 3871   1.314   2.245   4.909
  991SOL    HW1 3872   1.327   2.336   4.869
  991SOL    HW2 3873   1.403   2.206   4.932
  992SOL     OW 3874   0.467   2.958   6.876
  992SOL    HW1 3875   0.478   2.990   6.781
  992SOL    HW2 3876   0.508   3.025   6.938
  993SOL     OW 3877   3.032   5.312   2.462
  993SOL    HW1 3878   3.013   5.239   2.527
  993SOL    HW2 3879   2.962   5.383   2.470
  994SOL     OW 3880   3.556   4.112   2.605
  994SOL    HW1 3881   3.502   4.125   2.688
  994SOL    HW2 3882   3.629   4.046   2.622
  995SOL     OW 3883   1.978   2.694   5.974
  995SOL    HW1 3884   1.912   2.637   5.926
  995SOL    HW2 3885   2.065   2.645   5.983
  996SOL     OW 3886   1.725   3.674   3.601
  996SOL    HW1 3887   1.658   3.622   3.654
  996SOL    HW2 3888   1.685   3.702   3.514
  997SOL     OW 3889   0.682   0.503   1.453
  997SOL    HW1 3890   0.690   0.519   1.354
  997SOL    HW2 3891   0.760   0.449   1.484
  998SOL     OW 3892   4.193   0.084   2.860
  998SOL    HW1 3893   4.180   0.173   2.904
  998SOL    HW2 3894   4.114   0.026   2.879
  999SOL     OW 3895   5.673   5.651   1.010
  999SOL    HW1 3896   5.709   5.718   0.945
  999SOL    HW2 3897   5.579   5.676   1.035
 1000SOL     OW 3898   2.141   1.805   2.600
 1000SOL    HW1 3899   2.145   1.828   2.503
 1000SOL    HW2 3900   2.055   1.757   2.619
 1001SOL     OW 3901   4.062   6.692   6.452
 1001SOL    HW1 3902   4.108   6.719   6.537
 1001SOL    HW2 3903   4.130   6.668   6.383
 1002SOL     OW 3904   5.654   1.560   6.665
 1002SOL    HW1 3905   5.736   1.543   6.611
 1002SOL    HW2 3906   5.654   1.654   6.698
 1003SOL     OW 3907   2.219   6.760   2.547
 1003SOL    HW1 3908   2.156   6.756   2.470
 1003SOL    HW2 3909   2.298   6.702   2.529
 1004SOL     OW 3910   6.841   0.370   6.856
 1004SOL    HW1 3911   6.789   0.379   6.771
 1004SOL    HW2 3912   6.938   0.375   6.836
 1005SOL     OW 3913   0.211   0.642   2.826
 1005SOL    HW1 3914   0.250   0.554   2.801
 1005SOL    HW2 3915   0.120   0.627   2.865
 1006SOL     OW 3916   2.331   5.590   1.864
 1006SOL    HW1 3917   2.355   5.543   1.949
 1006SOL    HW2 3918   2.395   5.565   1.792
 1007SOL     OW 3919   6.010   0.777   3.380
 1007SOL    HW1 3920   5.941   0.745   3.444
 1007SOL    HW2 3921   6.100   0.773   3.424
 1008SOL     OW 3922   0.539   2.187   3.790
 1008SOL    HW1 3923   0.617   2.165   3.847
 1008SOL    HW2 3924   0.545   2.282   3.759
 1009SOL     OW 3925   6.681   5.684   3.818
 1009SOL    HW1 3926   6.692   5.699   3.720
 1009SOL    HW2 3927   6.626   5.602   3.833
 1010SOL     OW 3928   3.921   2.029   7.009
 1010SOL    HW1 3929   3.829   1.996   0.009
 1010SOL    HW2 3930   3.979   2.010   0.070
 1011SOL     OW 3931   2.953   5.656   3.914
 1011SOL    HW1 3932   2.989   5.570   3.878
 1011SOL    HW2 3933   2.945   5.723   3.840
 1012SOL     OW 3934   6.337   5.235   0.296
 1012SOL    HW1 3935   6.390   5.318   0.312
 1012SOL    HW2 3936   6.392   5.170   0.244
 1013SOL     OW 3937   0.435   0.900   6.717
 1013SOL    HW1 3938   0.421   0.970   6.647
 1013SOL    HW2 3939   0.486   0.939   6.794
 1014SOL     OW 3940   5.254   5.477   6.573
 1014SOL    HW1 3941   5.191   5.400   6.565
 1014SOL    HW2 3942   5.254   5.530   6.488
 1015SOL     OW 3943   3.930   6.576   4.837
 1015SOL    HW1 3944   3.887   6.519   4.906
 1015SOL    HW2 3945   3.972   6.518   4.767
 1016SOL     OW 3946   2.636   2.844   1.185
 1016SOL    HW1 3947   2.661   2.935   1.151
 1016SOL    HW2 3948   2.566   2.804   1.126
 1017SOL     OW 3949   5.273   2.531   0.981
 1017SOL    HW1 3950   5.250   2.596   1.053
 1017SOL    HW2 3951   5.339   2.464   1.015
 1018SOL     OW 3952   1.805   3.125   4.239
 1018SOL    HW1 3953   1.810   3.222   4.215
 1018SOL    HW2 3954   1.889   3.079   4.211
 1019SOL     OW 3955   0.222   1.312   0.464
 1019SOL    HW1 3956   0.156   1.322   0.538
 1019SOL    HW2 3957   0.177   1.324   0.376
 1020SOL     OW 3958   1.463   6.942   0.715
 1020SOL    HW1 3959   1.439   6.867   0.777
 1020SOL    HW2 3960   1.416   6.930   0.628
 1021SOL     OW 3961   5.932   1.344   1.964
 1021SOL    HW1 3962   5.970   1.364   2.054
 1021SOL    HW2 3963   5.985   1.272   1.920
 1022SOL     OW 3964   4.235   4.641   6.187
 1022SOL    HW1 3965   4.175   4.561   6.195
 1022SOL    HW2 3966   4.329   4.613   6.205
 1023SOL     OW 3967   6.288   6.961   1.932
 1023SOL    HW1 3968   6.342   0.009   1.881
 1023SOL    HW2 3969   6.194   6.962   1.899
 1024SOL     OW 3970   6.832   2.239   4.036
 1024SOL    HW1 3971   6.905   2.268   3.974
 1024SOL    HW2 3972   6.845   2.142   4.059
 1025SOL     OW 3973   3.812   4.629   0.027
 1025SOL    HW1 3974   3.881   4.656   0.095
 1025SOL    HW2 3975   3.857   4.578   6.972
 1026SOL     OW 3976   1.194   1.087   1.035
 1026SOL    HW1 3977   1.238   1.084   1.125
 1026SOL    HW2 3978   1.263   1.068   0.964
 1027SOL     OW 3979   3.143   5.594   1.263
 1027SOL    HW1 3980   3.226   5.650   1.253
 1027SOL    HW2 3981   3.141   5.553   1.354
 1028SOL     OW 3982   2.577   6.104   0.250
 1028SOL    HW1 3983   2.651   6.057   0.300
 1028SOL    HW2 3984   2.616   6.171   0.187
 1029SOL     OW 3985   1.904   0.536   0.325
 1029SOL    HW1 3986   1.820   0.483   0.339
 1029SOL    HW2 3987   1.928   0.536   0.228
 1030SOL     OW 3988   3.605   2.903   3.716
 1030SOL    HW1 3989   3.506   2.911   3.729
 1030SOL    HW2 3990   3.649   2.884   3.803
 1031SOL     OW 3991   3.695   5.258   1.486
 1031SOL    HW1 3992   3.775   5.227   1.434
 1031SOL    HW2 3993   3.684   5.357   1.475
 1032SOL     OW 3994   2.333   1.394   5.721
 1032SOL    HW1 3995   2.242   1.390   5.761
 1032SOL    HW2 3996   2.332   1.352   5.630
 1033SOL     OW 3997   1.879   5.663   1.457
 1033SOL    HW1 3998   1.977   5.651   1.467
 1033SOL    HW2 3999   1.860   5.713   1.372
 1034SOL     OW 4000   1.814   6.357   4.082
 1034SOL    HW1 4001   1.799   6.322   4.174
 1034SOL    HW2 4002   1.912   6.364   4.064
 1035SOL     OW 4003   2.907   2.034   3.754
 1035SOL    HW1 4004   2.883   2.100   3.825
 1035SOL    HW2 4005   2.940   1.950   3.797
 1036SOL     OW 4006   3.779   0.969   0.767
 1036SOL    HW1 4007   3.780   0.888   0.825
 1036SOL    HW2 4008   3.713   1.035   0.804
 1037SOL     OW 4009   0.533   1.117   1.018
 1037SOL    HW1 4010   0.478   1.058   1.078
 1037SOL    HW2 4011   0.521   1.089   0.923
 1038SOL     OW 4012   0.728   1.687   5.890
 1038SOL    HW1 4013   0.670   1.606   5.895
 1038SOL    HW2 4014   0.801   1.672   5.822
 1039SOL     OW 4015   4.582   1.599   4.882
 1039SOL    HW1 4016   4.492   1.588   4.841
 1039SOL    HW2 4017   4.597   1.527   4.950
 1040SOL     OW 4018   5.623   3.633   3.633
 1040SOL    HW1 4019   5.681   3.587   3.566
 1040SOL    HW2 4020   5.607   3.571   3.711
 1041SOL     OW 4021   6.286   6.961   4.087
 1041SOL    HW1 4022   6.196   6.936   4.050
 1041SOL    HW2 4023   6.348   6.884   4.080
 1042SOL     OW 4024   4.515   4.827   2.140
 1042SOL    HW1 4025   4.524   4.884   2.222
 1042SOL    HW2 4026   4.419   4.823   2.113
 1043SOL     OW 4027   3.919   1.218   6.532
 1043SOL    HW1 4028   4.007   1.265   6.529
 1043SOL    HW2 4029   3.905   1.168   6.446
 1044SOL     OW 4030   3.354   2.499   1.374
 1044SOL    HW1 4031   3.389   2.493   1.281
 1044SOL    HW2 4032   3.262   2.460   1.377
 1045SOL     OW 4033   3.033   0.664   1.351
 1045SOL    HW1 4034   2.989   0.694   1.267
 1045SOL    HW2 4035   3.128   0.697   1.353
 1046SOL     OW 4036   2.412   6.858   6.792
 1046SOL    HW1 4037   2.329   6.892   6.747
 1046SOL    HW2 4038   2.425   6.906   6.878
 1047SOL     OW 4039   1.682   5.293   3.124
 1047SOL    HW1 4040   1.715   5.354   3.051
 1047SOL    HW2 4041   1.609   5.338   3.174
 1048SOL     OW 4042   4.931   5.518   5.497
 1048SOL    HW1 4043   4.870   5.449   5.457
 1048SOL    HW2 4044   5.026   5.492   5.479
 1049SOL     OW 4045   6.951   3.909   5.159
 1049SOL    HW1 4046   6.879   3.945   5.100
 1049SOL    HW2 4047   0.014   3.888   5.104
 1050SOL     OW 4048   3.745   6.516   0.590
 1050SOL    HW1 4049   3.680   6.585   0.621
 1050SOL    HW2 4050   3.710   6.425   0.612
 1051SOL     OW 4051   4.190   4.765   6.789
 1051SOL    HW1 4052   4.096   4.794   6.768
 1051SOL    HW2 4053   4.188   4.702   6.866
 1052SOL     OW 4054   3.664   0.773   4.798
 1052SOL    HW1 4055   3.608   0.722   4.733
 1052SOL    HW2 4056   3.716   0.843   4.748
 1053SOL     OW 4057   5.738   5.902   3.435
 1053SOL    HW1 4058   5.651   5.868   3.400
 1053SOL    HW2 4059   5.742   6.001   3.424
 1054SOL     OW 4060   2.304   4.959   5.618
 1054SOL    HW1 4061   2.301   4.886   5.550
 1054SOL    HW2 4062   2.294   5.047   5.573
 1055SOL     OW 4063   5.706   5.001   4.419
 1055SOL    HW1 4064   5.674   4.986   4.325
 1055SOL    HW2 4065   5.775   4.933   4.442
 1056SOL     OW 4066   1.721   6.409   5.384
 1056SOL    HW1 4067   1.807   6.373   5.420
 1056SOL    HW2 4068   1.645   6.352   5.416
 1057SOL     OW 4069   3.130   4.016   3.447
 1057SOL    HW1 4070   3.138   4.008   3.347
 1057SOL    HW2 4071   3.060   3.952   3.479
 1058SOL     OW 4072   4.094   1.493   1.857
 1058SOL    HW1 4073   4.049   1.524   1.940
 1058SOL    HW2 4074   4.030   1.497   1.780
 1059SOL     OW 4075   3.932   0.449   1.561
 1059SOL    HW1 4076   3.932   0.535   1.613
 1059SOL    HW2 4077   3.890   0.465   1.471
 1060SOL     OW 4078   0.271   3.596   5.970
 1060SOL    HW1 4079   0.218   3.675   5.939
 1060SOL    HW2 4080   0.223   3.512   5.947
 1061SOL     OW 4081   3.361   4.558   0.962
 1061SOL    HW1 4082   3.316   4.579   1.049
 1061SOL    HW2 4083   3.442   4.615   0.952
 1062SOL     OW 4084   6.593   5.895   5.256
 1062SOL    HW1 4085   6.591   5.879   5.158
 1062SOL    HW2 4086   6.528   5.835   5.302
 1063SOL     OW 4087   0.946   3.676   1.170
 1063SOL    HW1 4088   0.967   3.652   1.075
 1063SOL    HW2 4089   0.925   3.773   1.176
 1064SOL     OW 4090   1.625   3.440   2.323
 1064SOL    HW1 4091   1.643   3.523   2.270
 1064SOL    HW2 4092   1.712   3.397   2.349
 1065SOL     OW 4093   5.289   0.044   3.948
 1065SOL    HW1 4094   5.381   0.048   3.989
 1065SOL    HW2 4095   5.231   7.002   4.003
 1066SOL     OW 4096   5.220   0.254   4.627
 1066SOL    HW1 4097   5.283   0.196   4.679
 1066SOL    HW2 4098   5.215   0.221   4.533
 1067SOL     OW 4099   1.655   2.295   1.006
 1067SOL    HW1 4100   1.680   2.207   1.048
 1067SOL    HW2 4101   1.576   2.333   1.054
 1068SOL     OW 4102   0.336   3.919   1.838
 1068SOL    HW1 4103   0.260   3.976   1.806
 1068SOL    HW2 4104   0.327   3.827   1.801
 1069SOL     OW 4105   4.571   4.331   0.818
 1069SOL    HW1 4106   4.478   4.299   0.834
 1069SOL    HW2 4107   4.599   4.307   0.725
 1070SOL     OW 4108   1.814   0.920   6.984
 1070SOL    HW1 4109   1.905   0.883   6.962
 1070SOL    HW2 4110   1.804   1.010   6.944
 1071SOL     OW 4111   4.033   0.083   3.142
 1071SOL    HW1 4112   4.012   0.163   3.198
 1071SOL    HW2 4113   3.968   0.077   3.067
 1072SOL     OW 4114   2.501   5.755   2.295
 1072SOL    HW1 4115   2.544   5.666   2.282
 1072SOL    HW2 4116   2.435   5.771   2.222
 1073SOL     OW 4117   3.673   5.189   2.258
 1073SOL    HW1 4118   3.637   5.252   2.189
 1073SOL    HW2 4119   3.670   5.095   2.222
 1074SOL     OW 4120   1.435   5.416   2.124
 1074SOL    HW1 4121   1.482   5.485   2.068
 1074SOL    HW2 4122   1.497   5.340   2.143
 1075SOL     OW 4123   4.956   5.125   3.187
 1075SOL    HW1 4124   4.864   5.130   3.226
 1075SOL    HW2 4125   4.949   5.111   3.088
 1076SOL     OW 4126   1.162   4.301   4.921
 1076SOL    HW1 4127   1.212   4.349   4.993
 1076SOL    HW2 4128   1.065   4.299   4.944
 1077SOL     OW 4129   5.589   6.458   0.606
 1077SOL    HW1 4130   5.537   6.424   0.527
 1077SOL    HW2 4131   5.567   6.554   0.621
 1078SOL     OW 4132   1.730   1.570   2.511
 1078SOL    HW1 4133   1.642   1.594   2.471
 1078SOL    HW2 4134   1.727   1.476   2.544
 1079SOL     OW 4135   2.621   5.601   3.423
 1079SOL    HW1 4136   2.675   5.552   3.491
 1079SOL    HW2 4137   2.532   5.626   3.462
 1080SOL     OW 4138   3.161   5.393   3.514
 1080SOL    HW1 4139   3.110   5.310   3.532
 1080SOL    HW2 4140   3.207   5.424   3.597
 1081SOL     OW 4141   1.251   1.197   5.979
 1081SOL    HW1 4142   1.251   1.160   5.886
 1081SOL    HW2 4143   1.316   1.273   5.985
 1082SOL     OW 4144   1.245   6.892   5.464
 1082SOL    HW1 4145   1.285   6.950   5.393
 1082SOL    HW2 4146   1.179   6.830   5.423
 1083SOL     OW 4147   3.534   3.335   2.160
 1083SOL    HW1 4148   3.528   3.314   2.257
 1083SOL    HW2 4149   3.581   3.423   2.147
 1084SOL     OW 4150   6.318   5.447   1.194
 1084SOL    HW1 4151   6.326   5.505   1.113
 1084SOL    HW2 4152   6.363   5.360   1.177
 1085SOL     OW 4153   2.216   4.693   3.984
 1085SOL    HW1 4154   2.301   4.646   3.958
 1085SOL    HW2 4155   2.138   4.644   3.945
 1086SOL     OW 4156   6.226   5.382   3.494
 1086SOL    HW1 4157   6.222   5.476   3.461
 1086SOL    HW2 4158   6.233   5.319   3.416
 1087SOL     OW 4159   5.017   3.116   4.955
 1087SOL    HW1 4160   5.081   3.049   4.992
 1087SOL    HW2 4161   4.942   3.131   5.020
 1088SOL     OW 4162   4.858   4.452   3.412
 1088SOL    HW1 4163   4.774   4.439   3.464
 1088SOL    HW2 4164   4.837   4.490   3.323
 1089SOL     OW 4165   0.021   0.123   4.303
 1089SOL    HW1 4166   0.062   0.043   4.260
 1089SOL    HW2 4167   0.033   0.202   4.243
 1090SOL     OW 4168   2.649   1.324   4.915
 1090SOL    HW1 4169   2.680   1.416   4.941
 1090SOL    HW2 4170   2.727   1.262   4.916
 1091SOL     OW 4171   1.455   1.924   4.127
 1091SOL    HW1 4172   1.540   1.960   4.166
 1091SOL    HW2 4173   1.477   1.873   4.044
 1092SOL     OW 4174   1.992   3.731   1.225
 1092SOL    HW1 4175   2.076   3.685   1.252
 1092SOL    HW2 4176   1.941   3.673   1.162
 1093SOL     OW 4177   1.612   2.293   2.509
 1093SOL    HW1 4178   1.657   2.381   2.503
 1093SOL    HW2 4179   1.681   2.220   2.507
 1094SOL     OW 4180   0.373   6.490   1.584
 1094SOL    HW1 4181   0.442   6.506   1.655
 1094SOL    HW2 4182   0.344   6.394   1.588
 1095SOL     OW 4183   6.249   2.665   6.750
 1095SOL    HW1 4184   6.182   2.647   6.822
 1095SOL    HW2 4185   6.239   2.598   6.676
 1096SOL     OW 4186   3.893   5.392   0.906
 1096SOL    HW1 4187   3.949   5.335   0.967
 1096SOL    HW2 4188   3.898   5.487   0.935
 1097SOL     OW 4189   1.649   5.354   4.834
 1097SOL    HW1 4190   1.621   5.422   4.902
 1097SOL    HW2 4191   1.651   5.397   4.744
 1098SOL     OW 4192   5.030   2.439   0.840
 1098SOL    HW1 4193   4.944   2.457   0.888
 1098SOL    HW2 4194   5.107   2.456   0.901
 1099SOL     OW 4195   4.048   2.213   4.441
 1099SOL    HW1 4196   4.124   2.219   4.375
 1099SOL    HW2 4197   4.061   2.281   4.513
 1100SOL     OW 4198   0.543   1.278   6.459
 1100SOL    HW1 4199   0.491   1.354   6.420
 1100SOL    HW2 4200   0.546   1.203   6.393
 1101SOL     OW 4201   5.462   3.327   1.328
 1101SOL    HW1 4202   5.532   3.382   1.283
 1101SOL    HW2 4203   5.474   3.331   1.427
 1102SOL     OW 4204   0.981   4.695   4.093
 1102SOL    HW1 4205   0.971   4.754   4.013
 1102SOL    HW2 4206   1.049   4.625   4.075
 1103SOL     OW 4207   1.997   1.632   2.314
 1103SOL    HW1 4208   2.019   1.620   2.217
 1103SOL    HW2 4209   1.897   1.632   2.326
 1104SOL     OW 4210   2.226   4.450   6.096
 1104SOL    HW1 4211   2.142   4.398   6.085
 1104SOL    HW2 4212   2.205   4.548   6.096
 1105SOL     OW 4213   5.028   4.192   6.938
 1105SOL    HW1 4214   4.931   4.213   6.920
 1105SOL    HW2 4215   5.085   4.266   6.902
 1106SOL     OW 4216   0.621   2.275   6.447
 1106SOL    HW1 4217   0.606   2.248   6.542
 1106SOL    HW2 4218   0.535   2.306   6.406
 1107SOL     OW 4219   0.945   0.316   6.729
 1107SOL    HW1 4220   1.034   0.275   6.749
 1107SOL    HW2 4221   0.955   0.381   6.653
 1108SOL     OW 4222   2.397   0.695   5.264
 1108SOL    HW1 4223   2.387   0.704   5.363
 1108SOL    HW2 4224   2.444   0.610   5.243
 1109SOL     OW 4225   4.237   5.901   4.520
 1109SOL    HW1 4226   4.140   5.880   4.509
 1109SOL    HW2 4227   4.248   5.993   4.557
 1110SOL     OW 4228   2.665   2.621   1.435
 1110SOL    HW1 4229   2.726   2.692   1.398
 1110SOL    HW2 4230   2.694   2.531   1.400
 1111SOL     OW 4231   5.442   6.893   6.795
 1111SOL    HW1 4232   5.498   6.878   6.877
 1111SOL    HW2 4233   5.346   6.904   6.821
 1112SOL     OW 4234   5.990   0.767   2.869
 1112SOL    HW1 4235   5.907   0.815   2.897
 1112SOL    HW2 4236   6.057   0.770   2.944
 1113SOL     OW 4237   6.370   3.320   2.503
 1113SOL    HW1 4238   6.425   3.348   2.424
 1113SOL    HW2 4239   6.306   3.393   2.527
 1114SOL     OW 4240   5.373   0.804   6.501
 1114SOL    HW1 4241   5.419   0.717   6.485
 1114SOL    HW2 4242   5.399   0.869   6.430
 1115SOL     OW 4243   4.102   2.579   0.499
 1115SOL    HW1 4244   4.082   2.614   0.591
 1115SOL    HW2 4245   4.030   2.607   0.436
 1116SOL     OW 4246   5.167   5.830   4.111
 1116SOL    HW1 4247   5.237   5.896   4.139
 1116SOL    HW2 4248   5.209   5.741   4.096
 1117SOL     OW 4249   2.589   2.661   1.727
 1117SOL    HW1 4250   2.550   2.749   1.755
 1117SOL    HW2 4251   2.592   2.656   1.627
 1118SOL     OW 4252   1.937   5.082   3.065
 1118SOL    HW1 4253   1.852   5.050   3.107
 1118SOL    HW2 4254   1.993   5.003   3.037
 1119SOL     OW 4255   4.242   3.953   1.747
 1119SOL    HW1 4256   4.303   4.025   1.782
 1119SOL    HW2 4257   4.230   3.965   1.648
 1120SOL     OW 4258   5.410   0.001   6.230
 1120SOL    HW1 4259   5.395   6.995   6.326
 1120SOL    HW2 4260   5.390   6.940   6.173
 1121SOL     OW 4261   5.057   2.663   1.933
 1121SOL    HW1 4262   4.996   2.598   1.977
 1121SOL    HW2 4263   5.051   2.652   1.834
 1122SOL     OW 4264   5.917   2.933   6.672
 1122SOL    HW1 4265   5.859   2.909   6.749
 1122SOL    HW2 4266   6.013   2.934   6.700
 1123SOL     OW 4267   4.500   1.507   1.871
 1123SOL    HW1 4268   4.452   1.578   1.819
 1123SOL    HW2 4269   4.596   1.531   1.880
 1124SOL     OW 4270   6.619   3.848   4.996
 1124SOL    HW1 4271   6.681   3.902   4.940
 1124SOL    HW2 4272   6.545   3.811   4.940
 1125SOL     OW 4273   2.935   2.750   5.380
 1125SOL    HW1 4274   2.909   2.813   5.454
 1125SOL    HW2 4275   2.853   2.722   5.330
 1126SOL     OW 4276   4.508   6.985   0.315
 1126SOL    HW1 4277   4.566   6.939   0.382
 1126SOL    HW2 4278   4.511   6.935   0.228
 1127SOL     OW 4279   2.283   4.237   6.713
 1127SOL    HW1 4280   2.300   4.323   6.663
 1127SOL    HW2 4281   2.340   4.235   6.795
 1128SOL     OW 4282   4.240   2.198   3.945
 1128SOL    HW1 4283   4.310   2.258   3.907
 1128SOL    HW2 4284   4.196   2.145   3.872
 1129SOL     OW 4285   4.439   0.347   0.585
 1129SOL    HW1 4286   4.349   0.355   0.543
 1129SOL    HW2 4287   4.497   0.422   0.554
 1130SOL     OW 4288   1.271   3.833   1.427
 1130SOL    HW1 4289   1.316   3.872   1.347
 1130SOL    HW2 4290   1.334   3.834   1.505
 1131SOL     OW 4291   0.374   6.099   5.830
 1131SOL    HW1 4292   0.363   6.194   5.859
 1131SOL    HW2 4293   0.467   6.069   5.849
 1132SOL     OW 4294   5.042   6.871   5.634
 1132SOL    HW1 4295   5.107   6.894   5.561
 1132SOL    HW2 4296   5.067   6.919   5.718
 1133SOL     OW 4297   0.641   2.587   1.160
 1133SOL    HW1 4298   0.650   2.501   1.210
 1133SOL    HW2 4299   0.592   2.571   1.074
 1134SOL     OW 4300   5.558   2.627   6.664
 1134SOL    HW1 4301   5.613   2.709   6.647
 1134SOL    HW2 4302   5.474   2.653   6.713
 1135SOL     OW 4303   3.091   2.138   3.446
 1135SOL    HW1 4304   3.021   2.075   3.479
 1135SOL    HW2 4305   3.068   2.168   3.354
 1136SOL     OW 4306   2.233   5.716   3.713
 1136SOL    HW1 4307   2.306   5.747   3.774
 1136SOL    HW2 4308   2.188   5.795   3.672
 1137SOL     OW 4309   0.979   1.804   6.855
 1137SOL    HW1 4310   0.937   1.758   6.933
 1137SOL    HW2 4311   1.077   1.815   6.872
 1138SOL     OW 4312   2.438   3.650   6.225
 1138SOL    HW1 4313   2.466   3.682   6.316
 1138SOL    HW2 4314   2.519   3.640   6.167
 1139SOL     OW 4315   1.378   5.963   3.407
 1139SOL    HW1 4316   1.339   6.055   3.399
 1139SOL    HW2 4317   1.429   5.957   3.493
 1140SOL     OW 4318   3.423   1.791   3.337
 1140SOL    HW1 4319   3.499   1.856   3.334
 1140SOL    HW2 4320   3.350   1.823   3.276
 1141SOL     OW 4321   5.271   5.766   5.953
 1141SOL    HW1 4322   5.348   5.813   5.910
 1141SOL    HW2 4323   5.200   5.833   5.976
 1142SOL     OW 4324   4.919   0.514   4.384
 1142SOL    HW1 4325   4.833   0.565   4.393
 1142SOL    HW2 4326   4.960   0.501   4.474
 1143SOL     OW 4327   4.254   2.300   2.683
 1143SOL    HW1 4328   4.269   2.203   2.666
 1143SOL    HW2 4329   4.171   2.313   2.736
 1144SOL     OW 4330   0.185   4.417   4.152
 1144SOL    HW1 4331   0.261   4.459   4.202
 1144SOL    HW2 4332   0.219   4.336   4.103
 1145SOL     OW 4333   6.955   5.767   3.829
 1145SOL    HW1 4334   6.984   5.860   3.806
 1145SOL    HW2 4335   6.855   5.762   3.828
 1146SOL     OW 4336   6.057   1.961   0.495
 1146SOL    HW1 4337   6.107   1.981   0.579
 1146SOL    HW2 4338   5.983   2.028   0.484
 1147SOL     OW 4339   0.996   3.619   1.747
 1147SOL    HW1 4340   0.915   3.678   1.746
 1147SOL    HW2 4341   0.989   3.554   1.822
 1148SOL     OW 4342   3.499   5.960   6.289
 1148SOL    HW1 4343   3.585   6.006   6.311
 1148SOL    HW2 4344   3.517   5.864   6.267
 1149SOL     OW 4345   6.413   3.463   3.018
 1149SOL    HW1 4346   6.487   3.429   2.960
 1149SOL    HW2 4347   6.349   3.389   3.038
 1150SOL     OW 4348   2.624   4.767   1.029
 1150SOL    HW1 4349   2.557   4.841   1.026
 1150SOL    HW2 4350   2.685   4.780   1.108
 1151SOL     OW 4351   5.951   5.845   6.117
 1151SOL    HW1 4352   5.984   5.932   6.154
 1151SOL    HW2 4353   5.852   5.841   6.125
 1152SOL     OW 4354   1.093   0.363   5.061
 1152SOL    HW1 4355   1.094   0.365   4.961
 1152SOL    HW2 4356   1.175   0.408   5.096
 1153SOL     OW 4357   2.400   6.212   3.170
 1153SOL    HW1 4358   2.382   6.274   3.093
 1153SOL    HW2 4359   2.372   6.255   3.255
 1154SOL     OW 4360   0.676   3.981   2.241
 1154SOL    HW1 4361   0.576   3.973   2.240
 1154SOL    HW2 4362   0.717   3.890   2.247
 1155SOL     OW 4363   3.211   5.835   0.359
 1155SOL    HW1 4364   3.289   5.806   0.304
 1155SOL    HW2 4365   3.153   5.897   0.305
 1156SOL     OW 4366   2.451   0.410   3.884
 1156SOL    HW1 4367   2.403   0.362   3.810
 1156SOL    HW2 4368   2.550   0.402   3.870
 1157SOL     OW 4369   6.832   2.316   4.706
 1157SOL    HW1 4370   6.788   2.297   4.618
 1157SOL    HW2 4371   6.930   2.330   4.692
 1158SOL     OW 4372   5.533   4.459   5.668
 1158SOL    HW1 4373   5.549   4.558   5.670
 1158SOL    HW2 4374   5.581   4.420   5.589
 1159SOL     OW 4375   3.533   6.429   2.590
 1159SOL    HW1 4376   3.597   6.475   2.651
 1159SOL    HW2 4377   3.440   6.438   2.626
 1160SOL     OW 4378   3.677   3.896   2.368
 1160SOL    HW1 4379   3.756   3.902   2.429
 1160SOL    HW2 4380   3.668   3.803   2.333
 1161SOL     OW 4381   5.688   0.231   4.739
 1161SOL    HW1 4382   5.682   0.328   4.760
 1161SOL    HW2 4383   5.635   0.212   4.656
 1162SOL     OW 4384   3.207   3.326   1.168
 1162SOL    HW1 4385   3.183   3.423   1.167
 1162SOL    HW2 4386   3.125   3.271   1.152
 1163SOL     OW 4387   4.924   2.455   1.785
 1163SOL    HW1 4388   4.878   2.462   1.874
 1163SOL    HW2 4389   4.921   2.543   1.739
 1164SOL     OW 4390   5.553   3.057   3.108
 1164SOL    HW1 4391   5.553   3.014   3.018
 1164SOL    HW2 4392   5.572   2.988   3.178
 1165SOL     OW 4393   1.239   3.381   3.504
 1165SOL    HW1 4394   1.316   3.317   3.515
 1165SOL    HW2 4395   1.162   3.333   3.462
 1166SOL     OW 4396   4.451   2.057   6.439
 1166SOL    HW1 4397   4.476   1.974   6.489
 1166SOL    HW2 4398   4.514   2.069   6.362
 1167SOL     OW 4399   3.520   0.843   5.338
 1167SOL    HW1 4400   3.513   0.766   5.400
 1167SOL    HW2 4401   3.523   0.810   5.244
 1168SOL     OW 4402   6.347   6.522   3.062
 1168SOL    HW1 4403   6.308   6.579   3.134
 1168SOL    HW2 4404   6.336   6.426   3.086
 1169SOL     OW 4405   0.370   3.383   0.761
 1169SOL    HW1 4406   0.412   3.416   0.846
 1169SOL    HW2 4407   0.272   3.369   0.774
 1170SOL     OW 4408   3.744   1.218   2.901
 1170SOL    HW1 4409   3.681   1.290   2.871
 1170SOL    HW2 4410   3.737   1.140   2.839
 1171SOL     OW 4411   3.134   6.286   1.054
 1171SOL    HW1 4412   3.223   6.285   1.101
 1171SOL    HW2 4413   3.094   6.377   1.062
 1172SOL     OW 4414   4.061   3.802   4.283
 1172SOL    HW1 4415   3.974   3.851   4.285
 1172SOL    HW2 4416   4.081   3.774   4.189
 1173SOL     OW 4417   3.321   0.300   5.579
 1173SOL    HW1 4418   3.394   0.281   5.513
 1173SOL    HW2 4419   3.251   0.356   5.535
 1174SOL     OW 4420   2.470   5.867   0.864
 1174SOL    HW1 4421   2.526   5.788   0.887
 1174SOL    HW2 4422   2.518   5.951   0.892
 1175SOL     OW 4423   5.829   4.405   6.665
 1175SOL    HW1 4424   5.927   4.410   6.646
 1175SOL    HW2 4425   5.792   4.321   6.626
 1176SOL     OW 4426   5.500   5.109   1.140
 1176SOL    HW1 4427   5.550   5.180   1.190
 1176SOL    HW2 4428   5.469   5.145   1.053
 1177SOL     OW 4429   6.933   2.434   5.444
 1177SOL    HW1 4430   6.933   2.531   5.422
 1177SOL    HW2 4431   6.839   2.404   5.464
 1178SOL     OW 4432   4.809   3.920   2.450
 1178SOL    HW1 4433   4.733   3.972   2.410
 1178SOL    HW2 4434   4.831   3.843   2.391
 1179SOL     OW 4435   1.826   3.635   1.016
 1179SOL    HW1 4436   1.840   3.542   1.051
 1179SOL    HW2 4437   1.728   3.656   1.017
 1180SOL     OW 4438   2.185   1.323   3.246
 1180SOL    HW1 4439   2.280   1.295   3.233
 1180SOL    HW2 4440   2.172   1.416   3.211
 1181SOL     OW 4441   0.738   5.103   4.327
 1181SOL    HW1 4442   0.671   5.031   4.349
 1181SOL    HW2 4443   0.716   5.142   4.237
 1182SOL     OW 4444   2.278   4.158   3.628
 1182SOL    HW1 4445   2.222   4.078   3.648
 1182SOL    HW2 4446   2.221   4.240   3.632
 1183SOL     OW 4447   4.587   5.650   1.256
 1183SOL    HW1 4448   4.561   5.653   1.160
 1183SOL    HW2 4449   4.512   5.610   1.309
 1184SOL     OW 4450   3.585   2.999   5.554
 1184SOL    HW1 4451   3.676   3.034   5.533
 1184SOL    HW2 4452   3.569   2.914   5.504
 1185SOL     OW 4453   2.312   0.418   0.506
 1185SOL    HW1 4454   2.219   0.385   0.523
 1185SOL    HW2 4455   2.308   0.510   0.468
 1186SOL     OW 4456   6.009   0.055   5.291
 1186SOL    HW1 4457   5.909   0.044   5.285
 1186SOL    HW2 4458   6.043   0.097   5.207
 1187SOL     OW 4459   5.914   6.207   4.762
 1187SOL    HW1 4460   5.912   6.307   4.759
 1187SOL    HW2 4461   5.927   6.176   4.856
 1188SOL     OW 4462   2.158   6.834   6.121
 1188SOL    HW1 4463   2.210   6.919   6.121
 1188SOL    HW2 4464   2.183   6.780   6.040
 1189SOL     OW 4465   5.597   1.334   1.700
 1189SOL    HW1 4466   5.623   1.247   1.659
 1189SOL    HW2 4467   5.501   1.354   1.678
 1190SOL     OW 4468   3.949   5.263   3.525
 1190SOL    HW1 4469   3.973   5.360   3.537
 1190SOL    HW2 4470   3.851   5.255   3.507
 1191SOL     OW 4471   3.164   5.065   6.187
 1191SOL    HW1 4472   3.113   5.046   6.103
 1191SOL    HW2 4473   3.102   5.060   6.265
 1192SOL     OW 4474   6.173   4.818   3.122
 1192SOL    HW1 4475   6.229   4.854   3.197
 1192SOL    HW2 4476   6.104   4.756   3.159
 1193SOL     OW 4477   5.384   0.037   4.669
 1193SOL    HW1 4478   5.442   6.988   4.714
 1193SOL    HW2 4479   5.437   0.089   4.603
 1194SOL     OW 4480   6.315   0.494   0.960
 1194SOL    HW1 4481   6.225   0.484   1.003
 1194SOL    HW2 4482   6.304   0.524   0.866
 1195SOL     OW 4483   6.294   1.193   6.307
 1195SOL    HW1 4484   6.250   1.195   6.217
 1195SOL    HW2 4485   6.247   1.128   6.366
 1196SOL     OW 4486   0.440   4.665   2.150
 1196SOL    HW1 4487   0.431   4.582   2.205
 1196SOL    HW2 4488   0.489   4.735   2.204
 1197SOL     OW 4489   3.823   5.859   5.510
 1197SOL    HW1 4490   3.776   5.780   5.548
 1197SOL    HW2 4491   3.756   5.926   5.478
 1198SOL     OW 4492   3.395   2.106   2.832
 1198SOL    HW1 4493   3.346   2.052   2.764
 1198SOL    HW2 4494   3.331   2.160   2.886
 1199SOL     OW 4495   3.013   3.839   2.192
 1199SOL    HW1 4496   3.075   3.895   2.137
 1199SOL    HW2 4497   2.973   3.767   2.135
 1200SOL     OW 4498   4.448   3.960   5.410
 1200SOL    HW1 4499   4.442   3.941   5.508
 1200SOL    HW2 4500   4.393   4.040   5.388
 1201SOL     OW 4501   1.570   1.550   5.116
 1201SOL    HW1 4502   1.547   1.453   5.120
 1201SOL    HW2 4503   1.498   1.599   5.066
 1202SOL     OW 4504   5.505   0.362   5.872
 1202SOL    HW1 4505   5.474   0.271   5.900
 1202SOL    HW2 4506   5.426   0.422   5.861
 1203SOL     OW 4507   5.392   0.551   1.045
 1203SOL    HW1 4508   5.353   0.610   1.115
 1203SOL    HW2 4509   5.478   0.590   1.012
 1204SOL     OW 4510   3.552   1.605   0.436
 1204SOL    HW1 4511   3.601   1.523   0.407
 1204SOL    HW2 4512   3.470   1.616   0.380
 1205SOL     OW 4513   5.514   2.768   6.143
 1205SOL    HW1 4514   5.526   2.737   6.238
 1205SOL    HW2 4515   5.460   2.852   6.143
 1206SOL     OW 4516   1.909   1.654   4.679
 1206SOL    HW1 4517   1.854   1.653   4.763
 1206SOL    HW2 4518   1.873   1.723   4.616
 1207SOL     OW 4519   6.158   6.738   0.359
 1207SOL    HW1 4520   6.106   6.782   0.433
 1207SOL    HW2 4521   6.116   6.759   0.271
 1208SOL     OW 4522   3.608   3.616   3.048
 1208SOL    HW1 4523   3.684   3.558   3.019
 1208SOL    HW2 4524   3.582   3.677   2.973
 1209SOL     OW 4525   6.017   6.133   5.343
 1209SOL    HW1 4526   5.963   6.190   5.405
 1209SOL    HW2 4527   6.113   6.135   5.372
 1210SOL     OW 4528   3.635   0.287   2.672
 1210SOL    HW1 4529   3.730   0.291   2.640
 1210SOL    HW2 4530   3.605   0.192   2.675
 1211SOL     OW 4531   1.199   3.241   4.191
 1211SOL    HW1 4532   1.219   3.143   4.189
 1211SOL    HW2 4533   1.102   3.255   4.172
 1212SOL     OW 4534   1.606   3.804   5.594
 1212SOL    HW1 4535   1.661   3.798   5.511
 1212SOL    HW2 4536   1.667   3.798   5.674
 1213SOL     OW 4537   6.708   2.799   5.148
 1213SOL    HW1 4538   6.666   2.728   5.205
 1213SOL    HW2 4539   6.785   2.760   5.098
 1214SOL     OW 4540   1.880   3.625   4.751
 1214SOL    HW1 4541   1.873   3.567   4.670
 1214SOL    HW2 4542   1.902   3.719   4.724
 1215SOL     OW 4543   2.546   4.609   2.487
 1215SOL    HW1 4544   2.518   4.534   2.427
 1215SOL    HW2 4545   2.637   4.641   2.461
 1216SOL     OW 4546   1.592   6.777   1.277
 1216SOL    HW1 4547   1.579   6.850   1.345
 1216SOL    HW2 4548   1.555   6.692   1.312
 1217SOL     OW 4549   1.485   6.453   6.989
 1217SOL    HW1 4550   1.573   6.491   7.016
 1217SOL    HW2 4551   1.413   6.519   7.006
 1218SOL     OW 4552   0.986   3.637   5.038
 1218SOL    HW1 4553   0.972   3.645   4.940
 1218SOL    HW2 4554   1.063   3.576   5.056
 1219SOL     OW 4555   4.490   5.413   0.304
 1219SOL    HW1 4556   4.392   5.417   0.284
 1219SOL    HW2 4557   4.521   5.504   0.332
 1220SOL     OW 4558   5.581   3.155   2.650
 1220SOL    HW1 4559   5.647   3.227   2.673
 1220SOL    HW2 4560   5.488   3.191   2.659
 1221SOL     OW 4561   5.803   3.878   0.302
 1221SOL    HW1 4562   5.720   3.831   0.333
 1221SOL    HW2 4563   5.820   3.856   0.206
 1222SOL     OW 4564   6.806   6.412   0.579
 1222SOL    HW1 4565   6.789   6.478   0.652
 1222SOL    HW2 4566   6.824   6.461   0.494
 1223SOL     OW 4567   6.121   6.613   6.597
 1223SOL    HW1 4568   6.107   6.612   6.498
 1223SOL    HW2 4569   6.165   6.699   6.623
 1224SOL     OW 4570   4.058   6.154   0.117
 1224SOL    HW1 4571   4.132   6.220   0.131
 1224SOL    HW2 4572   4.052   6.130   0.020
 1225SOL     OW 4573   4.327   1.869   0.539
 1225SOL    HW1 4574   4.358   1.911   0.625
 1225SOL    HW2 4575   4.404   1.823   0.495
 1226SOL     OW 4576   5.729   6.234   1.448
 1226SOL    HW1 4577   5.681   6.320   1.462
 1226SOL    HW2 4578   5.742   6.217   1.351
 1227SOL     OW 4579   5.793   4.295   5.572
 1227SOL    HW1 4580   5.750   4.216   5.615
 1227SOL    HW2 4581   5.862   4.333   5.633
 1228SOL     OW 4582   3.979   3.037   2.172
 1228SOL    HW1 4583   3.962   2.991   2.085
 1228SOL    HW2 4584   3.910   3.009   2.238
 1229SOL     OW 4585   2.046   6.027   2.226
 1229SOL    HW1 4586   1.960   5.985   2.256
 1229SOL    HW2 4587   2.063   6.109   2.279
 1230SOL     OW 4588   5.476   5.191   2.419
 1230SOL    HW1 4589   5.502   5.284   2.444
 1230SOL    HW2 4590   5.470   5.184   2.319
 1231SOL     OW 4591   1.494   2.519   6.319
 1231SOL    HW1 4592   1.401   2.510   6.284
 1231SOL    HW2 4593   1.491   2.557   6.412
 1232SOL     OW 4594   3.641   0.712   5.061
 1232SOL    HW1 4595   3.542   0.722   5.070
 1232SOL    HW2 4596   3.669   0.742   4.969
 1233SOL     OW 4597   0.891   4.484   3.661
 1233SOL    HW1 4598   0.874   4.466   3.564
 1233SOL    HW2 4599   0.807   4.470   3.713
 1234SOL     OW 4600   6.776   3.502   6.747
 1234SOL    HW1 4601   6.858   3.500   6.805
 1234SOL    HW2 4602   6.727   3.587   6.762
 1235SOL     OW 4603   6.164   4.978   0.181
 1235SOL    HW1 4604   6.134   4.945   0.092
 1235SOL    HW2 4605   6.192   5.074   0.173
 1236SOL     OW 4606   3.131   1.070   0.131
 1236SOL    HW1 4607   3.095   1.015   0.207
 1236SOL    HW2 4608   3.063   1.075   0.058
 1237SOL     OW 4609   1.302   0.600   4.785
 1237SOL    HW1 4610   1.250   0.686   4.782
 1237SOL    HW2 4611   1.392   0.615   4.745
 1238SOL     OW 4612   0.376   0.188   3.209
 1238SOL    HW1 4613   0.419   0.193   3.299
 1238SOL    HW2 4614   0.443   0.160   3.141
 1239SOL     OW 4615   6.761   5.251   4.610
 1239SOL    HW1 4616   6.662   5.268   4.614
 1239SOL    HW2 4617   6.779   5.154   4.626
 1240SOL     OW 4618   5.924   5.703   3.287
 1240SOL    HW1 4619   5.944   5.800   3.300
 1240SOL    HW2 4620   5.826   5.690   3.272
 1241SOL     OW 4621   6.451   5.410   4.745
 1241SOL    HW1 4622   6.534   5.436   4.795
 1241SOL    HW2 4623   6.375   5.467   4.775
 1242SOL     OW 4624   1.329   3.258   6.937
 1242SOL    HW1 4625   1.334   3.280   0.016
 1242SOL    HW2 4626   1.418   3.224   6.906
 1243SOL     OW 4627   0.895   3.768   5.339
 1243SOL    HW1 4628   0.847   3.820   5.410
 1243SOL    HW2 4629   0.909   3.826   5.259
 1244SOL     OW 4630   5.758   6.360   5.062
 1244SOL    HW1 4631   5.828   6.291   5.077
 1244SOL    HW2 4632   5.766   6.397   4.969
 1245SOL     OW 4633   5.434   5.818   0.998
 1245SOL    HW1 4634   5.411   5.832   0.902
 1245SOL    HW2 4635   5.451   5.907   1.041
 1246SOL     OW 4636   4.897   1.333   0.574
 1246SOL    HW1 4637   4.802   1.347   0.599
 1246SOL    HW2 4638   4.956   1.377   0.642
 1247SOL     OW 4639   6.545   6.853   3.825
 1247SOL    HW1 4640   6.600   6.837   3.907
 1247SOL    HW2 4641   6.601   6.898   3.756
 1248SOL     OW 4642   0.049   0.048   4.607
 1248SOL    HW1 4643   0.029   0.040   4.509
 1248SOL    HW2 4644   0.058   6.975   4.646
 1249SOL     OW 4645   0.559   4.846   1.256
 1249SOL    HW1 4646   0.531   4.751   1.245
 1249SOL    HW2 4647   0.625   4.853   1.331
 1250SOL     OW 4648   5.636   3.975   5.227
 1250SOL    HW1 4649   5.722   3.991   5.275
 1250SOL    HW2 4650   5.649   3.987   5.128
 1251SOL     OW 4651   2.052   0.942   2.831
 1251SOL    HW1 4652   1.999   0.971   2.911
 1251SOL    HW2 4653   2.122   1.012   2.811
 1252SOL     OW 4654   2.943   5.251   6.996
 1252SOL    HW1 4655   2.853   5.257   0.020
 1252SOL    HW2 4656   2.935   5.208   6.906
 1253SOL     OW 4657   3.084   0.711   0.657
 1253SOL    HW1 4658   3.059   0.642   0.588
 1253SOL    HW2 4659   3.182   0.704   0.675
 1254SOL     OW 4660   6.357   1.832   2.502
 1254SOL    HW1 4661   6.349   1.781   2.587
 1254SOL    HW2 4662   6.440   1.888   2.503
 1255SOL     OW 4663   5.448   2.317   4.982
 1255SOL    HW1 4664   5.455   2.250   4.908
 1255SOL    HW2 4665   5.372   2.294   5.042
 1256SOL     OW 4666   0.284   6.002   4.071
 1256SOL    HW1 4667   0.349   6.054   4.016
 1256SOL    HW2 4668   0.247   6.060   4.143
 1257SOL     OW 4669   0.575   4.401   3.575
 1257SOL    HW1 4670   0.503   4.468   3.555
 1257SOL    HW2 4671   0.593   4.402   3.674
 1258SOL     OW 4672   2.468   6.246   3.826
 1258SOL    HW1 4673   2.392   6.200   3.871
 1258SOL    HW2 4674   2.554   6.203   3.854
 1259SOL     OW 4675   4.677   0.476   4.986
 1259SOL    HW1 4676   4.748   0.421   5.030
 1259SOL    HW2 4677   4.652   0.552   5.046
 1260SOL     OW 4678   2.153   0.479   2.220
 1260SOL    HW1 4679   2.214   0.403   2.198
 1260SOL    HW2 4680   2.062   0.444   2.242
 1261SOL     OW 4681   0.271   3.963   6.524
 1261SOL    HW1 4682   0.175   3.959   6.498
 1261SOL    HW2 4683   0.328   3.935   6.447
 1262SOL     OW 4684   4.775   5.163   1.083
 1262SOL    HW1 4685   4.692   5.122   1.046
 1262SOL    HW2 4686   4.855   5.117   1.042
 1263SOL     OW 4687   6.587   2.094   0.713
 1263SOL    HW1 4688   6.576   2.064   0.808
 1263SOL    HW2 4689   6.676   2.062   0.678
 1264SOL     OW 4690   0.776   4.208   3.314
 1264SOL    HW1 4691   0.854   4.165   3.358
 1264SOL    HW2 4692   0.701   4.142   3.308
 1265SOL     OW 4693   0.121   3.446   4.285
 1265SOL    HW1 4694   0.120   3.472   4.188
 1265SOL    HW2 4695   0.195   3.380   4.301
 1266SOL     OW 4696   2.991   1.483   5.520
 1266SOL    HW1 4697   3.072   1.429   5.496
 1266SOL    HW2 4698   3.013   1.546   5.594
 1267SOL     OW 4699   6.968   5.333   2.776
 1267SOL    HW1 4700   6.996   5.305   2.684
 1267SOL    HW2 4701   6.888   5.280   2.803
 1268SOL     OW 4702   5.682   2.377   6.709
 1268SOL    HW1 4703   5.627   2.458   6.729
 1268SOL    HW2 4704   5.628   2.313   6.654
 1269SOL     OW 4705   6.735   6.714   4.682
 1269SOL    HW1 4706   6.744   6.757   4.772
 1269SOL    HW2 4707   6.638   6.707   4.658
 1270SOL     OW 4708   2.160   3.960   4.398
 1270SOL    HW1 4709   2.145   3.935   4.494
 1270SOL    HW2 4710   2.228   4.033   4.393
 1271SOL     OW 4711   3.173   1.799   2.917
 1271SOL    HW1 4712   3.172   1.853   3.001
 1271SOL    HW2 4713   3.081   1.763   2.900
 1272SOL     OW 4714   0.576   5.622   0.645
 1272SOL    HW1 4715   0.562   5.613   0.744
 1272SOL    HW2 4716   0.602   5.716   0.624
 1273SOL     OW 4717   2.699   4.515   0.657
 1273SOL    HW1 4718   2.695   4.550   0.751
 1273SOL    HW2 4719   2.795   4.510   0.629
 1274SOL     OW 4720   0.157   3.002   1.732
 1274SOL    HW1 4721   0.084   2.952   1.686
 1274SOL    HW2 4722   0.124   3.093   1.759
 1275SOL     OW 4723   4.520   0.565   3.976
 1275SOL    HW1 4724   4.530   0.487   4.038
 1275SOL    HW2 4725   4.605   0.618   3.975
 1276SOL     OW 4726   6.985   0.573   2.921
 1276SOL    HW1 4727   6.961   0.480   2.951
 1276SOL    HW2 4728   6.903   0.621   2.892
 1277SOL     OW 4729   0.278   0.983   4.719
 1277SOL    HW1 4730   0.178   0.975   4.716
 1277SOL    HW2 4731   0.311   1.027   4.635
 1278SOL     OW 4732   1.707   1.805   5.371
 1278SOL    HW1 4733   1.726   1.817   5.468
 1278SOL    HW2 4734   1.750   1.721   5.339
 1279SOL     OW 4735   2.761   6.757   0.640
 1279SOL    HW1 4736   2.838   6.816   0.666
 1279SOL    HW2 4737   2.787   6.700   0.562
 1280SOL     OW 4738   1.929   0.695   2.818
 1280SOL    HW1 4739   1.954   0.666   2.725
 1280SOL    HW2 4740   1.976   0.781   2.840
 1281SOL     OW 4741   1.486   5.799   3.218
 1281SOL    HW1 4742   1.546   5.856   3.161
 1281SOL    HW2 4743   1.444   5.856   3.289
 1282SOL     OW 4744   0.297   1.297   1.003
 1282SOL    HW1 4745   0.208   1.261   1.031
 1282SOL    HW2 4746   0.366   1.272   1.070
 1283SOL     OW 4747   5.424   3.660   5.580
 1283SOL    HW1 4748   5.449   3.705   5.494
 1283SOL    HW2 4749   5.338   3.698   5.614
 1284SOL     OW 4750   3.001   2.346   1.628
 1284SOL    HW1 4751   2.985   2.419   1.694
 1284SOL    HW2 4752   3.002   2.258   1.675
 1285SOL     OW 4753   5.375   3.319   6.459
 1285SOL    HW1 4754   5.455   3.268   6.489
 1285SOL    HW2 4755   5.292   3.273   6.489
 1286SOL     OW 4756   4.743   4.648   2.180
 1286SOL    HW1 4757   4.698   4.565   2.148
 1286SOL    HW2 4758   4.675   4.720   2.191
 1287SOL     OW 4759   6.019   4.938   6.388
 1287SOL    HW1 4760   5.935   4.983   6.416
 1287SOL    HW2 4761   6.006   4.838   6.390
 1288SOL     OW 4762   0.330   3.436   0.287
 1288SOL    HW1 4763   0.347   3.518   0.233
 1288SOL    HW2 4764   0.246   3.448   0.340
 1289SOL     OW 4765   0.511   6.396   1.914
 1289SOL    HW1 4766   0.546   6.391   1.820
 1289SOL    HW2 4767   0.503   6.303   1.951
 1290SOL     OW 4768   0.281   0.294   6.680
 1290SOL    HW1 4769   0.223   0.228   6.729
 1290SOL    HW2 4770   0.301   0.259   6.589
 1291SOL     OW 4771   2.033   5.012   6.422
 1291SOL    HW1 4772   2.077   4.922   6.418
 1291SOL    HW2 4773   2.098   5.079   6.458
 1292SOL     OW 4774   0.010   4.451   1.783
 1292SOL    HW1 4775   6.934   4.464   1.812
 1292SOL    HW2 4776   0.071   4.500   1.845
 1293SOL     OW 4777   2.388   1.030   6.447
 1293SOL    HW1 4778   2.380   1.027   6.547
 1293SOL    HW2 4779   2.371   1.123   6.415
 1294SOL     OW 4780   0.050   3.274   2.009
 1294SOL    HW1 4781   0.007   3.209   2.072
 1294SOL    HW2 4782   0.146   3.284   2.032
 1295SOL     OW 4783   6.143   3.749   2.726
 1295SOL    HW1 4784   6.183   3.748   2.818
 1295SOL    HW2 4785   6.049   3.718   2.731
 1296SOL     OW 4786   3.182   1.507   6.237
 1296SOL    HW1 4787   3.271   1.465   6.220
 1296SOL    HW2 4788   3.143   1.471   6.322
 1297SOL     OW 4789   5.716   1.899   5.636
 1297SOL    HW1 4790   5.627   1.942   5.651
 1297SOL    HW2 4791   5.704   1.817   5.580
 1298SOL     OW 4792   6.317   3.322   4.012
 1298SOL    HW1 4793   6.273   3.379   3.943
 1298SOL    HW2 4794   6.283   3.228   4.004
 1299SOL     OW 4795   2.087   4.309   3.325
 1299SOL    HW1 4796   2.127   4.218   3.317
 1299SOL    HW2 4797   2.112   4.349   3.413
 1300SOL     OW 4798   3.245   3.719   1.975
 1300SOL    HW1 4799   3.213   3.632   1.938
 1300SOL    HW2 4800   3.208   3.794   1.921
 1301SOL     OW 4801   1.491   6.265   2.897
 1301SOL    HW1 4802   1.561   6.247   2.966
 1301SOL    HW2 4803   1.533   6.270   2.807
 1302SOL     OW 4804   2.251   6.795   4.553
 1302SOL    HW1 4805   2.341   6.790   4.511
 1302SOL    HW2 4806   2.195   6.864   4.506
 1303SOL     OW 4807   3.815   1.448   0.754
 1303SOL    HW1 4808   3.847   1.489   0.840
 1303SOL    HW2 4809   3.728   1.491   0.727
 1304SOL     OW 4810   1.052   0.806   6.236
 1304SOL    HW1 4811   1.072   0.719   6.280
 1304SOL    HW2 4812   0.968   0.845   6.275
 1305SOL     OW 4813   5.302   5.908   4.976
 1305SOL    HW1 4814   5.216   5.957   4.982
 1305SOL    HW2 4815   5.357   5.944   4.901
 1306SOL     OW 4816   1.436   3.634   5.127
 1306SOL    HW1 4817   1.384   3.625   5.042
 1306SOL    HW2 4818   1.431   3.549   5.178
 1307SOL     OW 4819   1.821   3.271   4.932
 1307SOL    HW1 4820   1.794   3.235   5.022
 1307SOL    HW2 4821   1.839   3.195   4.870
 1308SOL     OW 4822   4.197   5.886   4.166
 1308SOL    HW1 4823   4.293   5.860   4.180
 1308SOL    HW2 4824   4.140   5.804   4.165
 1309SOL     OW 4825   6.055   3.185   5.427
 1309SOL    HW1 4826   6.090   3.124   5.499
 1309SOL    HW2 4827   5.955   3.189   5.434
 1310SOL     OW 4828   5.671   3.474   4.500
 1310SOL    HW1 4829   5.574   3.450   4.497
 1310SOL    HW2 4830   5.726   3.391   4.509
 1311SOL     OW 4831   5.694   6.843   4.185
 1311SOL    HW1 4832   5.757   6.767   4.169
 1311SOL    HW2 4833   5.744   6.921   4.222
 1312SOL     OW 4834   0.725   0.809   6.544
 1312SOL    HW1 4835   0.659   0.734   6.539
 1312SOL    HW2 4836   0.791   0.790   6.616
 1313SOL     OW 4837   3.059   5.358   5.086
 1313SOL    HW1 4838   3.076   5.435   5.024
 1313SOL    HW2 4839   3.146   5.311   5.105
 1314SOL     OW 4840   1.769   1.522   5.932
 1314SOL    HW1 4841   1.805   1.551   5.844
 1314SOL    HW2 4842   1.833   1.549   6.005
 1315SOL     OW 4843   0.833   1.049   0.708
 1315SOL    HW1 4844   0.738   1.053   0.738
 1315SOL    HW2 4845   0.893   1.079   0.782
 1316SOL     OW 4846   2.046   6.973   3.312
 1316SOL    HW1 4847   1.992   6.897   3.276
 1316SOL    HW2 4848   2.031   6.981   3.411
 1317SOL     OW 4849   0.580   4.281   4.431
 1317SOL    HW1 4850   0.531   4.248   4.511
 1317SOL    HW2 4851   0.640   4.357   4.458
 1318SOL     OW 4852   0.503   0.849   0.556
 1318SOL    HW1 4853   0.443   0.777   0.589
 1318SOL    HW2 4854   0.450   0.917   0.505
 1319SOL     OW 4855   6.274   0.848   0.426
 1319SOL    HW1 4856   6.306   0.867   0.333
 1319SOL    HW2 4857   6.256   0.750   0.436
 1320SOL     OW 4858   5.868   4.488   0.114
 1320SOL    HW1 4859   5.824   4.562   0.164
 1320SOL    HW2 4860   5.831   4.400   0.144
 1321SOL     OW 4861   4.451   3.012   0.060
 1321SOL    HW1 4862   4.449   2.996   0.159
 1321SOL    HW2 4863   4.382   2.956   0.015
 1322SOL     OW 4864   5.880   0.980   3.261
 1322SOL    HW1 4865   5.861   1.053   3.327
 1322SOL    HW2 4866   5.940   0.912   3.304
 1323SOL     OW 4867   5.539   1.686   5.515
 1323SOL    HW1 4868   5.515   1.606   5.570
 1323SOL    HW2 4869   5.567   1.657   5.424
 1324SOL     OW 4870   1.641   2.073   1.757
 1324SOL    HW1 4871   1.693   1.989   1.773
 1324SOL    HW2 4872   1.695   2.151   1.788
 1325SOL     OW 4873   1.585   6.811   2.893
 1325SOL    HW1 4874   1.667   6.778   2.846
 1325SOL    HW2 4875   1.511   6.822   2.826
 1326SOL     OW 4876   4.858   2.436   4.668
 1326SOL    HW1 4877   4.801   2.508   4.629
 1326SOL    HW2 4878   4.936   2.419   4.609
 1327SOL     OW 4879   2.526   5.018   2.281
 1327SOL    HW1 4880   2.429   4.993   2.283
 1327SOL    HW2 4881   2.567   5.001   2.371
 1328SOL     OW 4882   1.230   2.404   6.872
 1328SOL    HW1 4883   1.202   2.311   6.846
 1328SOL    HW2 4884   1.290   2.399   6.952
 1329SOL     OW 4885   6.819   1.317   0.740
 1329SOL    HW1 4886   6.769   1.393   0.782
 1329SOL    HW2 4887   6.783   1.301   0.647
 1330SOL     OW 4888   6.466   0.136   1.002
 1330SOL    HW1 4889   6.384   0.126   1.059
 1330SOL    HW2 4890   6.537   0.183   1.054
 1331SOL     OW 4891   5.190   1.312   2.713
 1331SOL    HW1 4892   5.285   1.312   2.743
 1331SOL    HW2 4893   5.132   1.349   2.786
 1332SOL     OW 4894   4.053   1.047   0.904
 1332SOL    HW1 4895   4.083   0.952   0.895
 1332SOL    HW2 4896   3.956   1.054   0.880
 1333SOL     OW 4897   3.567   4.148   5.070
 1333SOL    HW1 4898   3.666   4.143   5.085
 1333SOL    HW2 4899   3.547   4.146   4.972
 1334SOL     OW 4900   1.445   2.972   5.148
 1334SOL    HW1 4901   1.431   2.877   5.176
 1334SOL    HW2 4902   1.461   3.029   5.229
 1335SOL     OW 4903   2.387   6.468   2.736
 1335SOL    HW1 4904   2.477   6.458   2.693
 1335SOL    HW2 4905   2.367   6.565   2.748
 1336SOL     OW 4906   1.121   1.263   6.979
 1336SOL    HW1 4907   1.103   1.268   6.881
 1336SOL    HW2 4908   1.131   1.167   7.007
 1337SOL     OW 4909   1.838   2.575   5.747
 1337SOL    HW1 4910   1.886   2.487   5.753
 1337SOL    HW2 4911   1.892   2.639   5.693
 1338SOL     OW 4912   4.476   3.911   6.466
 1338SOL    HW1 4913   4.390   3.908   6.516
 1338SOL    HW2 4914   4.486   4.001   6.423
 1339SOL     OW 4915   7.009   4.802   6.533
 1339SOL    HW1 4916   6.931   4.840   6.582
 1339SOL    HW2 4917   0.002   4.851   6.446
 1340SOL     OW 4918   0.919   1.948   0.807
 1340SOL    HW1 4919   0.835   1.997   0.828
 1340SOL    HW2 4920   0.921   1.925   0.709
 1341SOL     OW 4921   3.687   1.161   4.979
 1341SOL    HW1 4922   3.617   1.177   5.048
 1341SOL    HW2 4923   3.772   1.207   5.006
 1342SOL     OW 4924   1.335   5.941   5.856
 1342SOL    HW1 4925   1.239   5.940   5.883
 1342SOL    HW2 4926   1.393   5.930   5.936
 1343SOL     OW 4927   3.612   6.660   2.355
 1343SOL    HW1 4928   3.593   6.742   2.300
 1343SOL    HW2 4929   3.525   6.624   2.391
 1344SOL     OW 4930   6.274   1.899   3.048
 1344SOL    HW1 4931   6.363   1.933   3.017
 1344SOL    HW2 4932   6.288   1.826   3.115
 1345SOL     OW 4933   0.669   1.240   3.594
 1345SOL    HW1 4934   0.673   1.174   3.519
 1345SOL    HW2 4935   0.721   1.205   3.672
 1346SOL     OW 4936   0.923   6.498   3.297
 1346SOL    HW1 4937   1.011   6.535   3.267
 1346SOL    HW2 4938   0.901   6.417   3.242
 1347SOL     OW 4939   6.456   6.737   3.341
 1347SOL    HW1 4940   6.530   6.694   3.290
 1347SOL    HW2 4941   6.368   6.715   3.297
 1348SOL     OW 4942   6.033   4.868   4.358
 1348SOL    HW1 4943   6.126   4.873   4.392
 1348SOL    HW2 4944   6.004   4.958   4.325
 1349SOL     OW 4945   4.490   2.576   0.258
 1349SOL    HW1 4946   4.487   2.496   0.317
 1349SOL    HW2 4947   4.397   2.601   0.230
 1350SOL     OW 4948   3.318   4.716   6.614
 1350SOL    HW1 4949   3.312   4.746   6.709
 1350SOL    HW2 4950   3.402   4.663   6.601
 1351SOL     OW 4951   0.975   0.444   2.986
 1351SOL    HW1 4952   1.072   0.471   2.983
 1351SOL    HW2 4953   0.922   0.506   2.928
 1352SOL     OW 4954   6.838   0.472   3.866
 1352SOL    HW1 4955   6.779   0.550   3.843
 1352SOL    HW2 4956   6.926   0.482   3.820
 1353SOL     OW 4957   6.606   4.279   5.238
 1353SOL    HW1 4958   6.632   4.211   5.307
 1353SOL    HW2 4959   6.565   4.232   5.159
 1354SOL     OW 4960   6.459   0.969   0.953
 1354SOL    HW1 4961   6.429   0.904   0.883
 1354SOL    HW2 4962   6.434   0.935   1.043
 1355SOL     OW 4963   5.224   4.343   0.754
 1355SOL    HW1 4964   5.124   4.338   0.745
 1355SOL    HW2 4965   5.256   4.264   0.808
 1356SOL     OW 4966   3.419   3.970   2.930
 1356SOL    HW1 4967   3.320   3.977   2.924
 1356SOL    HW2 4968   3.446   3.874   2.926
 1357SOL     OW 4969   2.795   3.255   6.045
 1357SOL    HW1 4970   2.722   3.207   5.998
 1357SOL    HW2 4971   2.758   3.304   6.124
 1358SOL     OW 4972   2.376   2.809   6.440
 1358SOL    HW1 4973   2.292   2.833   6.391
 1358SOL    HW2 4974   2.447   2.786   6.374
 1359SOL     OW 4975   6.149   3.693   1.738
 1359SOL    HW1 4976   6.080   3.752   1.781
 1359SOL    HW2 4977   6.225   3.750   1.706
 1360SOL     OW 4978   3.902   3.363   2.805
 1360SOL    HW1 4979   3.955   3.278   2.812
 1360SOL    HW2 4980   3.862   3.385   2.894
 1361SOL     OW 4981   0.930   0.076   6.036
 1361SOL    HW1 4982   0.933   0.020   5.953
 1361SOL    HW2 4983   0.886   0.024   6.110
 1362SOL     OW 4984   2.983   3.513   5.450
 1362SOL    HW1 4985   2.985   3.547   5.544
 1362SOL    HW2 4986   3.055   3.445   5.438
 1363SOL     OW 4987   6.560   6.168   3.260
 1363SOL    HW1 4988   6.506   6.109   3.319
 1363SOL    HW2 4989   6.654   6.135   3.256
 1364SOL     OW 4990   6.813   3.503   0.499
 1364SOL    HW1 4991   6.858   3.586   0.530
 1364SOL    HW2 4992   6.720   3.499   0.536
 1365SOL     OW 4993   1.389   3.234   5.599
 1365SOL    HW1 4994   1.310   3.291   5.621
 1365SOL    HW2 4995   1.368   3.139   5.621
 1366SOL     OW 4996   0.094   3.224   1.033
 1366SOL    HW1 4997   0.006   3.196   1.072
 1366SOL    HW2 4998   0.078   3.289   0.958
 1367SOL     OW 4999   1.444   4.608   3.679
 1367SOL    HW1 5000   1.504   4.610   3.599
 1367SOL    HW2 5001   1.472   4.680   3.743
 1368SOL     OW 5002   6.498   6.717   4.581
 1368SOL    HW1 5003   6.479   6.742   4.486
 1368SOL    HW2 5004   6.421   6.667   4.619
 1369SOL     OW 5005   2.024   6.096   1.755
 1369SOL    HW1 5006   1.950   6.049   1.707
 1369SOL    HW2 5007   2.080   6.146   1.689
 1370SOL     OW 5008   0.197   2.225   3.585
 1370SOL    HW1 5009   0.123   2.269   3.534
 1370SOL    HW2 5010   0.268   2.292   3.605
 1371SOL     OW 5011   5.836   0.921   4.551
 1371SOL    HW1 5012   5.867   0.857   4.480
 1371SOL    HW2 5013   5.910   0.984   4.573
 1372SOL     OW 5014   6.300   2.763   0.674
 1372SOL    HW1 5015   6.374   2.761   0.741
 1372SOL    HW2 5016   6.212   2.761   0.721
 1373SOL     OW 5017   4.480   2.160   1.157
 1373SOL    HW1 5018   4.535   2.236   1.189
 1373SOL    HW2 5019   4.383   2.180   1.174
 1374SOL     OW 5020   5.354   4.163   0.909
 1374SOL    HW1 5021   5.427   4.222   0.945
 1374SOL    HW2 5022   5.374   4.068   0.931
 1375SOL     OW 5023   6.730   5.693   6.194
 1375SOL    HW1 5024   6.745   5.787   6.163
 1375SOL    HW2 5025   6.772   5.629   6.129
 1376SOL     OW 5026   2.898   4.326   6.047
 1376SOL    HW1 5027   2.799   4.317   6.033
 1376SOL    HW2 5028   2.923   4.423   6.046
 1377SOL     OW 5029   1.063   2.656   4.012
 1377SOL    HW1 5030   1.002   2.583   4.043
 1377SOL    HW2 5031   1.014   2.742   4.009
 1378SOL     OW 5032   4.134   2.254   4.794
 1378SOL    HW1 5033   4.145   2.304   4.880
 1378SOL    HW2 5034   4.221   2.210   4.770
 1379SOL     OW 5035   4.828   5.825   2.155
 1379SOL    HW1 5036   4.818   5.775   2.068
 1379SOL    HW2 5037   4.861   5.762   2.226
 1380SOL     OW 5038   6.452   6.631   2.368
 1380SOL    HW1 5039   6.400   6.658   2.287
 1380SOL    HW2 5040   6.490   6.713   2.412
 1381SOL     OW 5041   5.811   2.396   6.313
 1381SOL    HW1 5042   5.899   2.351   6.328
 1381SOL    HW2 5043   5.785   2.447   6.395
 1382SOL     OW 5044   4.527   2.937   1.235
 1382SOL    HW1 5045   4.455   3.006   1.244
 1382SOL    HW2 5046   4.603   2.959   1.297
 1383SOL     OW 5047   1.454   6.403   1.643
 1383SOL    HW1 5048   1.441   6.337   1.569
 1383SOL    HW2 5049   1.404   6.374   1.724
 1384SOL     OW 5050   4.309   0.381   0.822
 1384SOL    HW1 5051   4.368   0.329   0.884
 1384SOL    HW2 5052   4.352   0.388   0.732
 1385SOL     OW 5053   2.295   5.127   3.980
 1385SOL    HW1 5054   2.244   5.075   4.048
 1385SOL    HW2 5055   2.312   5.220   4.014
 1386SOL     OW 5056   3.083   6.498   3.846
 1386SOL    HW1 5057   3.091   6.415   3.792
 1386SOL    HW2 5058   2.987   6.525   3.854
 1387SOL     OW 5059   3.860   5.655   1.276
 1387SOL    HW1 5060   3.817   5.661   1.186
 1387SOL    HW2 5061   3.819   5.723   1.337
 1388SOL     OW 5062   5.999   6.738   1.158
 1388SOL    HW1 5063   5.958   6.797   1.228
 1388SOL    HW2 5064   6.079   6.784   1.119
 1389SOL     OW 5065   5.477   1.445   3.083
 1389SOL    HW1 5066   5.415   1.518   3.112
 1389SOL    HW2 5067   5.428   1.383   3.021
 1390SOL     OW 5068   0.466   3.589   0.070
 1390SOL    HW1 5069   0.546   3.541   0.107
 1390SOL    HW2 5070   0.462   3.576   6.989
 1391SOL     OW 5071   6.666   0.687   3.807
 1391SOL    HW1 5072   6.673   0.737   3.721
 1391SOL    HW2 5073   6.670   0.751   3.884
 1392SOL     OW 5074   5.120   5.978   6.117
 1392SOL    HW1 5075   5.107   6.057   6.056
 1392SOL    HW2 5076   5.032   5.939   6.141
 1393SOL     OW 5077   6.219   4.917   5.335
 1393SOL    HW1 5078   6.251   4.956   5.249
 1393SOL    HW2 5079   6.136   4.964   5.365
 1394SOL     OW 5080   3.206   6.187   5.033
 1394SOL    HW1 5081   3.236   6.212   5.125
 1394SOL    HW2 5082   3.199   6.087   5.026
 1395SOL     OW 5083   2.399   4.325   5.905
 1395SOL    HW1 5084   2.351   4.391   5.964
 1395SOL    HW2 5085   2.407   4.364   5.813
 1396SOL     OW 5086   2.055   0.827   4.048
 1396SOL    HW1 5087   2.016   0.910   4.008
 1396SOL    HW2 5088   2.016   0.811   4.138
 1397SOL     OW 5089   0.190   0.265   3.681
 1397SOL    HW1 5090   0.195   0.203   3.760
 1397SOL    HW2 5091   0.224   0.218   3.600
 1398SOL     OW 5092   1.999   1.040   5.848
 1398SOL    HW1 5093   1.959   1.019   5.937
 1398SOL    HW2 5094   1.927   1.070   5.785
 1399SOL     OW 5095   4.124   6.551   0.760
 1399SOL    HW1 5096   4.073   6.569   0.844
 1399SOL    HW2 5097   4.062   6.555   0.682
 1400SOL     OW 5098   6.735   1.999   2.867
 1400SOL    HW1 5099   6.778   1.938   2.802
 1400SOL    HW2 5100   6.802   2.066   2.901
 1401SOL     OW 5101   6.752   1.720   4.888
 1401SOL    HW1 5102   6.663   1.757   4.862
 1401SOL    HW2 5103   6.818   1.795   4.895
 1402SOL     OW 5104   0.747   4.224   0.654
 1402SOL    HW1 5105   0.816   4.295   0.670
 1402SOL    HW2 5106   0.667   4.242   0.711
 1403SOL     OW 5107   3.084   1.297   1.829
 1403SOL    HW1 5108   3.157   1.355   1.793
 1403SOL    HW2 5109   3.001   1.352   1.840
 1404SOL     OW 5110   5.160   6.884   0.210
 1404SOL    HW1 5111   5.183   6.878   0.308
 1404SOL    HW2 5112   5.063   6.861   0.197
 1405SOL     OW 5113   2.115   3.257   1.214
 1405SOL    HW1 5114   2.125   3.324   1.140
 1405SOL    HW2 5115   2.136   3.302   1.301
 1406SOL     OW 5116   1.391   5.293   1.460
 1406SOL    HW1 5117   1.381   5.313   1.557
 1406SOL    HW2 5118   1.305   5.255   1.425
 1407SOL     OW 5119   0.743   2.169   1.747
 1407SOL    HW1 5120   0.793   2.245   1.706
 1407SOL    HW2 5121   0.761   2.167   1.846
 1408SOL     OW 5122   5.136   1.257   5.917
 1408SOL    HW1 5123   5.123   1.356   5.907
 1408SOL    HW2 5124   5.233   1.235   5.908
 1409SOL     OW 5125   0.572   0.034   5.152
 1409SOL    HW1 5126   0.615   0.002   5.067
 1409SOL    HW2 5127   0.507   6.983   5.184
 1410SOL     OW 5128   2.284   3.634   6.818
 1410SOL    HW1 5129   2.379   3.664   6.812
 1410SOL    HW2 5130   2.233   3.666   6.738
 1411SOL     OW 5131   2.919   6.545   2.337
 1411SOL    HW1 5132   2.879   6.518   2.249
 1411SOL    HW2 5133   2.853   6.601   2.388
 1412SOL     OW 5134   0.377   2.319   0.770
 1412SOL    HW1 5135   0.311   2.390   0.746
 1412SOL    HW2 5136   0.417   2.281   0.687
 1413SOL     OW 5137   2.181   1.156   4.887
 1413SOL    HW1 5138   2.109   1.106   4.838
 1413SOL    HW2 5139   2.270   1.123   4.856
 1414SOL     OW 5140   2.284   0.600   1.146
 1414SOL    HW1 5141   2.235   0.680   1.112
 1414SOL    HW2 5142   2.359   0.629   1.205
 1415SOL     OW 5143   2.442   1.101   4.784
 1415SOL    HW1 5144   2.516   1.152   4.828
 1415SOL    HW2 5145   2.455   1.003   4.801
 1416SOL     OW 5146   4.411   4.598   4.417
 1416SOL    HW1 5147   4.473   4.522   4.437
 1416SOL    HW2 5148   4.439   4.641   4.331
 1417SOL     OW 5149   2.118   1.743   0.121
 1417SOL    HW1 5150   2.167   1.829   0.132
 1417SOL    HW2 5151   2.087   1.733   0.027
 1418SOL     OW 5152   3.003   3.685   3.419
 1418SOL    HW1 5153   2.974   3.740   3.341
 1418SOL    HW2 5154   2.987   3.588   3.400
 1419SOL     OW 5155   3.035   6.358   4.365
 1419SOL    HW1 5156   3.096   6.434   4.388
 1419SOL    HW2 5157   3.055   6.280   4.426
 1420SOL     OW 5158   2.108   6.462   1.470
 1420SOL    HW1 5159   2.058   6.427   1.391
 1420SOL    HW2 5160   2.050   6.524   1.523
 1421SOL     OW 5161   2.104   3.392   3.419
 1421SOL    HW1 5162   2.039   3.457   3.459
 1421SOL    HW2 5163   2.198   3.424   3.436
 1422SOL     OW 5164   2.163   4.136   1.476
 1422SOL    HW1 5165   2.122   4.227   1.476
 1422SOL    HW2 5166   2.227   4.129   1.400
 1423SOL     OW 5167   5.120   6.562   2.734
 1423SOL    HW1 5168   5.064   6.491   2.692
 1423SOL    HW2 5169   5.086   6.652   2.708
 1424SOL     OW 5170   6.599   4.264   4.551
 1424SOL    HW1 5171   6.656   4.325   4.496
 1424SOL    HW2 5172   6.539   4.318   4.610
 1425SOL     OW 5173   1.370   6.247   4.523
 1425SOL    HW1 5174   1.354   6.157   4.563
 1425SOL    HW2 5175   1.426   6.238   4.441
 1426SOL     OW 5176   1.314   2.191   5.722
 1426SOL    HW1 5177   1.353   2.240   5.645
 1426SOL    HW2 5178   1.238   2.134   5.691
 1427SOL     OW 5179   0.034   6.971   3.314
 1427SOL    HW1 5180   6.975   6.998   3.256
 1427SOL    HW2 5181   0.005   6.968   3.409
 1428SOL     OW 5182   5.397   2.620   0.735
 1428SOL    HW1 5183   5.327   2.690   0.724
 1428SOL    HW2 5184   5.380   2.568   0.819
 1429SOL     OW 5185   5.694   1.996   0.532
 1429SOL    HW1 5186   5.609   1.966   0.575
 1429SOL    HW2 5187   5.731   2.074   0.583
 1430SOL     OW 5188   1.561   4.654   4.405
 1430SOL    HW1 5189   1.477   4.666   4.459
 1430SOL    HW2 5190   1.541   4.598   4.325
 1431SOL     OW 5191   2.036   1.845   1.108
 1431SOL    HW1 5192   1.943   1.815   1.125
 1431SOL    HW2 5193   2.035   1.935   1.065
 1432SOL     OW 5194   3.469   1.320   3.074
 1432SOL    HW1 5195   3.464   1.418   3.096
 1432SOL    HW2 5196   3.430   1.304   2.984
 1433SOL     OW 5197   4.289   1.490   3.945
 1433SOL    HW1 5198   4.278   1.556   4.019
 1433SOL    HW2 5199   4.384   1.461   3.938
 1434SOL     OW 5200   6.625   0.816   5.476
 1434SOL    HW1 5201   6.569   0.773   5.405
 1434SOL    HW2 5202   6.705   0.859   5.434
 1435SOL     OW 5203   5.701   0.889   2.285
 1435SOL    HW1 5204   5.613   0.934   2.272
 1435SOL    HW2 5205   5.759   0.944   2.346
 1436SOL     OW 5206   5.812   3.840   0.741
 1436SOL    HW1 5207   5.868   3.858   0.660
 1436SOL    HW2 5208   5.759   3.756   0.727
 1437SOL     OW 5209   2.487   2.477   3.587
 1437SOL    HW1 5210   2.531   2.418   3.655
 1437SOL    HW2 5211   2.441   2.553   3.633
 1438SOL     OW 5212   3.070   6.993   1.211
 1438SOL    HW1 5213   3.136   7.017   1.140
 1438SOL    HW2 5214   3.093   0.023   1.295
 1439SOL     OW 5215   0.075   5.315   1.045
 1439SOL    HW1 5216   0.140   5.359   1.107
 1439SOL    HW2 5217   0.084   5.353   0.954
 1440SOL     OW 5218   3.025   3.919   0.469
 1440SOL    HW1 5219   3.104   3.866   0.441
 1440SOL    HW2 5220   2.986   3.880   0.553
 1441SOL     OW 5221   5.857   0.476   2.763
 1441SOL    HW1 5222   5.956   0.478   2.771
 1441SOL    HW2 5223   5.824   0.384   2.785
 1442SOL     OW 5224   6.828   5.492   6.942
 1442SOL    HW1 5225   6.819   5.502   6.843
 1442SOL    HW2 5226   6.886   5.565   6.978
 1443SOL     OW 5227   0.749   2.444   2.327
 1443SOL    HW1 5228   0.759   2.428   2.425
 1443SOL    HW2 5229   0.839   2.444   2.283
 1444SOL     OW 5230   5.297   6.918   0.715
 1444SOL    HW1 5231   5.334   6.938   0.625
 1444SOL    HW2 5232   5.366   6.937   0.785
 1445SOL     OW 5233   0.934   3.106   2.425
 1445SOL    HW1 5234   0.878   3.121   2.507
 1445SOL    HW2 5235   0.943   3.192   2.375
 1446SOL     OW 5236   6.222   0.719   6.470
 1446SOL    HW1 5237   6.128   0.689   6.454
 1446SOL    HW2 5238   6.224   0.819   6.481
 1447SOL     OW 5239   6.061   5.737   4.073
 1447SOL    HW1 5240   6.141   5.738   4.133
 1447SOL    HW2 5241   6.064   5.655   4.015
 1448SOL     OW 5242   6.626   2.930   4.870
 1448SOL    HW1 5243   6.603   2.998   4.801
 1448SOL    HW2 5244   6.708   2.880   4.841
 1449SOL     OW 5245   1.437   3.995   5.528
 1449SOL    HW1 5246   1.349   3.993   5.575
 1449SOL    HW2 5247   1.482   3.906   5.538
 1450SOL     OW 5248   1.200   2.065   0.100
 1450SOL    HW1 5249   1.265   2.057   0.025
 1450SOL    HW2 5250   1.194   1.977   0.148
 1451SOL     OW 5251   1.605   6.309   2.643
 1451SOL    HW1 5252   1.688   6.271   2.603
 1451SOL    HW2 5253   1.615   6.408   2.654
 1452SOL     OW 5254   4.440   2.639   5.286
 1452SOL    HW1 5255   4.356   2.610   5.239
 1452SOL    HW2 5256   4.485   2.558   5.325
 1453SOL     OW 5257   0.255   4.461   5.598
 1453SOL    HW1 5258   0.184   4.453   5.529
 1453SOL    HW2 5259   0.313   4.380   5.596
 1454SOL     OW 5260   1.755   1.916   2.695
 1454SOL    HW1 5261   1.811   1.998   2.689
 1454SOL    HW2 5262   1.815   1.835   2.697
 1455SOL     OW 5263   1.582   6.630   2.309
 1455SOL    HW1 5264   1.607   6.635   2.405
 1455SOL    HW2 5265   1.639   6.562   2.263
 1456SOL     OW 5266   6.240   6.801   5.905
 1456SOL    HW1 5267   6.244   6.828   5.809
 1456SOL    HW2 5268   6.171   6.856   5.952
 1457SOL     OW 5269   1.682   4.828   0.051
 1457SOL    HW1 5270   1.621   4.761   0.009
 1457SOL    HW2 5271   1.712   4.794   0.140
 1458SOL     OW 5272   5.525   4.792   5.373
 1458SOL    HW1 5273   5.594   4.720   5.387
 1458SOL    HW2 5274   5.567   4.882   5.385
 1459SOL     OW 5275   4.146   6.964   5.796
 1459SOL    HW1 5276   4.112   6.870   5.789
 1459SOL    HW2 5277   4.233   6.965   5.844
 1460SOL     OW 5278   1.627   6.567   5.001
 1460SOL    HW1 5279   1.536   6.540   5.034
 1460SOL    HW2 5280   1.668   6.631   5.067
 1461SOL     OW 5281   0.306   4.196   3.231
 1461SOL    HW1 5282   0.315   4.165   3.325
 1461SOL    HW2 5283   0.394   4.231   3.198
 1462SOL     OW 5284   1.331   0.837   6.520
 1462SOL    HW1 5285   1.247   0.787   6.499
 1462SOL    HW2 5286   1.388   0.843   6.438
 1463SOL     OW 5287   0.928   4.676   5.613
 1463SOL    HW1 5288   1.012   4.712   5.571
 1463SOL    HW2 5289   0.932   4.576   5.614
 1464SOL     OW 5290   6.968   4.923   2.435
 1464SOL    HW1 5291   6.974   4.961   2.527
 1464SOL    HW2 5292   0.004   4.979   2.372
 1465SOL     OW 5293   1.593   1.613   3.587
 1465SOL    HW1 5294   1.551   1.699   3.616
 1465SOL    HW2 5295   1.544   1.537   3.630
 1466SOL     OW 5296   3.634   1.380   1.908
 1466SOL    HW1 5297   3.595   1.372   2.000
 1466SOL    HW2 5298   3.613   1.470   1.870
 1467SOL     OW 5299   1.980   1.312   4.164
 1467SOL    HW1 5300   1.976   1.365   4.248
 1467SOL    HW2 5301   1.954   1.369   4.087
 1468SOL     OW 5302   2.090   5.708   2.087
 1468SOL    HW1 5303   2.009   5.655   2.061
 1468SOL    HW2 5304   2.080   5.802   2.055
 1469SOL     OW 5305   6.725   6.544   2.693
 1469SOL    HW1 5306   6.817   6.550   2.732
 1469SOL    HW2 5307   6.719   6.603   2.613
 1470SOL     OW 5308   7.008   2.068   2.017
 1470SOL    HW1 5309   0.001   2.164   2.045
 1470SOL    HW2 5310   6.929   2.060   1.957
 1471SOL     OW 5311   1.035   0.341   0.459
 1471SOL    HW1 5312   1.075   0.429   0.483
 1471SOL    HW2 5313   0.978   0.308   0.534
 1472SOL     OW 5314   3.101   5.556   0.153
 1472SOL    HW1 5315   3.138   5.477   0.202
 1472SOL    HW2 5316   3.045   5.525   0.077
 1473SOL     OW 5317   2.944   5.727   5.114
 1473SOL    HW1 5318   2.969   5.683   5.201
 1473SOL    HW2 5319   2.877   5.799   5.131
 1474SOL     OW 5320   4.204   4.523   1.345
 1474SOL    HW1 5321   4.156   4.533   1.432
 1474SOL    HW2 5322   4.241   4.431   1.337
 1475SOL     OW 5323   5.359   1.112   0.133
 1475SOL    HW1 5324   5.327   1.172   0.060
 1475SOL    HW2 5325   5.430   1.160   0.186
 1476SOL     OW 5326   2.421   1.010   1.280
 1476SOL    HW1 5327   2.444   0.914   1.295
 1476SOL    HW2 5328   2.329   1.028   1.316
 1477SOL     OW 5329   3.447   6.639   0.078
 1477SOL    HW1 5330   3.443   6.738   0.065
 1477SOL    HW2 5331   3.357   6.599   0.057
 1478SOL     OW 5332   5.454   6.438   5.444
 1478SOL    HW1 5333   5.475   6.387   5.360
 1478SOL    HW2 5334   5.524   6.508   5.458
 1479SOL     OW 5335   3.320   3.227   1.613
 1479SOL    HW1 5336   3.344   3.135   1.645
 1479SOL    HW2 5337   3.392   3.291   1.640
 1480SOL     OW 5338   2.571   0.030   5.364
 1480SOL    HW1 5339   2.500   0.003   5.299
 1480SOL    HW2 5340   2.660   0.030   5.319
 1481SOL     OW 5341   5.816   3.538   5.461
 1481SOL    HW1 5342   5.725   3.533   5.419
 1481SOL    HW2 5343   5.871   3.606   5.412
 1482SOL     OW 5344   4.517   0.558   1.095
 1482SOL    HW1 5345   4.445   0.513   1.042
 1482SOL    HW2 5346   4.599   0.500   1.096
 1483SOL     OW 5347   5.852   2.621   5.207
 1483SOL    HW1 5348   5.903   2.596   5.125
 1483SOL    HW2 5349   5.767   2.569   5.211
 1484SOL     OW 5350   5.019   5.137   3.826
 1484SOL    HW1 5351   5.019   5.165   3.730
 1484SOL    HW2 5352   5.105   5.090   3.847
 1485SOL     OW 5353   5.154   0.568   4.008
 1485SOL    HW1 5354   5.238   0.563   3.954
 1485SOL    HW2 5355   5.178   0.578   4.105
 1486SOL     OW 5356   4.961   0.549   3.275
 1486SOL    HW1 5357   5.036   0.583   3.332
 1486SOL    HW2 5358   4.947   0.452   3.292
 1487SOL     OW 5359   6.958   1.599   0.026
 1487SOL    HW1 5360   6.905   1.656   0.088
 1487SOL    HW2 5361   0.006   1.655   6.995
 1488SOL     OW 5362   4.701   0.502   3.441
 1488SOL    HW1 5363   4.794   0.499   3.403
 1488SOL    HW2 5364   4.646   0.568   3.390
 1489SOL     OW 5365   4.195   4.621   5.828
 1489SOL    HW1 5366   4.199   4.707   5.777
 1489SOL    HW2 5367   4.101   4.586   5.828
 1490SOL     OW 5368   0.336   3.764   0.542
 1490SOL    HW1 5369   0.370   3.733   0.631
 1490SOL    HW2 5370   0.273   3.697   0.504
 1491SOL     OW 5371   6.684   3.658   2.615
 1491SOL    HW1 5372   6.616   3.670   2.543
 1491SOL    HW2 5373   6.773   3.692   2.583
 1492SOL     OW 5374   6.126   0.244   2.440
 1492SOL    HW1 5375   6.145   0.156   2.396
 1492SOL    HW2 5376   6.027   0.254   2.452
 1493SOL     OW 5377   3.677   0.638   6.371
 1493SOL    HW1 5378   3.718   0.721   6.408
 1493SOL    HW2 5379   3.731   0.605   6.294
 1494SOL     OW 5380   5.780   2.874   6.900
 1494SOL    HW1 5381   5.779   2.778   6.929
 1494SOL    HW2 5382   5.784   2.933   6.980
 1495SOL     OW 5383   6.666   4.595   4.659
 1495SOL    HW1 5384   6.708   4.583   4.569
 1495SOL    HW2 5385   6.614   4.680   4.661
 1496SOL     OW 5386   0.937   0.830   0.091
 1496SOL    HW1 5387   0.872   0.773   0.040
 1496SOL    HW2 5388   0.993   0.772   0.150
 1497SOL     OW 5389   5.075   2.856   2.174
 1497SOL    HW1 5390   5.076   2.781   2.108
 1497SOL    HW2 5391   4.981   2.874   2.202
 1498SOL     OW 5392   2.972   4.279   0.999
 1498SOL    HW1 5393   3.031   4.349   0.958
 1498SOL    HW2 5394   2.894   4.262   0.940
 1499SOL     OW 5395   0.365   3.417   6.313
 1499SOL    HW1 5396   0.380   3.330   6.265
 1499SOL    HW2 5397   0.268   3.441   6.309
 1500SOL     OW 5398   0.930   6.436   6.437
 1500SOL    HW1 5399   0.836   6.443   6.470
 1500SOL    HW2 5400   0.932   6.452   6.339
 1501SOL     OW 5401   6.161   2.027   6.229
 1501SOL    HW1 5402   6.240   1.997   6.176
 1501SOL    HW2 5403   6.179   2.117   6.269
 1502SOL     OW 5404   5.403   1.164   6.597
 1502SOL    HW1 5405   5.415   1.090   6.531
 1502SOL    HW2 5406   5.343   1.134   6.671
 1503SOL     OW 5407   0.802   3.164   2.773
 1503SOL    HW1 5408   0.889   3.199   2.808
 1503SOL    HW2 5409   0.731   3.178   2.842
 1504SOL     OW 5410   0.708   0.343   3.169
 1504SOL    HW1 5411   0.652   0.271   3.126
 1504SOL    HW2 5412   0.795   0.351   3.120
 1505SOL     OW 5413   5.039   0.166   5.630
 1505SOL    HW1 5414   5.100   0.242   5.609
 1505SOL    HW2 5415   5.080   0.108   5.700
 1506SOL     OW 5416   1.198   0.058   0.007
 1506SOL    HW1 5417   1.164   6.989   6.992
 1506SOL    HW2 5418   1.295   0.068   7.003
 1507SOL     OW 5419   6.983   1.849   5.189
 1507SOL    HW1 5420   6.968   1.863   5.091
 1507SOL    HW2 5421   6.895   1.852   5.237
 1508SOL     OW 5422   6.657   1.715   1.347
 1508SOL    HW1 5423   6.557   1.712   1.350
 1508SOL    HW2 5424   6.694   1.678   1.432
 1509SOL     OW 5425   4.726   1.991   4.662
 1509SOL    HW1 5426   4.731   2.065   4.729
 1509SOL    HW2 5427   4.659   2.014   4.592
 1510SOL     OW 5428   5.417   6.654   4.648
 1510SOL    HW1 5429   5.487   6.686   4.584
 1510SOL    HW2 5430   5.456   6.582   4.706
 1511SOL     OW 5431   3.654   3.214   4.102
 1511SOL    HW1 5432   3.567   3.170   4.079
 1511SOL    HW2 5433   3.644   3.314   4.094
 1512SOL     OW 5434   6.295   5.490   1.871
 1512SOL    HW1 5435   6.233   5.431   1.819
 1512SOL    HW2 5436   6.288   5.583   1.837
 1513SOL     OW 5437   3.350   0.228   4.829
 1513SOL    HW1 5438   3.311   0.136   4.831
 1513SOL    HW2 5439   3.288   0.291   4.875
 1514SOL     OW 5440   3.910   2.624   5.548
 1514SOL    HW1 5441   4.003   2.641   5.513
 1514SOL    HW2 5442   3.870   2.710   5.580
 1515SOL     OW 5443   6.203   1.259   2.594
 1515SOL    HW1 5444   6.285   1.278   2.540
 1515SOL    HW2 5445   6.155   1.180   2.556
 1516SOL     OW 5446   5.281   5.249   5.221
 1516SOL    HW1 5447   5.332   5.242   5.135
 1516SOL    HW2 5448   5.237   5.162   5.241
 1517SOL     OW 5449   4.224   6.069   3.163
 1517SOL    HW1 5450   4.156   6.092   3.093
 1517SOL    HW2 5451   4.181   6.012   3.233
 1518SOL     OW 5452   6.473   3.281   0.781
 1518SOL    HW1 5453   6.560   3.261   0.826
 1518SOL    HW2 5454   6.440   3.370   0.810
 1519SOL     OW 5455   6.565   4.673   1.143
 1519SOL    HW1 5456   6.605   4.703   1.230
 1519SOL    HW2 5457   6.632   4.618   1.093
 1520SOL     OW 5458   0.772   4.719   1.429
 1520SOL    HW1 5459   0.853   4.663   1.411
 1520SOL    HW2 5460   0.787   4.771   1.514
 1521SOL     OW 5461   1.824   4.914   6.848
 1521SOL    HW1 5462   1.914   4.957   6.849
 1521SOL    HW2 5463   1.785   4.915   6.940
 1522SOL     OW 5464   5.964   5.600   4.786
 1522SOL    HW1 5465   5.929   5.514   4.748
 1522SOL    HW2 5466   5.893   5.643   4.841
 1523SOL     OW 5467   3.647   6.842   6.464
 1523SOL    HW1 5468   3.598   6.915   6.417
 1523SOL    HW2 5469   3.593   6.810   6.542
 1524SOL     OW 5470   2.776   2.023   2.583
 1524SOL    HW1 5471   2.709   2.007   2.654
 1524SOL    HW2 5472   2.757   2.111   2.538
 1525SOL     OW 5473   5.542   2.935   0.776
 1525SOL    HW1 5474   5.495   2.860   0.824
 1525SOL    HW2 5475   5.475   2.988   0.724
 1526SOL     OW 5476   6.919   0.602   6.641
 1526SOL    HW1 5477   6.984   0.647   6.581
 1526SOL    HW2 5478   6.886   0.518   6.598
 1527SOL     OW 5479   3.462   0.844   4.552
 1527SOL    HW1 5480   3.513   0.758   4.553
 1527SOL    HW2 5481   3.489   0.898   4.472
 1528SOL     OW 5482   4.110   4.730   1.899
 1528SOL    HW1 5483   4.171   4.653   1.921
 1528SOL    HW2 5484   4.097   4.735   1.800
 1529SOL     OW 5485   4.866   1.186   6.956
 1529SOL    HW1 5486   4.800   1.120   6.992
 1529SOL    HW2 5487   4.887   1.253   0.008
 1530SOL     OW 5488   3.065   1.309   0.960
 1530SOL    HW1 5489   3.045   1.243   1.032
 1530SOL    HW2 5490   3.129   1.378   0.995
 1531SOL     OW 5491   4.486   0.923   4.966
 1531SOL    HW1 5492   4.556   0.914   5.037
 1531SOL    HW2 5493   4.527   0.904   4.877
 1532SOL     OW 5494   3.499   4.313   5.752
 1532SOL    HW1 5495   3.411   4.277   5.722
 1532SOL    HW2 5496   3.563   4.238   5.766
 1533SOL     OW 5497   5.529   5.359   0.343
 1533SOL    HW1 5498   5.471   5.359   0.261
 1533SOL    HW2 5499   5.620   5.326   0.319
 1534SOL     OW 5500   3.199   5.469   6.056
 1534SOL    HW1 5501   3.173   5.402   5.988
 1534SOL    HW2 5502   3.297   5.488   6.048
 1535SOL     OW 5503   5.474   5.754   4.595
 1535SOL    HW1 5504   5.429   5.677   4.641
 1535SOL    HW2 5505   5.566   5.726   4.567
 1536SOL     OW 5506   4.051   4.801   6.429
 1536SOL    HW1 5507   4.047   4.746   6.346
 1536SOL    HW2 5508   4.142   4.841   6.439
 1537SOL     OW 5509   4.313   5.818   3.740
 1537SOL    HW1 5510   4.347   5.736   3.785
 1537SOL    HW2 5511   4.389   5.878   3.717
 1538SOL     OW 5512   3.676   0.111   6.609
 1538SOL    HW1 5513   3.586   0.105   6.653
 1538SOL    HW2 5514   3.746   0.127   6.679
 1539SOL     OW 5515   5.036   3.140   2.370
 1539SOL    HW1 5516   4.966   3.097   2.427
 1539SOL    HW2 5517   5.001   3.150   2.277
 1540SOL     OW 5518   0.433   6.545   5.253
 1540SOL    HW1 5519   0.405   6.565   5.347
 1540SOL    HW2 5520   0.522   6.499   5.253
 1541SOL     OW 5521   3.370   3.717   4.223
 1541SOL    HW1 5522   3.409   3.773   4.297
 1541SOL    HW2 5523   3.285   3.676   4.253
 1542SOL     OW 5524   6.785   0.477   1.979
 1542SOL    HW1 5525   6.781   0.385   1.940
 1542SOL    HW2 5526   6.872   0.520   1.953
 1543SOL     OW 5527   3.946   5.316   5.370
 1543SOL    HW1 5528   3.919   5.359   5.456
 1543SOL    HW2 5529   3.869   5.317   5.307
 1544SOL     OW 5530   3.626   4.138   3.519
 1544SOL    HW1 5531   3.706   4.178   3.563
 1544SOL    HW2 5532   3.653   4.090   3.436
 1545SOL     OW 5533   4.691   0.901   2.774
 1545SOL    HW1 5534   4.634   0.947   2.706
 1545SOL    HW2 5535   4.669   0.803   2.776
 1546SOL     OW 5536   5.481   6.593   6.001
 1546SOL    HW1 5537   5.558   6.537   5.970
 1546SOL    HW2 5538   5.517   6.676   6.045
 1547SOL     OW 5539   1.477   3.436   1.419
 1547SOL    HW1 5540   1.552   3.461   1.357
 1547SOL    HW2 5541   1.513   3.387   1.498
 1548SOL     OW 5542   5.185   3.794   0.232
 1548SOL    HW1 5543   5.239   3.831   0.156
 1548SOL    HW2 5544   5.205   3.697   0.243
 1549SOL     OW 5545   3.870   1.034   2.078
 1549SOL    HW1 5546   3.855   0.936   2.068
 1549SOL    HW2 5547   3.876   1.076   1.987
 1550SOL     OW 5548   3.582   3.580   1.508
 1550SOL    HW1 5549   3.622   3.549   1.594
 1550SOL    HW2 5550   3.575   3.679   1.507
 1551SOL     OW 5551   1.841   4.688   6.676
 1551SOL    HW1 5552   1.830   4.714   6.580
 1551SOL    HW2 5553   1.840   4.771   6.732
 1552SOL     OW 5554   1.792   5.634   0.752
 1552SOL    HW1 5555   1.781   5.697   0.675
 1552SOL    HW2 5556   1.830   5.548   0.718
 1553SOL     OW 5557   6.826   1.713   6.378
 1553SOL    HW1 5558   6.734   1.702   6.415
 1553SOL    HW2 5559   6.861   1.803   6.403
 1554SOL     OW 5560   3.361   2.081   3.553
 1554SOL    HW1 5561   3.450   2.107   3.518
 1554SOL    HW2 5562   3.289   2.130   3.503
 1555SOL     OW 5563   5.667   3.313   6.751
 1555SOL    HW1 5564   5.651   3.263   6.666
 1555SOL    HW2 5565   5.618   3.268   6.826
 1556SOL     OW 5566   1.552   1.625   6.386
 1556SOL    HW1 5567   1.488   1.661   6.455
 1556SOL    HW2 5568   1.603   1.701   6.346
 1557SOL     OW 5569   2.170   3.546   5.659
 1557SOL    HW1 5570   2.162   3.462   5.714
 1557SOL    HW2 5571   2.266   3.565   5.642
 1558SOL     OW 5572   5.954   0.787   4.769
 1558SOL    HW1 5573   5.889   0.712   4.758
 1558SOL    HW2 5574   5.958   0.841   4.685
 1559SOL     OW 5575   1.965   3.052   6.640
 1559SOL    HW1 5576   1.947   3.137   6.690
 1559SOL    HW2 5577   1.885   2.992   6.647
 1560SOL     OW 5578   6.688   0.259   5.730
 1560SOL    HW1 5579   6.697   0.206   5.815
 1560SOL    HW2 5580   6.735   0.211   5.656
 1561SOL     OW 5581   4.853   6.203   3.344
 1561SOL    HW1 5582   4.828   6.284   3.291
 1561SOL    HW2 5583   4.947   6.213   3.378
 1562SOL     OW 5584   4.912   6.440   2.573
 1562SOL    HW1 5585   4.842   6.425   2.504
 1562SOL    HW2 5586   4.947   6.352   2.605
 1563SOL     OW 5587   2.987   0.720   5.290
 1563SOL    HW1 5588   2.945   0.649   5.233
 1563SOL    HW2 5589   2.943   0.721   5.380
 1564SOL     OW 5590   1.615   0.903   3.203
 1564SOL    HW1 5591   1.571   0.873   3.118
 1564SOL    HW2 5592   1.606   1.002   3.212
 1565SOL     OW 5593   4.540   4.449   3.225
 1565SOL    HW1 5594   4.485   4.524   3.188
 1565SOL    HW2 5595   4.602   4.415   3.155
 1566SOL     OW 5596   5.704   4.182   2.925
 1566SOL    HW1 5597   5.612   4.194   2.964
 1566SOL    HW2 5598   5.699   4.125   2.843
 1567SOL     OW 5599   6.630   6.230   0.718
 1567SOL    HW1 5600   6.646   6.133   0.700
 1567SOL    HW2 5601   6.688   6.284   0.657
 1568SOL     OW 5602   1.150   0.053   0.278
 1568SOL    HW1 5603   1.058   0.090   0.296
 1568SOL    HW2 5604   1.172   0.066   0.182
 1569SOL     OW 5605   4.552   6.217   3.338
 1569SOL    HW1 5606   4.600   6.173   3.262
 1569SOL    HW2 5607   4.610   6.287   3.378
 1570SOL     OW 5608   1.736   6.989   0.973
 1570SOL    HW1 5609   1.748   6.911   1.035
 1570SOL    HW2 5610   1.789   6.973   0.889
 1571SOL     OW 5611   5.641   3.151   0.885
 1571SOL    HW1 5612   5.604   3.065   0.851
 1571SOL    HW2 5613   5.581   3.226   0.858
 1572SOL     OW 5614   0.465   0.117   2.004
 1572SOL    HW1 5615   0.411   0.130   1.921
 1572SOL    HW2 5616   0.464   0.020   2.029
 1573SOL     OW 5617   4.942   1.594   1.948
 1573SOL    HW1 5618   4.850   1.605   1.910
 1573SOL    HW2 5619   4.941   1.619   2.045
 1574SOL     OW 5620   6.558   1.361   1.706
 1574SOL    HW1 5621   6.498   1.314   1.770
 1574SOL    HW2 5622   6.645   1.383   1.750
 1575SOL     OW 5623   2.601   1.459   0.350
 1575SOL    HW1 5624   2.674   1.395   0.374
 1575SOL    HW2 5625   2.512   1.413   0.359
 1576SOL     OW 5626   6.311   6.342   4.488
 1576SOL    HW1 5627   6.383   6.340   4.418
 1576SOL    HW2 5628   6.222   6.340   4.444
 1577SOL     OW 5629   2.891   1.808   4.132
 1577SOL    HW1 5630   2.868   1.905   4.140
 1577SOL    HW2 5631   2.901   1.784   4.036
 1578SOL     OW 5632   6.531   3.277   5.646
 1578SOL    HW1 5633   6.550   3.371   5.675
 1578SOL    HW2 5634   6.481   3.279   5.560
 1579SOL     OW 5635   7.012   1.521   3.518
 1579SOL    HW1 5636   0.081   1.569   3.522
 1579SOL    HW2 5637   6.951   1.555   3.590
 1580SOL     OW 5638   2.823   3.892   5.206
 1580SOL    HW1 5639   2.873   3.972   5.173
 1580SOL    HW2 5640   2.733   3.920   5.238
 1581SOL     OW 5641   6.990   4.629   4.475
 1581SOL    HW1 5642   6.908   4.686   4.484
 1581SOL    HW2 5643   0.010   4.641   4.383
 1582SOL     OW 5644   1.450   6.524   4.507
 1582SOL    HW1 5645   1.466   6.537   4.409
 1582SOL    HW2 5646   1.416   6.431   4.523
 1583SOL     OW 5647   1.226   2.801   4.331
 1583SOL    HW1 5648   1.313   2.795   4.379
 1583SOL    HW2 5649   1.178   2.713   4.338
 1584SOL     OW 5650   1.898   6.585   4.688
 1584SOL    HW1 5651   1.871   6.490   4.702
 1584SOL    HW2 5652   1.832   6.645   4.732
 1585SOL     OW 5653   5.837   1.708   3.436
 1585SOL    HW1 5654   5.776   1.719   3.359
 1585SOL    HW2 5655   5.925   1.673   3.405
 1586SOL     OW 5656   3.774   4.028   2.066
 1586SOL    HW1 5657   3.775   4.074   1.978
 1586SOL    HW2 5658   3.826   3.942   2.060
 1587SOL     OW 5659   2.942   5.030   6.750
 1587SOL    HW1 5660   3.036   5.047   6.721
 1587SOL    HW2 5661   2.940   4.953   6.814
 1588SOL     OW 5662   4.420   1.589   3.551
 1588SOL    HW1 5663   4.388   1.494   3.561
 1588SOL    HW2 5664   4.474   1.614   3.632
 1589SOL     OW 5665   5.503   4.192   3.561
 1589SOL    HW1 5666   5.506   4.224   3.466
 1589SOL    HW2 5667   5.478   4.268   3.621
 1590SOL     OW 5668   1.686   0.005   5.986
 1590SOL    HW1 5669   1.711   0.004   6.083
 1590SOL    HW2 5670   1.619   6.951   5.969
 1591SOL     OW 5671   1.687   5.032   3.180
 1591SOL    HW1 5672   1.694   5.130   3.160
 1591SOL    HW2 5673   1.633   5.018   3.263
 1592SOL     OW 5674   2.483   4.135   1.732
 1592SOL    HW1 5675   2.538   4.162   1.652
 1592SOL    HW2 5676   2.483   4.209   1.799
 1593SOL     OW 5677   0.858   6.671   3.543
 1593SOL    HW1 5678   0.786   6.601   3.537
 1593SOL    HW2 5679   0.817   6.762   3.534
 1594SOL     OW 5680   0.555   4.770   3.108
 1594SOL    HW1 5681   0.637   4.793   3.055
 1594SOL    HW2 5682   0.485   4.840   3.093
 1595SOL     OW 5683   0.442   4.790   6.157
 1595SOL    HW1 5684   0.464   4.850   6.234
 1595SOL    HW2 5685   0.485   4.701   6.170
 1596SOL     OW 5686   1.370   3.622   5.601
 1596SOL    HW1 5687   1.346   3.667   5.516
 1596SOL    HW2 5688   1.462   3.651   5.630
 1597SOL     OW 5689   2.891   5.577   0.608
 1597SOL    HW1 5690   2.824   5.524   0.556
 1597SOL    HW2 5691   2.978   5.576   0.559
 1598SOL     OW 5692   0.437   4.145   0.423
 1598SOL    HW1 5693   0.491   4.062   0.438
 1598SOL    HW2 5694   0.462   4.214   0.492
 1599SOL     OW 5695   4.579   3.639   5.616
 1599SOL    HW1 5696   4.497   3.591   5.648
 1599SOL    HW2 5697   4.573   3.655   5.518
 1600SOL     OW 5698   5.054   2.152   4.779
 1600SOL    HW1 5699   4.960   2.123   4.765
 1600SOL    HW2 5700   5.086   2.203   4.699
 1601SOL     OW 5701   0.943   5.121   4.817
 1601SOL    HW1 5702   0.973   5.041   4.868
 1601SOL    HW2 5703   1.016   5.150   4.754
 1602SOL     OW 5704   1.912   5.629   4.409
 1602SOL    HW1 5705   1.962   5.678   4.337
 1602SOL    HW2 5706   1.845   5.691   4.450
 1603SOL     OW 5707   1.365   6.280   1.982
 1603SOL    HW1 5708   1.439   6.250   1.921
 1603SOL    HW2 5709   1.293   6.210   1.985
 1604SOL     OW 5710   5.776   4.986   6.631
 1604SOL    HW1 5711   5.802   4.890   6.641
 1604SOL    HW2 5712   5.784   5.014   6.535
 1605SOL     OW 5713   6.426   0.178   1.872
 1605SOL    HW1 5714   6.489   0.155   1.946
 1605SOL    HW2 5715   6.383   0.266   1.890
 1606SOL     OW 5716   4.214   0.861   5.204
 1606SOL    HW1 5717   4.185   0.915   5.284
 1606SOL    HW2 5718   4.289   0.908   5.158
 1607SOL     OW 5719   5.248   2.675   1.293
 1607SOL    HW1 5720   5.338   2.709   1.323
 1607SOL    HW2 5721   5.176   2.726   1.340
 1608SOL     OW 5722   1.439   0.563   5.708
 1608SOL    HW1 5723   1.358   0.511   5.735
 1608SOL    HW2 5724   1.513   0.545   5.772
 1609SOL     OW 5725   5.372   1.355   6.372
 1609SOL    HW1 5726   5.362   1.292   6.449
 1609SOL    HW2 5727   5.463   1.343   6.332
 1610SOL     OW 5728   5.398   4.323   5.366
 1610SOL    HW1 5729   5.483   4.375   5.362
 1610SOL    HW2 5730   5.412   4.241   5.420
 1611SOL     OW 5731   3.924   3.600   2.049
 1611SOL    HW1 5732   3.956   3.506   2.035
 1611SOL    HW2 5733   3.983   3.646   2.114
 1612SOL     OW 5734   2.749   0.906   5.420
 1612SOL    HW1 5735   2.673   0.940   5.476
 1612SOL    HW2 5736   2.834   0.950   5.450
 1613SOL     OW 5737   2.312   5.826   1.098
 1613SOL    HW1 5738   2.235   5.788   1.150
 1613SOL    HW2 5739   2.292   5.816   1.000
 1614SOL     OW 5740   6.621   4.189   0.415
 1614SOL    HW1 5741   6.685   4.235   0.352
 1614SOL    HW2 5742   6.530   4.186   0.374
 1615SOL     OW 5743   6.683   4.771   1.361
 1615SOL    HW1 5744   6.642   4.704   1.422
 1615SOL    HW2 5745   6.645   4.862   1.381
 1616SOL     OW 5746   4.659   1.707   5.867
 1616SOL    HW1 5747   4.608   1.622   5.852
 1616SOL    HW2 5748   4.605   1.769   5.924
 1617SOL     OW 5749   6.021   6.994   1.905
 1617SOL    HW1 5750   6.004   0.019   1.817
 1617SOL    HW2 5751   5.935   6.955   1.940
 1618SOL     OW 5752   0.362   3.885   1.134
 1618SOL    HW1 5753   0.317   3.917   1.217
 1618SOL    HW2 5754   0.394   3.964   1.081
 1619SOL     OW 5755   1.653   2.745   4.295
 1619SOL    HW1 5756   1.753   2.741   4.302
 1619SOL    HW2 5757   1.620   2.666   4.242
 1620SOL     OW 5758   2.131   5.776   0.508
 1620SOL    HW1 5759   2.086   5.697   0.467
 1620SOL    HW2 5760   2.069   5.854   0.506
 1621SOL     OW 5761   0.604   0.846   0.148
 1621SOL    HW1 5762   0.628   0.939   0.178
 1621SOL    HW2 5763   0.677   0.810   0.090
 1622SOL     OW 5764   1.501   2.060   4.968
 1622SOL    HW1 5765   1.464   1.976   4.930
 1622SOL    HW2 5766   1.600   2.064   4.951
 1623SOL     OW 5767   2.433   2.925   6.051
 1623SOL    HW1 5768   2.360   2.955   6.112
 1623SOL    HW2 5769   2.510   2.891   6.106
 1624SOL     OW 5770   2.390   0.762   6.322
 1624SOL    HW1 5771   2.361   0.850   6.360
 1624SOL    HW2 5772   2.449   0.778   6.243
 1625SOL     OW 5773   1.527   5.167   2.885
 1625SOL    HW1 5774   1.602   5.232   2.874
 1625SOL    HW2 5775   1.463   5.201   2.955
 1626SOL     OW 5776   1.969   1.947   6.398
 1626SOL    HW1 5777   2.007   1.946   6.306
 1626SOL    HW2 5778   2.023   1.886   6.457
 1627SOL     OW 5779   6.775   1.674   4.250
 1627SOL    HW1 5780   6.870   1.704   4.242
 1627SOL    HW2 5781   6.718   1.723   4.184
 1628SOL     OW 5782   4.295   5.272   6.897
 1628SOL    HW1 5783   4.353   5.242   6.972
 1628SOL    HW2 5784   4.278   5.196   6.834
 1629SOL     OW 5785   2.851   2.187   3.980
 1629SOL    HW1 5786   2.792   2.226   4.050
 1629SOL    HW2 5787   2.943   2.175   4.017
 1630SOL     OW 5788   0.834   6.382   5.693
 1630SOL    HW1 5789   0.770   6.432   5.752
 1630SOL    HW2 5790   0.835   6.424   5.602
 1631SOL     OW 5791   6.750   0.520   5.665
 1631SOL    HW1 5792   6.697   0.602   5.689
 1631SOL    HW2 5793   6.701   0.439   5.696
 1632SOL     OW 5794   0.085   1.203   6.795
 1632SOL    HW1 5795   0.062   1.261   6.717
 1632SOL    HW2 5796   0.123   1.260   6.868
 1633SOL     OW 5797   5.505   2.628   2.848
 1633SOL    HW1 5798   5.472   2.673   2.931
 1633SOL    HW2 5799   5.578   2.683   2.807
 1634SOL     OW 5800   4.487   5.883   5.692
 1634SOL    HW1 5801   4.453   5.892   5.786
 1634SOL    HW2 5802   4.412   5.855   5.632
 1635SOL     OW 5803   6.224   5.494   4.882
 1635SOL    HW1 5804   6.198   5.407   4.923
 1635SOL    HW2 5805   6.142   5.540   4.846
 1636SOL     OW 5806   2.382   4.376   1.620
 1636SOL    HW1 5807   2.377   4.466   1.664
 1636SOL    HW2 5808   2.297   4.326   1.634
 1637SOL     OW 5809   6.709   1.785   3.027
 1637SOL    HW1 5810   6.783   1.723   3.001
 1637SOL    HW2 5811   6.713   1.868   2.970
 1638SOL     OW 5812   0.465   3.772   4.226
 1638SOL    HW1 5813   0.530   3.699   4.207
 1638SOL    HW2 5814   0.387   3.765   4.163
 1639SOL     OW 5815   5.237   6.212   2.449
 1639SOL    HW1 5816   5.190   6.288   2.405
 1639SOL    HW2 5817   5.225   6.129   2.393
 1640SOL     OW 5818   6.042   1.792   0.254
 1640SOL    HW1 5819   6.026   1.849   0.335
 1640SOL    HW2 5820   6.067   1.849   0.176
 1641SOL     OW 5821   6.063   2.683   3.954
 1641SOL    HW1 5822   6.072   2.742   4.033
 1641SOL    HW2 5823   5.978   2.705   3.905
 1642SOL     OW 5824   6.665   3.251   0.007
 1642SOL    HW1 5825   6.642   3.346   0.028
 1642SOL    HW2 5826   6.586   3.192   0.025
 1643SOL     OW 5827   3.467   6.309   4.557
 1643SOL    HW1 5828   3.553   6.358   4.567
 1643SOL    HW2 5829   3.428   6.327   4.466
 1644SOL     OW 5830   2.402   2.559   1.358
 1644SOL    HW1 5831   2.359   2.634   1.308
 1644SOL    HW2 5832   2.493   2.587   1.390
 1645SOL     OW 5833   3.328   6.570   5.321
 1645SOL    HW1 5834   3.328   6.583   5.222
 1645SOL    HW2 5835   3.267   6.637   5.363
 1646SOL     OW 5836   3.028   5.286   1.196
 1646SOL    HW1 5837   2.961   5.326   1.258
 1646SOL    HW2 5838   3.003   5.191   1.176
 1647SOL     OW 5839   5.534   2.359   4.093
 1647SOL    HW1 5840   5.469   2.429   4.120
 1647SOL    HW2 5841   5.493   2.301   4.022
 1648SOL     OW 5842   5.426   6.526   1.647
 1648SOL    HW1 5843   5.482   6.462   1.700
 1648SOL    HW2 5844   5.478   6.559   1.569
 1649SOL     OW 5845   3.277   0.424   3.003
 1649SOL    HW1 5846   3.303   0.520   2.993
 1649SOL    HW2 5847   3.196   0.417   3.062
 1650SOL     OW 5848   3.225   6.804   4.146
 1650SOL    HW1 5849   3.205   6.707   4.130
 1650SOL    HW2 5850   3.278   6.840   4.069
 1651SOL     OW 5851   0.680   0.654   1.203
 1651SOL    HW1 5852   0.659   0.643   1.106
 1651SOL    HW2 5853   0.749   0.726   1.214
 1652SOL     OW 5854   1.759   1.890   0.942
 1652SOL    HW1 5855   1.784   1.958   1.011
 1652SOL    HW2 5856   1.842   1.852   0.900
 1653SOL     OW 5857   0.511   5.383   1.488
 1653SOL    HW1 5858   0.519   5.358   1.584
 1653SOL    HW2 5859   0.452   5.463   1.478
 1654SOL     OW 5860   7.018   3.102   2.391
 1654SOL    HW1 5861   6.961   3.086   2.311
 1654SOL    HW2 5862   0.095   3.079   2.371
 1655SOL     OW 5863   5.566   3.692   5.976
 1655SOL    HW1 5864   5.513   3.691   6.060
 1655SOL    HW2 5865   5.641   3.758   5.984
 1656SOL     OW 5866   1.865   4.170   3.225
 1656SOL    HW1 5867   1.890   4.141   3.133
 1656SOL    HW2 5868   1.948   4.194   3.276
 1657SOL     OW 5869   0.612   1.506   5.245
 1657SOL    HW1 5870   0.697   1.552   5.220
 1657SOL    HW2 5871   0.536   1.571   5.236
 1658SOL     OW 5872   6.866   6.769   2.987
 1658SOL    HW1 5873   6.871   6.697   3.056
 1658SOL    HW2 5874   6.940   6.756   2.920
 1659SOL     OW 5875   3.365   1.825   6.327
 1659SOL    HW1 5876   3.401   1.908   6.286
 1659SOL    HW2 5877   3.273   1.807   6.290
 1660SOL     OW 5878   1.280   5.761   3.902
 1660SOL    HW1 5879   1.380   5.759   3.904
 1660SOL    HW2 5880   1.247   5.698   3.831
 1661SOL     OW 5881   3.606   1.554   1.605
 1661SOL    HW1 5882   3.533   1.499   1.564
 1661SOL    HW2 5883   3.648   1.610   1.533
 1662SOL     OW 5884   6.193   1.214   3.557
 1662SOL    HW1 5885   6.248   1.254   3.483
 1662SOL    HW2 5886   6.193   1.276   3.635
 1663SOL     OW 5887   2.559   0.527   3.145
 1663SOL    HW1 5888   2.566   0.626   3.153
 1663SOL    HW2 5889   2.472   0.497   3.185
 1664SOL     OW 5890   1.874   0.383   4.229
 1664SOL    HW1 5891   1.895   0.286   4.242
 1664SOL    HW2 5892   1.889   0.408   4.134
 1665SOL     OW 5893   6.911   1.555   3.271
 1665SOL    HW1 5894   6.951   1.479   3.219
 1665SOL    HW2 5895   6.953   1.559   3.362
 1666SOL     OW 5896   6.262   2.728   0.390
 1666SOL    HW1 5897   6.174   2.696   0.354
 1666SOL    HW2 5898   6.262   2.718   0.489
 1667SOL     OW 5899   5.369   6.979   0.451
 1667SOL    HW1 5900   5.423   6.919   0.392
 1667SOL    HW2 5901   5.349   0.046   0.403
 1668SOL     OW 5902   4.844   6.733   4.853
 1668SOL    HW1 5903   4.746   6.727   4.834
 1668SOL    HW2 5904   4.863   6.815   4.906
 1669SOL     OW 5905   6.305   6.488   0.388
 1669SOL    HW1 5906   6.255   6.574   0.382
 1669SOL    HW2 5907   6.382   6.499   0.451
 1670SOL     OW 5908   6.823   5.778   5.792
 1670SOL    HW1 5909   6.796   5.686   5.762
 1670SOL    HW2 5910   6.806   5.843   5.719
 1671SOL     OW 5911   4.106   2.449   1.150
 1671SOL    HW1 5912   4.149   2.403   1.228
 1671SOL    HW2 5913   4.097   2.547   1.171
 1672SOL     OW 5914   2.111   3.740   2.654
 1672SOL    HW1 5915   2.132   3.760   2.558
 1672SOL    HW2 5916   2.158   3.807   2.712
 1673SOL     OW 5917   0.623   2.621   4.721
 1673SOL    HW1 5918   0.717   2.589   4.732
 1673SOL    HW2 5919   0.566   2.544   4.693
 1674SOL     OW 5920   1.746   3.605   1.585
 1674SOL    HW1 5921   1.807   3.683   1.570
 1674SOL    HW2 5922   1.651   3.633   1.572
 1675SOL     OW 5923   4.684   0.278   6.425
 1675SOL    HW1 5924   4.613   0.302   6.358
 1675SOL    HW2 5925   4.736   0.359   6.449
 1676SOL     OW 5926   2.944   1.638   2.708
 1676SOL    HW1 5927   2.938   1.693   2.625
 1676SOL    HW2 5928   2.989   1.551   2.686
 1677SOL     OW 5929   4.972   2.063   5.354
 1677SOL    HW1 5930   5.053   2.112   5.387
 1677SOL    HW2 5931   4.987   1.964   5.363
 1678SOL     OW 5932   5.754   4.702   4.141
 1678SOL    HW1 5933   5.692   4.781   4.136
 1678SOL    HW2 5934   5.848   4.735   4.143
 1679SOL     OW 5935   1.751   3.455   5.418
 1679SOL    HW1 5936   1.725   3.534   5.363
 1679SOL    HW2 5937   1.767   3.484   5.513
 1680SOL     OW 5938   0.809   1.096   4.374
 1680SOL    HW1 5939   0.872   1.168   4.344
 1680SOL    HW2 5940   0.809   1.022   4.307
 1681SOL     OW 5941   6.565   5.617   1.341
 1681SOL    HW1 5942   6.513   5.681   1.398
 1681SOL    HW2 5943   6.509   5.537   1.320
 1682SOL     OW 5944   0.186   2.738   4.806
 1682SOL    HW1 5945   0.119   2.803   4.842
 1682SOL    HW2 5946   0.278   2.775   4.818
 1683SOL     OW 5947   4.006   4.816   0.544
 1683SOL    HW1 5948   4.040   4.851   0.632
 1683SOL    HW2 5949   3.918   4.771   0.558
 1684SOL     OW 5950   1.324   6.305   3.636
 1684SOL    HW1 5951   1.248   6.371   3.635
 1684SOL    HW2 5952   1.294   6.221   3.681
 1685SOL     OW 5953   1.742   1.151   6.517
 1685SOL    HW1 5954   1.754   1.250   6.518
 1685SOL    HW2 5955   1.698   1.124   6.432
 1686SOL     OW 5956   1.850   5.212   5.792
 1686SOL    HW1 5957   1.763   5.163   5.807
 1686SOL    HW2 5958   1.831   5.306   5.765
 1687SOL     OW 5959   2.143   2.828   1.784
 1687SOL    HW1 5960   2.133   2.926   1.798
 1687SOL    HW2 5961   2.206   2.790   1.853
 1688SOL     OW 5962   1.130   1.734   3.114
 1688SOL    HW1 5963   1.196   1.659   3.113
 1688SOL    HW2 5964   1.082   1.737   3.027
 1689SOL     OW 5965   3.447   1.107   2.048
 1689SOL    HW1 5966   3.486   1.180   2.104
 1689SOL    HW2 5967   3.510   1.029   2.046
 1690SOL     OW 5968   1.535   2.589   3.312
 1690SOL    HW1 5969   1.444   2.586   3.270
 1690SOL    HW2 5970   1.556   2.683   3.339
 1691SOL     OW 5971   4.903   4.117   3.254
 1691SOL    HW1 5972   4.999   4.090   3.261
 1691SOL    HW2 5973   4.881   4.135   3.158
 1692SOL     OW 5974   6.923   0.173   1.250
 1692SOL    HW1 5975   6.841   0.190   1.304
 1692SOL    HW2 5976   6.920   0.079   1.215
 1693SOL     OW 5977   1.966   2.815   2.978
 1693SOL    HW1 5978   1.932   2.902   2.944
 1693SOL    HW2 5979   1.918   2.791   3.063
 1694SOL     OW 5980   4.159   6.213   3.974
 1694SOL    HW1 5981   4.239   6.202   3.915
 1694SOL    HW2 5982   4.086   6.259   3.923
 1695SOL     OW 5983   2.511   1.668   4.561
 1695SOL    HW1 5984   2.433   1.686   4.502
 1695SOL    HW2 5985   2.510   1.573   4.591
 1696SOL     OW 5986   4.966   5.278   0.795
 1696SOL    HW1 5987   5.045   5.298   0.853
 1696SOL    HW2 5988   4.920   5.363   0.771
 1697SOL     OW 5989   0.372   6.742   1.149
 1697SOL    HW1 5990   0.465   6.763   1.177
 1697SOL    HW2 5991   0.335   6.670   1.207
 1698SOL     OW 5992   4.452   1.937   1.383
 1698SOL    HW1 5993   4.390   1.866   1.350
 1698SOL    HW2 5994   4.516   1.962   1.311
 1699SOL     OW 5995   2.834   2.023   1.544
 1699SOL    HW1 5996   2.737   2.048   1.539
 1699SOL    HW2 5997   2.874   2.062   1.628
 1700SOL     OW 5998   6.432   2.109   3.446
 1700SOL    HW1 5999   6.429   2.009   3.441
 1700SOL    HW2 6000   6.525   2.139   3.467
 1701SOL     OW 6001   5.651   2.736   4.652
 1701SOL    HW1 6002   5.560   2.696   4.659
 1701SOL    HW2 6003   5.720   2.666   4.668
 1702SOL     OW 6004   6.205   3.848   0.701
 1702SOL    HW1 6005   6.243   3.762   0.668
 1702SOL    HW2 6006   6.139   3.830   0.774
 1703SOL     OW 6007   3.283   4.053   2.432
 1703SOL    HW1 6008   3.373   4.027   2.467
 1703SOL    HW2 6009   3.288   4.145   2.394
 1704SOL     OW 6010   0.019   1.129   0.756
 1704SOL    HW1 6011   6.965   1.197   0.751
 1704SOL    HW2 6012   0.035   1.104   0.851
 1705SOL     OW 6013   3.272   2.091   1.687
 1705SOL    HW1 6014   3.309   2.175   1.649
 1705SOL    HW2 6015   3.341   2.018   1.681
 1706SOL     OW 6016   4.009   0.029   1.513
 1706SOL    HW1 6017   4.053   0.074   1.591
 1706SOL    HW2 6018   3.945   0.093   1.470
 1707SOL     OW 6019   3.869   1.475   1.705
 1707SOL    HW1 6020   3.901   1.421   1.627
 1707SOL    HW2 6021   3.771   1.461   1.717
 1708SOL     OW 6022   6.064   6.356   3.123
 1708SOL    HW1 6023   6.052   6.397   3.033
 1708SOL    HW2 6024   6.142   6.294   3.122
 1709SOL     OW 6025   2.550   6.778   1.658
 1709SOL    HW1 6026   2.474   6.776   1.594
 1709SOL    HW2 6027   2.560   6.688   1.701
 1710SOL     OW 6028   0.067   3.970   3.251
 1710SOL    HW1 6029   0.112   3.944   3.337
 1710SOL    HW2 6030   0.131   3.957   3.175
 1711SOL     OW 6031   1.360   4.421   5.076
 1711SOL    HW1 6032   1.421   4.430   5.154
 1711SOL    HW2 6033   1.413   4.404   4.993
 1712SOL     OW 6034   0.811   3.877   6.388
 1712SOL    HW1 6035   0.843   3.933   6.465
 1712SOL    HW2 6036   0.866   3.794   6.382
 1713SOL     OW 6037   2.392   1.999   1.420
 1713SOL    HW1 6038   2.379   2.070   1.351
 1713SOL    HW2 6039   2.310   1.941   1.424
 1714SOL     OW 6040   3.822   1.738   6.310
 1714SOL    HW1 6041   3.733   1.692   6.318
 1714SOL    HW2 6042   3.855   1.731   6.216
 1715SOL     OW 6043   6.941   3.165   2.797
 1715SOL    HW1 6044   7.013   3.098   2.781
 1715SOL    HW2 6045   6.940   3.232   2.723
 1716SOL     OW 6046   5.816   6.582   1.625
 1716SOL    HW1 6047   5.723   6.617   1.627
 1716SOL    HW2 6048   5.832   6.535   1.538
 1717SOL     OW 6049   2.753   6.325   6.587
 1717SOL    HW1 6050   2.701   6.408   6.566
 1717SOL    HW2 6051   2.746   6.261   6.510
 1718SOL     OW 6052   1.820   2.369   0.542
 1718SOL    HW1 6053   1.763   2.308   0.487
 1718SOL    HW2 6054   1.818   2.339   0.637
 1719SOL     OW 6055   2.426   3.779   1.318
 1719SOL    HW1 6056   2.331   3.805   1.332
 1719SOL    HW2 6057   2.460   3.817   1.232
 1720SOL     OW 6058   6.391   1.876   1.534
 1720SOL    HW1 6059   6.378   1.904   1.439
 1720SOL    HW2 6060   6.412   1.956   1.590
 1721SOL     OW 6061   1.341   6.654   2.424
 1721SOL    HW1 6062   1.293   6.697   2.347
 1721SOL    HW2 6063   1.428   6.616   2.393
 1722SOL     OW 6064   4.856   0.971   3.144
 1722SOL    HW1 6065   4.795   1.046   3.168
 1722SOL    HW2 6066   4.915   0.999   3.067
 1723SOL     OW 6067   6.589   1.890   3.745
 1723SOL    HW1 6068   6.679   1.883   3.702
 1723SOL    HW2 6069   6.531   1.814   3.714
 1724SOL     OW 6070   6.036   0.994   0.540
 1724SOL    HW1 6071   6.030   1.060   0.615
 1724SOL    HW2 6072   6.130   0.961   0.533
 1725SOL     OW 6073   3.237   4.403   0.382
 1725SOL    HW1 6074   3.183   4.354   0.451
 1725SOL    HW2 6075   3.309   4.455   0.428
 1726SOL     OW 6076   6.900   4.281   4.315
 1726SOL    HW1 6077   6.915   4.266   4.217
 1726SOL    HW2 6078   6.986   4.266   4.365
 1727SOL     OW 6079   3.657   2.929   3.983
 1727SOL    HW1 6080   3.699   3.019   3.990
 1727SOL    HW2 6081   3.645   2.890   4.075
 1728SOL     OW 6082   5.155   4.528   4.260
 1728SOL    HW1 6083   5.158   4.511   4.358
 1728SOL    HW2 6084   5.216   4.604   4.237
 1729SOL     OW 6085   1.850   3.870   3.760
 1729SOL    HW1 6086   1.796   3.790   3.733
 1729SOL    HW2 6087   1.790   3.949   3.772
 1730SOL     OW 6088   6.719   0.589   5.134
 1730SOL    HW1 6089   6.772   0.600   5.217
 1730SOL    HW2 6090   6.636   0.645   5.139
 1731SOL     OW 6091   1.393   5.246   2.604
 1731SOL    HW1 6092   1.362   5.223   2.511
 1731SOL    HW2 6093   1.432   5.338   2.604
 1732SOL     OW 6094   1.971   4.079   6.494
 1732SOL    HW1 6095   2.063   4.071   6.456
 1732SOL    HW2 6096   1.974   4.132   6.579
 1733SOL     OW 6097   1.884   3.379   2.416
 1733SOL    HW1 6098   1.951   3.385   2.342
 1733SOL    HW2 6099   1.923   3.419   2.499
 1734SOL     OW 6100   4.571   2.975   1.644
 1734SOL    HW1 6101   4.589   3.000   1.739
 1734SOL    HW2 6102   4.473   2.962   1.631
 1735SOL     OW 6103   5.768   5.735   1.854
 1735SOL    HW1 6104   5.760   5.703   1.949
 1735SOL    HW2 6105   5.677   5.752   1.817
 1736SOL     OW 6106   5.122   2.276   0.234
 1736SOL    HW1 6107   5.112   2.221   0.151
 1736SOL    HW2 6108   5.169   2.221   0.304
 1737SOL     OW 6109   3.174   0.159   3.945
 1737SOL    HW1 6110   3.238   0.221   3.990
 1737SOL    HW2 6111   3.217   0.119   3.864
 1738SOL     OW 6112   2.114   2.702   4.034
 1738SOL    HW1 6113   2.134   2.625   3.974
 1738SOL    HW2 6114   2.199   2.748   4.059
 1739SOL     OW 6115   4.653   2.636   4.795
 1739SOL    HW1 6116   4.591   2.660   4.870
 1739SOL    HW2 6117   4.634   2.542   4.764
 1740SOL     OW 6118   0.168   0.953   6.725
 1740SOL    HW1 6119   0.268   0.942   6.720
 1740SOL    HW2 6120   0.146   1.047   6.748
 1741SOL     OW 6121   2.314   1.330   2.557
 1741SOL    HW1 6122   2.254   1.349   2.479
 1741SOL    HW2 6123   2.336   1.416   2.603
 1742SOL     OW 6124   3.817   6.001   5.908
 1742SOL    HW1 6125   3.888   5.939   5.874
 1742SOL    HW2 6126   3.728   5.956   5.902
 1743SOL     OW 6127   1.992   1.376   2.468
 1743SOL    HW1 6128   2.079   1.366   2.420
 1743SOL    HW2 6129   1.941   1.453   2.429
 1744SOL     OW 6130   1.319   0.011   1.840
 1744SOL    HW1 6131   1.307   0.075   1.765
 1744SOL    HW2 6132   1.359   0.058   1.918
 1745SOL     OW 6133   6.497   1.421   4.598
 1745SOL    HW1 6134   6.560   1.450   4.526
 1745SOL    HW2 6135   6.407   1.460   4.581
 1746SOL     OW 6136   2.417   5.660   5.613
 1746SOL    HW1 6137   2.359   5.593   5.569
 1746SOL    HW2 6138   2.387   5.752   5.588
 1747SOL     OW 6139   5.159   6.823   2.640
 1747SOL    HW1 6140   5.236   6.764   2.664
 1747SOL    HW2 6141   5.149   6.895   2.709
 1748SOL     OW 6142   6.630   0.895   4.034
 1748SOL    HW1 6143   6.547   0.922   4.082
 1748SOL    HW2 6144   6.695   0.855   4.099
 1749SOL     OW 6145   3.718   6.284   5.386
 1749SOL    HW1 6146   3.686   6.244   5.472
 1749SOL    HW2 6147   3.818   6.279   5.381
 1750SOL     OW 6148   4.930   1.280   3.195
 1750SOL    HW1 6149   4.935   1.380   3.198
 1750SOL    HW2 6150   5.021   1.242   3.179
 1751SOL     OW 6151   3.119   4.892   4.741
 1751SOL    HW1 6152   3.204   4.928   4.781
 1751SOL    HW2 6153   3.114   4.793   4.758
 1752SOL     OW 6154   6.756   2.568   1.714
 1752SOL    HW1 6155   6.695   2.576   1.793
 1752SOL    HW2 6156   6.822   2.495   1.730
 1753SOL     OW 6157   0.578   1.318   0.372
 1753SOL    HW1 6158   0.653   1.294   0.434
 1753SOL    HW2 6159   0.492   1.314   0.423
 1754SOL     OW 6160   3.595   3.282   0.823
 1754SOL    HW1 6161   3.533   3.358   0.839
 1754SOL    HW2 6162   3.617   3.238   0.911
 1755SOL     OW 6163   5.797   5.079   1.833
 1755SOL    HW1 6164   5.713   5.133   1.820
 1755SOL    HW2 6165   5.858   5.093   1.755
 1756SOL     OW 6166   5.452   4.667   5.159
 1756SOL    HW1 6167   5.534   4.629   5.116
 1756SOL    HW2 6168   5.475   4.706   5.248
 1757SOL     OW 6169   2.177   6.552   4.659
 1757SOL    HW1 6170   2.226   6.636   4.640
 1757SOL    HW2 6171   2.081   6.573   4.680
 1758SOL     OW 6172   2.464   0.685   3.989
 1758SOL    HW1 6173   2.386   0.705   4.049
 1758SOL    HW2 6174   2.460   0.589   3.960
 1759SOL     OW 6175   0.249   5.266   6.273
 1759SOL    HW1 6176   0.269   5.168   6.283
 1759SOL    HW2 6177   0.161   5.286   6.317
 1760SOL     OW 6178   6.016   1.723   1.362
 1760SOL    HW1 6179   5.960   1.640   1.359
 1760SOL    HW2 6180   6.086   1.720   1.291
 1761SOL     OW 6181   6.869   0.116   0.427
 1761SOL    HW1 6182   6.945   0.140   0.366
 1761SOL    HW2 6183   6.833   0.199   0.470
 1762SOL     OW 6184   6.573   1.944   5.395
 1762SOL    HW1 6185   6.500   1.912   5.335
 1762SOL    HW2 6186   6.571   1.891   5.480
 1763SOL     OW 6187   1.396   4.161   3.933
 1763SOL    HW1 6188   1.479   4.145   3.986
 1763SOL    HW2 6189   1.321   4.106   3.971
 1764SOL     OW 6190   1.975   3.500   2.632
 1764SOL    HW1 6191   2.029   3.583   2.642
 1764SOL    HW2 6192   1.930   3.479   2.719
 1765SOL     OW 6193   3.303   1.800   6.733
 1765SOL    HW1 6194   3.263   1.753   6.654
 1765SOL    HW2 6195   3.374   1.743   6.774
 1766SOL     OW 6196   5.060   2.798   3.944
 1766SOL    HW1 6197   5.134   2.807   4.010
 1766SOL    HW2 6198   5.084   2.844   3.859
 1767SOL     OW 6199   4.853   3.845   2.702
 1767SOL    HW1 6200   4.841   3.886   2.612
 1767SOL    HW2 6201   4.843   3.746   2.695
 1768SOL     OW 6202   3.876   0.980   5.201
 1768SOL    HW1 6203   3.790   1.029   5.210
 1768SOL    HW2 6204   3.883   0.941   5.109
 1769SOL     OW 6205   4.245   2.199   4.225
 1769SOL    HW1 6206   4.217   2.212   4.130
 1769SOL    HW2 6207   4.313   2.268   4.249
 1770SOL     OW 6208   2.206   6.036   5.160
 1770SOL    HW1 6209   2.184   6.085   5.075
 1770SOL    HW2 6210   2.126   6.036   5.220
 1771SOL     OW 6211   2.625   5.480   6.692
 1771SOL    HW1 6212   2.701   5.541   6.671
 1771SOL    HW2 6213   2.655   5.413   6.760
 1772SOL     OW 6214   3.271   6.707   3.853
 1772SOL    HW1 6215   3.202   6.634   3.854
 1772SOL    HW2 6216   3.244   6.778   3.787
 1773SOL     OW 6217   2.203   4.883   5.862
 1773SOL    HW1 6218   2.287   4.865   5.912
 1773SOL    HW2 6219   2.226   4.913   5.769
 1774SOL     OW 6220   4.428   6.058   1.581
 1774SOL    HW1 6221   4.489   6.032   1.656
 1774SOL    HW2 6222   4.470   6.036   1.494
 1775SOL     OW 6223   1.794   4.212   3.501
 1775SOL    HW1 6224   1.701   4.185   3.528
 1775SOL    HW2 6225   1.797   4.227   3.403
 1776SOL     OW 6226   2.824   6.774   3.694
 1776SOL    HW1 6227   2.912   6.815   3.674
 1776SOL    HW2 6228   2.825   6.678   3.667
 1777SOL     OW 6229   3.918   4.989   5.757
 1777SOL    HW1 6230   3.966   5.075   5.772
 1777SOL    HW2 6231   3.943   4.952   5.667
 1778SOL     OW 6232   4.348   3.493   5.672
 1778SOL    HW1 6233   4.317   3.491   5.767
 1778SOL    HW2 6234   4.270   3.486   5.611
 1779SOL     OW 6235   4.513   1.028   4.516
 1779SOL    HW1 6236   4.531   1.125   4.529
 1779SOL    HW2 6237   4.562   0.995   4.435
 1780SOL     OW 6238   3.633   2.966   6.477
 1780SOL    HW1 6239   3.581   3.050   6.463
 1780SOL    HW2 6240   3.570   2.891   6.499
 1781SOL     OW 6241   4.238   5.798   3.460
 1781SOL    HW1 6242   4.237   5.815   3.558
 1781SOL    HW2 6243   4.312   5.849   3.417
 1782SOL     OW 6244   3.220   1.763   2.411
 1782SOL    HW1 6245   3.264   1.847   2.380
 1782SOL    HW2 6246   3.133   1.786   2.454
 1783SOL     OW 6247   1.692   5.098   6.024
 1783SOL    HW1 6248   1.623   5.031   5.998
 1783SOL    HW2 6249   1.781   5.053   6.031
 1784SOL     OW 6250   4.304   1.425   5.980
 1784SOL    HW1 6251   4.280   1.507   5.929
 1784SOL    HW2 6252   4.284   1.344   5.926
 1785SOL     OW 6253   6.037   3.952   3.303
 1785SOL    HW1 6254   6.101   3.974   3.229
 1785SOL    HW2 6255   5.955   4.009   3.293
 1786SOL     OW 6256   2.225   2.502   0.109
 1786SOL    HW1 6257   2.144   2.478   0.163
 1786SOL    HW2 6258   2.275   2.575   0.155
 1787SOL     OW 6259   3.186   0.958   5.048
 1787SOL    HW1 6260   3.088   0.937   5.038
 1787SOL    HW2 6261   3.216   1.016   4.972
 1788SOL     OW 6262   2.826   2.850   0.121
 1788SOL    HW1 6263   2.881   2.815   0.196
 1788SOL    HW2 6264   2.839   2.792   0.040
 1789SOL     OW 6265   5.954   1.789   3.025
 1789SOL    HW1 6266   5.958   1.766   2.928
 1789SOL    HW2 6267   6.045   1.812   3.058
 1790SOL     OW 6268   4.103   5.951   3.846
 1790SOL    HW1 6269   4.126   5.971   3.941
 1790SOL    HW2 6270   4.175   5.895   3.805
 1791SOL     OW 6271   5.723   0.782   3.184
 1791SOL    HW1 6272   5.668   0.841   3.126
 1791SOL    HW2 6273   5.800   0.834   3.222
 1792SOL     OW 6274   6.745   3.360   4.756
 1792SOL    HW1 6275   6.682   3.406   4.819
 1792SOL    HW2 6276   6.776   3.424   4.686
 1793SOL     OW 6277   6.120   6.823   3.461
 1793SOL    HW1 6278   6.049   6.758   3.488
 1793SOL    HW2 6279   6.130   6.893   3.532
 1794SOL     OW 6280   5.374   6.133   5.638
 1794SOL    HW1 6281   5.374   6.041   5.676
 1794SOL    HW2 6282   5.291   6.181   5.666
 1795SOL     OW 6283   0.836   2.145   0.500
 1795SOL    HW1 6284   0.853   2.153   0.402
 1795SOL    HW2 6285   0.865   2.055   0.532
 1796SOL     OW 6286   2.379   0.643   4.603
 1796SOL    HW1 6287   2.446   0.670   4.534
 1796SOL    HW2 6288   2.293   0.616   4.558
 1797SOL     OW 6289   1.562   6.708   0.279
 1797SOL    HW1 6290   1.478   6.654   0.281
 1797SOL    HW2 6291   1.539   6.805   0.271
 1798SOL     OW 6292   5.115   3.156   3.548
 1798SOL    HW1 6293   5.147   3.241   3.505
 1798SOL    HW2 6294   5.076   3.096   3.478
 1799SOL     OW 6295   0.120   2.529   6.035
 1799SOL    HW1 6296   0.061   2.474   5.977
 1799SOL    HW2 6297   0.072   2.553   6.119
 1800SOL     OW 6298   3.898   4.876   2.093
 1800SOL    HW1 6299   3.940   4.829   2.016
 1800SOL    HW2 6300   3.804   4.902   2.069
 1801SOL     OW 6301   0.224   0.465   1.753
 1801SOL    HW1 6302   0.280   0.455   1.671
 1801SOL    HW2 6303   0.191   0.376   1.782
 1802SOL     OW 6304   5.656   5.452   3.310
 1802SOL    HW1 6305   5.686   5.524   3.248
 1802SOL    HW2 6306   5.718   5.374   3.302
 1803SOL     OW 6307   0.725   5.749   6.997
 1803SOL    HW1 6308   0.714   5.649   6.992
 1803SOL    HW2 6309   0.728   5.786   6.904
 1804SOL     OW 6310   2.557   3.907   5.319
 1804SOL    HW1 6311   2.529   3.818   5.354
 1804SOL    HW2 6312   2.486   3.944   5.260
 1805SOL     OW 6313   5.954   3.839   5.921
 1805SOL    HW1 6314   5.864   3.882   5.921
 1805SOL    HW2 6315   5.957   3.769   5.849
 1806SOL     OW 6316   0.543   0.445   0.101
 1806SOL    HW1 6317   0.515   0.499   0.181
 1806SOL    HW2 6318   0.492   0.475   0.021
 1807SOL     OW 6319   5.452   2.644   5.056
 1807SOL    HW1 6320   5.369   2.700   5.066
 1807SOL    HW2 6321   5.429   2.559   5.009
 1808SOL     OW 6322   0.115   4.555   5.819
 1808SOL    HW1 6323   0.197   4.552   5.761
 1808SOL    HW2 6324   0.052   4.483   5.790
 1809SOL     OW 6325   2.170   2.134   4.919
 1809SOL    HW1 6326   2.122   2.100   4.838
 1809SOL    HW2 6327   2.160   2.233   4.925
 1810SOL     OW 6328   2.652   6.589   3.281
 1810SOL    HW1 6329   2.619   6.591   3.376
 1810SOL    HW2 6330   2.671   6.683   3.251
 1811SOL     OW 6331   6.106   5.511   3.933
 1811SOL    HW1 6332   6.185   5.500   3.872
 1811SOL    HW2 6333   6.051   5.427   3.932
 1812SOL     OW 6334   4.541   6.470   4.877
 1812SOL    HW1 6335   4.576   6.410   4.804
 1812SOL    HW2 6336   4.611   6.480   4.947
 1813SOL     OW 6337   6.600   5.019   1.093
 1813SOL    HW1 6338   6.682   5.077   1.093
 1813SOL    HW2 6339   6.584   4.984   1.185
 1814SOL     OW 6340   5.969   0.538   1.754
 1814SOL    HW1 6341   6.063   0.508   1.770
 1814SOL    HW2 6342   5.935   0.500   1.668
 1815SOL     OW 6343   0.356   1.943   2.507
 1815SOL    HW1 6344   0.384   1.886   2.430
 1815SOL    HW2 6345   0.435   1.989   2.545
 1816SOL     OW 6346   2.973   3.187   1.169
 1816SOL    HW1 6347   2.901   3.168   1.101
 1816SOL    HW2 6348   2.934   3.181   1.261
 1817SOL     OW 6349   2.667   6.798   2.609
 1817SOL    HW1 6350   2.748   6.829   2.560
 1817SOL    HW2 6351   2.695   6.749   2.692
 1818SOL     OW 6352   1.364   6.721   2.677
 1818SOL    HW1 6353   1.281   6.756   2.719
 1818SOL    HW2 6354   1.353   6.718   2.578
 1819SOL     OW 6355   1.448   4.330   1.577
 1819SOL    HW1 6356   1.434   4.307   1.673
 1819SOL    HW2 6357   1.436   4.428   1.564
 1820SOL     OW 6358   4.509   1.059   2.669
 1820SOL    HW1 6359   4.498   1.084   2.573
 1820SOL    HW2 6360   4.420   1.059   2.714
 1821SOL     OW 6361   0.561   1.157   1.868
 1821SOL    HW1 6362   0.540   1.061   1.884
 1821SOL    HW2 6363   0.624   1.189   1.939
 1822SOL     OW 6364   2.633   3.245   1.219
 1822SOL    HW1 6365   2.692   3.187   1.275
 1822SOL    HW2 6366   2.541   3.206   1.218
 1823SOL     OW 6367   3.156   5.835   3.120
 1823SOL    HW1 6368   3.062   5.867   3.115
 1823SOL    HW2 6369   3.185   5.832   3.216
 1824SOL     OW 6370   3.090   2.515   1.088
 1824SOL    HW1 6371   3.064   2.455   1.164
 1824SOL    HW2 6372   3.190   2.520   1.082
 1825SOL     OW 6373   1.004   1.079   2.779
 1825SOL    HW1 6374   1.062   1.123   2.711
 1825SOL    HW2 6375   0.976   0.989   2.745
 1826SOL     OW 6376   3.013   0.409   1.250
 1826SOL    HW1 6377   3.004   0.493   1.303
 1826SOL    HW2 6378   3.084   0.420   1.181
 1827SOL     OW 6379   0.144   5.511   2.063
 1827SOL    HW1 6380   0.139   5.433   2.126
 1827SOL    HW2 6381   0.141   5.479   1.969
 1828SOL     OW 6382   0.145   2.946   0.574
 1828SOL    HW1 6383   0.234   2.911   0.604
 1828SOL    HW2 6384   0.159   3.032   0.524
 1829SOL     OW 6385   4.317   0.184   3.232
 1829SOL    HW1 6386   4.228   0.153   3.197
 1829SOL    HW2 6387   4.336   0.275   3.195
 1830SOL     OW 6388   5.529   5.809   4.078
 1830SOL    HW1 6389   5.495   5.787   4.169
 1830SOL    HW2 6390   5.499   5.901   4.053
 1831SOL     OW 6391   5.921   0.199   3.017
 1831SOL    HW1 6392   5.899   0.151   2.932
 1831SOL    HW2 6393   5.927   0.133   3.092
 1832SOL     OW 6394   5.899   1.806   0.726
 1832SOL    HW1 6395   5.906   1.810   0.626
 1832SOL    HW2 6396   5.986   1.835   0.766
 1833SOL     OW 6397   5.609   0.952   5.225
 1833SOL    HW1 6398   5.595   0.901   5.140
 1833SOL    HW2 6399   5.570   1.043   5.216
 1834SOL     OW 6400   3.160   3.874   0.067
 1834SOL    HW1 6401   3.169   3.788   0.118
 1834SOL    HW2 6402   3.100   3.859   7.007
 1835SOL     OW 6403   1.648   4.214   1.955
 1835SOL    HW1 6404   1.640   4.307   1.989
 1835SOL    HW2 6405   1.575   4.158   1.994
 1836SOL     OW 6406   6.060   1.558   0.913
 1836SOL    HW1 6407   6.007   1.571   0.997
 1836SOL    HW2 6408   6.090   1.648   0.879
 1837SOL     OW 6409   0.551   2.662   3.647
 1837SOL    HW1 6410   0.634   2.667   3.592
 1837SOL    HW2 6411   0.498   2.746   3.636
 1838SOL     OW 6412   0.249   2.064   3.794
 1838SOL    HW1 6413   0.220   2.116   3.715
 1838SOL    HW2 6414   0.343   2.089   3.818
 1839SOL     OW 6415   4.507   2.399   4.752
 1839SOL    HW1 6416   4.494   2.401   4.851
 1839SOL    HW2 6417   4.458   2.320   4.714
 1840SOL     OW 6418   3.702   6.045   1.639
 1840SOL    HW1 6419   3.651   6.122   1.601
 1840SOL    HW2 6420   3.800   6.061   1.627
 1841SOL     OW 6421   2.280   2.702   4.564
 1841SOL    HW1 6422   2.333   2.746   4.637
 1841SOL    HW2 6423   2.190   2.743   4.560
 1842SOL     OW 6424   1.283   5.752   0.451
 1842SOL    HW1 6425   1.295   5.847   0.481
 1842SOL    HW2 6426   1.373   5.710   0.437
 1843SOL     OW 6427   0.850   1.904   4.573
 1843SOL    HW1 6428   0.755   1.891   4.600
 1843SOL    HW2 6429   0.873   2.002   4.577
 1844SOL     OW 6430   3.670   0.538   5.503
 1844SOL    HW1 6431   3.695   0.457   5.556
 1844SOL    HW2 6432   3.694   0.525   5.407
 1845SOL     OW 6433   2.377   0.179   5.763
 1845SOL    HW1 6434   2.305   0.159   5.697
 1845SOL    HW2 6435   2.466   0.165   5.719
 1846SOL     OW 6436   3.690   1.941   0.055
 1846SOL    HW1 6437   3.621   1.996   0.009
 1846SOL    HW2 6438   3.645   1.875   0.116
 1847SOL     OW 6439   1.492   1.316   6.819
 1847SOL    HW1 6440   1.511   1.255   6.896
 1847SOL    HW2 6441   1.478   1.262   6.736
 1848SOL     OW 6442   1.781   6.433   2.200
 1848SOL    HW1 6443   1.781   6.462   2.104
 1848SOL    HW2 6444   1.862   6.378   2.218
 1849SOL     OW 6445   4.025   1.591   0.600
 1849SOL    HW1 6446   3.950   1.531   0.629
 1849SOL    HW2 6447   4.083   1.611   0.679
 1850SOL     OW 6448   6.583   2.819   2.832
 1850SOL    HW1 6449   6.604   2.912   2.802
 1850SOL    HW2 6450   6.669   2.772   2.857
 1851SOL     OW 6451   0.377   1.554   0.847
 1851SOL    HW1 6452   0.335   1.465   0.866
 1851SOL    HW2 6453   0.435   1.581   0.923
 1852SOL     OW 6454   5.424   3.834   1.279
 1852SOL    HW1 6455   5.433   3.746   1.231
 1852SOL    HW2 6456   5.332   3.870   1.266
 1853SOL     OW 6457   0.709   2.893   2.388
 1853SOL    HW1 6458   0.776   2.828   2.352
 1853SOL    HW2 6459   0.620   2.877   2.345
 1854SOL     OW 6460   2.955   5.625   3.555
 1854SOL    HW1 6461   3.037   5.570   3.534
 1854SOL    HW2 6462   2.881   5.564   3.582
 1855SOL     OW 6463   4.361   4.149   7.018
 1855SOL    HW1 6464   4.344   4.061   0.045
 1855SOL    HW2 6465   4.409   4.134   6.932
 1856SOL     OW 6466   6.552   3.486   5.253
 1856SOL    HW1 6467   6.644   3.452   5.272
 1856SOL    HW2 6468   6.534   3.566   5.311
 1857SOL     OW 6469   3.257   1.146   5.826
 1857SOL    HW1 6470   3.227   1.053   5.849
 1857SOL    HW2 6471   3.281   1.150   5.729
 1858SOL     OW 6472   6.259   2.877   3.785
 1858SOL    HW1 6473   6.184   2.927   3.742
 1858SOL    HW2 6474   6.235   2.780   3.790
 1859SOL     OW 6475   3.993   1.589   3.451
 1859SOL    HW1 6476   4.025   1.550   3.538
 1859SOL    HW2 6477   3.910   1.542   3.422
 1860SOL     OW 6478   6.135   0.482   3.869
 1860SOL    HW1 6479   6.067   0.443   3.807
 1860SOL    HW2 6480   6.211   0.418   3.879
 1861SOL     OW 6481   4.768   6.656   2.662
 1861SOL    HW1 6482   4.820   6.571   2.655
 1861SOL    HW2 6483   4.778   6.694   2.754
 1862SOL     OW 6484   2.197   0.167   6.492
 1862SOL    HW1 6485   2.208   0.265   6.478
 1862SOL    HW2 6486   2.112   0.136   6.450
 1863SOL     OW 6487   2.054   2.162   0.103
 1863SOL    HW1 6488   2.048   2.234   0.173
 1863SOL    HW2 6489   1.965   2.117   0.095
 1864SOL     OW 6490   1.526   6.592   5.640
 1864SOL    HW1 6491   1.478   6.593   5.727
 1864SOL    HW2 6492   1.540   6.497   5.611
 1865SOL     OW 6493   3.569   7.018   5.750
 1865SOL    HW1 6494   3.658   0.036   5.776
 1865SOL    HW2 6495   3.575   6.975   5.660
 1866SOL     OW 6496   4.189   4.838   3.078
 1866SOL    HW1 6497   4.199   4.892   2.995
 1866SOL    HW2 6498   4.242   4.879   3.152
 1867SOL     OW 6499   1.222   4.512   0.644
 1867SOL    HW1 6500   1.290   4.491   0.715
 1867SOL    HW2 6501   1.188   4.605   0.657
 1868SOL     OW 6502   4.542   4.035   0.743
 1868SOL    HW1 6503   4.504   3.979   0.817
 1868SOL    HW2 6504   4.641   4.043   0.754
 1869SOL     OW 6505   6.784   2.203   4.979
 1869SOL    HW1 6506   6.811   2.267   5.051
 1869SOL    HW2 6507   6.783   2.250   4.891
 1870SOL     OW 6508   1.868   3.549   5.880
 1870SOL    HW1 6509   1.900   3.479   5.944
 1870SOL    HW2 6510   1.781   3.587   5.914
 1871SOL     OW 6511   1.176   0.070   6.600
 1871SOL    HW1 6512   1.207   0.136   6.668
 1871SOL    HW2 6513   1.158   7.001   6.645
 1872SOL     OW 6514   3.521   3.115   6.841
 1872SOL    HW1 6515   3.584   3.183   6.879
 1872SOL    HW2 6516   3.428   3.149   6.847
 1873SOL     OW 6517   4.799   1.235   5.121
 1873SOL    HW1 6518   4.810   1.173   5.044
 1873SOL    HW2 6519   4.871   1.304   5.120
 1874SOL     OW 6520   2.421   0.935   0.739
 1874SOL    HW1 6521   2.428   0.995   0.660
 1874SOL    HW2 6522   2.377   0.984   0.815
 1875SOL     OW 6523   0.147   1.296   0.032
 1875SOL    HW1 6524   0.158   1.387   0.071
 1875SOL    HW2 6525   0.096   1.239   0.097
 1876SOL     OW 6526   3.647   0.437   5.921
 1876SOL    HW1 6527   3.662   0.367   5.991
 1876SOL    HW2 6528   3.551   0.438   5.894
 1877SOL     OW 6529   0.476   0.275   2.540
 1877SOL    HW1 6530   0.378   0.285   2.527
 1877SOL    HW2 6531   0.515   0.362   2.571
 1878SOL     OW 6532   6.580   1.570   3.935
 1878SOL    HW1 6533   6.494   1.579   3.885
 1878SOL    HW2 6534   6.582   1.638   4.009
 1879SOL     OW 6535   1.071   4.136   3.915
 1879SOL    HW1 6536   1.041   4.041   3.921
 1879SOL    HW2 6537   1.114   4.162   4.001
 1880SOL     OW 6538   6.893   1.545   5.032
 1880SOL    HW1 6539   6.827   1.603   4.983
 1880SOL    HW2 6540   6.845   1.488   5.098
 1881SOL     OW 6541   5.666   2.366   3.149
 1881SOL    HW1 6542   5.634   2.337   3.059
 1881SOL    HW2 6543   5.731   2.299   3.184
 1882SOL     OW 6544   0.884   4.337   6.450
 1882SOL    HW1 6545   0.900   4.238   6.454
 1882SOL    HW2 6546   0.972   4.384   6.440
 1883SOL     OW 6547   6.593   2.407   2.839
 1883SOL    HW1 6548   6.661   2.392   2.767
 1883SOL    HW2 6549   6.598   2.332   2.905
 1884SOL     OW 6550   0.172   1.938   0.248
 1884SOL    HW1 6551   0.200   1.845   0.274
 1884SOL    HW2 6552   0.248   1.986   0.205
 1885SOL     OW 6553   1.723   1.899   6.574
 1885SOL    HW1 6554   1.676   1.984   6.597
 1885SOL    HW2 6555   1.769   1.908   6.486
 1886SOL     OW 6556   1.285   0.411   2.151
 1886SOL    HW1 6557   1.295   0.314   2.130
 1886SOL    HW2 6558   1.309   0.465   2.071
 1887SOL     OW 6559   0.603   5.226   5.481
 1887SOL    HW1 6560   0.525   5.169   5.456
 1887SOL    HW2 6561   0.570   5.312   5.520
 1888SOL     OW 6562   3.274   2.620   6.651
 1888SOL    HW1 6563   3.270   2.559   6.572
 1888SOL    HW2 6564   3.193   2.679   6.651
 1889SOL     OW 6565   0.274   3.795   5.185
 1889SOL    HW1 6566   0.306   3.747   5.267
 1889SOL    HW2 6567   0.279   3.893   5.201
 1890SOL     OW 6568   1.667   5.621   4.073
 1890SOL    HW1 6569   1.648   5.687   4.000
 1890SOL    HW2 6570   1.763   5.625   4.098
 1891SOL     OW 6571   4.663   2.646   1.639
 1891SOL    HW1 6572   4.615   2.702   1.571
 1891SOL    HW2 6573   4.636   2.550   1.627
 1892SOL     OW 6574   0.726   6.561   2.341
 1892SOL    HW1 6575   0.774   6.485   2.296
 1892SOL    HW2 6576   0.642   6.581   2.291
 1893SOL     OW 6577   3.421   2.795   1.919
 1893SOL    HW1 6578   3.445   2.889   1.894
 1893SOL    HW2 6579   3.326   2.777   1.892
 1894SOL     OW 6580   3.883   3.265   3.603
 1894SOL    HW1 6581   3.918   3.181   3.562
 1894SOL    HW2 6582   3.790   3.250   3.637
 1895SOL     OW 6583   4.288   6.998   0.718
 1895SOL    HW1 6584   4.226   7.017   0.642
 1895SOL    HW2 6585   4.255   0.025   0.800
 1896SOL     OW 6586   5.892   1.984   1.356
 1896SOL    HW1 6587   5.812   1.959   1.410
 1896SOL    HW2 6588   5.966   1.919   1.374
 1897SOL     OW 6589   2.217   5.302   1.743
 1897SOL    HW1 6590   2.288   5.353   1.792
 1897SOL    HW2 6591   2.153   5.367   1.701
 1898SOL     OW 6592   2.025   4.734   3.609
 1898SOL    HW1 6593   2.106   4.687   3.641
 1898SOL    HW2 6594   1.949   4.669   3.600
 1899SOL     OW 6595   0.271   1.787   0.783
 1899SOL    HW1 6596   0.307   1.695   0.798
 1899SOL    HW2 6597   0.248   1.829   0.870
 1900SOL     OW 6598   2.215   0.652   6.974
 1900SOL    HW1 6599   2.137   0.713   6.964
 1900SOL    HW2 6600   2.187   0.558   6.956
 1901SOL     OW 6601   2.315   2.028   0.805
 1901SOL    HW1 6602   2.400   2.022   0.857
 1901SOL    HW2 6603   2.297   1.941   0.760
 1902SOL     OW 6604   2.310   1.051   4.275
 1902SOL    HW1 6605   2.325   1.054   4.374
 1902SOL    HW2 6606   2.302   0.956   4.245
 1903SOL     OW 6607   0.753   3.022   3.214
 1903SOL    HW1 6608   0.820   3.038   3.142
 1903SOL    HW2 6609   0.772   2.934   3.257
 1904SOL     OW 6610   5.509   5.108   3.203
 1904SOL    HW1 6611   5.580   5.121   3.273
 1904SOL    HW2 6612   5.465   5.195   3.183
 1905SOL     OW 6613   0.792   0.212   3.434
 1905SOL    HW1 6614   0.789   0.278   3.359
 1905SOL    HW2 6615   0.863   0.239   3.500
 1906SOL     OW 6616   3.253   0.752   5.614
 1906SOL    HW1 6617   3.247   0.692   5.534
 1906SOL    HW2 6618   3.348   0.766   5.639
 1907SOL     OW 6619   4.213   2.280   1.322
 1907SOL    HW1 6620   4.167   2.204   1.275
 1907SOL    HW2 6621   4.202   2.269   1.421
 1908SOL     OW 6622   3.658   6.188   6.500
 1908SOL    HW1 6623   3.749   6.192   6.457
 1908SOL    HW2 6624   3.603   6.265   6.469
 1909SOL     OW 6625   0.766   3.277   3.504
 1909SOL    HW1 6626   0.765   3.372   3.536
 1909SOL    HW2 6627   0.685   3.261   3.447
 1910SOL     OW 6628   6.977   5.564   5.556
 1910SOL    HW1 6629   6.932   5.495   5.500
 1910SOL    HW2 6630   6.950   5.655   5.526
 1911SOL     OW 6631   0.077   3.664   4.581
 1911SOL    HW1 6632   0.107   3.744   4.529
 1911SOL    HW2 6633   0.142   3.648   4.656
 1912SOL     OW 6634   2.995   5.912   1.745
 1912SOL    HW1 6635   3.032   5.830   1.703
 1912SOL    HW2 6636   3.071   5.968   1.779
 1913SOL     OW 6637   2.929   0.882   5.044
 1913SOL    HW1 6638   2.974   0.835   5.120
 1913SOL    HW2 6639   2.830   0.875   5.056
 1914SOL     OW 6640   3.442   3.383   0.204
 1914SOL    HW1 6641   3.503   3.305   0.216
 1914SOL    HW2 6642   3.446   3.440   0.286
 1915SOL     OW 6643   4.792   2.863   6.127
 1915SOL    HW1 6644   4.799   2.901   6.219
 1915SOL    HW2 6645   4.701   2.882   6.089
 1916SOL     OW 6646   4.750   6.197   0.934
 1916SOL    HW1 6647   4.749   6.236   1.026
 1916SOL    HW2 6648   4.710   6.262   0.870
 1917SOL     OW 6649   2.136   3.444   0.299
 1917SOL    HW1 6650   2.110   3.350   0.323
 1917SOL    HW2 6651   2.170   3.445   0.205
 1918SOL     OW 6652   0.498   0.820   4.734
 1918SOL    HW1 6653   0.571   0.843   4.669
 1918SOL    HW2 6654   0.420   0.881   4.719
 1919SOL     OW 6655   1.812   1.396   1.601
 1919SOL    HW1 6656   1.761   1.414   1.517
 1919SOL    HW2 6657   1.837   1.483   1.644
 1920SOL     OW 6658   6.312   3.731   2.954
 1920SOL    HW1 6659   6.399   3.773   2.928
 1920SOL    HW2 6660   6.327   3.636   2.979
 1921SOL     OW 6661   1.905   2.656   0.241
 1921SOL    HW1 6662   1.813   2.618   0.231
 1921SOL    HW2 6663   1.938   2.690   0.153
 1922SOL     OW 6664   2.877   3.418   1.832
 1922SOL    HW1 6665   2.904   3.335   1.880
 1922SOL    HW2 6666   2.807   3.397   1.764
 1923SOL     OW 6667   4.006   1.727   6.757
 1923SOL    HW1 6668   4.092   1.737   6.807
 1923SOL    HW2 6669   4.024   1.680   6.670
 1924SOL     OW 6670   4.791   7.014   0.601
 1924SOL    HW1 6671   4.701   0.036   0.612
 1924SOL    HW2 6672   4.792   6.922   0.642
 1925SOL     OW 6673   1.234   5.045   1.640
 1925SOL    HW1 6674   1.203   5.066   1.547
 1925SOL    HW2 6675   1.333   5.032   1.640
 1926SOL     OW 6676   2.956   0.217   2.022
 1926SOL    HW1 6677   2.913   0.159   2.092
 1926SOL    HW2 6678   3.047   0.182   2.001
 1927SOL     OW 6679   2.530   3.757   0.457
 1927SOL    HW1 6680   2.559   3.678   0.402
 1927SOL    HW2 6681   2.535   3.734   0.554
 1928SOL     OW 6682   5.420   4.797   4.310
 1928SOL    HW1 6683   5.425   4.751   4.221
 1928SOL    HW2 6684   5.442   4.731   4.382
 1929SOL     OW 6685   2.169   0.649   1.999
 1929SOL    HW1 6686   2.156   0.574   2.065
 1929SOL    HW2 6687   2.209   0.728   2.046
 1930SOL     OW 6688   5.394   2.867   6.918
 1930SOL    HW1 6689   5.356   2.814   6.994
 1930SOL    HW2 6690   5.474   2.918   6.950
 1931SOL     OW 6691   1.017   2.201   6.858
 1931SOL    HW1 6692   0.946   2.268   6.881
 1931SOL    HW2 6693   1.001   2.117   6.909
 1932SOL     OW 6694   5.092   2.641   3.477
 1932SOL    HW1 6695   5.085   2.648   3.577
 1932SOL    HW2 6696   5.081   2.732   3.437
 1933SOL     OW 6697   0.914   2.366   0.630
 1933SOL    HW1 6698   0.876   2.298   0.567
 1933SOL    HW2 6699   0.937   2.449   0.580
 1934SOL     OW 6700   0.426   1.002   5.333
 1934SOL    HW1 6701   0.467   1.059   5.404
 1934SOL    HW2 6702   0.485   0.925   5.313
 1935SOL     OW 6703   4.268   4.926   3.753
 1935SOL    HW1 6704   4.353   4.978   3.766
 1935SOL    HW2 6705   4.196   4.987   3.720
 1936SOL     OW 6706   4.887   3.769   4.136
 1936SOL    HW1 6707   4.871   3.867   4.148
 1936SOL    HW2 6708   4.872   3.744   4.041
 1937SOL     OW 6709   4.434   6.282   0.120
 1937SOL    HW1 6710   4.369   6.356   0.101
 1937SOL    HW2 6711   4.411   6.202   0.065
 1938SOL     OW 6712   0.701   2.123   0.839
 1938SOL    HW1 6713   0.701   2.222   0.829
 1938SOL    HW2 6714   0.645   2.082   0.767
 1939SOL     OW 6715   0.538   6.076   4.313
 1939SOL    HW1 6716   0.489   6.136   4.250
 1939SOL    HW2 6717   0.544   5.984   4.273
 1940SOL     OW 6718   5.713   4.404   1.401
 1940SOL    HW1 6719   5.771   4.407   1.483
 1940SOL    HW2 6720   5.617   4.417   1.428
 1941SOL     OW 6721   0.949   3.086   3.552
 1941SOL    HW1 6722   0.915   3.025   3.624
 1941SOL    HW2 6723   0.877   3.150   3.526
 1942SOL     OW 6724   5.434   4.076   2.754
 1942SOL    HW1 6725   5.430   3.976   2.754
 1942SOL    HW2 6726   5.497   4.107   2.682
 1943SOL     OW 6727   1.227   1.714   2.776
 1943SOL    HW1 6728   1.236   1.813   2.779
 1943SOL    HW2 6729   1.284   1.673   2.847
 1944SOL     OW 6730   6.460   4.389   6.575
 1944SOL    HW1 6731   6.406   4.323   6.522
 1944SOL    HW2 6732   6.531   4.341   6.626
 1945SOL     OW 6733   3.821   6.656   1.285
 1945SOL    HW1 6734   3.736   6.610   1.258
 1945SOL    HW2 6735   3.825   6.662   1.385
 1946SOL     OW 6736   6.016   6.342   1.727
 1946SOL    HW1 6737   6.023   6.316   1.631
 1946SOL    HW2 6738   5.994   6.440   1.734
 1947SOL     OW 6739   6.193   5.652   4.347
 1947SOL    HW1 6740   6.131   5.688   4.417
 1947SOL    HW2 6741   6.284   5.640   4.385
 1948SOL     OW 6742   5.829   4.836   2.650
 1948SOL    HW1 6743   5.746   4.847   2.596
 1948SOL    HW2 6744   5.813   4.867   2.744
 1949SOL     OW 6745   3.947   4.078   0.361
 1949SOL    HW1 6746   4.044   4.103   0.356
 1949SOL    HW2 6747   3.922   4.064   0.457
 1950SOL     OW 6748   4.079   3.385   3.357
 1950SOL    HW1 6749   4.148   3.383   3.430
 1950SOL    HW2 6750   4.035   3.475   3.356
 1951SOL     OW 6751   6.717   4.274   5.695
 1951SOL    HW1 6752   6.792   4.208   5.692
 1951SOL    HW2 6753   6.645   4.239   5.756
 1952SOL     OW 6754   5.252   4.733   1.508
 1952SOL    HW1 6755   5.291   4.808   1.562
 1952SOL    HW2 6756   5.304   4.722   1.424
 1953SOL     OW 6757   0.151   1.512   6.179
 1953SOL    HW1 6758   0.215   1.563   6.122
 1953SOL    HW2 6759   0.147   1.417   6.148
 1954SOL     OW 6760   5.528   0.461   1.744
 1954SOL    HW1 6761   5.505   0.463   1.647
 1954SOL    HW2 6762   5.444   0.466   1.799
 1955SOL     OW 6763   0.021   1.341   1.257
 1955SOL    HW1 6764   0.110   1.295   1.268
 1955SOL    HW2 6765   6.991   1.301   1.180
 1956SOL     OW 6766   4.653   0.025   2.689
 1956SOL    HW1 6767   4.748   7.011   2.683
 1956SOL    HW2 6768   4.603   7.013   2.608
 1957SOL     OW 6769   5.333   3.305   4.123
 1957SOL    HW1 6770   5.293   3.268   4.206
 1957SOL    HW2 6771   5.384   3.233   4.075
 1958SOL     OW 6772   4.775   1.715   1.467
 1958SOL    HW1 6773   4.761   1.697   1.370
 1958SOL    HW2 6774   4.797   1.812   1.481
 1959SOL     OW 6775   6.439   6.414   4.086
 1959SOL    HW1 6776   6.471   6.396   3.993
 1959SOL    HW2 6777   6.342   6.392   4.093
 1960SOL     OW 6778   6.985   2.795   3.050
 1960SOL    HW1 6779   6.926   2.867   3.087
 1960SOL    HW2 6780   6.958   2.775   2.956
 1961SOL     OW 6781   6.393   4.318   4.191
 1961SOL    HW1 6782   6.377   4.373   4.272
 1961SOL    HW2 6783   6.488   4.285   4.191
 1962SOL     OW 6784   1.204   6.008   2.490
 1962SOL    HW1 6785   1.177   5.982   2.397
 1962SOL    HW2 6786   1.254   6.095   2.487
 1963SOL     OW 6787   0.776   1.773   1.142
 1963SOL    HW1 6788   0.834   1.695   1.166
 1963SOL    HW2 6789   0.772   1.782   1.043
 1964SOL     OW 6790   5.114   4.643   1.848
 1964SOL    HW1 6791   5.170   4.691   1.915
 1964SOL    HW2 6792   5.083   4.708   1.778
 1965SOL     OW 6793   1.286   3.406   3.999
 1965SOL    HW1 6794   1.274   3.348   4.079
 1965SOL    HW2 6795   1.336   3.357   3.928
 1966SOL     OW 6796   1.649   4.677   1.057
 1966SOL    HW1 6797   1.679   4.751   1.117
 1966SOL    HW2 6798   1.678   4.589   1.095
 1967SOL     OW 6799   6.998   2.357   3.875
 1967SOL    HW1 6800   0.071   2.393   3.858
 1967SOL    HW2 6801   6.934   2.394   3.808
 1968SOL     OW 6802   2.488   0.944   5.529
 1968SOL    HW1 6803   2.415   1.012   5.525
 1968SOL    HW2 6804   2.543   0.960   5.612
 1969SOL     OW 6805   2.973   0.822   1.991
 1969SOL    HW1 6806   2.894   0.882   1.986
 1969SOL    HW2 6807   3.055   0.875   2.010
 1970SOL     OW 6808   6.846   6.705   5.473
 1970SOL    HW1 6809   6.851   6.662   5.563
 1970SOL    HW2 6810   6.753   6.696   5.437
 1971SOL     OW 6811   0.451   0.281   5.382
 1971SOL    HW1 6812   0.536   0.229   5.376
 1971SOL    HW2 6813   0.471   0.373   5.415
 1972SOL     OW 6814   5.391   2.275   1.377
 1972SOL    HW1 6815   5.426   2.193   1.421
 1972SOL    HW2 6816   5.295   2.288   1.401
 1973SOL     OW 6817   2.396   3.866   1.676
 1973SOL    HW1 6818   2.347   3.877   1.589
 1973SOL    HW2 6819   2.434   3.954   1.703
 1974SOL     OW 6820   4.688   6.792   4.385
 1974SOL    HW1 6821   4.596   6.764   4.355
 1974SOL    HW2 6822   4.682   6.878   4.436
 1975SOL     OW 6823   2.007   2.955   4.142
 1975SOL    HW1 6824   2.083   3.016   4.122
 1975SOL    HW2 6825   2.007   2.879   4.077
 1976SOL     OW 6826   5.709   7.017   6.730
 1976SOL    HW1 6827   5.682   0.069   6.795
 1976SOL    HW2 6828   5.630   6.963   6.702
 1977SOL     OW 6829   2.602   3.549   6.005
 1977SOL    HW1 6830   2.532   3.505   5.948
 1977SOL    HW2 6831   2.606   3.646   5.984
 1978SOL     OW 6832   1.863   5.827   3.211
 1978SOL    HW1 6833   1.785   5.870   3.165
 1978SOL    HW2 6834   1.831   5.751   3.267
 1979SOL     OW 6835   6.062   4.944   6.943
 1979SOL    HW1 6836   6.030   5.029   6.900
 1979SOL    HW2 6837   6.050   4.868   6.879
 1980SOL     OW 6838   3.455   0.496   2.595
 1980SOL    HW1 6839   3.507   0.420   2.633
 1980SOL    HW2 6840   3.358   0.470   2.588
 1981SOL     OW 6841   5.381   2.623   2.515
 1981SOL    HW1 6842   5.324   2.588   2.589
 1981SOL    HW2 6843   5.341   2.706   2.478
 1982SOL     OW 6844   6.851   4.034   4.037
 1982SOL    HW1 6845   6.867   4.074   3.947
 1982SOL    HW2 6846   6.852   4.105   4.107
 1983SOL     OW 6847   0.650   0.069   0.773
 1983SOL    HW1 6848   0.680   0.058   0.868
 1983SOL    HW2 6849   0.553   0.050   0.766
 1984SOL     OW 6850   5.312   2.487   5.305
 1984SOL    HW1 6851   5.259   2.403   5.291
 1984SOL    HW2 6852   5.325   2.533   5.217
 1985SOL     OW 6853   6.578   5.406   1.785
 1985SOL    HW1 6854   6.657   5.377   1.838
 1985SOL    HW2 6855   6.509   5.443   1.847
 1986SOL     OW 6856   2.704   1.032   6.648
 1986SOL    HW1 6857   2.610   1.054   6.673
 1986SOL    HW2 6858   2.756   1.117   6.637
 1987SOL     OW 6859   1.948   1.368   3.856
 1987SOL    HW1 6860   1.933   1.431   3.780
 1987SOL    HW2 6861   1.935   1.274   3.825
 1988SOL     OW 6862   6.605   1.363   1.170
 1988SOL    HW1 6863   6.583   1.307   1.090
 1988SOL    HW2 6864   6.616   1.459   1.143
 1989SOL     OW 6865   2.933   6.001   4.668
 1989SOL    HW1 6866   2.905   6.026   4.760
 1989SOL    HW2 6867   2.852   5.986   4.611
 1990SOL     OW 6868   4.032   6.874   0.589
 1990SOL    HW1 6869   4.001   6.840   0.679
 1990SOL    HW2 6870   4.110   6.819   0.558
 1991SOL     OW 6871   2.471   4.869   0.132
 1991SOL    HW1 6872   2.494   4.912   0.045
 1991SOL    HW2 6873   2.551   4.869   0.192
 1992SOL     OW 6874   0.017   6.904   0.908
 1992SOL    HW1 6875   0.111   6.874   0.890
 1992SOL    HW2 6876   6.987   6.916   0.822
 1993SOL     OW 6877   2.821   2.038   4.363
 1993SOL    HW1 6878   2.884   2.000   4.431
 1993SOL    HW2 6879   2.727   2.032   4.398
 1994SOL     OW 6880   4.882   1.974   0.875
 1994SOL    HW1 6881   4.864   1.971   0.974
 1994SOL    HW2 6882   4.874   1.881   0.838
 1995SOL     OW 6883   5.721   3.020   4.483
 1995SOL    HW1 6884   5.744   2.923   4.495
 1995SOL    HW2 6885   5.742   3.047   4.389
 1996SOL     OW 6886   2.667   1.561   1.437
 1996SOL    HW1 6887   2.600   1.518   1.498
 1996SOL    HW2 6888   2.651   1.659   1.435
 1997SOL     OW 6889   3.160   1.510   4.200
 1997SOL    HW1 6890   3.196   1.584   4.257
 1997SOL    HW2 6891   3.063   1.499   4.218
 1998SOL     OW 6892   1.289   3.482   0.977
 1998SOL    HW1 6893   1.383   3.446   0.972
 1998SOL    HW2 6894   1.232   3.418   1.029
 1999SOL     OW 6895   7.018   1.090   4.653
 1999SOL    HW1 6896   7.007   1.188   4.667
 1999SOL    HW2 6897   6.939   1.054   4.603
 2000SOL     OW 6898   4.089   3.581   5.880
 2000SOL    HW1 6899   4.023   3.596   5.954
 2000SOL    HW2 6900   4.181   3.586   5.917
 2001SOL     OW 6901   1.277   1.509   6.883
 2001SOL    HW1 6902   1.247   1.518   6.978
 2001SOL    HW2 6903   1.335   1.428   6.874
 2002SOL     OW 6904   0.923   5.657   0.768
 2002SOL    HW1 6905   0.966   5.592   0.829
 2002SOL    HW2 6906   0.824   5.658   0.785
 2003SOL     OW 6907   6.133   5.310   2.193
 2003SOL    HW1 6908   6.199   5.366   2.141
 2003SOL    HW2 6909   6.086   5.247   2.131
 2004SOL     OW 6910   4.496   0.925   3.741
 2004SOL    HW1 6911   4.470   0.832   3.768
 2004SOL    HW2 6912   4.596   0.932   3.739
 2005SOL     OW 6913   6.788   6.008   0.219
 2005SOL    HW1 6914   6.693   6.031   0.243
 2005SOL    HW2 6915   6.807   5.914   0.245
 2006SOL     OW 6916   5.191   0.188   4.352
 2006SOL    HW1 6917   5.102   0.156   4.383
 2006SOL    HW2 6918   5.182   0.232   4.263
 2007SOL     OW 6919   5.236   4.227   1.462
 2007SOL    HW1 6920   5.331   4.204   1.440
 2007SOL    HW2 6921   5.231   4.320   1.497
 2008SOL     OW 6922   2.150   3.449   4.118
 2008SOL    HW1 6923   2.136   3.513   4.042
 2008SOL    HW2 6924   2.127   3.495   4.204
 2009SOL     OW 6925   5.498   6.069   1.719
 2009SOL    HW1 6926   5.416   6.100   1.767
 2009SOL    HW2 6927   5.575   6.129   1.741
 2010SOL     OW 6928   1.617   1.884   1.427
 2010SOL    HW1 6929   1.614   1.979   1.458
 2010SOL    HW2 6930   1.606   1.823   1.506
 2011SOL     OW 6931   6.849   0.126   5.549
 2011SOL    HW1 6932   6.774   0.098   5.491
 2011SOL    HW2 6933   6.917   0.176   5.495
 2012SOL     OW 6934   1.690   3.890   2.155
 2012SOL    HW1 6935   1.710   3.881   2.058
 2012SOL    HW2 6936   1.774   3.876   2.208
 2013SOL     OW 6937   0.110   3.190   3.200
 2013SOL    HW1 6938   0.024   3.221   3.161
 2013SOL    HW2 6939   0.100   3.179   3.299
 2014SOL     OW 6940   3.023   0.362   3.120
 2014SOL    HW1 6941   2.934   0.380   3.163
 2014SOL    HW2 6942   3.009   0.310   3.036
 2015SOL     OW 6943   3.620   0.261   0.928
 2015SOL    HW1 6944   3.709   0.287   0.965
 2015SOL    HW2 6945   3.623   0.261   0.828
 2016SOL     OW 6946   1.488   6.041   5.655
 2016SOL    HW1 6947   1.453   6.012   5.744
 2016SOL    HW2 6948   1.528   5.962   5.607
 2017SOL     OW 6949   4.142   0.408   3.682
 2017SOL    HW1 6950   4.221   0.469   3.677
 2017SOL    HW2 6951   4.128   0.378   3.777
 2018SOL     OW 6952   6.850   2.173   3.507
 2018SOL    HW1 6953   6.904   2.090   3.524
 2018SOL    HW2 6954   6.767   2.170   3.562
 2019SOL     OW 6955   6.340   4.575   6.758
 2019SOL    HW1 6956   6.365   4.523   6.676
 2019SOL    HW2 6957   6.317   4.669   6.732
 2020SOL     OW 6958   1.019   5.836   6.207
 2020SOL    HW1 6959   1.064   5.849   6.295
 2020SOL    HW2 6960   0.920   5.831   6.220
 2021SOL     OW 6961   6.214   6.668   3.255
 2021SOL    HW1 6962   6.191   6.729   3.332
 2021SOL    HW2 6963   6.146   6.679   3.183
 2022SOL     OW 6964   1.605   4.134   5.138
 2022SOL    HW1 6965   1.552   4.206   5.183
 2022SOL    HW2 6966   1.702   4.145   5.161
 2023SOL     OW 6967   0.241   6.527   6.635
 2023SOL    HW1 6968   0.257   6.623   6.613
 2023SOL    HW2 6969   0.169   6.520   6.703
 2024SOL     OW 6970   0.616   5.843   4.211
 2024SOL    HW1 6971   0.624   5.833   4.112
 2024SOL    HW2 6972   0.586   5.757   4.251
 2025SOL     OW 6973   2.979   0.802   3.433
 2025SOL    HW1 6974   3.070   0.794   3.475
 2025SOL    HW2 6975   2.916   0.739   3.479
 2026SOL     OW 6976   6.005   1.132   6.234
 2026SOL    HW1 6977   6.063   1.205   6.198
 2026SOL    HW2 6978   5.982   1.067   6.161
 2027SOL     OW 6979   0.769   5.896   1.752
 2027SOL    HW1 6980   0.745   5.816   1.698
 2027SOL    HW2 6981   0.818   5.868   1.834
 2028SOL     OW 6982   3.851   5.774   2.924
 2028SOL    HW1 6983   3.782   5.840   2.894
 2028SOL    HW2 6984   3.942   5.812   2.910
 2029SOL     OW 6985   6.597   1.442   6.914
 2029SOL    HW1 6986   6.601   1.426   7.013
 2029SOL    HW2 6987   6.505   1.471   6.889
 2030SOL     OW 6988   3.012   6.381   2.525
 2030SOL    HW1 6989   2.993   6.450   2.455
 2030SOL    HW2 6990   2.971   6.294   2.498
 2031SOL     OW 6991   6.877   5.624   2.341
 2031SOL    HW1 6992   6.862   5.720   2.318
 2031SOL    HW2 6993   6.959   5.617   2.398
 2032SOL     OW 6994   3.563   1.688   0.147
 2032SOL    HW1 6995   3.564   1.648   0.238
 2032SOL    HW2 6996   3.546   1.616   0.079
 2033SOL     OW 6997   1.525   1.069   0.446
 2033SOL    HW1 6998   1.494   0.980   0.481
 2033SOL    HW2 6999   1.596   1.055   0.377
 2034SOL     OW 7000   1.522   5.056   5.378
 2034SOL    HW1 7001   1.448   4.989   5.383
 2034SOL    HW2 7002   1.591   5.036   5.448
 2035SOL     OW 7003   6.822   0.329   2.297
 2035SOL    HW1 7004   6.760   0.266   2.251
 2035SOL    HW2 7005   6.915   0.313   2.266
 2036SOL     OW 7006   1.039   3.284   3.349
 2036SOL    HW1 7007   0.997   3.298   3.259
 2036SOL    HW2 7008   1.044   3.186   3.368
 2037SOL     OW 7009   0.059   2.800   6.166
 2037SOL    HW1 7010   0.099   2.771   6.079
 2037SOL    HW2 7011   0.063   2.725   6.231
 2038SOL     OW 7012   2.683   1.181   0.012
 2038SOL    HW1 7013   2.652   1.170   0.106
 2038SOL    HW2 7014   2.722   1.272   0.000
 2039SOL     OW 7015   0.085   5.682   1.788
 2039SOL    HW1 7016   0.079   5.758   1.724
 2039SOL    HW2 7017   0.031   5.702   1.870
 2040SOL     OW 7018   2.000   2.666   6.999
 2040SOL    HW1 7019   1.973   2.570   7.003
 2040SOL    HW2 7020   2.092   2.673   6.960
 2041SOL     OW 7021   2.160   6.573   5.433
 2041SOL    HW1 7022   2.170   6.622   5.520
 2041SOL    HW2 7023   2.123   6.635   5.364
 2042SOL     OW 7024   5.318   0.177   5.997
 2042SOL    HW1 7025   5.306   0.274   6.016
 2042SOL    HW2 7026   5.311   0.125   6.082
 2043SOL     OW 7027   6.433   2.637   1.686
 2043SOL    HW1 7028   6.505   2.649   1.618
 2043SOL    HW2 7029   6.471   2.597   1.769
 2044SOL     OW 7030   5.894   1.019   1.671
 2044SOL    HW1 7031   5.868   0.933   1.716
 2044SOL    HW2 7032   5.811   1.070   1.648
 2045SOL     OW 7033   1.555   5.417   5.557
 2045SOL    HW1 7034   1.492   5.340   5.547
 2045SOL    HW2 7035   1.535   5.486   5.488
 2046SOL     OW 7036   0.094   1.610   5.638
 2046SOL    HW1 7037   0.185   1.645   5.618
 2046SOL    HW2 7038   0.057   1.653   5.720
 2047SOL     OW 7039   6.338   2.054   0.926
 2047SOL    HW1 7040   6.412   2.004   0.971
 2047SOL    HW2 7041   6.338   2.149   0.957
 2048SOL     OW 7042   0.588   1.924   4.613
 2048SOL    HW1 7043   0.534   1.862   4.557
 2048SOL    HW2 7044   0.563   1.912   4.710
 2049SOL     OW 7045   4.608   1.300   4.606
 2049SOL    HW1 7046   4.664   1.378   4.578
 2049SOL    HW2 7047   4.531   1.333   4.661
 2050SOL     OW 7048   0.233   1.912   4.356
 2050SOL    HW1 7049   0.274   1.906   4.265
 2050SOL    HW2 7050   0.203   2.006   4.373
 2051SOL     OW 7051   2.278   6.493   0.201
 2051SOL    HW1 7052   2.320   6.494   0.291
 2051SOL    HW2 7053   2.189   6.448   0.206
 2052SOL     OW 7054   1.600   3.103   0.788
 2052SOL    HW1 7055   1.678   3.151   0.827
 2052SOL    HW2 7056   1.613   3.004   0.798
 2053SOL     OW 7057   0.959   5.356   4.551
 2053SOL    HW1 7058   0.999   5.307   4.628
 2053SOL    HW2 7059   0.862   5.330   4.542
 2054SOL     OW 7060   3.572   2.890   2.126
 2054SOL    HW1 7061   3.657   2.850   2.161
 2054SOL    HW2 7062   3.531   2.828   2.059
 2055SOL     OW 7063   0.173   2.564   5.089
 2055SOL    HW1 7064   0.207   2.571   5.182
 2055SOL    HW2 7065   0.250   2.551   5.026
 2056SOL     OW 7066   4.152   4.842   0.780
 2056SOL    HW1 7067   4.221   4.886   0.838
 2056SOL    HW2 7068   4.197   4.787   0.710
 2057SOL     OW 7069   5.637   2.829   4.186
 2057SOL    HW1 7070   5.638   2.741   4.234
 2057SOL    HW2 7071   5.730   2.864   4.178
 2058SOL     OW 7072   0.654   5.918   2.915
 2058SOL    HW1 7073   0.662   5.979   2.994
 2058SOL    HW2 7074   0.702   5.957   2.837
 2059SOL     OW 7075   2.546   0.306   5.480
 2059SOL    HW1 7076   2.578   0.220   5.440
 2059SOL    HW2 7077   2.447   0.302   5.492
 2060SOL     OW 7078   0.993   3.273   0.392
 2060SOL    HW1 7079   1.032   3.184   0.418
 2060SOL    HW2 7080   0.966   3.270   0.296
 2061SOL     OW 7081   1.974   2.870   2.583
 2061SOL    HW1 7082   1.888   2.916   2.605
 2061SOL    HW2 7083   1.998   2.806   2.657
 2062SOL     OW 7084   6.634   4.871   5.203
 2062SOL    HW1 7085   6.733   4.863   5.211
 2062SOL    HW2 7086   6.591   4.829   5.283
 2063SOL     OW 7087   1.473   6.231   5.297
 2063SOL    HW1 7088   1.399   6.248   5.362
 2063SOL    HW2 7089   1.454   6.147   5.246
 2064SOL     OW 7090   0.920   3.917   4.087
 2064SOL    HW1 7091   0.866   3.904   4.170
 2064SOL    HW2 7092   0.877   3.867   4.011
 2065SOL     OW 7093   5.454   2.954   5.364
 2065SOL    HW1 7094   5.469   2.865   5.321
 2065SOL    HW2 7095   5.358   2.979   5.355
 2066SOL     OW 7096   5.946   3.643   5.665
 2066SOL    HW1 7097   6.026   3.589   5.691
 2066SOL    HW2 7098   5.889   3.590   5.603
 2067SOL     OW 7099   6.401   4.703   1.857
 2067SOL    HW1 7100   6.357   4.619   1.888
 2067SOL    HW2 7101   6.365   4.729   1.767
 2068SOL     OW 7102   3.640   1.252   4.308
 2068SOL    HW1 7103   3.725   1.223   4.352
 2068SOL    HW2 7104   3.660   1.327   4.244
 2069SOL     OW 7105   0.005   1.841   4.556
 2069SOL    HW1 7106   0.092   1.872   4.518
 2069SOL    HW2 7107   6.948   1.893   4.515
 2070SOL     OW 7108   1.309   2.969   1.614
 2070SOL    HW1 7109   1.350   3.048   1.660
 2070SOL    HW2 7110   1.212   2.986   1.596
 2071SOL     OW 7111   6.558   1.271   6.190
 2071SOL    HW1 7112   6.544   1.300   6.285
 2071SOL    HW2 7113   6.554   1.171   6.185
 2072SOL     OW 7114   3.979   4.722   5.231
 2072SOL    HW1 7115   3.919   4.784   5.282
 2072SOL    HW2 7116   4.052   4.774   5.187
 2073SOL     OW 7117   3.508   6.351   6.339
 2073SOL    HW1 7118   3.478   6.314   6.251
 2073SOL    HW2 7119   3.542   6.444   6.326
 2074SOL     OW 7120   1.555   3.406   5.859
 2074SOL    HW1 7121   1.496   3.362   5.928
 2074SOL    HW2 7122   1.641   3.356   5.852
 2075SOL     OW 7123   6.923   2.575   2.065
 2075SOL    HW1 7124   7.014   2.613   2.047
 2075SOL    HW2 7125   6.853   2.639   2.035
 2076SOL     OW 7126   6.052   0.202   5.066
 2076SOL    HW1 7127   6.016   0.255   5.143
 2076SOL    HW2 7128   6.150   0.221   5.056
 2077SOL     OW 7129   0.644   2.854   1.227
 2077SOL    HW1 7130   0.549   2.880   1.204
 2077SOL    HW2 7131   0.655   2.755   1.215
 2078SOL     OW 7132   1.747   4.694   5.562
 2078SOL    HW1 7133   1.739   4.614   5.622
 2078SOL    HW2 7134   1.790   4.667   5.476
 2079SOL     OW 7135   5.013   1.051   1.960
 2079SOL    HW1 7136   5.080   1.023   2.030
 2079SOL    HW2 7137   5.020   1.149   1.944
 2080SOL     OW 7138   2.741   2.169   4.794
 2080SOL    HW1 7139   2.663   2.118   4.759
 2080SOL    HW2 7140   2.711   2.259   4.824
 2081SOL     OW 7141   0.182   6.589   3.258
 2081SOL    HW1 7142   0.259   6.598   3.196
 2081SOL    HW2 7143   0.181   6.496   3.296
 2082SOL     OW 7144   0.714   6.194   2.607
 2082SOL    HW1 7145   0.756   6.150   2.687
 2082SOL    HW2 7146   0.784   6.210   2.537
 2083SOL     OW 7147   0.450   6.302   3.587
 2083SOL    HW1 7148   0.357   6.299   3.624
 2083SOL    HW2 7149   0.477   6.210   3.557
 2084SOL     OW 7150   1.069   1.518   1.407
 2084SOL    HW1 7151   1.142   1.476   1.461
 2084SOL    HW2 7152   0.993   1.543   1.467
 2085SOL     OW 7153   5.193   5.923   0.401
 2085SOL    HW1 7154   5.235   5.836   0.375
 2085SOL    HW2 7155   5.105   5.906   0.445
 2086SOL     OW 7156   3.883   6.755   0.015
 2086SOL    HW1 7157   3.897   6.694   6.956
 2086SOL    HW2 7158   3.807   6.817   7.014
 2087SOL     OW 7159   4.066   2.251   6.898
 2087SOL    HW1 7160   4.090   2.225   6.804
 2087SOL    HW2 7161   4.017   2.175   6.942
 2088SOL     OW 7162   0.263   5.798   5.883
 2088SOL    HW1 7163   0.166   5.811   5.866
 2088SOL    HW2 7164   0.304   5.884   5.914
 2089SOL     OW 7165   4.130   2.643   5.379
 2089SOL    HW1 7166   4.168   2.591   5.302
 2089SOL    HW2 7167   4.094   2.730   5.345
 2090SOL     OW 7168   4.601   3.324   5.320
 2090SOL    HW1 7169   4.585   3.397   5.255
 2090SOL    HW2 7170   4.654   3.359   5.398
 2091SOL     OW 7171   6.410   5.812   1.441
 2091SOL    HW1 7172   6.390   5.893   1.385
 2091SOL    HW2 7173   6.340   5.743   1.427
 2092SOL     OW 7174   4.756   3.860   1.011
 2092SOL    HW1 7175   4.670   3.860   0.959
 2092SOL    HW2 7176   4.739   3.826   1.103
 2093SOL     OW 7177   3.831   2.080   2.158
 2093SOL    HW1 7178   3.801   2.135   2.080
 2093SOL    HW2 7179   3.915   2.032   2.134
 2094SOL     OW 7180   5.916   3.008   0.082
 2094SOL    HW1 7181   5.887   2.978   0.173
 2094SOL    HW2 7182   5.976   2.939   0.041
 2095SOL     OW 7183   5.910   6.372   4.094
 2095SOL    HW1 7184   5.886   6.302   4.027
 2095SOL    HW2 7185   5.826   6.405   4.138
 2096SOL     OW 7186   4.537   6.198   2.353
 2096SOL    HW1 7187   4.442   6.208   2.322
 2096SOL    HW2 7188   4.583   6.131   2.296
 2097SOL     OW 7189   2.090   4.603   6.675
 2097SOL    HW1 7190   2.131   4.574   6.762
 2097SOL    HW2 7191   1.995   4.630   6.690
 2098SOL     OW 7192   4.057   5.885   3.300
 2098SOL    HW1 7193   4.140   5.855   3.348
 2098SOL    HW2 7194   3.982   5.894   3.366
 2099SOL     OW 7195   4.456   1.560   0.227
 2099SOL    HW1 7196   4.392   1.548   0.151
 2099SOL    HW2 7197   4.528   1.490   0.221
 2100SOL     OW 7198   5.703   1.058   0.550
 2100SOL    HW1 7199   5.620   1.083   0.500
 2100SOL    HW2 7200   5.755   0.991   0.497
 2101SOL     OW 7201   0.283   6.252   1.018
 2101SOL    HW1 7202   0.323   6.261   1.110
 2101SOL    HW2 7203   0.247   6.159   1.006
 2102SOL     OW 7204   3.841   2.917   1.509
 2102SOL    HW1 7205   3.794   2.846   1.456
 2102SOL    HW2 7206   3.862   2.883   1.600
 2103SOL     OW 7207   2.939   4.893   7.011
 2103SOL    HW1 7208   2.906   4.972   0.045
 2103SOL    HW2 7209   2.971   4.822   0.056
 2104SOL     OW 7210   2.093   4.557   2.850
 2104SOL    HW1 7211   2.135   4.524   2.935
 2104SOL    HW2 7212   1.995   4.535   2.852
 2105SOL     OW 7213   5.240   4.555   0.287
 2105SOL    HW1 7214   5.215   4.570   0.383
 2105SOL    HW2 7215   5.338   4.567   0.276
 2106SOL     OW 7216   5.067   3.440   1.466
 2106SOL    HW1 7217   5.138   3.507   1.448
 2106SOL    HW2 7218   5.042   3.443   1.563
 2107SOL     OW 7219   4.956   3.679   6.105
 2107SOL    HW1 7220   5.008   3.746   6.158
 2107SOL    HW2 7221   5.019   3.624   6.049
 2108SOL     OW 7222   5.614   6.785   6.140
 2108SOL    HW1 7223   5.701   6.761   6.098
 2108SOL    HW2 7224   5.607   6.885   6.147
 2109SOL     OW 7225   3.301   5.355   2.438
 2109SOL    HW1 7226   3.316   5.429   2.372
 2109SOL    HW2 7227   3.203   5.332   2.441
 2110SOL     OW 7228   4.251   0.864   6.846
 2110SOL    HW1 7229   4.315   0.800   6.889
 2110SOL    HW2 7230   4.241   0.945   6.904
 2111SOL     OW 7231   0.942   3.008   5.838
 2111SOL    HW1 7232   0.923   3.103   5.865
 2111SOL    HW2 7233   0.920   2.948   5.915
 2112SOL     OW 7234   5.963   0.987   0.267
 2112SOL    HW1 7235   5.894   0.915   0.261
 2112SOL    HW2 7236   5.993   0.995   0.362
 2113SOL     OW 7237   1.682   6.888   4.263
 2113SOL    HW1 7238   1.597   6.855   4.221
 2113SOL    HW2 7239   1.737   6.810   4.293
 2114SOL     OW 7240   2.498   2.927   6.986
 2114SOL    HW1 7241   2.567   2.865   0.003
 2114SOL    HW2 7242   2.493   2.918   6.887
 2115SOL     OW 7243   0.843   4.589   2.594
 2115SOL    HW1 7244   0.770   4.656   2.587
 2115SOL    HW2 7245   0.813   4.512   2.650
 2116SOL     OW 7246   1.238   2.268   0.412
 2116SOL    HW1 7247   1.237   2.168   0.411
 2116SOL    HW2 7248   1.256   2.302   0.320
 2117SOL     OW 7249   5.547   2.345   2.884
 2117SOL    HW1 7250   5.514   2.439   2.875
 2117SOL    HW2 7251   5.485   2.283   2.835
 2118SOL     OW 7252   6.955   3.733   2.699
 2118SOL    HW1 7253   6.987   3.639   2.703
 2118SOL    HW2 7254   6.972   3.770   2.608
 2119SOL     OW 7255   2.352   0.586   6.550
 2119SOL    HW1 7256   2.381   0.637   6.469
 2119SOL    HW2 7257   2.400   0.499   6.554
 2120SOL     OW 7258   6.515   2.258   1.882
 2120SOL    HW1 7259   6.503   2.357   1.891
 2120SOL    HW2 7260   6.465   2.212   1.955
 2121SOL     OW 7261   1.713   1.319   6.093
 2121SOL    HW1 7262   1.727   1.389   6.023
 2121SOL    HW2 7263   1.652   1.249   6.057
 2122SOL     OW 7264   6.163   0.441   5.292
 2122SOL    HW1 7265   6.237   0.508   5.302
 2122SOL    HW2 7266   6.182   0.362   5.351
 2123SOL     OW 7267   0.579   5.663   3.015
 2123SOL    HW1 7268   0.484   5.670   3.046
 2123SOL    HW2 7269   0.603   5.746   2.964
 2124SOL     OW 7270   3.779   2.816   5.669
 2124SOL    HW1 7271   3.694   2.870   5.675
 2124SOL    HW2 7272   3.801   2.780   5.760
 2125SOL     OW 7273   1.915   5.587   3.564
 2125SOL    HW1 7274   1.953   5.596   3.656
 2125SOL    HW2 7275   1.977   5.532   3.508
 2126SOL     OW 7276   3.518   3.416   0.523
 2126SOL    HW1 7277   3.422   3.414   0.552
 2126SOL    HW2 7278   3.565   3.335   0.558
 2127SOL     OW 7279   0.203   3.131   6.003
 2127SOL    HW1 7280   0.199   3.217   6.053
 2127SOL    HW2 7281   0.298   3.111   5.978
 2128SOL     OW 7282   5.479   4.065   1.425
 2128SOL    HW1 7283   5.465   3.976   1.382
 2128SOL    HW2 7284   5.516   4.129   1.358
 2129SOL     OW 7285   5.069   3.820   3.538
 2129SOL    HW1 7286   5.153   3.866   3.567
 2129SOL    HW2 7287   5.004   3.887   3.505
 2130SOL     OW 7288   2.269   1.326   1.657
 2130SOL    HW1 7289   2.351   1.349   1.606
 2130SOL    HW2 7290   2.212   1.407   1.667
 2131SOL     OW 7291   5.520   1.887   5.928
 2131SOL    HW1 7292   5.584   1.933   5.990
 2131SOL    HW2 7293   5.515   1.938   5.842
 2132SOL     OW 7294   2.690   1.395   6.594
 2132SOL    HW1 7295   2.782   1.355   6.600
 2132SOL    HW2 7296   2.695   1.485   6.551
 2133SOL     OW 7297   2.156   1.796   1.963
 2133SOL    HW1 7298   2.210   1.796   1.879
 2133SOL    HW2 7299   2.213   1.829   2.039
 2134SOL     OW 7300   0.260   6.663   4.161
 2134SOL    HW1 7301   0.291   6.568   4.167
 2134SOL    HW2 7302   0.332   6.724   4.194
 2135SOL     OW 7303   0.878   1.135   3.741
 2135SOL    HW1 7304   0.961   1.186   3.717
 2135SOL    HW2 7305   0.890   1.092   3.830
 2136SOL     OW 7306   1.023   3.703   4.793
 2136SOL    HW1 7307   1.097   3.770   4.788
 2136SOL    HW2 7308   0.966   3.710   4.711
 2137SOL     OW 7309   1.237   6.012   5.515
 2137SOL    HW1 7310   1.325   6.055   5.536
 2137SOL    HW2 7311   1.173   6.029   5.589
 2138SOL     OW 7312   6.740   3.001   0.770
 2138SOL    HW1 7313   6.829   3.010   0.814
 2138SOL    HW2 7314   6.714   3.088   0.728
 2139SOL     OW 7315   2.554   0.619   4.385
 2139SOL    HW1 7316   2.585   0.548   4.323
 2139SOL    HW2 7317   2.626   0.688   4.396
 2140SOL     OW 7318   2.579   5.830   3.253
 2140SOL    HW1 7319   2.575   5.738   3.292
 2140SOL    HW2 7320   2.584   5.897   3.327
 2141SOL     OW 7321   6.303   2.627   1.120
 2141SOL    HW1 7322   6.240   2.583   1.056
 2141SOL    HW2 7323   6.350   2.556   1.174
 2142SOL     OW 7324   1.307   1.753   3.455
 2142SOL    HW1 7325   1.226   1.729   3.509
 2142SOL    HW2 7326   1.380   1.784   3.516
 2143SOL     OW 7327   4.153   6.692   1.696
 2143SOL    HW1 7328   4.162   6.784   1.734
 2143SOL    HW2 7329   4.239   6.643   1.705
 2144SOL     OW 7330   1.352   0.381   2.899
 2144SOL    HW1 7331   1.416   0.441   2.851
 2144SOL    HW2 7332   1.334   0.417   2.990
 2145SOL     OW 7333   3.118   5.789   4.113
 2145SOL    HW1 7334   3.105   5.736   4.029
 2145SOL    HW2 7335   3.209   5.830   4.113
 2146SOL     OW 7336   2.918   3.651   2.010
 2146SOL    HW1 7337   2.876   3.573   1.965
 2146SOL    HW2 7338   2.988   3.690   1.951
 2147SOL     OW 7339   0.641   1.640   6.613
 2147SOL    HW1 7340   0.627   1.734   6.583
 2147SOL    HW2 7341   0.577   1.618   6.687
 2148SOL     OW 7342   5.017   3.635   3.856
 2148SOL    HW1 7343   5.081   3.653   3.930
 2148SOL    HW2 7344   4.990   3.538   3.858
 2149SOL     OW 7345   3.898   0.769   2.017
 2149SOL    HW1 7346   3.866   0.678   2.044
 2149SOL    HW2 7347   3.998   0.770   2.017
 2150SOL     OW 7348   3.771   1.749   2.764
 2150SOL    HW1 7349   3.812   1.837   2.741
 2150SOL    HW2 7350   3.757   1.745   2.863
 2151SOL     OW 7351   3.656   2.384   5.984
 2151SOL    HW1 7352   3.747   2.389   6.025
 2151SOL    HW2 7353   3.647   2.456   5.915
 2152SOL     OW 7354   6.236   6.620   2.111
 2152SOL    HW1 7355   6.220   6.569   2.027
 2152SOL    HW2 7356   6.317   6.678   2.100
 2153SOL     OW 7357   4.600   1.818   3.573
 2153SOL    HW1 7358   4.615   1.881   3.497
 2153SOL    HW2 7359   4.668   1.744   3.569
 2154SOL     OW 7360   3.194   5.303   4.692
 2154SOL    HW1 7361   3.129   5.272   4.762
 2154SOL    HW2 7362   3.152   5.298   4.602
 2155SOL     OW 7363   2.097   4.718   0.385
 2155SOL    HW1 7364   2.003   4.709   0.417
 2155SOL    HW2 7365   2.158   4.730   0.463
 2156SOL     OW 7366   1.786   0.484   1.688
 2156SOL    HW1 7367   1.757   0.527   1.603
 2156SOL    HW2 7368   1.875   0.440   1.676
 2157SOL     OW 7369   0.250   1.363   5.384
 2157SOL    HW1 7370   0.195   1.316   5.453
 2157SOL    HW2 7371   0.249   1.461   5.404
 2158SOL     OW 7372   4.073   0.139   1.229
 2158SOL    HW1 7373   4.062   0.052   1.278
 2158SOL    HW2 7374   4.130   0.201   1.284
 2159SOL     OW 7375   1.644   6.878   4.561
 2159SOL    HW1 7376   1.677   6.846   4.650
 2159SOL    HW2 7377   1.623   6.799   4.504
 2160SOL     OW 7378   3.618   4.002   1.225
 2160SOL    HW1 7379   3.636   4.083   1.280
 2160SOL    HW2 7380   3.691   3.989   1.159
 2161SOL     OW 7381   4.830   3.899   3.377
 2161SOL    HW1 7382   4.799   3.929   3.468
 2161SOL    HW2 7383   4.846   3.978   3.319
 2162SOL     OW 7384   2.248   0.791   6.681
 2162SOL    HW1 7385   2.190   0.846   6.621
 2162SOL    HW2 7386   2.268   0.704   6.637
 2163SOL     OW 7387   1.934   0.163   0.232
 2163SOL    HW1 7388   2.012   0.108   0.262
 2163SOL    HW2 7389   1.866   0.168   0.305
 2164SOL     OW 7390   1.777   0.493   6.569
 2164SOL    HW1 7391   1.763   0.589   6.594
 2164SOL    HW2 7392   1.844   0.452   6.630
 2165SOL     OW 7393   1.133   0.525   2.607
 2165SOL    HW1 7394   1.119   0.429   2.631
 2165SOL    HW2 7395   1.060   0.556   2.546
 2166SOL     OW 7396   1.435   2.099   5.437
 2166SOL    HW1 7397   1.430   2.041   5.356
 2166SOL    HW2 7398   1.424   2.042   5.519
 2167SOL     OW 7399   2.567   0.581   2.332
 2167SOL    HW1 7400   2.582   0.522   2.254
 2167SOL    HW2 7401   2.478   0.627   2.323
 2168SOL     OW 7402   5.784   3.593   4.276
 2168SOL    HW1 7403   5.791   3.685   4.314
 2168SOL    HW2 7404   5.736   3.534   4.341
 2169SOL     OW 7405   5.469   2.930   5.747
 2169SOL    HW1 7406   5.416   2.846   5.748
 2169SOL    HW2 7407   5.560   2.912   5.708
 2170SOL     OW 7408   4.585   4.806   5.356
 2170SOL    HW1 7409   4.677   4.787   5.392
 2170SOL    HW2 7410   4.516   4.775   5.421
 2171SOL     OW 7411   6.552   3.491   0.089
 2171SOL    HW1 7412   6.460   3.480   0.128
 2171SOL    HW2 7413   6.546   3.535   7.018
 2172SOL     OW 7414   3.202   1.455   0.230
 2172SOL    HW1 7415   3.165   1.548   0.234
 2172SOL    HW2 7416   3.127   1.389   0.223
 2173SOL     OW 7417   4.099   0.339   5.583
 2173SOL    HW1 7418   4.087   0.240   5.591
 2173SOL    HW2 7419   4.195   0.359   5.563
 2174SOL     OW 7420   6.587   4.847   4.243
 2174SOL    HW1 7421   6.564   4.900   4.161
 2174SOL    HW2 7422   6.573   4.750   4.225
 2175SOL     OW 7423   2.508   0.075   3.115
 2175SOL    HW1 7424   2.522   6.996   3.128
 2175SOL    HW2 7425   2.596   0.122   3.118
 2176SOL     OW 7426   2.262   2.340   2.633
 2176SOL    HW1 7427   2.344   2.295   2.668
 2176SOL    HW2 7428   2.282   2.384   2.545
 2177SOL     OW 7429   6.750   1.912   1.186
 2177SOL    HW1 7430   6.805   1.981   1.232
 2177SOL    HW2 7431   6.718   1.845   1.253
 2178SOL     OW 7432   0.921   5.010   0.480
 2178SOL    HW1 7433   0.970   5.017   0.567
 2178SOL    HW2 7434   0.823   5.010   0.498
 2179SOL     OW 7435   1.247   5.453   4.270
 2179SOL    HW1 7436   1.248   5.553   4.262
 2179SOL    HW2 7437   1.335   5.417   4.241
 2180SOL     OW 7438   3.073   3.691   2.949
 2180SOL    HW1 7439   3.131   3.643   2.883
 2180SOL    HW2 7440   3.006   3.629   2.987
 2181SOL     OW 7441   4.714   5.727   5.982
 2181SOL    HW1 7442   4.774   5.804   5.961
 2181SOL    HW2 7443   4.768   5.654   6.024
 2182SOL     OW 7444   0.012   4.042   6.428
 2182SOL    HW1 7445   6.988   4.026   6.517
 2182SOL    HW2 7446   7.000   4.130   6.391
 2183SOL     OW 7447   3.162   2.892   0.406
 2183SOL    HW1 7448   3.127   2.836   0.481
 2183SOL    HW2 7449   3.200   2.834   0.335
 2184SOL     OW 7450   3.649   1.307   6.600
 2184SOL    HW1 7451   3.735   1.280   6.558
 2184SOL    HW2 7452   3.639   1.406   6.596
 2185SOL     OW 7453   1.665   0.413   0.377
 2185SOL    HW1 7454   1.693   0.321   0.350
 2185SOL    HW2 7455   1.633   0.411   0.472
 2186SOL     OW 7456   0.208   4.974   2.675
 2186SOL    HW1 7457   0.109   4.985   2.686
 2186SOL    HW2 7458   0.226   4.894   2.618
 2187SOL     OW 7459   6.469   1.700   0.864
 2187SOL    HW1 7460   6.418   1.615   0.877
 2187SOL    HW2 7461   6.438   1.745   0.781
 2188SOL     OW 7462   5.388   6.398   3.420
 2188SOL    HW1 7463   5.385   6.417   3.518
 2188SOL    HW2 7464   5.479   6.416   3.385
 2189SOL     OW 7465   1.954   0.353   5.724
 2189SOL    HW1 7466   1.932   0.403   5.640
 2189SOL    HW2 7467   2.044   0.381   5.757
 2190SOL     OW 7468   6.632   2.442   1.514
 2190SOL    HW1 7469   6.693   2.505   1.561
 2190SOL    HW2 7470   6.666   2.348   1.524
 2191SOL     OW 7471   3.323   2.872   6.259
 2191SOL    HW1 7472   3.340   2.819   6.175
 2191SOL    HW2 7473   3.371   2.829   6.335
 2192SOL     OW 7474   4.257   5.920   5.133
 2192SOL    HW1 7475   4.348   5.958   5.114
 2192SOL    HW2 7476   4.266   5.827   5.168
 2193SOL     OW 7477   0.744   5.086   5.651
 2193SOL    HW1 7478   0.699   5.118   5.568
 2193SOL    HW2 7479   0.718   4.992   5.670
 2194SOL     OW 7480   2.245   6.144   0.844
 2194SOL    HW1 7481   2.173   6.095   0.894
 2194SOL    HW2 7482   2.225   6.242   0.845
 2195SOL     OW 7483   1.402   5.526   2.866
 2195SOL    HW1 7484   1.371   5.444   2.913
 2195SOL    HW2 7485   1.478   5.502   2.805
 2196SOL     OW 7486   3.561   1.712   5.842
 2196SOL    HW1 7487   3.568   1.812   5.839
 2196SOL    HW2 7488   3.522   1.679   5.756
 2197SOL     OW 7489   4.835   4.626   1.506
 2197SOL    HW1 7490   4.738   4.621   1.482
 2197SOL    HW2 7491   4.891   4.596   1.429
 2198SOL     OW 7492   6.778   4.337   0.274
 2198SOL    HW1 7493   6.779   4.312   0.177
 2198SOL    HW2 7494   6.806   4.433   0.283
 2199SOL     OW 7495   4.795   6.715   0.655
 2199SOL    HW1 7496   4.763   6.658   0.731
 2199SOL    HW2 7497   4.894   6.706   0.645
 2200SOL     OW 7498   4.017   0.739   4.607
 2200SOL    HW1 7499   3.919   0.760   4.608
 2200SOL    HW2 7500   4.069   0.824   4.616
 2201SOL     OW 7501   6.179   3.179   2.358
 2201SOL    HW1 7502   6.185   3.126   2.273
 2201SOL    HW2 7503   6.270   3.209   2.385
 2202SOL     OW 7504   4.012   5.502   3.921
 2202SOL    HW1 7505   4.080   5.479   3.991
 2202SOL    HW2 7506   3.947   5.427   3.913
 2203SOL     OW 7507   3.531   1.952   3.002
 2203SOL    HW1 7508   3.480   2.017   2.946
 2203SOL    HW2 7509   3.498   1.859   2.985
 2204SOL     OW 7510   2.795   1.904   0.377
 2204SOL    HW1 7511   2.720   1.879   0.316
 2204SOL    HW2 7512   2.857   1.967   0.328
 2205SOL     OW 7513   1.994   6.575   0.459
 2205SOL    HW1 7514   2.021   6.485   0.424
 2205SOL    HW2 7515   2.026   6.646   0.397
 2206SOL     OW 7516   3.136   3.467   6.783
 2206SOL    HW1 7517   3.164   3.481   6.688
 2206SOL    HW2 7518   3.218   3.460   6.840
 2207SOL     OW 7519   1.637   4.681   6.054
 2207SOL    HW1 7520   1.572   4.757   6.049
 2207SOL    HW2 7521   1.610   4.618   6.126
 2208SOL     OW 7522   0.501   3.718   2.019
 2208SOL    HW1 7523   0.537   3.642   2.074
 2208SOL    HW2 7524   0.532   3.804   2.059
 2209SOL     OW 7525   1.235   5.518   6.280
 2209SOL    HW1 7526   1.144   5.555   6.301
 2209SOL    HW2 7527   1.228   5.421   6.260
 2210SOL     OW 7528   1.110   5.967   3.546
 2210SOL    HW1 7529   1.087   6.060   3.517
 2210SOL    HW2 7530   1.179   5.971   3.619
 2211SOL     OW 7531   5.993   1.567   5.598
 2211SOL    HW1 7532   5.979   1.468   5.599
 2211SOL    HW2 7533   6.010   1.597   5.504
 2212SOL     OW 7534   1.082   0.457   5.724
 2212SOL    HW1 7535   0.988   0.489   5.734
 2212SOL    HW2 7536   1.082   0.359   5.705
 2213SOL     OW 7537   4.004   2.177   3.513
 2213SOL    HW1 7538   4.003   2.123   3.429
 2213SOL    HW2 7539   3.923   2.155   3.568
 2214SOL     OW 7540   5.790   6.888   4.496
 2214SOL    HW1 7541   5.788   6.961   4.428
 2214SOL    HW2 7542   5.884   6.868   4.522
 2215SOL     OW 7543   6.850   2.066   5.456
 2215SOL    HW1 7544   6.891   2.010   5.527
 2215SOL    HW2 7545   6.751   2.070   5.469
 2216SOL     OW 7546   0.970   6.843   1.016
 2216SOL    HW1 7547   1.022   6.788   0.951
 2216SOL    HW2 7548   0.964   6.795   1.103
 2217SOL     OW 7549   4.555   6.974   1.306
 2217SOL    HW1 7550   4.494   0.035   1.314
 2217SOL    HW2 7551   4.642   7.002   1.266
 2218SOL     OW 7552   0.934   5.865   6.577
 2218SOL    HW1 7553   0.925   5.965   6.582
 2218SOL    HW2 7554   0.887   5.824   6.655
 2219SOL     OW 7555   1.981   4.100   2.980
 2219SOL    HW1 7556   1.981   4.001   2.961
 2219SOL    HW2 7557   1.957   4.150   2.897
 2220SOL     OW 7558   0.164   1.854   5.367
 2220SOL    HW1 7559   0.118   1.840   5.455
 2220SOL    HW2 7560   0.095   1.873   5.297
 2221SOL     OW 7561   6.700   2.177   1.486
 2221SOL    HW1 7562   6.773   2.147   1.548
 2221SOL    HW2 7563   6.740   2.225   1.408
 2222SOL     OW 7564   4.519   6.542   2.266
 2222SOL    HW1 7565   4.569   6.462   2.236
 2222SOL    HW2 7566   4.453   6.569   2.196
 2223SOL     OW 7567   5.974   5.271   3.940
 2223SOL    HW1 7568   5.914   5.351   3.947
 2223SOL    HW2 7569   5.933   5.194   3.989
 2224SOL     OW 7570   2.220   4.634   1.621
 2224SOL    HW1 7571   2.144   4.695   1.645
 2224SOL    HW2 7572   2.287   4.684   1.567
 2225SOL     OW 7573   6.586   5.278   2.319
 2225SOL    HW1 7574   6.524   5.281   2.241
 2225SOL    HW2 7575   6.658   5.211   2.301
 2226SOL     OW 7576   3.639   3.152   1.059
 2226SOL    HW1 7577   3.544   3.162   1.088
 2226SOL    HW2 7578   3.685   3.088   1.120
 2227SOL     OW 7579   6.713   3.911   5.846
 2227SOL    HW1 7580   6.693   3.861   5.762
 2227SOL    HW2 7581   6.627   3.938   5.890
 2228SOL     OW 7582   3.122   4.868   6.009
 2228SOL    HW1 7583   3.170   4.810   6.075
 2228SOL    HW2 7584   3.182   4.889   5.933
 2229SOL     OW 7585   4.182   1.515   3.233
 2229SOL    HW1 7586   4.154   1.547   3.324
 2229SOL    HW2 7587   4.123   1.439   3.205
 2230SOL     OW 7588   0.894   6.192   5.232
 2230SOL    HW1 7589   0.813   6.141   5.262
 2230SOL    HW2 7590   0.888   6.209   5.134
 2231SOL     OW 7591   1.787   0.068   1.923
 2231SOL    HW1 7592   1.754   0.005   1.853
 2231SOL    HW2 7593   1.867   0.117   1.888
 2232SOL     OW 7594   6.481   2.603   2.691
 2232SOL    HW1 7595   6.524   2.525   2.737
 2232SOL    HW2 7596   6.522   2.688   2.724
 2233SOL     OW 7597   3.489   6.427   0.251
 2233SOL    HW1 7598   3.412   6.395   0.306
 2233SOL    HW2 7599   3.467   6.517   0.212
 2234SOL     OW 7600   3.502   1.579   0.734
 2234SOL    HW1 7601   3.483   1.657   0.794
 2234SOL    HW2 7602   3.532   1.611   0.645
 2235SOL     OW 7603   0.841   0.061   0.967
 2235SOL    HW1 7604   0.874   0.121   1.040
 2235SOL    HW2 7605   0.870   6.986   0.985
 2236SOL     OW 7606   0.907   4.584   1.228
 2236SOL    HW1 7607   0.961   4.668   1.217
 2236SOL    HW2 7608   0.815   4.600   1.193
 2237SOL     OW 7609   6.645   3.127   4.678
 2237SOL    HW1 7610   6.722   3.082   4.632
 2237SOL    HW2 7611   6.677   3.208   4.726
 2238SOL     OW 7612   0.554   5.813   2.028
 2238SOL    HW1 7613   0.564   5.910   2.052
 2238SOL    HW2 7614   0.538   5.804   1.930
 2239SOL     OW 7615   4.058   4.994   3.599
 2239SOL    HW1 7616   4.075   4.928   3.526
 2239SOL    HW2 7617   3.997   5.066   3.565
 2240SOL     OW 7618   6.455   5.014   3.100
 2240SOL    HW1 7619   6.430   5.109   3.087
 2240SOL    HW2 7620   6.389   4.970   3.161
 2241SOL     OW 7621   6.866   6.751   1.936
 2241SOL    HW1 7622   6.842   6.725   1.843
 2241SOL    HW2 7623   6.872   6.851   1.942
 2242SOL     OW 7624   4.750   1.921   3.043
 2242SOL    HW1 7625   4.845   1.893   3.052
 2242SOL    HW2 7626   4.735   1.960   2.953
 2243SOL     OW 7627   2.798   5.944   5.109
 2243SOL    HW1 7628   2.865   6.010   5.078
 2243SOL    HW2 7629   2.726   5.991   5.160
 2244SOL     OW 7630   2.496   0.187   4.608
 2244SOL    HW1 7631   2.430   0.197   4.683
 2244SOL    HW2 7632   2.527   0.092   4.603
 2245SOL     OW 7633   0.665   1.481   2.518
 2245SOL    HW1 7634   0.619   1.443   2.437
 2245SOL    HW2 7635   0.752   1.521   2.491
 2246SOL     OW 7636   1.131   3.870   6.209
 2246SOL    HW1 7637   1.113   3.816   6.292
 2246SOL    HW2 7638   1.176   3.812   6.141
 2247SOL     OW 7639   2.171   2.845   6.240
 2247SOL    HW1 7640   2.172   2.775   6.168
 2247SOL    HW2 7641   2.158   2.935   6.198
 2248SOL     OW 7642   4.811   3.949   5.791
 2248SOL    HW1 7643   4.730   4.000   5.764
 2248SOL    HW2 7644   4.789   3.852   5.799
 2249SOL     OW 7645   5.493   5.809   3.344
 2249SOL    HW1 7646   5.441   5.751   3.407
 2249SOL    HW2 7647   5.430   5.854   3.281
 2250SOL     OW 7648   6.368   4.150   0.977
 2250SOL    HW1 7649   6.328   4.232   1.017
 2250SOL    HW2 7650   6.317   4.124   0.895
 2251SOL     OW 7651   5.764   0.816   0.349
 2251SOL    HW1 7652   5.674   0.789   0.314
 2251SOL    HW2 7653   5.820   0.735   0.361
 2252SOL     OW 7654   5.617   2.767   5.230
 2252SOL    HW1 7655   5.713   2.780   5.207
 2252SOL    HW2 7656   5.573   2.710   5.161
 2253SOL     OW 7657   2.710   3.104   6.722
 2253SOL    HW1 7658   2.646   3.027   6.726
 2253SOL    HW2 7659   2.743   3.115   6.629
 2254SOL     OW 7660   2.202   3.756   6.602
 2254SOL    HW1 7661   2.126   3.762   6.538
 2254SOL    HW2 7662   2.272   3.824   6.578
 2255SOL     OW 7663   6.046   2.715   1.960
 2255SOL    HW1 7664   6.039   2.635   2.020
 2255SOL    HW2 7665   6.086   2.687   1.873
 2256SOL     OW 7666   4.245   4.889   2.096
 2256SOL    HW1 7667   4.205   4.831   2.025
 2256SOL    HW2 7668   4.197   4.875   2.182
 2257SOL     OW 7669   1.690   4.104   3.771
 2257SOL    HW1 7670   1.709   4.176   3.838
 2257SOL    HW2 7671   1.631   4.141   3.699
 2258SOL     OW 7672   1.974   5.731   5.222
 2258SOL    HW1 7673   2.053   5.733   5.283
 2258SOL    HW2 7674   1.907   5.800   5.251
 2259SOL     OW 7675   5.443   3.589   0.060
 2259SOL    HW1 7676   5.498   3.575   6.995
 2259SOL    HW2 7677   5.391   3.674   0.051
 2260SOL     OW 7678   5.374   4.927   1.686
 2260SOL    HW1 7679   5.420   4.986   1.619
 2260SOL    HW2 7680   5.289   4.971   1.716
 2261SOL     OW 7681   5.613   6.980   0.671
 2261SOL    HW1 7682   5.635   6.999   0.576
 2261SOL    HW2 7683   5.630   6.883   0.690
 2262SOL     OW 7684   4.853   2.403   4.219
 2262SOL    HW1 7685   4.838   2.489   4.269
 2262SOL    HW2 7686   4.910   2.422   4.138
 2263SOL     OW 7687   1.382   5.064   5.727
 2263SOL    HW1 7688   1.452   5.126   5.764
 2263SOL    HW2 7689   1.357   5.094   5.635
 2264SOL     OW 7690   3.216   3.033   3.587
 2264SOL    HW1 7691   3.234   2.989   3.499
 2264SOL    HW2 7692   3.239   2.970   3.661
 2265SOL     OW 7693   0.355   7.008   1.769
 2265SOL    HW1 7694   0.373   6.954   1.687
 2265SOL    HW2 7695   0.374   6.953   1.850
 2266SOL     OW 7696   5.805   0.389   0.391
 2266SOL    HW1 7697   5.782   0.352   0.481
 2266SOL    HW2 7698   5.720   0.411   0.342
 2267SOL     OW 7699   6.273   2.531   5.340
 2267SOL    HW1 7700   6.193   2.514   5.397
 2267SOL    HW2 7701   6.291   2.451   5.282
 2268SOL     OW 7702   0.161   6.295   0.209
 2268SOL    HW1 7703   0.062   6.309   0.211
 2268SOL    HW2 7704   0.197   6.333   0.124
 2269SOL     OW 7705   6.526   5.478   6.140
 2269SOL    HW1 7706   6.619   5.504   6.114
 2269SOL    HW2 7707   6.468   5.478   6.059
 2270SOL     OW 7708   3.124   3.455   2.162
 2270SOL    HW1 7709   3.140   3.548   2.129
 2270SOL    HW2 7710   3.148   3.389   2.090
 2271SOL     OW 7711   5.987   4.428   2.166
 2271SOL    HW1 7712   5.993   4.353   2.100
 2271SOL    HW2 7713   6.071   4.431   2.221
 2272SOL     OW 7714   5.482   2.053   5.674
 2272SOL    HW1 7715   5.461   2.145   5.707
 2272SOL    HW2 7716   5.403   2.014   5.628
 2273SOL     OW 7717   0.370   1.307   3.553
 2273SOL    HW1 7718   0.340   1.303   3.648
 2273SOL    HW2 7719   0.446   1.372   3.544
 2274SOL     OW 7720   1.501   3.221   4.936
 2274SOL    HW1 7721   1.520   3.123   4.947
 2274SOL    HW2 7722   1.412   3.242   4.976
 2275SOL     OW 7723   5.632   6.068   4.030
 2275SOL    HW1 7724   5.670   6.029   4.114
 2275SOL    HW2 7725   5.705   6.077   3.962
 2276SOL     OW 7726   4.301   4.260   1.305
 2276SOL    HW1 7727   4.255   4.206   1.376
 2276SOL    HW2 7728   4.400   4.253   1.317
 2277SOL     OW 7729   3.199   3.208   6.808
 2277SOL    HW1 7730   3.155   3.146   6.874
 2277SOL    HW2 7731   3.153   3.296   6.811
 2278SOL     OW 7732   5.201   5.928   1.150
 2278SOL    HW1 7733   5.279   5.970   1.197
 2278SOL    HW2 7734   5.234   5.855   1.090
 2279SOL     OW 7735   5.854   2.991   5.116
 2279SOL    HW1 7736   5.758   3.018   5.112
 2279SOL    HW2 7737   5.892   3.016   5.206
 2280SOL     OW 7738   6.203   6.014   5.790
 2280SOL    HW1 7739   6.259   6.048   5.866
 2280SOL    HW2 7740   6.201   6.084   5.718
 2281SOL     OW 7741   3.563   2.200   1.429
 2281SOL    HW1 7742   3.531   2.262   1.500
 2281SOL    HW2 7743   3.485   2.168   1.375
 2282SOL     OW 7744   5.146   5.693   3.223
 2282SOL    HW1 7745   5.081   5.640   3.278
 2282SOL    HW2 7746   5.205   5.631   3.171
 2283SOL     OW 7747   0.344   3.180   3.604
 2283SOL    HW1 7748   0.388   3.161   3.692
 2283SOL    HW2 7749   0.354   3.277   3.582
 2284SOL     OW 7750   2.322   2.170   1.721
 2284SOL    HW1 7751   2.229   2.135   1.733
 2284SOL    HW2 7752   2.330   2.213   1.631
 2285SOL     OW 7753   1.594   3.434   0.980
 2285SOL    HW1 7754   1.635   3.481   0.902
 2285SOL    HW2 7755   1.665   3.382   1.028
 2286SOL     OW 7756   6.583   6.424   4.872
 2286SOL    HW1 7757   6.678   6.400   4.852
 2286SOL    HW2 7758   6.568   6.419   4.971
 2287SOL     OW 7759   2.391   2.505   1.866
 2287SOL    HW1 7760   2.450   2.562   1.809
 2287SOL    HW2 7761   2.443   2.470   1.944
 2288SOL     OW 7762   6.953   6.320   2.547
 2288SOL    HW1 7763   0.029   6.291   2.532
 2288SOL    HW2 7764   6.947   6.370   2.633
 2289SOL     OW 7765   5.391   1.782   2.457
 2289SOL    HW1 7766   5.404   1.712   2.386
 2289SOL    HW2 7767   5.358   1.866   2.415
 2290SOL     OW 7768   2.950   3.838   3.192
 2290SOL    HW1 7769   2.888   3.814   3.117
 2290SOL    HW2 7770   2.999   3.922   3.169
 2291SOL     OW 7771   2.268   2.246   0.953
 2291SOL    HW1 7772   2.258   2.325   0.892
 2291SOL    HW2 7773   2.259   2.162   0.900
 2292SOL     OW 7774   4.006   1.957   2.861
 2292SOL    HW1 7775   3.963   2.047   2.848
 2292SOL    HW2 7776   4.074   1.962   2.934
 2293SOL     OW 7777   5.479   1.417   0.464
 2293SOL    HW1 7778   5.539   1.466   0.528
 2293SOL    HW2 7779   5.389   1.405   0.506
 2294SOL     OW 7780   0.851   2.551   6.261
 2294SOL    HW1 7781   0.847   2.455   6.232
 2294SOL    HW2 7782   0.931   2.564   6.320
 2295SOL     OW 7783   6.728   0.136   2.145
 2295SOL    HW1 7784   6.629   0.148   2.147
 2295SOL    HW2 7785   6.750   0.039   2.149
 2296SOL     OW 7786   2.724   5.421   3.619
 2296SOL    HW1 7787   2.756   5.329   3.598
 2296SOL    HW2 7788   2.631   5.416   3.657
 2297SOL     OW 7789   4.397   5.002   5.629
 2297SOL    HW1 7790   4.490   4.968   5.639
 2297SOL    HW2 7791   4.335   4.947   5.685
 2298SOL     OW 7792   3.751   3.284   4.614
 2298SOL    HW1 7793   3.794   3.328   4.536
 2298SOL    HW2 7794   3.803   3.203   4.640
 2299SOL     OW 7795   5.289   2.965   5.083
 2299SOL    HW1 7796   5.261   2.875   5.116
 2299SOL    HW2 7797   5.324   2.957   4.990
 2300SOL     OW 7798   4.401   6.273   3.039
 2300SOL    HW1 7799   4.332   6.206   3.065
 2300SOL    HW2 7800   4.361   6.341   2.978
 2301SOL     OW 7801   3.480   3.233   4.501
 2301SOL    HW1 7802   3.461   3.323   4.459
 2301SOL    HW2 7803   3.567   3.237   4.550
 2302SOL     OW 7804   4.863   1.551   0.241
 2302SOL    HW1 7805   4.821   1.611   0.172
 2302SOL    HW2 7806   4.868   1.600   0.328
 2303SOL     OW 7807   2.415   1.772   0.440
 2303SOL    HW1 7808   2.505   1.731   0.429
 2303SOL    HW2 7809   2.424   1.872   0.437
 2304SOL     OW 7810   6.348   6.083   2.410
 2304SOL    HW1 7811   6.347   6.022   2.331
 2304SOL    HW2 7812   6.272   6.149   2.403
 2305SOL     OW 7813   1.549   1.222   5.386
 2305SOL    HW1 7814   1.598   1.135   5.379
 2305SOL    HW2 7815   1.608   1.289   5.432
 2306SOL     OW 7816   2.836   4.765   3.569
 2306SOL    HW1 7817   2.923   4.759   3.521
 2306SOL    HW2 7818   2.851   4.795   3.663
 2307SOL     OW 7819   0.956   2.634   5.681
 2307SOL    HW1 7820   0.999   2.662   5.767
 2307SOL    HW2 7821   1.022   2.644   5.606
 2308SOL     OW 7822   2.426   4.598   1.775
 2308SOL    HW1 7823   2.362   4.627   1.704
 2308SOL    HW2 7824   2.509   4.563   1.733
 2309SOL     OW 7825   1.068   6.616   4.113
 2309SOL    HW1 7826   0.974   6.630   4.081
 2309SOL    HW2 7827   1.067   6.556   4.193
 2310SOL     OW 7828   4.491   6.824   0.983
 2310SOL    HW1 7829   4.392   6.812   0.980
 2310SOL    HW2 7830   4.513   6.920   0.998
 2311SOL     OW 7831   2.385   6.077   1.192
 2311SOL    HW1 7832   2.456   6.074   1.262
 2311SOL    HW2 7833   2.360   5.984   1.166
 2312SOL     OW 7834   3.689   5.561   2.511
 2312SOL    HW1 7835   3.644   5.565   2.422
 2312SOL    HW2 7836   3.670   5.473   2.554
 2313SOL     OW 7837   5.217   4.764   2.057
 2313SOL    HW1 7838   5.121   4.782   2.080
 2313SOL    HW2 7839   5.270   4.756   2.142
 2314SOL     OW 7840   3.036   6.045   3.657
 2314SOL    HW1 7841   3.096   5.984   3.605
 2314SOL    HW2 7842   3.086   6.127   3.684
 2315SOL     OW 7843   4.225   3.329   6.161
 2315SOL    HW1 7844   4.269   3.400   6.217
 2315SOL    HW2 7845   4.295   3.280   6.109
 2316SOL     OW 7846   5.619   2.799   3.218
 2316SOL    HW1 7847   5.563   2.720   3.194
 2316SOL    HW2 7848   5.659   2.785   3.309
 2317SOL     OW 7849   2.184   4.652   3.306
 2317SOL    HW1 7850   2.194   4.577   3.241
 2317SOL    HW2 7851   2.261   4.651   3.369
 2318SOL     OW 7852   0.022   0.809   3.629
 2318SOL    HW1 7853   0.049   0.715   3.606
 2318SOL    HW2 7854   0.016   0.818   3.728
 2319SOL     OW 7855   1.275   4.755   4.502
 2319SOL    HW1 7856   1.193   4.779   4.449
 2319SOL    HW2 7857   1.341   4.830   4.498
 2320SOL     OW 7858   6.946   2.969   4.109
 2320SOL    HW1 7859   6.887   2.968   4.029
 2320SOL    HW2 7860   0.009   2.913   4.092
 2321SOL     OW 7861   2.929   6.885   5.321
 2321SOL    HW1 7862   2.953   6.957   5.256
 2321SOL    HW2 7863   2.864   6.822   5.278
 2322SOL     OW 7864   1.025   0.745   5.128
 2322SOL    HW1 7865   1.079   0.701   5.199
 2322SOL    HW2 7866   0.995   0.676   5.062
 2323SOL     OW 7867   4.290   5.845   2.198
 2323SOL    HW1 7868   4.289   5.944   2.210
 2323SOL    HW2 7869   4.345   5.822   2.118
 2324SOL     OW 7870   0.327   5.502   2.888
 2324SOL    HW1 7871   0.335   5.413   2.932
 2324SOL    HW2 7872   0.294   5.490   2.794
 2325SOL     OW 7873   0.951   3.724   0.706
 2325SOL    HW1 7874   0.984   3.765   0.621
 2325SOL    HW2 7875   1.021   3.731   0.776
 2326SOL     OW 7876   0.874   5.134   6.980
 2326SOL    HW1 7877   0.866   5.053   6.921
 2326SOL    HW2 7878   0.946   5.193   6.946
 2327SOL     OW 7879   5.162   2.867   3.702
 2327SOL    HW1 7880   5.259   2.888   3.707
 2327SOL    HW2 7881   5.123   2.912   3.621
 2328SOL     OW 7882   4.322   1.196   3.040
 2328SOL    HW1 7883   4.333   1.252   3.121
 2328SOL    HW2 7884   4.396   1.129   3.035
 2329SOL     OW 7885   1.029   5.863   3.922
 2329SOL    HW1 7886   1.127   5.845   3.914
 2329SOL    HW2 7887   1.011   5.919   4.002
 2330SOL     OW 7888   0.944   4.329   2.866
 2330SOL    HW1 7889   0.971   4.233   2.868
 2330SOL    HW2 7890   1.021   4.385   2.838
 2331SOL     OW 7891   0.459   4.557   5.296
 2331SOL    HW1 7892   0.546   4.515   5.271
 2331SOL    HW2 7893   0.476   4.643   5.343
 2332SOL     OW 7894   5.306   2.528   6.201
 2332SOL    HW1 7895   5.385   2.589   6.206
 2332SOL    HW2 7896   5.320   2.461   6.129
 2333SOL     OW 7897   1.079   5.473   3.517
 2333SOL    HW1 7898   1.154   5.424   3.472
 2333SOL    HW2 7899   0.993   5.449   3.473
 2334SOL     OW 7900   3.312   6.900   6.870
 2334SOL    HW1 7901   3.338   6.905   6.966
 2334SOL    HW2 7902   3.213   6.910   6.861
 2335SOL     OW 7903   5.133   0.052   3.489
 2335SOL    HW1 7904   5.225   0.081   3.461
 2335SOL    HW2 7905   5.089   0.003   3.414
 2336SOL     OW 7906   4.862   1.199   5.987
 2336SOL    HW1 7907   4.791   1.183   5.919
 2336SOL    HW2 7908   4.949   1.215   5.941
 2337SOL     OW 7909   5.297   6.954   3.066
 2337SOL    HW1 7910   5.256   7.014   3.135
 2337SOL    HW2 7911   5.366   6.896   3.108
 2338SOL     OW 7912   0.888   6.874   6.439
 2338SOL    HW1 7913   0.960   6.808   6.415
 2338SOL    HW2 7914   0.843   6.845   6.523
 2339SOL     OW 7915   3.284   4.542   0.052
 2339SOL    HW1 7916   3.341   4.462   0.069
 2339SOL    HW2 7917   3.236   4.532   6.983
 2340SOL     OW 7918   3.862   5.706   4.978
 2340SOL    HW1 7919   3.862   5.620   4.927
 2340SOL    HW2 7920   3.942   5.760   4.953
 2341SOL     OW 7921   5.501   5.434   1.115
 2341SOL    HW1 7922   5.599   5.453   1.130
 2341SOL    HW2 7923   5.475   5.463   1.023
 2342SOL     OW 7924   6.455   0.397   5.081
 2342SOL    HW1 7925   6.472   0.439   5.170
 2342SOL    HW2 7926   6.470   0.298   5.087
 2343SOL     OW 7927   1.307   5.763   0.965
 2343SOL    HW1 7928   1.356   5.778   0.879
 2343SOL    HW2 7929   1.331   5.836   1.029
 2344SOL     OW 7930   1.894   2.015   2.202
 2344SOL    HW1 7931   1.823   1.953   2.171
 2344SOL    HW2 7932   1.878   2.106   2.163
 2345SOL     OW 7933   2.003   0.731   4.736
 2345SOL    HW1 7934   1.914   0.685   4.730
 2345SOL    HW2 7935   1.999   0.801   4.807
 2346SOL     OW 7936   5.317   3.805   5.898
 2346SOL    HW1 7937   5.410   3.777   5.918
 2346SOL    HW2 7938   5.319   3.885   5.838
 2347SOL     OW 7939   1.447   2.566   1.815
 2347SOL    HW1 7940   1.522   2.604   1.870
 2347SOL    HW2 7941   1.458   2.467   1.808
 2348SOL     OW 7942   2.510   6.478   2.105
 2348SOL    HW1 7943   2.540   6.444   2.194
 2348SOL    HW2 7944   2.486   6.575   2.113
 2349SOL     OW 7945   6.130   6.589   5.660
 2349SOL    HW1 7946   6.179   6.565   5.743
 2349SOL    HW2 7947   6.195   6.597   5.584
 2350SOL     OW 7948   2.660   0.461   5.703
 2350SOL    HW1 7949   2.660   0.448   5.604
 2350SOL    HW2 7950   2.663   0.372   5.748
 2351SOL     OW 7951   2.345   5.370   4.108
 2351SOL    HW1 7952   2.322   5.357   4.205
 2351SOL    HW2 7953   2.417   5.439   4.100
 2352SOL     OW 7954   0.798   3.992   2.809
 2352SOL    HW1 7955   0.794   4.006   2.710
 2352SOL    HW2 7956   0.885   4.026   2.844
 2353SOL     OW 7957   3.042   4.356   5.589
 2353SOL    HW1 7958   2.980   4.298   5.642
 2353SOL    HW2 7959   3.004   4.369   5.497
 2354SOL     OW 7960   2.982   2.158   0.742
 2354SOL    HW1 7961   2.892   2.113   0.742
 2354SOL    HW2 7962   3.046   2.103   0.795
 2355SOL     OW 7963   0.651   6.435   0.709
 2355SOL    HW1 7964   0.731   6.375   0.701
 2355SOL    HW2 7965   0.592   6.402   0.782
 2356SOL     OW 7966   2.937   5.067   3.303
 2356SOL    HW1 7967   2.921   4.979   3.349
 2356SOL    HW2 7968   2.879   5.074   3.223
 2357SOL     OW 7969   6.429   4.392   2.139
 2357SOL    HW1 7970   6.364   4.393   2.064
 2357SOL    HW2 7971   6.465   4.299   2.151
 2358SOL     OW 7972   3.678   1.280   5.740
 2358SOL    HW1 7973   3.706   1.245   5.650
 2358SOL    HW2 7974   3.678   1.205   5.806
 2359SOL     OW 7975   1.807   1.567   5.282
 2359SOL    HW1 7976   1.733   1.581   5.216
 2359SOL    HW2 7977   1.884   1.522   5.237
 2360SOL     OW 7978   4.333   4.700   0.646
 2360SOL    HW1 7979   4.327   4.601   0.633
 2360SOL    HW2 7980   4.398   4.739   0.581
 2361SOL     OW 7981   3.132   6.683   2.038
 2361SOL    HW1 7982   3.073   6.755   2.076
 2361SOL    HW2 7983   3.112   6.672   1.941
 2362SOL     OW 7984   3.961   5.638   4.472
 2362SOL    HW1 7985   3.945   5.724   4.522
 2362SOL    HW2 7986   4.013   5.575   4.530
 2363SOL     OW 7987   3.256   3.412   0.591
 2363SOL    HW1 7988   3.244   3.409   0.492
 2363SOL    HW2 7989   3.197   3.343   0.634
 2364SOL     OW 7990   4.057   1.941   2.062
 2364SOL    HW1 7991   4.080   1.943   1.964
 2364SOL    HW2 7992   4.040   1.847   2.091
 2365SOL     OW 7993   5.792   3.216   4.210
 2365SOL    HW1 7994   5.716   3.244   4.151
 2365SOL    HW2 7995   5.875   3.266   4.184
 2366SOL     OW 7996   2.539   4.192   5.283
 2366SOL    HW1 7997   2.562   4.146   5.368
 2366SOL    HW2 7998   2.478   4.134   5.229
 2367SOL     OW 7999   0.855   4.260   6.087
 2367SOL    HW1 8000   0.892   4.167   6.079
 2367SOL    HW2 8001   0.758   4.256   6.110
 2368SOL     OW 8002   5.548   0.134   4.460
 2368SOL    HW1 8003   5.511   0.061   4.403
 2368SOL    HW2 8004   5.549   0.219   4.407
 2369SOL     OW 8005   3.128   1.143   3.628
 2369SOL    HW1 8006   3.116   1.056   3.674
 2369SOL    HW2 8007   3.107   1.218   3.691
 2370SOL     OW 8008   5.495   2.781   1.333
 2370SOL    HW1 8009   5.525   2.753   1.242
 2370SOL    HW2 8010   5.524   2.875   1.350
 2371SOL     OW 8011   0.846   6.750   2.826
 2371SOL    HW1 8012   0.813   6.657   2.811
 2371SOL    HW2 8013   0.820   6.808   2.749
 2372SOL     OW 8014   6.697   1.615   5.975
 2372SOL    HW1 8015   6.602   1.591   5.959
 2372SOL    HW2 8016   6.756   1.566   5.910
 2373SOL     OW 8017   6.310   6.572   6.174
 2373SOL    HW1 8018   6.369   6.605   6.247
 2373SOL    HW2 8019   6.352   6.492   6.130
 2374SOL     OW 8020   6.400   6.150   2.860
 2374SOL    HW1 8021   6.452   6.195   2.932
 2374SOL    HW2 8022   6.401   6.205   2.777
 2375SOL     OW 8023   1.164   0.792   4.057
 2375SOL    HW1 8024   1.076   0.746   4.070
 2375SOL    HW2 8025   1.218   0.786   4.141
 2376SOL     OW 8026   5.979   1.870   2.689
 2376SOL    HW1 8027   6.034   1.937   2.739
 2376SOL    HW2 8028   5.967   1.901   2.595
 2377SOL     OW 8029   4.466   4.807   6.005
 2377SOL    HW1 8030   4.496   4.714   5.983
 2377SOL    HW2 8031   4.521   4.842   6.080
 2378SOL     OW 8032   6.804   1.308   0.456
 2378SOL    HW1 8033   6.781   1.386   0.514
 2378SOL    HW2 8034   6.883   1.332   0.399
 2379SOL     OW 8035   6.920   5.474   0.416
 2379SOL    HW1 8036   6.833   5.523   0.417
 2379SOL    HW2 8037   6.912   5.390   0.469
 2380SOL     OW 8038   4.897   4.454   4.838
 2380SOL    HW1 8039   4.886   4.467   4.739
 2380SOL    HW2 8040   4.915   4.542   4.881
 2381SOL     OW 8041   2.800   5.373   5.146
 2381SOL    HW1 8042   2.739   5.295   5.150
 2381SOL    HW2 8043   2.885   5.347   5.101
 2382SOL     OW 8044   1.449   6.292   2.241
 2382SOL    HW1 8045   1.411   6.291   2.149
 2382SOL    HW2 8046   1.534   6.238   2.243
 2383SOL     OW 8047   4.883   5.640   5.023
 2383SOL    HW1 8048   4.921   5.673   5.109
 2383SOL    HW2 8049   4.956   5.633   4.954
 2384SOL     OW 8050   1.001   1.507   1.803
 2384SOL    HW1 8051   0.924   1.490   1.864
 2384SOL    HW2 8052   1.047   1.592   1.830
 2385SOL     OW 8053   0.105   2.363   0.459
 2385SOL    HW1 8054   0.099   2.398   0.552
 2385SOL    HW2 8055   0.187   2.306   0.449
 2386SOL     OW 8056   4.047   5.677   4.193
 2386SOL    HW1 8057   4.066   5.591   4.146
 2386SOL    HW2 8058   4.023   5.659   4.288
 2387SOL     OW 8059   0.930   1.842   3.275
 2387SOL    HW1 8060   0.891   1.906   3.209
 2387SOL    HW2 8061   1.024   1.819   3.249
 2388SOL     OW 8062   6.699   2.290   6.241
 2388SOL    HW1 8063   6.653   2.370   6.201
 2388SOL    HW2 8064   6.630   2.222   6.266
 2389SOL     OW 8065   5.331   4.879   3.814
 2389SOL    HW1 8066   5.334   4.963   3.759
 2389SOL    HW2 8067   5.239   4.865   3.849
 2390SOL     OW 8068   4.525   3.868   6.128
 2390SOL    HW1 8069   4.502   3.774   6.103
 2390SOL    HW2 8070   4.506   3.883   6.225
 2391SOL     OW 8071   3.351   3.375   5.840
 2391SOL    HW1 8072   3.289   3.297   5.840
 2391SOL    HW2 8073   3.299   3.460   5.831
 2392SOL     OW 8074   3.533   5.548   5.110
 2392SOL    HW1 8075   3.575   5.576   5.024
 2392SOL    HW2 8076   3.599   5.495   5.164
 2393SOL     OW 8077   3.694   5.187   0.986
 2393SOL    HW1 8078   3.772   5.238   0.950
 2393SOL    HW2 8079   3.723   5.136   1.067
 2394SOL     OW 8080   0.401   3.537   3.391
 2394SOL    HW1 8081   0.301   3.537   3.379
 2394SOL    HW2 8082   0.424   3.503   3.482
 2395SOL     OW 8083   0.448   3.025   5.896
 2395SOL    HW1 8084   0.521   3.055   5.956
 2395SOL    HW2 8085   0.415   2.935   5.926
 2396SOL     OW 8086   5.879   1.299   5.392
 2396SOL    HW1 8087   5.804   1.312   5.457
 2396SOL    HW2 8088   5.862   1.354   5.310
 2397SOL     OW 8089   0.755   4.851   5.429
 2397SOL    HW1 8090   0.797   4.920   5.369
 2397SOL    HW2 8091   0.825   4.812   5.488
 2398SOL     OW 8092   2.849   5.636   4.181
 2398SOL    HW1 8093   2.933   5.608   4.226
 2398SOL    HW2 8094   2.869   5.665   4.088
 2399SOL     OW 8095   2.755   2.386   3.354
 2399SOL    HW1 8096   2.763   2.340   3.443
 2399SOL    HW2 8097   2.739   2.483   3.368
 2400SOL     OW 8098   1.398   3.960   0.204
 2400SOL    HW1 8099   1.329   3.898   0.167
 2400SOL    HW2 8100   1.362   4.053   0.205
 2401SOL     OW 8101   3.790   6.860   5.125
 2401SOL    HW1 8102   3.804   6.952   5.162
 2401SOL    HW2 8103   3.860   6.841   5.056
 2402SOL     OW 8104   0.946   2.049   2.120
 2402SOL    HW1 8105   0.899   1.985   2.061
 2402SOL    HW2 8106   1.022   2.091   2.070
 2403SOL     OW 8107   3.275   3.590   2.383
 2403SOL    HW1 8108   3.278   3.642   2.468
 2403SOL    HW2 8109   3.181   3.563   2.365
 2404SOL     OW 8110   6.713   0.921   0.885
 2404SOL    HW1 8111   6.624   0.961   0.910
 2404SOL    HW2 8112   6.727   0.933   0.786
 2405SOL     OW 8113   2.591   4.059   0.199
 2405SOL    HW1 8114   2.539   4.095   0.277
 2405SOL    HW2 8115   2.678   4.023   0.232
 2406SOL     OW 8116   1.842   0.300   4.594
 2406SOL    HW1 8117   1.811   0.321   4.686
 2406SOL    HW2 8118   1.865   0.202   4.588
 2407SOL     OW 8119   3.737   1.482   3.345
 2407SOL    HW1 8120   3.704   1.398   3.389
 2407SOL    HW2 8121   3.662   1.524   3.294
 2408SOL     OW 8122   2.287   6.555   3.920
 2408SOL    HW1 8123   2.383   6.531   3.935
 2408SOL    HW2 8124   2.264   6.634   3.978
 2409SOL     OW 8125   2.254   2.482   0.766
 2409SOL    HW1 8126   2.161   2.489   0.801
 2409SOL    HW2 8127   2.257   2.514   0.672
 2410SOL     OW 8128   6.788   3.191   5.678
 2410SOL    HW1 8129   6.695   3.230   5.679
 2410SOL    HW2 8130   6.819   3.183   5.583
 2411SOL     OW 8131   2.859   3.514   6.727
 2411SOL    HW1 8132   2.840   3.420   6.700
 2411SOL    HW2 8133   2.957   3.524   6.746
 2412SOL     OW 8134   2.490   2.126   6.834
 2412SOL    HW1 8135   2.537   2.213   6.817
 2412SOL    HW2 8136   2.445   2.096   6.751
 2413SOL     OW 8137   6.919   2.631   6.565
 2413SOL    HW1 8138   6.860   2.554   6.540
 2413SOL    HW2 8139   7.003   2.597   6.608
 2414SOL     OW 8140   6.152   2.572   4.262
 2414SOL    HW1 8141   6.169   2.597   4.357
 2414SOL    HW2 8142   6.160   2.473   4.252
 2415SOL     OW 8143   2.874   6.123   1.301
 2415SOL    HW1 8144   2.912   6.166   1.382
 2415SOL    HW2 8145   2.902   6.174   1.220
 2416SOL     OW 8146   6.909   3.253   3.053
 2416SOL    HW1 8147   6.941   3.221   2.964
 2416SOL    HW2 8148   6.824   3.305   3.040
 2417SOL     OW 8149   3.612   2.683   0.311
 2417SOL    HW1 8150   3.556   2.618   0.260
 2417SOL    HW2 8151   3.706   2.649   0.317
 2418SOL     OW 8152   4.971   4.280   5.841
 2418SOL    HW1 8153   4.967   4.193   5.890
 2418SOL    HW2 8154   4.912   4.276   5.760
 2419SOL     OW 8155   2.010   6.376   4.352
 2419SOL    HW1 8156   1.918   6.370   4.391
 2419SOL    HW2 8157   2.074   6.327   4.412
 2420SOL     OW 8158   3.578   5.304   2.720
 2420SOL    HW1 8159   3.569   5.217   2.769
 2420SOL    HW2 8160   3.493   5.355   2.728
 2421SOL     OW 8161   3.206   7.011   4.834
 2421SOL    HW1 8162   3.160   6.931   4.873
 2421SOL    HW2 8163   3.140   0.050   4.787
 2422SOL     OW 8164   4.022   6.657   2.146
 2422SOL    HW1 8165   4.017   6.603   2.229
 2422SOL    HW2 8166   4.115   6.653   2.109
 2423SOL     OW 8167   1.780   5.409   2.252
 2423SOL    HW1 8168   1.819   5.341   2.191
 2423SOL    HW2 8169   1.763   5.368   2.341
 2424SOL     OW 8170   5.191   0.631   6.840
 2424SOL    HW1 8171   5.263   0.592   6.782
 2424SOL    HW2 8172   5.232   0.698   6.902
 2425SOL     OW 8173   4.516   5.518   5.711
 2425SOL    HW1 8174   4.503   5.463   5.629
 2425SOL    HW2 8175   4.557   5.606   5.687
 2426SOL     OW 8176   1.047   5.089   5.559
 2426SOL    HW1 8177   1.107   5.149   5.612
 2426SOL    HW2 8178   0.958   5.133   5.547
 2427SOL     OW 8179   5.468   0.273   6.377
 2427SOL    HW1 8180   5.419   0.188   6.396
 2427SOL    HW2 8181   5.504   0.270   6.284
 2428SOL     OW 8182   0.249   1.275   3.798
 2428SOL    HW1 8183   0.311   1.274   3.877
 2428SOL    HW2 8184   0.166   1.224   3.821
 2429SOL     OW 8185   5.558   5.213   2.143
 2429SOL    HW1 8186   5.534   5.133   2.088
 2429SOL    HW2 8187   5.655   5.235   2.131
 2430SOL     OW 8188   5.833   2.630   0.236
 2430SOL    HW1 8189   5.897   2.697   0.198
 2430SOL    HW2 8190   5.884   2.564   0.292
 2431SOL     OW 8191   6.200   2.098   1.787
 2431SOL    HW1 8192   6.247   2.022   1.832
 2431SOL    HW2 8193   6.219   2.095   1.688
 2432SOL     OW 8194   3.403   5.843   2.203
 2432SOL    HW1 8195   3.491   5.852   2.156
 2432SOL    HW2 8196   3.412   5.875   2.297
 2433SOL     OW 8197   6.882   5.762   0.262
 2433SOL    HW1 8198   6.965   5.753   0.316
 2433SOL    HW2 8199   6.899   5.731   0.168
 2434SOL     OW 8200   3.862   2.171   2.810
 2434SOL    HW1 8201   3.923   2.238   2.768
 2434SOL    HW2 8202   3.785   2.153   2.749
 2435SOL     OW 8203   5.732   0.240   6.494
 2435SOL    HW1 8204   5.642   0.247   6.452
 2435SOL    HW2 8205   5.784   0.167   6.450
 2436SOL     OW 8206   0.835   1.345   1.317
 2436SOL    HW1 8207   0.930   1.365   1.293
 2436SOL    HW2 8208   0.827   1.340   1.417
 2437SOL     OW 8209   6.638   5.953   2.081
 2437SOL    HW1 8210   6.634   6.048   2.112
 2437SOL    HW2 8211   6.702   5.902   2.137
 2438SOL     OW 8212   3.084   1.879   4.390
 2438SOL    HW1 8213   3.039   1.886   4.301
 2438SOL    HW2 8214   3.115   1.969   4.419
 2439SOL     OW 8215   0.283   4.835   6.481
 2439SOL    HW1 8216   0.306   4.739   6.500
 2439SOL    HW2 8217   0.184   4.843   6.471
 2440SOL     OW 8218   4.010   1.038   4.567
 2440SOL    HW1 8219   4.096   1.036   4.618
 2440SOL    HW2 8220   3.993   1.130   4.533
 2441SOL     OW 8221   5.991   6.993   6.665
 2441SOL    HW1 8222   6.047   0.048   6.702
 2441SOL    HW2 8223   5.899   6.999   6.702
 2442SOL     OW 8224   4.899   3.631   2.100
 2442SOL    HW1 8225   4.885   3.553   2.039
 2442SOL    HW2 8226   4.899   3.716   2.048
 2443SOL     OW 8227   2.204   1.153   6.914
 2443SOL    HW1 8228   2.175   1.205   6.834
 2443SOL    HW2 8229   2.183   1.205   6.997
 2444SOL     OW 8230   4.074   5.355   0.638
 2444SOL    HW1 8231   4.050   5.372   0.734
 2444SOL    HW2 8232   4.172   5.373   0.625
 2445SOL     OW 8233   0.117   1.948   1.364
 2445SOL    HW1 8234   0.060   1.879   1.407
 2445SOL    HW2 8235   0.147   2.015   1.432
 2446SOL     OW 8236   1.237   3.382   2.402
 2446SOL    HW1 8237   1.153   3.329   2.395
 2446SOL    HW2 8238   1.239   3.451   2.330
 2447SOL     OW 8239   1.918   0.757   0.473
 2447SOL    HW1 8240   1.958   0.825   0.412
 2447SOL    HW2 8241   1.902   0.672   0.423
 2448SOL     OW 8242   5.996   2.082   4.275
 2448SOL    HW1 8243   5.950   2.152   4.220
 2448SOL    HW2 8244   6.035   2.013   4.214
 2449SOL     OW 8245   2.120   4.425   1.810
 2449SOL    HW1 8246   2.036   4.375   1.790
 2449SOL    HW2 8247   2.153   4.469   1.726
 2450SOL     OW 8248   2.423   5.681   6.175
 2450SOL    HW1 8249   2.504   5.630   6.147
 2450SOL    HW2 8250   2.388   5.643   6.261
 2451SOL     OW 8251   0.661   0.446   3.886
 2451SOL    HW1 8252   0.704   0.481   3.803
 2451SOL    HW2 8253   0.566   0.423   3.867
 2452SOL     OW 8254   2.370   2.678   3.693
 2452SOL    HW1 8255   2.403   2.709   3.782
 2452SOL    HW2 8256   2.270   2.688   3.689
 2453SOL     OW 8257   6.778   1.977   0.564
 2453SOL    HW1 8258   6.828   2.022   0.490
 2453SOL    HW2 8259   6.841   1.921   0.617
 2454SOL     OW 8260   3.151   5.597   0.512
 2454SOL    HW1 8261   3.156   5.685   0.465
 2454SOL    HW2 8262   3.214   5.598   0.590
 2455SOL     OW 8263   3.109   1.171   6.771
 2455SOL    HW1 8264   3.081   1.120   6.851
 2455SOL    HW2 8265   3.144   1.108   6.701
 2456SOL     OW 8266   1.038   3.873   6.622
 2456SOL    HW1 8267   0.944   3.877   6.654
 2456SOL    HW2 8268   1.087   3.955   6.652
 2457SOL     OW 8269   5.474   1.501   5.712
 2457SOL    HW1 8270   5.540   1.497   5.787
 2457SOL    HW2 8271   5.413   1.579   5.725
 2458SOL     OW 8272   0.680   0.645   3.050
 2458SOL    HW1 8273   0.582   0.645   3.068
 2458SOL    HW2 8274   0.728   0.601   3.126
 2459SOL     OW 8275   3.093   5.566   6.733
 2459SOL    HW1 8276   3.152   5.512   6.792
 2459SOL    HW2 8277   3.149   5.612   6.664
 2460SOL     OW 8278   0.515   1.048   6.933
 2460SOL    HW1 8279   0.475   1.044   0.006
 2460SOL    HW2 8280   0.563   1.135   6.921
 2461SOL     OW 8281   4.419   0.153   4.458
 2461SOL    HW1 8282   4.375   0.064   4.443
 2461SOL    HW2 8283   4.370   0.203   4.529
 2462SOL     OW 8284   0.612   4.746   0.527
 2462SOL    HW1 8285   0.585   4.677   0.594
 2462SOL    HW2 8286   0.699   4.720   0.485
 2463SOL     OW 8287   6.597   1.436   0.165
 2463SOL    HW1 8288   6.565   1.353   0.211
 2463SOL    HW2 8289   6.590   1.514   0.227
 2464SOL     OW 8290   0.610   2.865   2.916
 2464SOL    HW1 8291   0.612   2.965   2.924
 2464SOL    HW2 8292   0.653   2.838   2.830
 2465SOL     OW 8293   6.837   5.496   6.352
 2465SOL    HW1 8294   6.831   5.587   6.309
 2465SOL    HW2 8295   6.745   5.462   6.371
 2466SOL     OW 8296   1.652   1.903   2.158
 2466SOL    HW1 8297   1.625   1.820   2.108
 2466SOL    HW2 8298   1.570   1.948   2.193
 2467SOL     OW 8299   4.485   1.793   6.093
 2467SOL    HW1 8300   4.548   1.715   6.104
 2467SOL    HW2 8301   4.391   1.762   6.109
 2468SOL     OW 8302   4.061   0.529   6.690
 2468SOL    HW1 8303   4.130   0.517   6.761
 2468SOL    HW2 8304   4.029   0.439   6.660
 2469SOL     OW 8305   4.294   2.983   5.995
 2469SOL    HW1 8306   4.277   2.926   5.915
 2469SOL    HW2 8307   4.377   2.952   6.042
 2470SOL     OW 8308   3.895   4.346   6.003
 2470SOL    HW1 8309   3.912   4.418   5.936
 2470SOL    HW2 8310   3.805   4.359   6.044
 2471SOL     OW 8311   3.966   6.843   0.856
 2471SOL    HW1 8312   4.051   6.864   0.903
 2471SOL    HW2 8313   3.913   6.778   0.910
 2472SOL     OW 8314   4.498   2.563   3.938
 2472SOL    HW1 8315   4.553   2.481   3.923
 2472SOL    HW2 8316   4.401   2.541   3.931
 2473SOL     OW 8317   1.217   4.256   4.671
 2473SOL    HW1 8318   1.241   4.160   4.660
 2473SOL    HW2 8319   1.208   4.277   4.768
 2474SOL     OW 8320   1.468   5.637   0.696
 2474SOL    HW1 8321   1.388   5.577   0.698
 2474SOL    HW2 8322   1.525   5.612   0.618
 2475SOL     OW 8323   4.356   0.836   0.752
 2475SOL    HW1 8324   4.391   0.928   0.771
 2475SOL    HW2 8325   4.276   0.818   0.809
 2476SOL     OW 8326   5.387   0.417   2.705
 2476SOL    HW1 8327   5.382   0.475   2.787
 2476SOL    HW2 8328   5.455   0.455   2.643
 2477SOL     OW 8329   4.019   0.579   3.465
 2477SOL    HW1 8330   4.055   0.672   3.471
 2477SOL    HW2 8331   4.070   0.520   3.528
 2478SOL     OW 8332   4.444   1.010   2.380
 2478SOL    HW1 8333   4.430   0.916   2.409
 2478SOL    HW2 8334   4.356   1.058   2.378
 2479SOL     OW 8335   1.019   2.475   1.371
 2479SOL    HW1 8336   0.960   2.520   1.304
 2479SOL    HW2 8337   0.963   2.415   1.429
 2480SOL     OW 8338   3.730   2.699   1.371
 2480SOL    HW1 8339   3.779   2.625   1.417
 2480SOL    HW2 8340   3.694   2.666   1.284
 2481SOL     OW 8341   2.567   0.350   1.233
 2481SOL    HW1 8342   2.604   0.257   1.235
 2481SOL    HW2 8343   2.468   0.347   1.235
 2482SOL     OW 8344   5.208   3.478   0.232
 2482SOL    HW1 8345   5.240   3.404   0.291
 2482SOL    HW2 8346   5.279   3.502   0.167
 2483SOL     OW 8347   1.470   2.067   0.369
 2483SOL    HW1 8348   1.418   2.056   0.453
 2483SOL    HW2 8349   1.464   1.983   0.314
 2484SOL     OW 8350   3.342   0.705   0.455
 2484SOL    HW1 8351   3.318   0.785   0.510
 2484SOL    HW2 8352   3.308   0.718   0.361
 2485SOL     OW 8353   4.890   3.057   0.595
 2485SOL    HW1 8354   4.877   3.079   0.692
 2485SOL    HW2 8355   4.987   3.052   0.574
 2486SOL     OW 8356   0.661   5.633   5.823
 2486SOL    HW1 8357   0.561   5.635   5.818
 2486SOL    HW2 8358   0.689   5.572   5.898
 2487SOL     OW 8359   3.794   6.229   0.270
 2487SOL    HW1 8360   3.709   6.178   0.278
 2487SOL    HW2 8361   3.871   6.165   0.263
 2488SOL     OW 8362   0.586   3.343   1.802
 2488SOL    HW1 8363   0.613   3.327   1.707
 2488SOL    HW2 8364   0.583   3.256   1.851
 2489SOL     OW 8365   1.014   5.726   3.447
 2489SOL    HW1 8366   1.070   5.801   3.481
 2489SOL    HW2 8367   1.048   5.640   3.485
 2490SOL     OW 8368   0.561   6.072   1.319
 2490SOL    HW1 8369   0.649   6.074   1.367
 2490SOL    HW2 8370   0.573   6.099   1.224
 2491SOL     OW 8371   3.830   4.551   1.147
 2491SOL    HW1 8372   3.794   4.634   1.189
 2491SOL    HW2 8373   3.897   4.575   1.077
 2492SOL     OW 8374   4.428   3.429   1.260
 2492SOL    HW1 8375   4.391   3.475   1.341
 2492SOL    HW2 8376   4.369   3.450   1.182
 2493SOL     OW 8377   6.753   0.233   1.493
 2493SOL    HW1 8378   6.814   0.308   1.519
 2493SOL    HW2 8379   6.693   0.211   1.570
 2494SOL     OW 8380   6.055   3.823   2.288
 2494SOL    HW1 8381   6.073   3.874   2.372
 2494SOL    HW2 8382   6.135   3.768   2.264
 2495SOL     OW 8383   5.869   5.467   3.539
 2495SOL    HW1 8384   5.914   5.380   3.557
 2495SOL    HW2 8385   5.837   5.469   3.444
 2496SOL     OW 8386   0.493   3.251   6.750
 2496SOL    HW1 8387   0.396   3.272   6.740
 2496SOL    HW2 8388   0.544   3.291   6.673
 2497SOL     OW 8389   0.211   6.960   1.222
 2497SOL    HW1 8390   0.248   6.871   1.194
 2497SOL    HW2 8391   0.226   6.973   1.321
 2498SOL     OW 8392   3.427   2.053   5.686
 2498SOL    HW1 8393   3.437   2.153   5.686
 2498SOL    HW2 8394   3.414   2.021   5.593
 2499SOL     OW 8395   5.873   3.243   2.266
 2499SOL    HW1 8396   5.827   3.330   2.250
 2499SOL    HW2 8397   5.960   3.241   2.216
 2500SOL     OW 8398   3.970   3.761   6.279
 2500SOL    HW1 8399   3.964   3.746   6.377
 2500SOL    HW2 8400   3.897   3.824   6.250
 2501SOL     OW 8401   5.207   5.694   0.075
 2501SOL    HW1 8402   5.163   5.619   0.125
 2501SOL    HW2 8403   5.246   5.659   7.008
 2502SOL     OW 8404   1.793   0.667   5.026
 2502SOL    HW1 8405   1.752   0.625   5.107
 2502SOL    HW2 8406   1.874   0.719   5.053
 2503SOL     OW 8407   3.064   6.796   4.942
 2503SOL    HW1 8408   2.981   6.811   4.887
 2503SOL    HW2 8409   3.056   6.711   4.992
 2504SOL     OW 8410   3.821   6.053   3.143
 2504SOL    HW1 8411   3.901   6.078   3.088
 2504SOL    HW2 8412   3.851   6.003   3.225
 2505SOL     OW 8413   0.205   6.119   2.636
 2505SOL    HW1 8414   0.142   6.087   2.707
 2505SOL    HW2 8415   0.277   6.052   2.622
 2506SOL     OW 8416   6.712   2.885   6.128
 2506SOL    HW1 8417   6.778   2.949   6.167
 2506SOL    HW2 8418   6.653   2.849   6.201
 2507SOL     OW 8419   6.743   3.638   0.185
 2507SOL    HW1 8420   6.836   3.603   0.179
 2507SOL    HW2 8421   6.679   3.565   0.158
 2508SOL     OW 8422   2.746   1.664   3.629
 2508SOL    HW1 8423   2.751   1.565   3.620
 2508SOL    HW2 8424   2.707   1.703   3.546
 2509SOL     OW 8425   6.955   4.777   1.275
 2509SOL    HW1 8426   6.981   4.795   1.370
 2509SOL    HW2 8427   6.856   4.783   1.267
 2510SOL     OW 8428   2.991   5.008   1.161
 2510SOL    HW1 8429   3.082   5.003   1.122
 2510SOL    HW2 8430   2.973   4.926   1.215
 2511SOL     OW 8431   2.581   1.510   3.848
 2511SOL    HW1 8432   2.509   1.487   3.914
 2511SOL    HW2 8433   2.580   1.608   3.830
 2512SOL     OW 8434   4.384   3.899   5.701
 2512SOL    HW1 8435   4.435   3.813   5.696
 2512SOL    HW2 8436   4.357   3.915   5.796
 2513SOL     OW 8437   1.684   5.488   4.609
 2513SOL    HW1 8438   1.719   5.581   4.617
 2513SOL    HW2 8439   1.750   5.431   4.561
 2514SOL     OW 8440   0.693   4.023   4.590
 2514SOL    HW1 8441   0.783   4.066   4.596
 2514SOL    HW2 8442   0.683   3.979   4.501
 2515SOL     OW 8443   1.696   6.359   0.599
 2515SOL    HW1 8444   1.722   6.452   0.575
 2515SOL    HW2 8445   1.602   6.358   0.633
 2516SOL     OW 8446   4.872   1.482   2.311
 2516SOL    HW1 8447   4.785   1.437   2.287
 2516SOL    HW2 8448   4.877   1.494   2.410
 2517SOL     OW 8449   0.952   0.789   5.976
 2517SOL    HW1 8450   1.013   0.762   6.051
 2517SOL    HW2 8451   0.859   0.758   5.995
 2518SOL     OW 8452   1.106   5.590   1.052
 2518SOL    HW1 8453   1.079   5.516   0.991
 2518SOL    HW2 8454   1.172   5.649   1.006
 2519SOL     OW 8455   3.337   0.341   1.788
 2519SOL    HW1 8456   3.251   0.318   1.744
 2519SOL    HW2 8457   3.366   0.432   1.759
 2520SOL     OW 8458   3.265   1.873   0.726
 2520SOL    HW1 8459   3.234   1.952   0.779
 2520SOL    HW2 8460   3.206   1.862   0.645
 2521SOL     OW 8461   3.217   0.968   5.330
 2521SOL    HW1 8462   3.218   1.003   5.237
 2521SOL    HW2 8463   3.165   0.883   5.334
 2522SOL     OW 8464   1.207   1.095   5.743
 2522SOL    HW1 8465   1.239   1.081   5.649
 2522SOL    HW2 8466   1.111   1.067   5.751
 2523SOL     OW 8467   1.289   2.886   1.054
 2523SOL    HW1 8468   1.326   2.803   1.013
 2523SOL    HW2 8469   1.292   2.960   0.988
 2524SOL     OW 8470   0.051   6.652   4.944
 2524SOL    HW1 8471   0.043   6.737   4.892
 2524SOL    HW2 8472   0.013   6.666   5.036
 2525SOL     OW 8473   0.984   2.569   5.187
 2525SOL    HW1 8474   0.934   2.550   5.272
 2525SOL    HW2 8475   0.920   2.608   5.120
 2526SOL     OW 8476   1.349   4.459   6.706
 2526SOL    HW1 8477   1.379   4.515   6.628
 2526SOL    HW2 8478   1.252   4.475   6.722
 2527SOL     OW 8479   5.910   6.749   5.632
 2527SOL    HW1 8480   6.001   6.709   5.635
 2527SOL    HW2 8481   5.911   6.839   5.676
 2528SOL     OW 8482   5.531   4.907   6.281
 2528SOL    HW1 8483   5.595   4.844   6.325
 2528SOL    HW2 8484   5.557   5.001   6.304
 2529SOL     OW 8485   6.979   6.501   6.732
 2529SOL    HW1 8486   6.926   6.556   6.667
 2529SOL    HW2 8487   6.916   6.453   6.793
 2530SOL     OW 8488   2.564   6.152   4.762
 2530SOL    HW1 8489   2.630   6.089   4.721
 2530SOL    HW2 8490   2.523   6.208   4.690
 2531SOL     OW 8491   5.974   6.196   5.088
 2531SOL    HW1 8492   6.062   6.190   5.040
 2531SOL    HW2 8493   5.988   6.169   5.184
 2532SOL     OW 8494   0.343   6.138   0.700
 2532SOL    HW1 8495   0.328   6.227   0.742
 2532SOL    HW2 8496   0.314   6.142   0.604
 2533SOL     OW 8497   4.140   6.969   3.614
 2533SOL    HW1 8498   4.213   0.005   3.654
 2533SOL    HW2 8499   4.172   6.928   3.528
 2534SOL     OW 8500   3.684   1.256   1.554
 2534SOL    HW1 8501   3.764   1.287   1.504
 2534SOL    HW2 8502   3.618   1.217   1.490
 2535SOL     OW 8503   3.664   3.556   6.214
 2535SOL    HW1 8504   3.755   3.597   6.205
 2535SOL    HW2 8505   3.648   3.494   6.138
 2536SOL     OW 8506   1.213   1.362   6.438
 2536SOL    HW1 8507   1.157   1.434   6.397
 2536SOL    HW2 8508   1.211   1.281   6.380
 2537SOL     OW 8509   3.391   0.182   6.248
 2537SOL    HW1 8510   3.364   0.222   6.160
 2537SOL    HW2 8511   3.392   0.083   6.241
 2538SOL     OW 8512   0.265   4.130   3.516
 2538SOL    HW1 8513   0.363   4.137   3.532
 2538SOL    HW2 8514   0.216   4.145   3.602
 2539SOL     OW 8515   5.709   0.982   3.997
 2539SOL    HW1 8516   5.629   0.923   4.005
 2539SOL    HW2 8517   5.705   1.052   4.068
 2540SOL     OW 8518   3.993   1.863   2.586
 2540SOL    HW1 8519   4.064   1.870   2.516
 2540SOL    HW2 8520   4.028   1.897   2.673
 2541SOL     OW 8521   3.325   0.803   4.781
 2541SOL    HW1 8522   3.338   0.801   4.682
 2541SOL    HW2 8523   3.383   0.874   4.820
 2542SOL     OW 8524   3.504   3.283   6.073
 2542SOL    HW1 8525   3.426   3.247   6.124
 2542SOL    HW2 8526   3.472   3.314   5.983
 2543SOL     OW 8527   0.365   0.693   3.716
 2543SOL    HW1 8528   0.305   0.691   3.636
 2543SOL    HW2 8529   0.373   0.786   3.750
 2544SOL     OW 8530   0.807   6.073   0.529
 2544SOL    HW1 8531   0.754   6.094   0.447
 2544SOL    HW2 8532   0.883   6.013   0.505
 2545SOL     OW 8533   1.541   6.662   2.011
 2545SOL    HW1 8534   1.473   6.631   2.078
 2545SOL    HW2 8535   1.626   6.611   2.025
 2546SOL     OW 8536   6.764   1.336   2.081
 2546SOL    HW1 8537   6.784   1.397   2.157
 2546SOL    HW2 8538   6.677   1.289   2.097
 2547SOL     OW 8539   0.567   4.068   0.163
 2547SOL    HW1 8540   0.556   4.132   0.239
 2547SOL    HW2 8541   0.562   3.974   0.197
 2548SOL     OW 8542   1.139   6.685   4.679
 2548SOL    HW1 8543   1.114   6.644   4.767
 2548SOL    HW2 8544   1.212   6.752   4.693
 2549SOL     OW 8545   0.889   0.223   1.189
 2549SOL    HW1 8546   0.802   0.261   1.223
 2549SOL    HW2 8547   0.906   0.134   1.233
 2550SOL     OW 8548   6.993   0.064   0.016
 2550SOL    HW1 8549   6.952   6.994   0.041
 2550SOL    HW2 8550   7.011   0.117   0.099
 2551SOL     OW 8551   3.405   4.716   0.223
 2551SOL    HW1 8552   3.372   4.644   0.162
 2551SOL    HW2 8553   3.428   4.797   0.169
 2552SOL     OW 8554   1.684   5.922   4.334
 2552SOL    HW1 8555   1.595   5.880   4.316
 2552SOL    HW2 8556   1.716   5.969   4.251
 2553SOL     OW 8557   4.100   3.532   5.537
 2553SOL    HW1 8558   4.132   3.600   5.471
 2553SOL    HW2 8559   4.056   3.579   5.614
 2554SOL     OW 8560   3.040   0.494   0.486
 2554SOL    HW1 8561   3.053   0.435   0.406
 2554SOL    HW2 8562   3.028   0.436   0.567
 2555SOL     OW 8563   6.198   1.055   4.800
 2555SOL    HW1 8564   6.241   1.053   4.710
 2555SOL    HW2 8565   6.110   1.104   4.793
 2556SOL     OW 8566   4.377   6.569   0.218
 2556SOL    HW1 8567   4.365   6.499   0.289
 2556SOL    HW2 8568   4.387   6.526   0.129
 2557SOL     OW 8569   1.915   3.872   0.686
 2557SOL    HW1 8570   1.977   3.881   0.608
 2557SOL    HW2 8571   1.897   3.776   0.704
 2558SOL     OW 8572   5.008   1.255   4.779
 2558SOL    HW1 8573   5.107   1.258   4.791
 2558SOL    HW2 8574   4.968   1.343   4.804
 2559SOL     OW 8575   0.711   4.475   5.279
 2559SOL    HW1 8576   0.771   4.514   5.210
 2559SOL    HW2 8577   0.750   4.491   5.370
 2560SOL     OW 8578   5.358   2.314   6.017
 2560SOL    HW1 8579   5.333   2.219   6.037
 2560SOL    HW2 8580   5.383   2.323   5.920
 2561SOL     OW 8581   2.322   5.157   5.087
 2561SOL    HW1 8582   2.416   5.168   5.119
 2561SOL    HW2 8583   2.284   5.072   5.124
 2562SOL     OW 8584   2.884   4.968   1.552
 2562SOL    HW1 8585   2.864   4.917   1.636
 2562SOL    HW2 8586   2.983   4.978   1.541
 2563SOL     OW 8587   3.085   1.673   0.328
 2563SOL    HW1 8588   3.110   1.770   0.320
 2563SOL    HW2 8589   3.060   1.653   0.423
 2564SOL     OW 8590   1.986   5.750   6.912
 2564SOL    HW1 8591   1.961   5.664   6.869
 2564SOL    HW2 8592   1.943   5.755   7.002
 2565SOL     OW 8593   1.374   0.018   6.411
 2565SOL    HW1 8594   1.442   6.978   6.454
 2565SOL    HW2 8595   1.303   0.041   6.478
 2566SOL     OW 8596   2.289   0.153   0.807
 2566SOL    HW1 8597   2.209   0.144   0.867
 2566SOL    HW2 8598   2.337   0.239   0.828
 2567SOL     OW 8599   0.959   0.414   0.832
 2567SOL    HW1 8600   1.038   0.469   0.861
 2567SOL    HW2 8601   0.903   0.392   0.911
 2568SOL     OW 8602   4.444   1.776   6.483
 2568SOL    HW1 8603   4.420   1.741   6.574
 2568SOL    HW2 8604   4.538   1.748   6.460
 2569SOL     OW 8605   2.859   0.472   2.604
 2569SOL    HW1 8606   2.853   0.547   2.538
 2569SOL    HW2 8607   2.896   0.507   2.690
 2570SOL     OW 8608   5.610   0.028   6.060
 2570SOL    HW1 8609   5.661   0.114   6.066
 2570SOL    HW2 8610   5.520   0.040   6.103
 2571SOL     OW 8611   2.256   4.892   4.871
 2571SOL    HW1 8612   2.197   4.967   4.902
 2571SOL    HW2 8613   2.339   4.890   4.927
 2572SOL     OW 8614   2.911   5.744   1.438
 2572SOL    HW1 8615   2.963   5.740   1.524
 2572SOL    HW2 8616   2.975   5.755   1.362
 2573SOL     OW 8617   0.384   1.880   1.357
 2573SOL    HW1 8618   0.401   1.783   1.375
 2573SOL    HW2 8619   0.285   1.896   1.353
 2574SOL     OW 8620   5.914   4.150   0.822
 2574SOL    HW1 8621   5.903   4.245   0.792
 2574SOL    HW2 8622   5.904   4.089   0.744
 2575SOL     OW 8623   5.314   6.049   0.179
 2575SOL    HW1 8624   5.283   6.021   0.270
 2575SOL    HW2 8625   5.414   6.056   0.179
 2576SOL     OW 8626   4.681   6.437   4.180
 2576SOL    HW1 8627   4.656   6.398   4.269
 2576SOL    HW2 8628   4.747   6.511   4.193
 2577SOL     OW 8629   4.045   6.187   2.230
 2577SOL    HW1 8630   3.965   6.132   2.205
 2577SOL    HW2 8631   4.077   6.238   2.150
 2578SOL     OW 8632   4.247   1.626   4.183
 2578SOL    HW1 8633   4.256   1.681   4.266
 2578SOL    HW2 8634   4.152   1.596   4.173
 2579SOL     OW 8635   1.468   6.580   3.519
 2579SOL    HW1 8636   1.431   6.655   3.465
 2579SOL    HW2 8637   1.395   6.515   3.541
 2580SOL     OW 8638   2.550   4.347   6.288
 2580SOL    HW1 8639   2.462   4.363   6.333
 2580SOL    HW2 8640   2.593   4.265   6.326
 2581SOL     OW 8641   2.551   5.371   1.746
 2581SOL    HW1 8642   2.620   5.326   1.688
 2581SOL    HW2 8643   2.582   5.369   1.841
 2582SOL     OW 8644   0.205   4.625   1.306
 2582SOL    HW1 8645   0.157   4.682   1.373
 2582SOL    HW2 8646   0.143   4.557   1.269
 2583SOL     OW 8647   0.590   1.294   6.746
 2583SOL    HW1 8648   0.502   1.308   6.790
 2583SOL    HW2 8649   0.577   1.261   6.653
 2584SOL     OW 8650   4.452   5.747   5.940
 2584SOL    HW1 8651   4.543   5.709   5.956
 2584SOL    HW2 8652   4.391   5.675   5.906
 2585SOL     OW 8653   3.503   3.758   0.367
 2585SOL    HW1 8654   3.517   3.705   0.284
 2585SOL    HW2 8655   3.590   3.766   0.416
 2586SOL     OW 8656   3.094   0.479   5.454
 2586SOL    HW1 8657   3.030   0.553   5.475
 2586SOL    HW2 8658   3.112   0.478   5.356
 2587SOL     OW 8659   5.902   1.192   3.443
 2587SOL    HW1 8660   5.994   1.220   3.470
 2587SOL    HW2 8661   5.847   1.273   3.422
 2588SOL     OW 8662   4.155   2.001   5.751
 2588SOL    HW1 8663   4.204   1.993   5.838
 2588SOL    HW2 8664   4.219   2.018   5.677
 2589SOL     OW 8665   1.630   6.829   5.560
 2589SOL    HW1 8666   1.677   6.869   5.639
 2589SOL    HW2 8667   1.585   6.743   5.588
 2590SOL     OW 8668   3.678   5.114   0.040
 2590SOL    HW1 8669   3.757   5.160   0.081
 2590SOL    HW2 8670   3.711   5.045   6.994
 2591SOL     OW 8671   6.992   4.700   3.261
 2591SOL    HW1 8672   0.065   4.659   3.269
 2591SOL    HW2 8673   7.000   4.799   3.252
 2592SOL     OW 8674   2.826   4.524   6.715
 2592SOL    HW1 8675   2.827   4.593   6.642
 2592SOL    HW2 8676   2.918   4.486   6.726
 2593SOL     OW 8677   3.520   5.763   0.478
 2593SOL    HW1 8678   3.615   5.789   0.463
 2593SOL    HW2 8679   3.496   5.689   0.415
 2594SOL     OW 8680   2.229   3.890   5.712
 2594SOL    HW1 8681   2.270   3.817   5.657
 2594SOL    HW2 8682   2.278   3.897   5.799
 2595SOL     OW 8683   0.020   1.214   4.062
 2595SOL    HW1 8684   0.063   1.177   4.144
 2595SOL    HW2 8685   6.945   1.180   4.055
 2596SOL     OW 8686   2.590   2.130   1.575
 2596SOL    HW1 8687   2.559   2.168   1.662
 2596SOL    HW2 8688   2.512   2.091   1.526
 2597SOL     OW 8689   0.476   5.170   5.933
 2597SOL    HW1 8690   0.564   5.126   5.915
 2597SOL    HW2 8691   0.488   5.245   5.998
 2598SOL     OW 8692   6.754   1.546   2.268
 2598SOL    HW1 8693   6.664   1.582   2.295
 2598SOL    HW2 8694   6.821   1.569   2.338
 2599SOL     OW 8695   1.788   5.848   0.566
 2599SOL    HW1 8696   1.741   5.867   0.480
 2599SOL    HW2 8697   1.834   5.930   0.599
 2600SOL     OW 8698   5.836   2.468   4.760
 2600SOL    HW1 8699   5.897   2.510   4.693
 2600SOL    HW2 8700   5.761   2.422   4.713
 2601SOL     OW 8701   1.561   1.517   1.074
 2601SOL    HW1 8702   1.614   1.483   0.996
 2601SOL    HW2 8703   1.509   1.442   1.114
 2602SOL     OW 8704   1.389   5.000   4.681
 2602SOL    HW1 8705   1.398   5.002   4.581
 2602SOL    HW2 8706   1.459   5.058   4.722
 2603SOL     OW 8707   3.166   1.100   3.068
 2603SOL    HW1 8708   3.085   1.126   3.017
 2603SOL    HW2 8709   3.147   1.102   3.166
 2604SOL     OW 8710   4.635   1.808   2.716
 2604SOL    HW1 8711   4.684   1.895   2.725
 2604SOL    HW2 8712   4.566   1.816   2.644
 2605SOL     OW 8713   1.462   3.123   2.758
 2605SOL    HW1 8714   1.474   3.208   2.809
 2605SOL    HW2 8715   1.467   3.045   2.821
 2606SOL     OW 8716   5.852   5.100   1.566
 2606SOL    HW1 8717   5.928   5.159   1.535
 2606SOL    HW2 8718   5.881   5.005   1.562
 2607SOL     OW 8719   0.510   1.638   1.105
 2607SOL    HW1 8720   0.570   1.560   1.122
 2607SOL    HW2 8721   0.459   1.660   1.188
 2608SOL     OW 8722   3.763   5.683   0.047
 2608SOL    HW1 8723   3.682   5.692   0.104
 2608SOL    HW2 8724   3.809   5.596   0.066
 2609SOL     OW 8725   6.256   1.270   2.056
 2609SOL    HW1 8726   6.279   1.367   2.053
 2609SOL    HW2 8727   6.170   1.258   2.106
 2610SOL     OW 8728   0.591   4.845   4.188
 2610SOL    HW1 8729   0.586   4.794   4.274
 2610SOL    HW2 8730   0.681   4.889   4.180
 2611SOL     OW 8731   4.528   6.509   6.918
 2611SOL    HW1 8732   4.474   6.592   6.902
 2611SOL    HW2 8733   4.472   6.429   6.900
 2612SOL     OW 8734   5.711   6.481   4.243
 2612SOL    HW1 8735   5.668   6.455   4.329
 2612SOL    HW2 8736   5.787   6.543   4.260
 2613SOL     OW 8737   2.348   5.254   6.406
 2613SOL    HW1 8738   2.365   5.217   6.315
 2613SOL    HW2 8739   2.435   5.282   6.448
 2614SOL     OW 8740   5.892   1.383   6.443
 2614SOL    HW1 8741   5.837   1.460   6.411
 2614SOL    HW2 8742   5.863   1.300   6.396
 2615SOL     OW 8743   0.359   3.203   1.546
 2615SOL    HW1 8744   0.442   3.183   1.597
 2615SOL    HW2 8745   0.370   3.288   1.495
 2616SOL     OW 8746   1.037   1.893   6.003
 2616SOL    HW1 8747   1.006   1.864   6.094
 2616SOL    HW2 8748   1.121   1.946   6.012
 2617SOL     OW 8749   4.830   0.793   0.564
 2617SOL    HW1 8750   4.777   0.816   0.646
 2617SOL    HW2 8751   4.904   0.860   0.553
 2618SOL     OW 8752   1.171   6.280   4.757
 2618SOL    HW1 8753   1.159   6.368   4.804
 2618SOL    HW2 8754   1.268   6.255   4.757
 2619SOL     OW 8755   4.128   1.885   1.784
 2619SOL    HW1 8756   4.089   1.964   1.736
 2619SOL    HW2 8757   4.223   1.904   1.808
 2620SOL     OW 8758   6.884   0.019   2.515
 2620SOL    HW1 8759   6.834   6.958   2.547
 2620SOL    HW2 8760   6.823   0.078   2.463
 2621SOL     OW 8761   1.071   4.610   2.451
 2621SOL    HW1 8762   0.983   4.604   2.498
 2621SOL    HW2 8763   1.094   4.706   2.434
 2622SOL     OW 8764   3.428   3.223   5.563
 2622SOL    HW1 8765   3.425   3.225   5.663
 2622SOL    HW2 8766   3.470   3.138   5.532
 2623SOL     OW 8767   0.601   0.127   4.094
 2623SOL    HW1 8768   0.507   0.163   4.099
 2623SOL    HW2 8769   0.664   0.202   4.073
 2624SOL     OW 8770   6.455   2.118   4.465
 2624SOL    HW1 8771   6.481   2.119   4.562
 2624SOL    HW2 8772   6.472   2.208   4.425
 2625SOL     OW 8773   1.968   4.916   5.469
 2625SOL    HW1 8774   1.996   4.997   5.418
 2625SOL    HW2 8775   1.970   4.836   5.409
 2626SOL     OW 8776   6.534   6.800   5.828
 2626SOL    HW1 8777   6.441   6.811   5.861
 2626SOL    HW2 8778   6.547   6.855   5.746
 2627SOL     OW 8779   1.165   0.628   6.472
 2627SOL    HW1 8780   1.091   0.561   6.478
 2627SOL    HW2 8781   1.249   0.582   6.444
 2628SOL     OW 8782   1.650   3.572   4.531
 2628SOL    HW1 8783   1.571   3.539   4.479
 2628SOL    HW2 8784   1.721   3.502   4.533
 2629SOL     OW 8785   3.867   3.575   3.451
 2629SOL    HW1 8786   3.836   3.485   3.482
 2629SOL    HW2 8787   3.819   3.646   3.502
 2630SOL     OW 8788   3.740   1.404   4.099
 2630SOL    HW1 8789   3.765   1.362   4.012
 2630SOL    HW2 8790   3.707   1.497   4.082
 2631SOL     OW 8791   5.797   0.707   6.703
 2631SOL    HW1 8792   5.790   0.630   6.641
 2631SOL    HW2 8793   5.721   0.771   6.686
 2632SOL     OW 8794   6.038   3.655   1.438
 2632SOL    HW1 8795   6.000   3.706   1.516
 2632SOL    HW2 8796   5.969   3.592   1.404
 2633SOL     OW 8797   6.596   2.161   5.230
 2633SOL    HW1 8798   6.612   2.146   5.132
 2633SOL    HW2 8799   6.593   2.072   5.277
 2634SOL     OW 8800   0.784   6.238   3.955
 2634SOL    HW1 8801   0.788   6.213   4.052
 2634SOL    HW2 8802   0.727   6.320   3.945
 2635SOL     OW 8803   6.430   5.272   4.285
 2635SOL    HW1 8804   6.431   5.344   4.215
 2635SOL    HW2 8805   6.359   5.293   4.352
 2636SOL     OW 8806   3.504   0.907   6.837
 2636SOL    HW1 8807   3.582   0.857   6.874
 2636SOL    HW2 8808   3.517   0.922   6.739
 2637SOL     OW 8809   6.465   1.453   4.238
 2637SOL    HW1 8810   6.562   1.438   4.260
 2637SOL    HW2 8811   6.455   1.537   4.186
 2638SOL     OW 8812   0.551   0.092   4.380
 2638SOL    HW1 8813   0.529   0.183   4.416
 2638SOL    HW2 8814   0.581   0.101   4.285
 2639SOL     OW 8815   4.884   5.074   5.545
 2639SOL    HW1 8816   4.800   5.048   5.593
 2639SOL    HW2 8817   4.861   5.133   5.468
 2640SOL     OW 8818   0.028   0.042   5.079
 2640SOL    HW1 8819   0.117   0.021   5.040
 2640SOL    HW2 8820   0.027   0.018   5.176
 2641SOL     OW 8821   4.759   2.056   1.266
 2641SOL    HW1 8822   4.687   2.124   1.283
 2641SOL    HW2 8823   4.832   2.098   1.212
 2642SOL     OW 8824   6.523   0.723   3.378
 2642SOL    HW1 8825   6.548   0.665   3.300
 2642SOL    HW2 8826   6.459   0.794   3.347
 2643SOL     OW 8827   0.940   3.396   4.168
 2643SOL    HW1 8828   0.848   3.358   4.176
 2643SOL    HW2 8829   0.963   3.408   4.071
 2644SOL     OW 8830   4.562   5.305   5.077
 2644SOL    HW1 8831   4.562   5.274   4.981
 2644SOL    HW2 8832   4.487   5.260   5.126
 2645SOL     OW 8833   5.604   4.861   3.852
 2645SOL    HW1 8834   5.505   4.859   3.836
 2645SOL    HW2 8835   5.645   4.779   3.812
 2646SOL     OW 8836   0.724   3.482   6.837
 2646SOL    HW1 8837   0.751   3.574   6.866
 2646SOL    HW2 8838   0.627   3.483   6.809
 2647SOL     OW 8839   5.111   0.015   1.782
 2647SOL    HW1 8840   5.121   6.969   1.707
 2647SOL    HW2 8841   5.102   6.984   1.869
 2648SOL     OW 8842   0.534   6.779   3.607
 2648SOL    HW1 8843   0.588   6.842   3.552
 2648SOL    HW2 8844   0.444   6.766   3.564
 2649SOL     OW 8845   5.178   3.106   1.850
 2649SOL    HW1 8846   5.250   3.082   1.915
 2649SOL    HW2 8847   5.097   3.049   1.866
 2650SOL     OW 8848   3.050   5.648   4.653
 2650SOL    HW1 8849   3.138   5.622   4.614
 2650SOL    HW2 8850   2.978   5.589   4.615
 2651SOL     OW 8851   3.592   1.186   6.859
 2651SOL    HW1 8852   3.614   1.233   6.774
 2651SOL    HW2 8853   3.535   1.106   6.838
 2652SOL     OW 8854   4.838   3.618   5.564
 2652SOL    HW1 8855   4.872   3.627   5.657
 2652SOL    HW2 8856   4.743   3.649   5.560
 2653SOL     OW 8857   3.679   6.154   5.634
 2653SOL    HW1 8858   3.779   6.142   5.627
 2653SOL    HW2 8859   3.634   6.067   5.612
 2654SOL     OW 8860   5.240   6.168   0.835
 2654SOL    HW1 8861   5.228   6.238   0.906
 2654SOL    HW2 8862   5.158   6.111   0.830
 2655SOL     OW 8863   4.743   5.899   3.316
 2655SOL    HW1 8864   4.804   5.904   3.395
 2655SOL    HW2 8865   4.767   5.971   3.251
 2656SOL     OW 8866   3.639   5.665   3.797
 2656SOL    HW1 8867   3.732   5.676   3.761
 2656SOL    HW2 8868   3.628   5.571   3.829
 2657SOL     OW 8869   2.240   3.234   0.559
 2657SOL    HW1 8870   2.299   3.250   0.480
 2657SOL    HW2 8871   2.223   3.320   0.607
 2658SOL     OW 8872   5.182   3.960   6.924
 2658SOL    HW1 8873   5.113   3.910   6.871
 2658SOL    HW2 8874   5.151   4.054   6.939
 2659SOL     OW 8875   5.147   2.738   4.866
 2659SOL    HW1 8876   5.064   2.776   4.826
 2659SOL    HW2 8877   5.224   2.800   4.849
 2660SOL     OW 8878   0.088   1.032   0.998
 2660SOL    HW1 8879   0.115   0.937   0.981
 2660SOL    HW2 8880   0.038   1.037   1.085
 2661SOL     OW 8881   1.226   0.738   2.141
 2661SOL    HW1 8882   1.209   0.707   2.047
 2661SOL    HW2 8883   1.320   0.716   2.166
 2662SOL     OW 8884   2.720   0.365   3.549
 2662SOL    HW1 8885   2.621   0.357   3.537
 2662SOL    HW2 8886   2.750   0.298   3.616
 2663SOL     OW 8887   3.771   6.630   5.614
 2663SOL    HW1 8888   3.792   6.546   5.665
 2663SOL    HW2 8889   3.686   6.618   5.564
 2664SOL     OW 8890   4.161   2.790   5.820
 2664SOL    HW1 8891   4.089   2.855   5.798
 2664SOL    HW2 8892   4.123   2.698   5.826
 2665SOL     OW 8893   2.534   3.463   5.321
 2665SOL    HW1 8894   2.574   3.412   5.397
 2665SOL    HW2 8895   2.607   3.490   5.258
 2666SOL     OW 8896   1.835   3.262   2.097
 2666SOL    HW1 8897   1.839   3.246   1.998
 2666SOL    HW2 8898   1.743   3.239   2.130
 2667SOL     OW 8899   0.324   5.097   3.680
 2667SOL    HW1 8900   0.398   5.049   3.727
 2667SOL    HW2 8901   0.278   5.033   3.618
 2668SOL     OW 8902   5.798   2.848   3.891
 2668SOL    HW1 8903   5.855   2.921   3.928
 2668SOL    HW2 8904   5.757   2.796   3.966
 2669SOL     OW 8905   2.853   5.619   6.629
 2669SOL    HW1 8906   2.947   5.595   6.652
 2669SOL    HW2 8907   2.832   5.711   6.662
 2670SOL     OW 8908   6.207   1.956   5.550
 2670SOL    HW1 8909   6.165   2.021   5.613
 2670SOL    HW2 8910   6.228   2.002   5.464
 2671SOL     OW 8911   4.191   6.296   6.356
 2671SOL    HW1 8912   4.135   6.228   6.307
 2671SOL    HW2 8913   4.193   6.381   6.303
 2672SOL     OW 8914   3.263   0.850   1.568
 2672SOL    HW1 8915   3.166   0.829   1.563
 2672SOL    HW2 8916   3.286   0.881   1.660
 2673SOL     OW 8917   5.146   0.429   2.583
 2673SOL    HW1 8918   5.063   0.460   2.628
 2673SOL    HW2 8919   5.224   0.438   2.645
 2674SOL     OW 8920   1.808   5.154   3.477
 2674SOL    HW1 8921   1.857   5.076   3.437
 2674SOL    HW2 8922   1.840   5.169   3.570
 2675SOL     OW 8923   0.525   0.143   3.452
 2675SOL    HW1 8924   0.493   0.112   3.542
 2675SOL    HW2 8925   0.624   0.158   3.456
 2676SOL     OW 8926   3.004   3.478   2.508
 2676SOL    HW1 8927   2.934   3.526   2.454
 2676SOL    HW2 8928   3.002   3.381   2.486
 2677SOL     OW 8929   2.908   4.684   0.958
 2677SOL    HW1 8930   2.988   4.716   1.009
 2677SOL    HW2 8931   2.869   4.604   1.004
 2678SOL     OW 8932   6.893   2.790   2.485
 2678SOL    HW1 8933   6.979   2.750   2.454
 2678SOL    HW2 8934   6.901   2.890   2.484
 2679SOL     OW 8935   2.196   5.158   2.689
 2679SOL    HW1 8936   2.223   5.174   2.784
 2679SOL    HW2 8937   2.248   5.218   2.629
 2680SOL     OW 8938   0.998   2.574   0.482
 2680SOL    HW1 8939   0.988   2.671   0.460
 2680SOL    HW2 8940   1.084   2.559   0.531
 2681SOL     OW 8941   1.148   2.789   5.262
 2681SOL    HW1 8942   1.247   2.777   5.261
 2681SOL    HW2 8943   1.104   2.708   5.223
 2682SOL     OW 8944   4.917   4.170   2.663
 2682SOL    HW1 8945   4.955   4.077   2.667
 2682SOL    HW2 8946   4.889   4.198   2.755
 2683SOL     OW 8947   2.160   4.367   2.634
 2683SOL    HW1 8948   2.140   4.269   2.632
 2683SOL    HW2 8949   2.155   4.399   2.729
 2684SOL     OW 8950   5.651   6.783   1.663
 2684SOL    HW1 8951   5.712   6.862   1.666
 2684SOL    HW2 8952   5.585   6.795   1.589
 2685SOL     OW 8953   6.477   4.828   4.691
 2685SOL    HW1 8954   6.509   4.851   4.784
 2685SOL    HW2 8955   6.453   4.913   4.643
 2686SOL     OW 8956   1.192   1.441   5.006
 2686SOL    HW1 8957   1.112   1.482   4.964
 2686SOL    HW2 8958   1.180   1.437   5.105
 2687SOL     OW 8959   4.079   6.873   1.305
 2687SOL    HW1 8960   4.050   6.780   1.324
 2687SOL    HW2 8961   4.080   6.926   1.390
 2688SOL     OW 8962   3.397   2.242   0.864
 2688SOL    HW1 8963   3.344   2.323   0.839
 2688SOL    HW2 8964   3.445   2.260   0.950
 2689SOL     OW 8965   0.708   4.361   2.681
 2689SOL    HW1 8966   0.698   4.291   2.610
 2689SOL    HW2 8967   0.792   4.345   2.733
 2690SOL     OW 8968   3.031   2.975   6.597
 2690SOL    HW1 8969   3.109   3.023   6.556
 2690SOL    HW2 8970   2.956   3.039   6.609
 2691SOL     OW 8971   0.245   4.912   4.293
 2691SOL    HW1 8972   0.200   4.823   4.304
 2691SOL    HW2 8973   0.297   4.913   4.208
 2692SOL     OW 8974   2.663   6.097   3.121
 2692SOL    HW1 8975   2.567   6.124   3.130
 2692SOL    HW2 8976   2.719   6.149   3.185
 2693SOL     OW 8977   2.346   5.006   4.276
 2693SOL    HW1 8978   2.332   4.930   4.340
 2693SOL    HW2 8979   2.261   5.059   4.268
 2694SOL     OW 8980   3.943   6.266   3.461
 2694SOL    HW1 8981   3.998   6.337   3.417
 2694SOL    HW2 8982   3.986   6.239   3.547
 2695SOL     OW 8983   6.303   0.085   3.004
 2695SOL    HW1 8984   6.265   0.158   2.947
 2695SOL    HW2 8985   6.358   0.126   3.077
 2696SOL     OW 8986   4.975   3.827   6.784
 2696SOL    HW1 8987   4.976   3.853   6.688
 2696SOL    HW2 8988   4.882   3.798   6.809
 2697SOL     OW 8989   4.345   1.479   1.268
 2697SOL    HW1 8990   4.410   1.472   1.344
 2697SOL    HW2 8991   4.379   1.425   1.191
 2698SOL     OW 8992   1.616   5.027   6.704
 2698SOL    HW1 8993   1.634   5.125   6.711
 2698SOL    HW2 8994   1.698   4.976   6.733
 2699SOL     OW 8995   3.103   5.668   1.670
 2699SOL    HW1 8996   3.018   5.630   1.707
 2699SOL    HW2 8997   3.155   5.596   1.625
 2700SOL     OW 8998   2.261   1.762   0.681
 2700SOL    HW1 8999   2.281   1.672   0.719
 2700SOL    HW2 9000   2.297   1.767   0.588
 2701SOL     OW 9001   5.154   2.602   5.552
 2701SOL    HW1 9002   5.060   2.623   5.527
 2701SOL    HW2 9003   5.204   2.569   5.472
 2702SOL     OW 9004   1.346   1.550   3.967
 2702SOL    HW1 9005   1.282   1.621   3.998
 2702SOL    HW2 9006   1.294   1.474   3.926
 2703SOL     OW 9007   1.519   5.712   1.152
 2703SOL    HW1 9008   1.512   5.651   1.231
 2703SOL    HW2 9009   1.440   5.699   1.092
 2704SOL     OW 9010   6.567   5.695   2.418
 2704SOL    HW1 9011   6.612   5.636   2.351
 2704SOL    HW2 9012   6.562   5.789   2.382
 2705SOL     OW 9013   6.823   1.250   6.024
 2705SOL    HW1 9014   6.759   1.271   6.098
 2705SOL    HW2 9015   6.900   1.314   6.028
 2706SOL     OW 9016   6.079   4.214   4.438
 2706SOL    HW1 9017   6.084   4.177   4.345
 2706SOL    HW2 9018   6.013   4.160   4.492
 2707SOL     OW 9019   3.942   6.545   3.655
 2707SOL    HW1 9020   3.940   6.639   3.689
 2707SOL    HW2 9021   4.027   6.530   3.604
 2708SOL     OW 9022   6.084   2.798   0.097
 2708SOL    HW1 9023   6.111   2.706   0.069
 2708SOL    HW2 9024   6.165   2.851   0.122
 2709SOL     OW 9025   5.041   6.541   6.193
 2709SOL    HW1 9026   5.125   6.508   6.151
 2709SOL    HW2 9027   5.033   6.640   6.180
 2710SOL     OW 9028   1.857   2.761   3.872
 2710SOL    HW1 9029   1.927   2.722   3.932
 2710SOL    HW2 9030   1.902   2.817   3.802
 2711SOL     OW 9031   3.339   1.483   3.459
 2711SOL    HW1 9032   3.367   1.487   3.363
 2711SOL    HW2 9033   3.400   1.541   3.514
 2712SOL     OW 9034   3.489   5.313   1.663
 2712SOL    HW1 9035   3.584   5.287   1.648
 2712SOL    HW2 9036   3.484   5.377   1.740
 2713SOL     OW 9037   4.255   4.210   6.356
 2713SOL    HW1 9038   4.189   4.264   6.305
 2713SOL    HW2 9039   4.211   4.169   6.436
 2714SOL     OW 9040   3.988   3.738   6.553
 2714SOL    HW1 9041   4.000   3.641   6.535
 2714SOL    HW2 9042   4.057   3.769   6.619
 2715SOL     OW 9043   5.380   1.832   1.066
 2715SOL    HW1 9044   5.410   1.747   1.024
 2715SOL    HW2 9045   5.432   1.847   1.151
 2716SOL     OW 9046   4.685   2.507   2.847
 2716SOL    HW1 9047   4.728   2.582   2.898
 2716SOL    HW2 9048   4.657   2.541   2.757
 2717SOL     OW 9049   0.250   0.215   2.245
 2717SOL    HW1 9050   0.196   0.131   2.256
 2717SOL    HW2 9051   0.346   0.191   2.226
 2718SOL     OW 9052   0.151   1.063   5.492
 2718SOL    HW1 9053   0.214   1.118   5.438
 2718SOL    HW2 9054   0.133   0.977   5.445
 2719SOL     OW 9055   1.825   4.241   2.434
 2719SOL    HW1 9056   1.797   4.160   2.486
 2719SOL    HW2 9057   1.743   4.288   2.398
 2720SOL     OW 9058   1.310   6.876   4.703
 2720SOL    HW1 9059   1.321   6.961   4.650
 2720SOL    HW2 9060   1.382   6.812   4.676
 2721SOL     OW 9061   3.318   6.379   1.763
 2721SOL    HW1 9062   3.369   6.383   1.849
 2721SOL    HW2 9063   3.237   6.438   1.770
 2722SOL     OW 9064   4.628   5.698   6.480
 2722SOL    HW1 9065   4.641   5.635   6.403
 2722SOL    HW2 9066   4.678   5.782   6.463
 2723SOL     OW 9067   3.168   6.613   6.799
 2723SOL    HW1 9068   3.158   6.591   6.702
 2723SOL    HW2 9069   3.149   6.710   6.813
 2724SOL     OW 9070   1.169   5.843   6.452
 2724SOL    HW1 9071   1.220   5.769   6.495
 2724SOL    HW2 9072   1.076   5.846   6.491
 2725SOL     OW 9073   5.111   4.008   4.219
 2725SOL    HW1 9074   5.128   4.031   4.315
 2725SOL    HW2 9075   5.163   3.927   4.194
 2726SOL     OW 9076   1.040   1.900   1.544
 2726SOL    HW1 9077   1.124   1.900   1.489
 2726SOL    HW2 9078   0.962   1.877   1.485
 2727SOL     OW 9079   1.968   4.277   3.807
 2727SOL    HW1 9080   1.897   4.310   3.869
 2727SOL    HW2 9081   1.979   4.178   3.819
 2728SOL     OW 9082   5.059   5.890   6.549
 2728SOL    HW1 9083   5.107   5.940   6.621
 2728SOL    HW2 9084   5.124   5.865   6.477
 2729SOL     OW 9085   6.397   6.104   6.866
 2729SOL    HW1 9086   6.386   6.030   6.933
 2729SOL    HW2 9087   6.312   6.114   6.814
 2730SOL     OW 9088   0.764   5.779   1.148
 2730SOL    HW1 9089   0.739   5.729   1.065
 2730SOL    HW2 9090   0.688   5.777   1.212
 2731SOL     OW 9091   2.988   3.315   3.303
 2731SOL    HW1 9092   3.067   3.340   3.359
 2731SOL    HW2 9093   2.994   3.218   3.278
 2732SOL     OW 9094   5.087   1.893   1.441
 2732SOL    HW1 9095   4.993   1.911   1.469
 2732SOL    HW2 9096   5.130   1.978   1.410
 2733SOL     OW 9097   6.493   1.258   5.281
 2733SOL    HW1 9098   6.467   1.307   5.364
 2733SOL    HW2 9099   6.546   1.319   5.222
 2734SOL     OW 9100   3.664   5.830   1.787
 2734SOL    HW1 9101   3.698   5.903   1.728
 2734SOL    HW2 9102   3.728   5.754   1.786
 2735SOL     OW 9103   1.136   2.394   0.810
 2735SOL    HW1 9104   1.160   2.304   0.845
 2735SOL    HW2 9105   1.067   2.386   0.738
 2736SOL     OW 9106   5.772   5.982   4.233
 2736SOL    HW1 9107   5.781   5.883   4.245
 2736SOL    HW2 9108   5.854   6.028   4.268
 2737SOL     OW 9109   2.766   2.229   6.083
 2737SOL    HW1 9110   2.835   2.254   6.015
 2737SOL    HW2 9111   2.715   2.149   6.050
 2738SOL     OW 9112   6.468   0.091   2.154
 2738SOL    HW1 9113   6.444   7.012   2.161
 2738SOL    HW2 9114   6.385   0.146   2.156
 2739SOL     OW 9115   0.969   5.390   0.918
 2739SOL    HW1 9116   1.046   5.328   0.932
 2739SOL    HW2 9117   0.884   5.337   0.913
 2740SOL     OW 9118   0.589   5.486   2.538
 2740SOL    HW1 9119   0.649   5.406   2.533
 2740SOL    HW2 9120   0.599   5.529   2.628
 2741SOL     OW 9121   1.044   1.635   4.710
 2741SOL    HW1 9122   1.107   1.681   4.772
 2741SOL    HW2 9123   1.050   1.675   4.619
 2742SOL     OW 9124   2.973   5.042   1.854
 2742SOL    HW1 9125   3.000   4.992   1.937
 2742SOL    HW2 9126   2.987   4.983   1.774
 2743SOL     OW 9127   6.748   4.523   1.805
 2743SOL    HW1 9128   6.781   4.605   1.758
 2743SOL    HW2 9129   6.695   4.550   1.886
 2744SOL     OW 9130   3.649   3.555   2.104
 2744SOL    HW1 9131   3.597   3.601   2.032
 2744SOL    HW2 9132   3.747   3.574   2.092
 2745SOL     OW 9133   6.380   1.415   5.513
 2745SOL    HW1 9134   6.456   1.462   5.557
 2745SOL    HW2 9135   6.351   1.338   5.570
 2746SOL     OW 9136   0.665   1.334   4.422
 2746SOL    HW1 9137   0.685   1.237   4.415
 2746SOL    HW2 9138   0.730   1.377   4.485
 2747SOL     OW 9139   4.348   5.940   6.519
 2747SOL    HW1 9140   4.396   5.913   6.436
 2747SOL    HW2 9141   4.252   5.910   6.514
 2748SOL     OW 9142   4.656   0.359   1.446
 2748SOL    HW1 9143   4.676   0.323   1.537
 2748SOL    HW2 9144   4.742   0.377   1.397
 2749SOL     OW 9145   1.291   3.717   0.648
 2749SOL    HW1 9146   1.233   3.645   0.611
 2749SOL    HW2 9147   1.340   3.763   0.574
 2750SOL     OW 9148   2.662   4.735   1.578
 2750SOL    HW1 9149   2.722   4.802   1.622
 2750SOL    HW2 9150   2.690   4.643   1.605
 2751SOL     OW 9151   2.016   1.572   1.419
 2751SOL    HW1 9152   2.066   1.527   1.345
 2751SOL    HW2 9153   1.920   1.582   1.393
 2752SOL     OW 9154   4.066   4.410   6.250
 2752SOL    HW1 9155   4.078   4.439   6.346
 2752SOL    HW2 9156   3.974   4.435   6.220
 2753SOL     OW 9157   6.357   6.087   5.133
 2753SOL    HW1 9158   6.335   6.084   5.230
 2753SOL    HW2 9159   6.325   6.003   5.089
 2754SOL     OW 9160   0.960   6.826   0.116
 2754SOL    HW1 9161   1.024   6.813   0.192
 2754SOL    HW2 9162   0.905   6.907   0.133
 2755SOL     OW 9163   3.026   7.007   2.899
 2755SOL    HW1 9164   3.097   0.051   2.932
 2755SOL    HW2 9165   3.064   6.952   2.824
 2756SOL     OW 9166   4.265   6.435   0.468
 2756SOL    HW1 9167   4.348   6.479   0.501
 2756SOL    HW2 9168   4.185   6.478   0.512
 2757SOL     OW 9169   1.990   5.524   0.398
 2757SOL    HW1 9170   1.979   5.444   0.339
 2757SOL    HW2 9171   1.959   5.502   0.491
 2758SOL     OW 9172   4.990   0.420   4.625
 2758SOL    HW1 9173   5.068   0.359   4.610
 2758SOL    HW2 9174   4.999   0.465   4.714
 2759SOL     OW 9175   5.165   6.413   4.160
 2759SOL    HW1 9176   5.089   6.379   4.104
 2759SOL    HW2 9177   5.218   6.336   4.193
 2760SOL     OW 9178   1.289   5.707   2.075
 2760SOL    HW1 9179   1.337   5.778   2.126
 2760SOL    HW2 9180   1.354   5.644   2.033
 2761SOL     OW 9181   1.805   4.601   4.168
 2761SOL    HW1 9182   1.805   4.645   4.078
 2761SOL    HW2 9183   1.734   4.642   4.226
 2762SOL     OW 9184   0.843   1.104   5.264
 2762SOL    HW1 9185   0.864   1.053   5.180
 2762SOL    HW2 9186   0.763   1.163   5.248
 2763SOL     OW 9187   5.309   2.069   4.063
 2763SOL    HW1 9188   5.306   2.135   3.988
 2763SOL    HW2 9189   5.305   1.976   4.025
 2764SOL     OW 9190   5.780   0.322   1.117
 2764SOL    HW1 9191   5.830   0.375   1.185
 2764SOL    HW2 9192   5.698   0.283   1.158
 2765SOL     OW 9193   5.081   0.365   0.949
 2765SOL    HW1 9194   5.119   0.343   1.039
 2765SOL    HW2 9195   5.155   0.373   0.882
 2766SOL     OW 9196   5.656   1.546   0.638
 2766SOL    HW1 9197   5.607   1.581   0.717
 2766SOL    HW2 9198   5.666   1.620   0.570
 2767SOL     OW 9199   0.184   5.084   6.824
 2767SOL    HW1 9200   0.212   5.169   6.868
 2767SOL    HW2 9201   0.260   5.048   6.769
 2768SOL     OW 9202   5.057   0.888   0.146
 2768SOL    HW1 9203   5.142   0.862   0.100
 2768SOL    HW2 9204   5.009   0.806   0.176
 2769SOL     OW 9205   6.978   4.300   4.058
 2769SOL    HW1 9206   6.957   4.332   3.965
 2769SOL    HW2 9207   0.040   4.347   4.092
 2770SOL     OW 9208   1.746   5.797   6.265
 2770SOL    HW1 9209   1.661   5.758   6.300
 2770SOL    HW2 9210   1.755   5.892   6.296
 2771SOL     OW 9211   5.599   1.090   1.562
 2771SOL    HW1 9212   5.533   1.028   1.604
 2771SOL    HW2 9213   5.590   1.086   1.462
 2772SOL     OW 9214   4.633   1.869   0.572
 2772SOL    HW1 9215   4.593   1.836   0.486
 2772SOL    HW2 9216   4.588   1.823   0.648
 2773SOL     OW 9217   4.794   3.500   6.246
 2773SOL    HW1 9218   4.712   3.540   6.288
 2773SOL    HW2 9219   4.852   3.573   6.211
 2774SOL     OW 9220   6.681   3.076   2.801
 2774SOL    HW1 9221   6.778   3.098   2.809
 2774SOL    HW2 9222   6.645   3.119   2.718
 2775SOL     OW 9223   0.212   5.310   7.013
 2775SOL    HW1 9224   0.249   5.402   0.006
 2775SOL    HW2 9225   0.114   5.311   0.019
 2776SOL     OW 9226   4.700   5.777   5.561
 2776SOL    HW1 9227   4.777   5.737   5.611
 2776SOL    HW2 9228   4.644   5.830   5.625
 2777SOL     OW 9229   2.985   1.217   2.152
 2777SOL    HW1 9230   3.005   1.242   2.246
 2777SOL    HW2 9231   2.965   1.300   2.099
 2778SOL     OW 9232   1.738   1.240   5.031
 2778SOL    HW1 9233   1.769   1.146   5.043
 2778SOL    HW2 9234   1.667   1.262   5.098
 2779SOL     OW 9235   4.529   0.250   0.287
 2779SOL    HW1 9236   4.529   0.156   0.321
 2779SOL    HW2 9237   4.549   0.312   0.362
 2780SOL     OW 9238   6.136   5.715   5.551
 2780SOL    HW1 9239   6.208   5.729   5.482
 2780SOL    HW2 9240   6.052   5.684   5.506
 2781SOL     OW 9241   6.212   5.706   2.358
 2781SOL    HW1 9242   6.248   5.767   2.429
 2781SOL    HW2 9243   6.250   5.731   2.270
 2782SOL     OW 9244   3.007   2.604   6.341
 2782SOL    HW1 9245   2.925   2.548   6.329
 2782SOL    HW2 9246   3.004   2.647   6.432
 2783SOL     OW 9247   5.757   3.326   5.175
 2783SOL    HW1 9248   5.709   3.243   5.201
 2783SOL    HW2 9249   5.821   3.305   5.100
 2784SOL     OW 9250   2.619   1.829   1.472
 2784SOL    HW1 9251   2.555   1.905   1.468
 2784SOL    HW2 9252   2.679   1.840   1.551
 2785SOL     OW 9253   6.163   1.176   0.193
 2785SOL    HW1 9254   6.113   1.096   0.228
 2785SOL    HW2 9255   6.226   1.146   0.121
 2786SOL     OW 9256   4.090   6.619   1.422
 2786SOL    HW1 9257   4.168   6.636   1.482
 2786SOL    HW2 9258   4.049   6.531   1.446
 2787SOL     OW 9259   2.330   3.214   6.154
 2787SOL    HW1 9260   2.426   3.236   6.134
 2787SOL    HW2 9261   2.319   3.198   6.252
 2788SOL     OW 9262   2.050   3.880   0.447
 2788SOL    HW1 9263   2.137   3.835   0.433
 2788SOL    HW2 9264   1.976   3.826   0.407
 2789SOL     OW 9265   1.388   2.483   3.764
 2789SOL    HW1 9266   1.424   2.540   3.838
 2789SOL    HW2 9267   1.454   2.478   3.690
 2790SOL     OW 9268   3.256   5.437   3.103
 2790SOL    HW1 9269   3.355   5.444   3.117
 2790SOL    HW2 9270   3.225   5.346   3.128
 2791SOL     OW 9271   1.334   4.539   4.699
 2791SOL    HW1 9272   1.301   4.618   4.646
 2791SOL    HW2 9273   1.287   4.457   4.669
 2792SOL     OW 9274   1.157   7.011   4.939
 2792SOL    HW1 9275   1.113   0.017   4.852
 2792SOL    HW2 9276   1.252   0.023   4.938
 2793SOL     OW 9277   5.164   2.593   2.716
 2793SOL    HW1 9278   5.096   2.605   2.644
 2793SOL    HW2 9279   5.133   2.638   2.800
 2794SOL     OW 9280   6.730   2.767   0.426
 2794SOL    HW1 9281   6.636   2.787   0.455
 2794SOL    HW2 9282   6.792   2.835   0.466
 2795SOL     OW 9283   3.064   3.623   1.357
 2795SOL    HW1 9284   3.125   3.584   1.426
 2795SOL    HW2 9285   2.983   3.565   1.347
 2796SOL     OW 9286   6.889   4.370   2.630
 2796SOL    HW1 9287   6.977   4.345   2.671
 2796SOL    HW2 9288   6.825   4.294   2.640
 2797SOL     OW 9289   4.956   5.418   4.723
 2797SOL    HW1 9290   5.018   5.496   4.723
 2797SOL    HW2 9291   5.000   5.341   4.675
 2798SOL     OW 9292   1.258   4.257   2.158
 2798SOL    HW1 9293   1.325   4.182   2.161
 2798SOL    HW2 9294   1.265   4.311   2.242
 2799SOL     OW 9295   0.467   5.611   6.781
 2799SOL    HW1 9296   0.510   5.667   6.710
 2799SOL    HW2 9297   0.538   5.562   6.832
 2800SOL     OW 9298   4.524   4.323   6.757
 2800SOL    HW1 9299   4.493   4.356   6.667
 2800SOL    HW2 9300   4.504   4.225   6.765
 2801SOL     OW 9301   4.411   5.717   4.588
 2801SOL    HW1 9302   4.456   5.692   4.503
 2801SOL    HW2 9303   4.344   5.789   4.571
 2802SOL     OW 9304   4.747   3.402   6.603
 2802SOL    HW1 9305   4.791   3.490   6.590
 2802SOL    HW2 9306   4.648   3.411   6.590
 2803SOL     OW 9307   2.780   5.911   6.449
 2803SOL    HW1 9308   2.804   5.836   6.387
 2803SOL    HW2 9309   2.742   5.873   6.534
 2804SOL     OW 9310   0.065   4.683   4.233
 2804SOL    HW1 9311   0.096   4.616   4.166
 2804SOL    HW2 9312   7.009   4.738   4.194
 2805SOL     OW 9313   4.621   3.314   1.403
 2805SOL    HW1 9314   4.592   3.328   1.498
 2805SOL    HW2 9315   4.550   3.346   1.341
 2806SOL     OW 9316   6.178   5.011   3.564
 2806SOL    HW1 9317   6.242   5.059   3.623
 2806SOL    HW2 9318   6.087   5.050   3.575
 2807SOL     OW 9319   5.717   5.100   3.857
 2807SOL    HW1 9320   5.732   5.111   3.956
 2807SOL    HW2 9321   5.678   5.009   3.840
 2808SOL     OW 9322   4.598   1.787   2.376
 2808SOL    HW1 9323   4.613   1.732   2.294
 2808SOL    HW2 9324   4.527   1.744   2.432
 2809SOL     OW 9325   6.405   3.097   1.338
 2809SOL    HW1 9326   6.324   3.155   1.326
 2809SOL    HW2 9327   6.480   3.152   1.375
 2810SOL     OW 9328   3.264   6.476   4.643
 2810SOL    HW1 9329   3.331   6.409   4.610
 2810SOL    HW2 9330   3.235   6.451   4.735
 2811SOL     OW 9331   0.371   0.428   3.827
 2811SOL    HW1 9332   0.364   0.522   3.795
 2811SOL    HW2 9333   0.315   0.368   3.769
 2812SOL     OW 9334   5.303   3.589   1.424
 2812SOL    HW1 9335   5.362   3.532   1.367
 2812SOL    HW2 9336   5.359   3.639   1.490
 2813SOL     OW 9337   6.234   6.937   5.642
 2813SOL    HW1 9338   6.151   6.980   5.605
 2813SOL    HW2 9339   6.311   7.000   5.634
 2814SOL     OW 9340   4.289   2.868   6.917
 2814SOL    HW1 9341   4.197   2.838   6.892
 2814SOL    HW2 9342   4.357   2.813   6.868
 2815SOL     OW 9343   0.116   1.604   5.123
 2815SOL    HW1 9344   0.039   1.561   5.076
 2815SOL    HW2 9345   0.084   1.687   5.170
 2816SOL     OW 9346   6.765   6.444   4.006
 2816SOL    HW1 9347   6.735   6.350   3.987
 2816SOL    HW2 9348   6.736   6.469   4.098
 2817SOL     OW 9349   1.964   0.343   1.119
 2817SOL    HW1 9350   1.920   0.269   1.169
 2817SOL    HW2 9351   1.991   0.415   1.183
 2818SOL     OW 9352   6.984   5.774   6.852
 2818SOL    HW1 9353   7.014   5.777   6.756
 2818SOL    HW2 9354   6.894   5.817   6.860
 2819SOL     OW 9355   0.060   2.143   1.169
 2819SOL    HW1 9356   0.140   2.184   1.123
 2819SOL    HW2 9357   0.091   2.070   1.230
 2820SOL     OW 9358   1.047   2.138   2.661
 2820SOL    HW1 9359   1.066   2.125   2.564
 2820SOL    HW2 9360   1.097   2.070   2.714
 2821SOL     OW 9361   3.800   3.534   6.706
 2821SOL    HW1 9362   3.796   3.464   6.634
 2821SOL    HW2 9363   3.710   3.545   6.747
 2822SOL     OW 9364   3.864   2.574   0.327
 2822SOL    HW1 9365   3.842   2.478   0.343
 2822SOL    HW2 9366   3.910   2.583   0.239
 2823SOL     OW 9367   2.364   6.433   1.343
 2823SOL    HW1 9368   2.328   6.410   1.253
 2823SOL    HW2 9369   2.289   6.460   1.403
 2824SOL     OW 9370   2.390   1.486   4.065
 2824SOL    HW1 9371   2.357   1.392   4.068
 2824SOL    HW2 9372   2.459   1.500   4.136
 2825SOL     OW 9373   6.914   6.871   0.151
 2825SOL    HW1 9374   6.897   6.784   0.104
 2825SOL    HW2 9375   7.013   6.885   0.161
 2826SOL     OW 9376   5.464   2.154   6.595
 2826SOL    HW1 9377   5.407   2.078   6.564
 2826SOL    HW2 9378   5.436   2.238   6.549
 2827SOL     OW 9379   6.220   0.970   5.564
 2827SOL    HW1 9380   6.312   1.000   5.588
 2827SOL    HW2 9381   6.187   1.021   5.485
 2828SOL     OW 9382   3.096   0.955   6.489
 2828SOL    HW1 9383   3.023   0.925   6.551
 2828SOL    HW2 9384   3.146   0.875   6.456
 2829SOL     OW 9385   3.257   4.113   6.335
 2829SOL    HW1 9386   3.344   4.155   6.365
 2829SOL    HW2 9387   3.217   4.169   6.263
 2830SOL     OW 9388   0.331   3.500   6.565
 2830SOL    HW1 9389   0.385   3.497   6.481
 2830SOL    HW2 9390   0.250   3.558   6.551
 2831SOL     OW 9391   0.101   6.138   3.494
 2831SOL    HW1 9392   0.158   6.087   3.558
 2831SOL    HW2 9393   0.076   6.079   3.416
 2832SOL     OW 9394   0.242   1.084   1.538
 2832SOL    HW1 9395   0.200   1.023   1.471
 2832SOL    HW2 9396   0.177   1.156   1.563
 2833SOL     OW 9397   5.332   2.737   1.983
 2833SOL    HW1 9398   5.392   2.702   1.910
 2833SOL    HW2 9399   5.238   2.705   1.967
 2834SOL     OW 9400   2.959   0.395   5.777
 2834SOL    HW1 9401   3.014   0.473   5.807
 2834SOL    HW2 9402   2.873   0.428   5.737
 2835SOL     OW 9403   0.379   0.172   1.338
 2835SOL    HW1 9404   0.388   0.075   1.362
 2835SOL    HW2 9405   0.299   0.210   1.384
 2836SOL     OW 9406   6.546   0.532   1.120
 2836SOL    HW1 9407   6.598   0.595   1.062
 2836SOL    HW2 9408   6.455   0.517   1.080
 2837SOL     OW 9409   5.846   3.154   3.192
 2837SOL    HW1 9410   5.931   3.125   3.237
 2837SOL    HW2 9411   5.825   3.091   3.117
 2838SOL     OW 9412   1.743   4.060   1.747
 2838SOL    HW1 9413   1.700   4.126   1.807
 2838SOL    HW2 9414   1.808   4.004   1.799
 2839SOL     OW 9415   6.075   1.121   1.880
 2839SOL    HW1 9416   6.091   1.054   1.952
 2839SOL    HW2 9417   6.022   1.079   1.806
 2840SOL     OW 9418   0.601   0.758   4.055
 2840SOL    HW1 9419   0.567   0.739   3.963
 2840SOL    HW2 9420   0.566   0.690   4.119
 2841SOL     OW 9421   6.973   0.624   5.813
 2841SOL    HW1 9422   6.891   0.581   5.775
 2841SOL    HW2 9423   6.960   0.723   5.815
 2842SOL     OW 9424   0.420   1.760   3.984
 2842SOL    HW1 9425   0.347   1.702   3.948
 2842SOL    HW2 9426   0.493   1.702   4.022
 2843SOL     OW 9427   3.508   1.679   3.582
 2843SOL    HW1 9428   3.488   1.722   3.494
 2843SOL    HW2 9429   3.464   1.730   3.656
 2844SOL     OW 9430   1.620   4.437   0.583
 2844SOL    HW1 9431   1.632   4.515   0.644
 2844SOL    HW2 9432   1.704   4.422   0.531
 2845SOL     OW 9433   1.341   3.261   0.453
 2845SOL    HW1 9434   1.262   3.297   0.502
 2845SOL    HW2 9435   1.422   3.270   0.510
 2846SOL     OW 9436   5.115   1.594   6.497
 2846SOL    HW1 9437   5.122   1.524   6.425
 2846SOL    HW2 9438   5.038   1.572   6.557
 2847SOL     OW 9439   5.074   3.869   3.006
 2847SOL    HW1 9440   5.000   3.932   2.984
 2847SOL    HW2 9441   5.050   3.816   3.088
 2848SOL     OW 9442   0.418   4.466   6.093
 2848SOL    HW1 9443   0.353   4.461   6.168
 2848SOL    HW2 9444   0.494   4.526   6.118
 2849SOL     OW 9445   3.444   0.237   1.420
 2849SOL    HW1 9446   3.465   0.194   1.333
 2849SOL    HW2 9447   3.376   0.182   1.468
 2850SOL     OW 9448   3.134   0.082   2.593
 2850SOL    HW1 9449   3.038   0.081   2.567
 2850SOL    HW2 9450   3.186   0.141   2.530
 2851SOL     OW 9451   0.430   3.652   5.392
 2851SOL    HW1 9452   0.403   3.720   5.460
 2851SOL    HW2 9453   0.517   3.678   5.350
 2852SOL     OW 9454   5.816   4.725   0.300
 2852SOL    HW1 9455   5.758   4.661   0.350
 2852SOL    HW2 9456   5.912   4.703   0.317
 2853SOL     OW 9457   2.642   2.242   0.350
 2853SOL    HW1 9458   2.690   2.198   0.274
 2853SOL    HW2 9459   2.550   2.203   0.359
 2854SOL     OW 9460   3.299   1.799   4.090
 2854SOL    HW1 9461   3.273   1.862   4.164
 2854SOL    HW2 9462   3.221   1.743   4.065
 2855SOL     OW 9463   1.906   0.942   6.141
 2855SOL    HW1 9464   1.899   0.870   6.210
 2855SOL    HW2 9465   1.852   1.021   6.170
 2856SOL     OW 9466   2.373   2.721   5.861
 2856SOL    HW1 9467   2.358   2.759   5.770
 2856SOL    HW2 9468   2.393   2.796   5.925
 2857SOL     OW 9469   3.312   1.667   1.893
 2857SOL    HW1 9470   3.293   1.595   1.960
 2857SOL    HW2 9471   3.411   1.681   1.886
 2858SOL     OW 9472   6.088   3.426   1.762
 2858SOL    HW1 9473   5.994   3.440   1.794
 2858SOL    HW2 9474   6.132   3.515   1.748
 2859SOL     OW 9475   5.256   2.161   0.781
 2859SOL    HW1 9476   5.317   2.175   0.704
 2859SOL    HW2 9477   5.198   2.241   0.793
 2860SOL     OW 9478   3.800   1.818   0.859
 2860SOL    HW1 9479   3.739   1.894   0.882
 2860SOL    HW2 9480   3.783   1.789   0.765
 2861SOL     OW 9481   4.734   5.345   5.826
 2861SOL    HW1 9482   4.805   5.407   5.793
 2861SOL    HW2 9483   4.644   5.386   5.809
 2862SOL     OW 9484   5.111   1.739   2.788
 2862SOL    HW1 9485   5.211   1.747   2.791
 2862SOL    HW2 9486   5.081   1.748   2.693
 2863SOL     OW 9487   6.042   1.217   6.717
 2863SOL    HW1 9488   6.087   1.300   6.683
 2863SOL    HW2 9489   6.108   1.142   6.717
 2864SOL     OW 9490   3.714   0.648   1.422
 2864SOL    HW1 9491   3.630   0.596   1.432
 2864SOL    HW2 9492   3.703   0.738   1.463
 2865SOL     OW 9493   5.035   3.971   5.955
 2865SOL    HW1 9494   4.964   3.957   5.886
 2865SOL    HW2 9495   5.092   3.890   5.963
 2866SOL     OW 9496   6.369   6.294   0.209
 2866SOL    HW1 9497   6.345   6.349   0.289
 2866SOL    HW2 9498   6.286   6.268   0.160
 2867SOL     OW 9499   5.638   3.893   2.334
 2867SOL    HW1 9500   5.698   3.818   2.361
 2867SOL    HW2 9501   5.548   3.855   2.309
 2868SOL     OW 9502   0.457   3.039   5.353
 2868SOL    HW1 9503   0.433   3.087   5.438
 2868SOL    HW2 9504   0.379   3.039   5.291
 2869SOL     OW 9505   5.620   1.359   3.619
 2869SOL    HW1 9506   5.671   1.302   3.684
 2869SOL    HW2 9507   5.539   1.397   3.664
 2870SOL     OW 9508   0.003   1.363   4.676
 2870SOL    HW1 9509   6.971   1.443   4.642
 2870SOL    HW2 9510   0.043   1.383   4.765
 2871SOL     OW 9511   1.707   1.465   6.765
 2871SOL    HW1 9512   1.762   1.495   6.844
 2871SOL    HW2 9513   1.633   1.406   6.797
 2872SOL     OW 9514   2.631   1.765   3.414
 2872SOL    HW1 9515   2.614   1.667   3.423
 2872SOL    HW2 9516   2.576   1.801   3.339
 2873SOL     OW 9517   1.591   4.953   3.458
 2873SOL    HW1 9518   1.661   5.014   3.495
 2873SOL    HW2 9519   1.613   4.859   3.484
 2874SOL     OW 9520   4.212   5.006   2.862
 2874SOL    HW1 9521   4.220   5.068   2.940
 2874SOL    HW2 9522   4.304   4.983   2.828
 2875SOL     OW 9523   4.347   6.530   6.549
 2875SOL    HW1 9524   4.335   6.433   6.572
 2875SOL    HW2 9525   4.274   6.584   6.592
 2876SOL     OW 9526   0.718   6.867   1.863
 2876SOL    HW1 9527   0.693   6.930   1.789
 2876SOL    HW2 9528   0.735   6.920   1.947
 2877SOL     OW 9529   3.466   2.764   5.410
 2877SOL    HW1 9530   3.546   2.718   5.371
 2877SOL    HW2 9531   3.394   2.771   5.341
 2878SOL     OW 9532   3.763   5.164   4.571
 2878SOL    HW1 9533   3.667   5.152   4.544
 2878SOL    HW2 9534   3.776   5.254   4.613
 2879SOL     OW 9535   5.123   5.298   6.914
 2879SOL    HW1 9536   5.155   5.391   6.894
 2879SOL    HW2 9537   5.032   5.302   6.953
 2880SOL     OW 9538   6.182   6.581   0.763
 2880SOL    HW1 9539   6.254   6.555   0.828
 2880SOL    HW2 9540   6.203   6.543   0.673
 2881SOL     OW 9541   5.792   5.961   1.473
 2881SOL    HW1 9542   5.884   5.936   1.505
 2881SOL    HW2 9543   5.775   6.057   1.494
 2882SOL     OW 9544   0.758   3.727   2.249
 2882SOL    HW1 9545   0.852   3.694   2.252
 2882SOL    HW2 9546   0.699   3.663   2.298
 2883SOL     OW 9547   5.266   6.632   4.024
 2883SOL    HW1 9548   5.238   6.556   4.082
 2883SOL    HW2 9549   5.366   6.633   4.017
 2884SOL     OW 9550   0.705   5.227   2.814
 2884SOL    HW1 9551   0.623   5.187   2.855
 2884SOL    HW2 9552   0.683   5.316   2.775
 2885SOL     OW 9553   0.134   3.006   2.750
 2885SOL    HW1 9554   0.198   2.945   2.796
 2885SOL    HW2 9555   0.155   3.008   2.652
 2886SOL     OW 9556   2.003   3.638   0.105
 2886SOL    HW1 9557   2.078   3.594   0.056
 2886SOL    HW2 9558   1.973   3.581   0.181
 2887SOL     OW 9559   1.763   6.774   4.817
 2887SOL    HW1 9560   1.830   6.848   4.829
 2887SOL    HW2 9561   1.717   6.756   4.904
 2888SOL     OW 9562   0.394   4.569   6.527
 2888SOL    HW1 9563   0.390   4.550   6.625
 2888SOL    HW2 9564   0.490   4.566   6.497
 2889SOL     OW 9565   1.311   0.947   2.398
 2889SOL    HW1 9566   1.341   0.854   2.420
 2889SOL    HW2 9567   1.287   0.952   2.301
 2890SOL     OW 9568   2.736   0.422   0.685
 2890SOL    HW1 9569   2.754   0.481   0.764
 2890SOL    HW2 9570   2.653   0.453   0.638
 2891SOL     OW 9571   2.469   4.423   3.740
 2891SOL    HW1 9572   2.540   4.493   3.729
 2891SOL    HW2 9573   2.509   4.333   3.725
 2892SOL     OW 9574   5.358   3.873   0.653
 2892SOL    HW1 9575   5.320   3.913   0.736
 2892SOL    HW2 9576   5.354   3.773   0.659
 2893SOL     OW 9577   0.931   6.916   5.015
 2893SOL    HW1 9578   1.013   6.970   4.994
 2893SOL    HW2 9579   0.959   6.826   5.050
 2894SOL     OW 9580   3.282   2.907   6.789
 2894SOL    HW1 9581   3.241   2.957   6.713
 2894SOL    HW2 9582   3.379   2.891   6.770
 2895SOL     OW 9583   4.190   2.999   6.465
 2895SOL    HW1 9584   4.201   2.907   6.502
 2895SOL    HW2 9585   4.216   3.066   6.534
 2896SOL     OW 9586   3.034   4.999   6.420
 2896SOL    HW1 9587   2.958   4.936   6.439
 2896SOL    HW2 9588   3.013   5.089   6.457
 2897SOL     OW 9589   2.832   6.175   3.528
 2897SOL    HW1 9590   2.910   6.121   3.560
 2897SOL    HW2 9591   2.854   6.217   3.440
 2898SOL     OW 9592   4.716   5.119   3.360
 2898SOL    HW1 9593   4.772   5.054   3.411
 2898SOL    HW2 9594   4.672   5.183   3.423
 2899SOL     OW 9595   0.346   1.660   6.768
 2899SOL    HW1 9596   0.370   1.570   6.804
 2899SOL    HW2 9597   0.251   1.660   6.737
 2900SOL     OW 9598   1.055   4.883   5.383
 2900SOL    HW1 9599   0.993   4.923   5.315
 2900SOL    HW2 9600   1.061   4.942   5.463
 2901SOL     OW 9601   1.464   0.146   3.008
 2901SOL    HW1 9602   1.525   0.120   2.934
 2901SOL    HW2 9603   1.410   0.226   2.981
 2902SOL     OW 9604   5.753   6.239   1.187
 2902SOL    HW1 9605   5.679   6.305   1.194
 2902SOL    HW2 9606   5.753   6.197   1.096
 2903SOL     OW 9607   3.077   0.210   1.405
 2903SOL    HW1 9608   2.994   0.154   1.408
 2903SOL    HW2 9609   3.064   0.286   1.342
 2904SOL     OW 9610   2.208   3.049   5.592
 2904SOL    HW1 9611   2.131   3.090   5.640
 2904SOL    HW2 9612   2.223   3.095   5.505
 2905SOL     OW 9613   0.910   2.448   3.146
 2905SOL    HW1 9614   0.981   2.388   3.181
 2905SOL    HW2 9615   0.866   2.406   3.067
 2906SOL     OW 9616   5.398   5.205   2.781
 2906SOL    HW1 9617   5.337   5.135   2.817
 2906SOL    HW2 9618   5.346   5.289   2.765
 2907SOL     OW 9619   6.757   0.562   4.330
 2907SOL    HW1 9620   6.659   0.573   4.317
 2907SOL    HW2 9621   6.779   0.466   4.344
 2908SOL     OW 9622   4.313   6.600   4.114
 2908SOL    HW1 9623   4.406   6.597   4.079
 2908SOL    HW2 9624   4.249   6.579   4.041
 2909SOL     OW 9625   0.422   6.148   3.831
 2909SOL    HW1 9626   0.383   6.227   3.783
 2909SOL    HW2 9627   0.515   6.132   3.799
 2910SOL     OW 9628   4.439   6.681   4.348
 2910SOL    HW1 9629   4.411   6.656   4.255
 2910SOL    HW2 9630   4.461   6.598   4.399
 2911SOL     OW 9631   2.465   5.344   3.504
 2911SOL    HW1 9632   2.432   5.269   3.446
 2911SOL    HW2 9633   2.448   5.322   3.600
 2912SOL     OW 9634   3.604   6.096   6.937
 2912SOL    HW1 9635   3.544   6.119   7.013
 2912SOL    HW2 9636   3.550   6.054   6.863
 2913SOL     OW 9637   2.248   4.976   2.298
 2913SOL    HW1 9638   2.221   4.885   2.265
 2913SOL    HW2 9639   2.260   4.974   2.397
 2914SOL     OW 9640   5.951   5.323   6.557
 2914SOL    HW1 9641   5.938   5.399   6.495
 2914SOL    HW2 9642   5.874   5.260   6.550
 2915SOL     OW 9643   4.924   1.567   4.826
 2915SOL    HW1 9644   4.829   1.581   4.798
 2915SOL    HW2 9645   4.984   1.624   4.770
 2916SOL     OW 9646   6.056   5.333   5.819
 2916SOL    HW1 9647   5.994   5.364   5.746
 2916SOL    HW2 9648   6.151   5.340   5.787
 2917SOL     OW 9649   4.489   0.963   1.674
 2917SOL    HW1 9650   4.549   1.014   1.735
 2917SOL    HW2 9651   4.487   0.867   1.701
 2918SOL     OW 9652   0.321   3.352   3.107
 2918SOL    HW1 9653   0.251   3.304   3.160
 2918SOL    HW2 9654   0.368   3.417   3.167
 2919SOL     OW 9655   6.438   0.784   0.194
 2919SOL    HW1 9656   6.477   0.856   0.136
 2919SOL    HW2 9657   6.432   0.699   0.142
 2920SOL     OW 9658   3.559   2.013   2.233
 2920SOL    HW1 9659   3.556   1.938   2.299
 2920SOL    HW2 9660   3.653   2.043   2.219
 2921SOL     OW 9661   0.093   0.698   3.177
 2921SOL    HW1 9662   0.087   0.701   3.077
 2921SOL    HW2 9663   0.006   0.666   3.214
 2922SOL     OW 9664   6.103   6.405   6.956
 2922SOL    HW1 9665   6.189   6.451   6.973
 2922SOL    HW2 9666   6.098   6.322   7.011
 2923SOL     OW 9667   6.778   5.068   1.755
 2923SOL    HW1 9668   6.739   5.123   1.829
 2923SOL    HW2 9669   6.832   5.127   1.695
 2924SOL     OW 9670   6.914   1.967   6.462
 2924SOL    HW1 9671   6.992   1.979   6.523
 2924SOL    HW2 9672   6.848   2.041   6.478
 2925SOL     OW 9673   5.044   0.944   3.373
 2925SOL    HW1 9674   5.072   0.858   3.415
 2925SOL    HW2 9675   4.969   0.927   3.309
 2926SOL     OW 9676   6.813   1.297   5.467
 2926SOL    HW1 9677   6.767   1.211   5.486
 2926SOL    HW2 9678   6.753   1.356   5.413
 2927SOL     OW 9679   2.314   1.910   2.146
 2927SOL    HW1 9680   2.351   2.003   2.150
 2927SOL    HW2 9681   2.233   1.904   2.204
 2928SOL     OW 9682   6.670   2.649   5.995
 2928SOL    HW1 9683   6.702   2.733   6.038
 2928SOL    HW2 9684   6.732   2.623   5.921
 2929SOL     OW 9685   0.877   1.388   5.564
 2929SOL    HW1 9686   0.786   1.428   5.554
 2929SOL    HW2 9687   0.875   1.320   5.638
 2930SOL     OW 9688   4.981   6.495   4.913
 2930SOL    HW1 9689   5.080   6.501   4.925
 2930SOL    HW2 9690   4.946   6.583   4.880
 2931SOL     OW 9691   5.576   6.466   6.573
 2931SOL    HW1 9692   5.552   6.441   6.480
 2931SOL    HW2 9693   5.497   6.506   6.619
 2932SOL     OW 9694   1.627   4.888   1.953
 2932SOL    HW1 9695   1.703   4.832   1.983
 2932SOL    HW2 9696   1.541   4.837   1.965
 2933SOL     OW 9697   5.519   2.896   3.500
 2933SOL    HW1 9698   5.564   2.973   3.454
 2933SOL    HW2 9699   5.510   2.916   3.598
 2934SOL     OW 9700   3.542   1.220   0.455
 2934SOL    HW1 9701   3.498   1.304   0.422
 2934SOL    HW2 9702   3.591   1.176   0.379
 2935SOL     OW 9703   6.173   3.121   1.656
 2935SOL    HW1 9704   6.107   3.148   1.726
 2935SOL    HW2 9705   6.145   3.033   1.617
 2936SOL     OW 9706   5.148   5.594   1.651
 2936SOL    HW1 9707   5.129   5.631   1.742
 2936SOL    HW2 9708   5.227   5.640   1.612
 2937SOL     OW 9709   3.599   4.893   0.572
 2937SOL    HW1 9710   3.682   4.911   0.519
 2937SOL    HW2 9711   3.611   4.925   0.666
 2938SOL     OW 9712   4.926   4.810   5.876
 2938SOL    HW1 9713   4.924   4.904   5.842
 2938SOL    HW2 9714   4.868   4.752   5.819
 2939SOL     OW 9715   0.500   6.829   4.041
 2939SOL    HW1 9716   0.591   6.803   4.010
 2939SOL    HW2 9717   0.439   6.838   3.962
 2940SOL     OW 9718   6.033   0.141   5.634
 2940SOL    HW1 9719   6.110   0.196   5.603
 2940SOL    HW2 9720   5.951   0.165   5.582
 2941SOL     OW 9721   2.218   2.359   5.135
 2941SOL    HW1 9722   2.282   2.316   5.198
 2941SOL    HW2 9723   2.238   2.457   5.130
 2942SOL     OW 9724   2.311   0.685   2.317
 2942SOL    HW1 9725   2.246   0.613   2.293
 2942SOL    HW2 9726   2.290   0.720   2.408
 2943SOL     OW 9727   5.522   3.716   3.321
 2943SOL    HW1 9728   5.483   3.800   3.359
 2943SOL    HW2 9729   5.571   3.666   3.393
 2944SOL     OW 9730   2.645   5.404   5.384
 2944SOL    HW1 9731   2.712   5.429   5.315
 2944SOL    HW2 9732   2.664   5.312   5.419
 2945SOL     OW 9733   4.016   3.131   3.224
 2945SOL    HW1 9734   4.063   3.200   3.279
 2945SOL    HW2 9735   3.918   3.144   3.231
 2946SOL     OW 9736   6.908   5.559   6.032
 2946SOL    HW1 9737   6.971   5.514   5.969
 2946SOL    HW2 9738   6.885   5.650   5.998
 2947SOL     OW 9739   0.930   4.443   0.653
 2947SOL    HW1 9740   1.030   4.455   0.650
 2947SOL    HW2 9741   0.896   4.468   0.743
 2948SOL     OW 9742   6.817   3.416   5.339
 2948SOL    HW1 9743   6.850   3.476   5.265
 2948SOL    HW2 9744   6.812   3.468   5.424
 2949SOL     OW 9745   1.903   6.155   1.127
 2949SOL    HW1 9746   1.807   6.174   1.110
 2949SOL    HW2 9747   1.958   6.234   1.101
 2950SOL     OW 9748   5.411   3.443   4.517
 2950SOL    HW1 9749   5.443   3.352   4.545
 2950SOL    HW2 9750   5.345   3.477   4.583
 2951SOL     OW 9751   6.465   2.340   0.240
 2951SOL    HW1 9752   6.523   2.308   0.314
 2951SOL    HW2 9753   6.478   2.281   0.160
 2952SOL     OW 9754   0.988   5.736   4.786
 2952SOL    HW1 9755   1.049   5.731   4.865
 2952SOL    HW2 9756   0.896   5.761   4.815
 2953SOL     OW 9757   4.689   2.532   2.398
 2953SOL    HW1 9758   4.664   2.567   2.308
 2953SOL    HW2 9759   4.614   2.476   2.434
 2954SOL     OW 9760   0.982   5.362   1.219
 2954SOL    HW1 9761   1.002   5.444   1.165
 2954SOL    HW2 9762   0.914   5.385   1.289
 2955SOL     OW 9763   0.716   3.598   0.695
 2955SOL    HW1 9764   0.796   3.658   0.705
 2955SOL    HW2 9765   0.633   3.648   0.720
 2956SOL     OW 9766   6.214   5.948   2.929
 2956SOL    HW1 9767   6.148   5.895   2.875
 2956SOL    HW2 9768   6.265   6.008   2.869
 2957SOL     OW 9769   6.197   3.288   1.278
 2957SOL    HW1 9770   6.221   3.366   1.336
 2957SOL    HW2 9771   6.098   3.287   1.263
 2958SOL     OW 9772   2.602   4.633   4.866
 2958SOL    HW1 9773   2.648   4.671   4.785
 2958SOL    HW2 9774   2.666   4.575   4.916
 2959SOL     OW 9775   4.815   4.580   0.527
 2959SOL    HW1 9776   4.841   4.519   0.453
 2959SOL    HW2 9777   4.809   4.674   0.492
 2960SOL     OW 9778   2.885   0.579   6.547
 2960SOL    HW1 9779   2.908   0.583   6.645
 2960SOL    HW2 9780   2.806   0.638   6.529
 2961SOL     OW 9781   5.406   2.634   4.682
 2961SOL    HW1 9782   5.369   2.652   4.591
 2961SOL    HW2 9783   5.345   2.572   4.731
 2962SOL     OW 9784   4.329   0.686   3.823
 2962SOL    HW1 9785   4.327   0.650   3.730
 2962SOL    HW2 9786   4.379   0.622   3.883
 2963SOL     OW 9787   1.914   1.694   5.729
 2963SOL    HW1 9788   1.827   1.728   5.693
 2963SOL    HW2 9789   1.977   1.770   5.742
 2964SOL     OW 9790   1.263   6.863   1.518
 2964SOL    HW1 9791   1.322   6.785   1.540
 2964SOL    HW2 9792   1.168   6.837   1.531
 2965SOL     OW 9793   0.123   1.234   5.133
 2965SOL    HW1 9794   0.143   1.268   5.225
 2965SOL    HW2 9795   0.068   1.150   5.140
 2966SOL     OW 9796   6.269   4.798   4.095
 2966SOL    HW1 9797   6.301   4.892   4.086
 2966SOL    HW2 9798   6.301   4.760   4.182
 2967SOL     OW 9799   6.306   2.081   4.075
 2967SOL    HW1 9800   6.287   2.157   4.138
 2967SOL    HW2 9801   6.255   2.094   3.990
 2968SOL     OW 9802   0.861   4.160   5.537
 2968SOL    HW1 9803   0.914   4.145   5.454
 2968SOL    HW2 9804   0.794   4.087   5.548
 2969SOL     OW 9805   5.829   1.216   4.999
 2969SOL    HW1 9806   5.783   1.246   4.915
 2969SOL    HW2 9807   5.911   1.270   5.013
 2970SOL     OW 9808   1.469   4.212   7.010
 2970SOL    HW1 9809   1.380   4.226   6.968
 2970SOL    HW2 9810   1.466   4.241   0.087
 2971SOL     OW 9811   5.204   2.712   5.148
 2971SOL    HW1 9812   5.150   2.724   5.232
 2971SOL    HW2 9813   5.142   2.700   5.071
 2972SOL     OW 9814   6.568   4.992   6.148
 2972SOL    HW1 9815   6.637   5.007   6.077
 2972SOL    HW2 9816   6.480   4.971   6.104
 2973SOL     OW 9817   5.308   1.117   4.440
 2973SOL    HW1 9818   5.265   1.192   4.391
 2973SOL    HW2 9819   5.382   1.152   4.498
 2974SOL     OW 9820   0.385   3.685   3.068
 2974SOL    HW1 9821   0.374   3.779   3.034
 2974SOL    HW2 9822   0.309   3.629   3.035
 2975SOL     OW 9823   0.344   2.042   5.351
 2975SOL    HW1 9824   0.262   1.986   5.367
 2975SOL    HW2 9825   0.317   2.133   5.320
 2976SOL     OW 9826   3.701   1.296   2.309
 2976SOL    HW1 9827   3.702   1.198   2.325
 2976SOL    HW2 9828   3.712   1.344   2.396
 2977SOL     OW 9829   1.883   0.562   4.425
 2977SOL    HW1 9830   1.856   0.502   4.351
 2977SOL    HW2 9831   1.859   0.520   4.513
 2978SOL     OW 9832   4.321   4.634   6.580
 2978SOL    HW1 9833   4.329   4.718   6.526
 2978SOL    HW2 9834   4.282   4.656   6.670
 2979SOL     OW 9835   4.551   6.578   3.984
 2979SOL    HW1 9836   4.607   6.523   4.046
 2979SOL    HW2 9837   4.594   6.667   3.969
 2980SOL     OW 9838   1.552   5.758   3.874
 2980SOL    HW1 9839   1.589   5.689   3.811
 2980SOL    HW2 9840   1.593   5.847   3.854
 2981SOL     OW 9841   0.689   0.314   5.809
 2981SOL    HW1 9842   0.746   0.337   5.888
 2981SOL    HW2 9843   0.709   0.378   5.735
 2982SOL     OW 9844   5.091   6.266   3.052
 2982SOL    HW1 9845   5.024   6.194   3.072
 2982SOL    HW2 9846   5.043   6.346   3.016
 2983SOL     OW 9847   0.837   1.171   4.675
 2983SOL    HW1 9848   0.835   1.266   4.708
 2983SOL    HW2 9849   0.835   1.170   4.575
 2984SOL     OW 9850   4.740   5.708   1.695
 2984SOL    HW1 9851   4.765   5.625   1.644
 2984SOL    HW2 9852   4.716   5.683   1.789
 2985SOL     OW 9853   0.955   2.390   4.956
 2985SOL    HW1 9854   0.985   2.449   5.031
 2985SOL    HW2 9855   0.998   2.300   4.964
 2986SOL     OW 9856   1.662   3.757   6.688
 2986SOL    HW1 9857   1.619   3.685   6.742
 2986SOL    HW2 9858   1.737   3.798   6.740
 2987SOL     OW 9859   4.762   0.846   3.484
 2987SOL    HW1 9860   4.829   0.774   3.505
 2987SOL    HW2 9861   4.698   0.813   3.415
 2988SOL     OW 9862   0.219   6.891   3.119
 2988SOL    HW1 9863   0.187   6.907   3.025
 2988SOL    HW2 9864   0.146   6.914   3.183
 2989SOL     OW 9865   6.430   6.086   0.941
 2989SOL    HW1 9866   6.520   6.054   0.970
 2989SOL    HW2 9867   6.431   6.186   0.936
 2990SOL     OW 9868   4.326   1.306   3.500
 2990SOL    HW1 9869   4.360   1.313   3.407
 2990SOL    HW2 9870   4.390   1.254   3.556
 2991SOL     OW 9871   6.778   3.980   0.531
 2991SOL    HW1 9872   6.836   4.025   0.598
 2991SOL    HW2 9873   6.721   4.048   0.485
 2992SOL     OW 9874   1.939   4.999   5.913
 2992SOL    HW1 9875   1.902   5.066   5.849
 2992SOL    HW2 9876   2.037   4.986   5.894
 2993SOL     OW 9877   1.162   4.876   1.859
 2993SOL    HW1 9878   1.167   4.934   1.778
 2993SOL    HW2 9879   1.132   4.931   1.937
 2994SOL     OW 9880   3.795   0.779   0.417
 2994SOL    HW1 9881   3.863   0.789   0.490
 2994SOL    HW2 9882   3.714   0.832   0.440
 2995SOL     OW 9883   0.809   3.033   6.998
 2995SOL    HW1 9884   0.890   3.018   0.037
 2995SOL    HW2 9885   0.836   3.037   6.902
 2996SOL     OW 9886   2.955   6.188   3.972
 2996SOL    HW1 9887   2.958   6.108   4.032
 2996SOL    HW2 9888   2.932   6.269   4.025
 2997SOL     OW 9889   4.628   6.485   1.943
 2997SOL    HW1 9890   4.658   6.431   1.864
 2997SOL    HW2 9891   4.694   6.557   1.962
 2998SOL     OW 9892   5.150   6.359   5.195
 2998SOL    HW1 9893   5.137   6.269   5.238
 2998SOL    HW2 9894   5.118   6.430   5.257
 2999SOL     OW 9895   3.510   5.873   3.883
 2999SOL    HW1 9896   3.580   5.942   3.865
 2999SOL    HW2 9897   3.542   5.784   3.852
 3000SOL     OW 9898   1.331   3.618   6.590
 3000SOL    HW1 9899   1.322   3.535   6.644
 3000SOL    HW2 9900   1.325   3.698   6.650
 3001SOL     OW 9901   5.539   0.216   6.908
 3001SOL    HW1 9902   5.461   0.208   6.846
 3001SOL    HW2 9903   5.535   0.145   6.978
 3002SOL     OW 9904   4.397   0.679   5.310
 3002SOL    HW1 9905   4.332   0.738   5.261
 3002SOL    HW2 9906   4.358   0.653   5.398
 3003SOL     OW 9907   2.442   6.571   6.724
 3003SOL    HW1 9908   2.481   6.552   6.634
 3003SOL    HW2 9909   2.415   6.667   6.729
 3004SOL     OW 9910   0.145   4.903   3.972
 3004SOL    HW1 9911   0.241   4.875   3.971
 3004SOL    HW2 9912   0.139   4.997   4.005
 3005SOL     OW 9913   3.276   2.529   0.708
 3005SOL    HW1 9914   3.340   2.605   0.697
 3005SOL    HW2 9915   3.205   2.555   0.774
 3006SOL     OW 9916   6.212   2.311   0.339
 3006SOL    HW1 9917   6.290   2.331   0.278
 3006SOL    HW2 9918   6.155   2.240   0.297
 3007SOL     OW 9919   6.280   5.167   2.376
 3007SOL    HW1 9920   6.247   5.227   2.303
 3007SOL    HW2 9921   6.285   5.073   2.343
 3008SOL     OW 9922   4.062   0.816   6.642
 3008SOL    HW1 9923   4.152   0.839   6.679
 3008SOL    HW2 9924   4.044   0.719   6.655
 3009SOL     OW 9925   0.773   6.487   2.744
 3009SOL    HW1 9926   0.707   6.533   2.685
 3009SOL    HW2 9927   0.777   6.390   2.722
 3010SOL     OW 9928   3.840   5.996   3.449
 3010SOL    HW1 9929   3.748   6.019   3.479
 3010SOL    HW2 9930   3.899   6.077   3.455
 3011SOL     OW 9931   5.552   0.908   0.164
 3011SOL    HW1 9932   5.626   0.895   0.098
 3011SOL    HW2 9933   5.500   0.990   0.139
 3012SOL     OW 9934   1.236   4.030   5.023
 3012SOL    HW1 9935   1.287   4.018   5.108
 3012SOL    HW2 9936   1.241   4.126   4.994
 3013SOL     OW 9937   5.528   5.757   3.782
 3013SOL    HW1 9938   5.573   5.673   3.751
 3013SOL    HW2 9939   5.502   5.747   3.878
 3014SOL     OW 9940   5.022   2.522   4.033
 3014SOL    HW1 9941   5.023   2.621   4.024
 3014SOL    HW2 9942   4.996   2.481   3.946
 3015SOL     OW 9943   3.724   2.299   0.658
 3015SOL    HW1 9944   3.687   2.333   0.571
 3015SOL    HW2 9945   3.814   2.339   0.674
 3016SOL     OW 9946   3.126   6.176   4.576
 3016SOL    HW1 9947   3.051   6.114   4.603
 3016SOL    HW2 9948   3.205   6.160   4.635
 3017SOL     OW 9949   0.981   5.109   1.708
 3017SOL    HW1 9950   0.936   5.028   1.747
 3017SOL    HW2 9951   1.069   5.083   1.668
 3018SOL     OW 9952   3.142   0.030   5.932
 3018SOL    HW1 9953   3.101   0.075   5.853
 3018SOL    HW2 9954   3.099   0.064   6.016
 3019SOL     OW 9955   2.436   6.623   0.954
 3019SOL    HW1 9956   2.506   6.639   0.884
 3019SOL    HW2 9957   2.475   6.636   1.045
 3020SOL     OW 9958   3.441   4.110   1.602
 3020SOL    HW1 9959   3.358   4.111   1.547
 3020SOL    HW2 9960   3.463   4.203   1.632
 3021SOL     OW 9961   2.024   1.453   0.477
 3021SOL    HW1 9962   1.973   1.397   0.411
 3021SOL    HW2 9963   2.069   1.528   0.429
 3022SOL     OW 9964   4.538   5.901   2.838
 3022SOL    HW1 9965   4.513   5.862   2.927
 3022SOL    HW2 9966   4.632   5.934   2.841
 3023SOL     OW 9967   3.829   6.550   2.451
 3023SOL    HW1 9968   3.819   6.474   2.515
 3023SOL    HW2 9969   3.739   6.576   2.416
 3024SOL     OW 9970   3.715   0.246   6.107
 3024SOL    HW1 9971   3.670   0.231   6.194
 3024SOL    HW2 9972   3.807   0.208   6.110
 3025SOL     OW 9973   3.514   2.482   0.164
 3025SOL    HW1 9974   3.417   2.463   0.148
 3025SOL    HW2 9975   3.559   2.400   0.199
 3026SOL     OW 9976   1.826   2.279   0.784
 3026SOL    HW1 9977   1.862   2.190   0.757
 3026SOL    HW2 9978   1.757   2.266   0.856
 3027SOL     OW 9979   4.212   0.930   1.630
 3027SOL    HW1 9980   4.215   0.903   1.534
 3027SOL    HW2 9981   4.299   0.970   1.656
 3028SOL     OW 9982   1.120   4.458   6.405
 3028SOL    HW1 9983   1.199   4.512   6.376
 3028SOL    HW2 9984   1.150   4.367   6.433
 3029SOL     OW 9985   0.077   4.935   4.649
 3029SOL    HW1 9986   0.121   4.984   4.724
 3029SOL    HW2 9987   0.144   4.877   4.603
 3030SOL     OW 9988   0.503   2.299   5.770
 3030SOL    HW1 9989   0.461   2.349   5.846
 3030SOL    HW2 9990   0.592   2.340   5.749
 3031SOL     OW 9991   0.122   3.867   0.941
 3031SOL    HW1 9992   0.159   3.954   0.909
 3031SOL    HW2 9993   0.198   3.804   0.960
 3032SOL     OW 9994   5.160   0.134   0.539
 3032SOL    HW1 9995   5.110   0.177   0.464
 3032SOL    HW2 9996   5.210   0.055   0.505
 3033SOL     OW 9997   1.110   2.434   1.106
 3033SOL    HW1 9998   1.049   2.513   1.102
 3033SOL    HW2 9999   1.149   2.417   1.015
 3034SOL     OW10000   2.166   6.102   4.120
 3034SOL    HW110001   2.224   6.180   4.142
 3034SOL    HW210002   2.126   6.065   4.204
 3035SOL     OW10003   6.830   3.064   0.190
 3035SOL    HW110004   6.815   3.105   0.280
 3035SOL    HW210005   6.816   3.135   0.120
 3036SOL     OW10006   1.529   3.092   6.826
 3036SOL    HW110007   1.592   3.159   6.787
 3036SOL    HW210008   1.578   3.034   6.892
 3037SOL     OW10009   5.965   5.722   5.177
 3037SOL    HW110010   5.919   5.787   5.238
 3037SOL    HW210011   5.913   5.715   5.092
 3038SOL     OW10012   5.852   6.651   6.675
 3038SOL    HW110013   5.792   6.626   6.599
 3038SOL    HW210014   5.946   6.624   6.653
 3039SOL     OW10015   6.552   3.714   2.394
 3039SOL    HW110016   6.598   3.729   2.306
 3039SOL    HW210017   6.458   3.684   2.377
 3040SOL     OW10018   5.147   3.778   6.292
 3040SOL    HW110019   5.089   3.858   6.309
 3040SOL    HW210020   5.216   3.770   6.364
 3041SOL     OW10021   2.190   2.450   5.523
 3041SOL    HW110022   2.269   2.447   5.462
 3041SOL    HW210023   2.137   2.533   5.506
 3042SOL     OW10024   5.537   6.882   1.948
 3042SOL    HW110025   5.493   6.823   2.016
 3042SOL    HW210026   5.572   6.827   1.873
 3043SOL     OW10027   0.681   5.585   0.912
 3043SOL    HW110028   0.723   5.495   0.928
 3043SOL    HW210029   0.596   5.592   0.964
 3044SOL     OW10030   2.922   4.590   5.981
 3044SOL    HW110031   2.839   4.620   5.934
 3044SOL    HW210032   2.949   4.659   6.048
 3045SOL     OW10033   4.916   0.510   2.677
 3045SOL    HW110034   4.868   0.533   2.592
 3045SOL    HW210035   4.871   0.433   2.721
 3046SOL     OW10036   1.726   2.076   5.700
 3046SOL    HW110037   1.688   2.148   5.759
 3046SOL    HW210038   1.759   2.117   5.615
 3047SOL     OW10039   4.797   5.850   2.563
 3047SOL    HW110040   4.795   5.848   2.663
 3047SOL    HW210041   4.751   5.933   2.531
 3048SOL     OW10042   3.465   3.060   1.806
 3048SOL    HW110043   3.512   2.988   1.756
 3048SOL    HW210044   3.531   3.111   1.861
 3049SOL     OW10045   1.384   6.168   1.488
 3049SOL    HW110046   1.331   6.100   1.540
 3049SOL    HW210047   1.429   6.123   1.411
 3050SOL     OW10048   3.301   0.490   3.679
 3050SOL    HW110049   3.394   0.512   3.650
 3050SOL    HW210050   3.295   0.498   3.778
 3051SOL     OW10051   2.774   3.502   6.989
 3051SOL    HW110052   2.813   3.485   6.898
 3051SOL    HW210053   2.730   3.419   0.004
 3052SOL     OW10054   4.316   1.021   2.062
 3052SOL    HW110055   4.339   1.096   2.000
 3052SOL    HW210056   4.236   1.046   2.116
 3053SOL     OW10057   6.583   0.458   6.678
 3053SOL    HW110058   6.573   0.383   6.743
 3053SOL    HW210059   6.505   0.458   6.615
 3054SOL     OW10060   0.898   2.810   0.874
 3054SOL    HW110061   0.837   2.739   0.839
 3054SOL    HW210062   0.928   2.869   0.798
 3055SOL     OW10063   4.764   6.889   3.591
 3055SOL    HW110064   4.667   6.903   3.610
 3055SOL    HW210065   4.796   6.957   3.525
 3056SOL     OW10066   6.937   0.359   6.241
 3056SOL    HW110067   6.895   0.445   6.211
 3056SOL    HW210068   6.973   0.310   6.161
 3057SOL     OW10069   4.076   5.526   2.839
 3057SOL    HW110070   4.140   5.501   2.765
 3057SOL    HW210071   3.988   5.481   2.823
 3058SOL     OW10072   6.807   5.687   1.438
 3058SOL    HW110073   6.720   5.648   1.407
 3058SOL    HW210074   6.813   5.678   1.537
 3059SOL     OW10075   1.977   2.271   5.226
 3059SOL    HW110076   1.951   2.338   5.295
 3059SOL    HW210077   2.057   2.304   5.176
 3060SOL     OW10078   0.699   6.109   0.260
 3060SOL    HW110079   0.658   6.042   0.197
 3060SOL    HW210080   0.630   6.176   0.287
 3061SOL     OW10081   6.453   1.029   4.956
 3061SOL    HW110082   6.389   0.961   4.921
 3061SOL    HW210083   6.480   1.090   4.882
 3062SOL     OW10084   1.483   6.967   0.288
 3062SOL    HW110085   1.406   6.949   0.348
 3062SOL    HW210086   1.450   7.000   0.200
 3063SOL     OW10087   2.931   5.418   1.712
 3063SOL    HW110088   2.879   5.495   1.749
 3063SOL    HW210089   2.980   5.373   1.786
 3064SOL     OW10090   6.193   3.388   3.780
 3064SOL    HW110091   6.117   3.401   3.717
 3064SOL    HW210092   6.275   3.362   3.729
 3065SOL     OW10093   1.749   0.703   6.747
 3065SOL    HW110094   1.806   0.785   6.739
 3065SOL    HW210095   1.653   0.730   6.755
 3066SOL     OW10096   5.712   4.847   0.606
 3066SOL    HW110097   5.749   4.790   0.679
 3066SOL    HW210098   5.780   4.857   0.533
 3067SOL     OW10099   3.268   1.673   4.393
 3067SOL    HW110100   3.235   1.659   4.486
 3067SOL    HW210101   3.219   1.748   4.350
 3068SOL     OW10102   5.486   5.997   0.579
 3068SOL    HW110103   5.519   5.938   0.505
 3068SOL    HW210104   5.424   6.066   0.541
 3069SOL     OW10105   6.664   6.310   1.600
 3069SOL    HW110106   6.707   6.231   1.555
 3069SOL    HW210107   6.566   6.310   1.580
 3070SOL     OW10108   1.866   1.230   2.201
 3070SOL    HW110109   1.773   1.245   2.237
 3070SOL    HW210110   1.931   1.229   2.277
 3071SOL     OW10111   6.157   6.286   3.832
 3071SOL    HW110112   6.240   6.310   3.782
 3071SOL    HW210113   6.096   6.366   3.834
 3072SOL     OW10114   0.667   6.876   0.542
 3072SOL    HW110115   0.640   6.952   0.601
 3072SOL    HW210116   0.586   6.837   0.497
 3073SOL     OW10117   0.801   3.235   4.893
 3073SOL    HW110118   0.783   3.242   4.992
 3073SOL    HW210119   0.898   3.214   4.879
 3074SOL     OW10120   5.833   2.840   0.725
 3074SOL    HW110121   5.751   2.898   0.721
 3074SOL    HW210122   5.834   2.779   0.645
 3075SOL     OW10123   1.836   6.177   1.403
 3075SOL    HW110124   1.921   6.156   1.354
 3075SOL    HW210125   1.827   6.276   1.414
 3076SOL     OW10126   6.506   0.815   4.297
 3076SOL    HW110127   6.467   0.775   4.380
 3076SOL    HW210128   6.433   0.831   4.230
 3077SOL     OW10129   5.184   5.059   2.881
 3077SOL    HW110130   5.097   5.021   2.913
 3077SOL    HW210131   5.208   5.018   2.793
 3078SOL     OW10132   2.111   3.001   1.334
 3078SOL    HW110133   2.175   3.018   1.409
 3078SOL    HW210134   2.105   3.082   1.276
 3079SOL     OW10135   2.061   2.840   4.493
 3079SOL    HW110136   2.018   2.799   4.413
 3079SOL    HW210137   1.995   2.846   4.567
 3080SOL     OW10138   5.646   4.747   2.903
 3080SOL    HW110139   5.566   4.687   2.913
 3080SOL    HW210140   5.660   4.798   2.987
 3081SOL     OW10141   0.603   4.294   6.169
 3081SOL    HW110142   0.527   4.349   6.134
 3081SOL    HW210143   0.605   4.300   6.269
 3082SOL     OW10144   3.752   6.575   3.443
 3082SOL    HW110145   3.827   6.560   3.507
 3082SOL    HW210146   3.788   6.610   3.357
 3083SOL     OW10147   4.062   6.492   3.370
 3083SOL    HW110148   4.158   6.463   3.368
 3083SOL    HW210149   4.049   6.568   3.306
 3084SOL     OW10150   4.845   4.724   4.533
 3084SOL    HW110151   4.815   4.760   4.445
 3084SOL    HW210152   4.781   4.754   4.604
 3085SOL     OW10153   0.451   4.490   2.350
 3085SOL    HW110154   0.447   4.518   2.446
 3085SOL    HW210155   0.484   4.396   2.344
 3086SOL     OW10156   4.076   1.742   1.399
 3086SOL    HW110157   4.073   1.742   1.499
 3086SOL    HW210158   3.984   1.729   1.363
 3087SOL     OW10159   0.813   4.937   4.047
 3087SOL    HW110160   0.895   4.940   3.990
 3087SOL    HW210161   0.757   5.018   4.030
 3088SOL     OW10162   2.195   4.942   5.186
 3088SOL    HW110163   2.153   4.987   5.265
 3088SOL    HW210164   2.124   4.913   5.122
 3089SOL     OW10165   0.689   2.915   0.389
 3089SOL    HW110166   0.664   3.010   0.405
 3089SOL    HW210167   0.720   2.904   0.295
 3090SOL     OW10168   1.753   2.291   1.890
 3090SOL    HW110169   1.791   2.361   1.831
 3090SOL    HW210170   1.770   2.314   1.986
 3091SOL     OW10171   2.686   6.284   0.078
 3091SOL    HW110172   2.671   6.207   0.016
 3091SOL    HW210173   2.654   6.368   0.035
 3092SOL     OW10174   5.079   0.343   6.657
 3092SOL    HW110175   5.039   0.261   6.616
 3092SOL    HW210176   5.022   0.375   6.732
 3093SOL     OW10177   5.578   4.747   5.730
 3093SOL    HW110178   5.567   4.714   5.824
 3093SOL    HW210179   5.489   4.771   5.692
 3094SOL     OW10180   3.528   6.933   4.836
 3094SOL    HW110181   3.572   6.843   4.836
 3094SOL    HW210182   3.439   6.926   4.881
 3095SOL     OW10183   2.850   5.191   4.439
 3095SOL    HW110184   2.758   5.194   4.400
 3095SOL    HW210185   2.852   5.130   4.517
 3096SOL     OW10186   0.783   0.344   4.121
 3096SOL    HW110187   0.754   0.377   4.031
 3096SOL    HW210188   0.801   0.422   4.181
 3097SOL     OW10189   0.564   2.478   0.913
 3097SOL    HW110190   0.517   2.413   0.853
 3097SOL    HW210191   0.662   2.472   0.898
 3098SOL     OW10192   2.575   3.554   1.409
 3098SOL    HW110193   2.548   3.578   1.502
 3098SOL    HW210194   2.524   3.610   1.344
 3099SOL     OW10195   0.038   5.942   5.143
 3099SOL    HW110196   7.005   6.015   5.098
 3099SOL    HW210197   0.126   5.976   5.173
 3100SOL     OW10198   6.640   0.347   4.522
 3100SOL    HW110199   6.679   0.352   4.614
 3100SOL    HW210200   6.706   0.306   4.460
 3101SOL     OW10201   4.890   6.155   5.329
 3101SOL    HW110202   4.818   6.205   5.281
 3101SOL    HW210203   4.854   6.067   5.361
 3102SOL     OW10204   0.815   5.274   2.467
 3102SOL    HW110205   0.771   5.223   2.393
 3102SOL    HW210206   0.845   5.209   2.538
 3103SOL     OW10207   3.150   1.603   1.476
 3103SOL    HW110208   3.105   1.629   1.391
 3103SOL    HW210209   3.097   1.531   1.521
 3104SOL     OW10210   6.114   0.046   4.281
 3104SOL    HW110211   6.180   0.029   4.208
 3104SOL    HW210212   6.136   0.132   4.327
 3105SOL     OW10213   6.764   5.121   2.819
 3105SOL    HW110214   6.810   5.164   2.896
 3105SOL    HW210215   6.702   5.049   2.854
 3106SOL     OW10216   6.868   1.569   2.931
 3106SOL    HW110217   6.934   1.567   2.855
 3106SOL    HW210218   6.886   1.493   2.993
 3107SOL     OW10219   3.323   0.383   4.144
 3107SOL    HW110220   3.321   0.450   4.218
 3107SOL    HW210221   3.256   0.311   4.162
 3108SOL     OW10222   1.647   0.744   4.400
 3108SOL    HW110223   1.713   0.671   4.415
 3108SOL    HW210224   1.658   0.781   4.308
 3109SOL     OW10225   5.805   6.049   2.826
 3109SOL    HW110226   5.831   5.955   2.805
 3109SOL    HW210227   5.887   6.106   2.830
 3110SOL     OW10228   1.130   1.699   3.701
 3110SOL    HW110229   1.157   1.603   3.706
 3110SOL    HW210230   1.122   1.735   3.794
 3111SOL     OW10231   6.331   5.455   4.102
 3111SOL    HW110232   6.401   5.527   4.105
 3111SOL    HW210233   6.241   5.497   4.106
 3112SOL     OW10234   5.070   2.349   6.597
 3112SOL    HW110235   5.079   2.449   6.599
 3112SOL    HW210236   5.116   2.311   6.678
 3113SOL     OW10237   1.855   0.100   4.245
 3113SOL    HW110238   1.797   0.018   4.238
 3113SOL    HW210239   1.881   0.114   4.340
 3114SOL     OW10240   4.675   3.137   0.135
 3114SOL    HW110241   4.686   3.091   0.223
 3114SOL    HW210242   4.592   3.104   0.090
 3115SOL     OW10243   5.014   3.316   0.339
 3115SOL    HW110244   4.917   3.315   0.315
 3115SOL    HW210245   5.064   3.373   0.275
 3116SOL     OW10246   0.233   3.790   0.060
 3116SOL    HW110247   0.310   3.727   0.047
 3116SOL    HW210248   0.220   3.843   6.995
 3117SOL     OW10249   4.561   3.676   5.360
 3117SOL    HW110250   4.496   3.744   5.326
 3117SOL    HW210251   4.607   3.632   5.283
 3118SOL     OW10252   0.026   4.690   6.776
 3118SOL    HW110253   0.114   4.715   6.816
 3118SOL    HW210254   0.018   4.731   6.685
 3119SOL     OW10255   2.099   3.728   5.898
 3119SOL    HW110256   2.075   3.653   5.837
 3119SOL    HW210257   2.098   3.814   5.847
 3120SOL     OW10258   2.364   6.530   4.412
 3120SOL    HW110259   2.287   6.588   4.440
 3120SOL    HW210260   2.381   6.461   4.483
 3121SOL     OW10261   0.665   1.684   2.266
 3121SOL    HW110262   0.590   1.668   2.330
 3121SOL    HW210263   0.632   1.671   2.172
 3122SOL     OW10264   3.061   5.799   5.980
 3122SOL    HW110265   3.098   5.789   6.072
 3122SOL    HW210266   2.961   5.809   5.985
 3123SOL     OW10267   3.431   6.377   3.493
 3123SOL    HW110268   3.450   6.473   3.514
 3123SOL    HW210269   3.402   6.369   3.397
 3124SOL     OW10270   4.014   0.033   4.770
 3124SOL    HW110271   4.005   6.964   4.819
 3124SOL    HW210272   3.978   0.106   4.828
 3125SOL     OW10273   6.209   2.285   6.295
 3125SOL    HW110274   6.226   2.357   6.228
 3125SOL    HW210275   6.258   2.306   6.380
 3126SOL     OW10276   5.197   4.386   6.508
 3126SOL    HW110277   5.282   4.429   6.539
 3126SOL    HW210278   5.215   4.291   6.484
 3127SOL     OW10279   0.436   2.591   3.318
 3127SOL    HW110280   0.482   2.660   3.262
 3127SOL    HW210281   0.494   2.511   3.328
 3128SOL     OW10282   2.100   6.902   6.945
 3128SOL    HW110283   2.126   6.928   6.851
 3128SOL    HW210284   2.156   6.954   7.010
 3129SOL     OW10285   0.810   4.236   6.774
 3129SOL    HW110286   0.767   4.293   6.705
 3129SOL    HW210287   0.796   4.277   6.864
 3130SOL     OW10288   2.375   4.333   2.446
 3130SOL    HW110289   2.321   4.252   2.421
 3130SOL    HW210290   2.320   4.393   2.505
 3131SOL     OW10291   0.559   3.080   1.991
 3131SOL    HW110292   0.651   3.043   1.983
 3131SOL    HW210293   0.501   3.042   1.919
 3132SOL     OW10294   4.916   5.842   5.811
 3132SOL    HW110295   4.880   5.935   5.806
 3132SOL    HW210296   4.985   5.829   5.739
 3133SOL     OW10297   2.597   2.364   3.798
 3133SOL    HW110298   2.588   2.268   3.827
 3133SOL    HW210299   2.580   2.424   3.877
 3134SOL     OW10300   5.200   4.110   2.023
 3134SOL    HW110301   5.190   4.015   2.052
 3134SOL    HW210302   5.263   4.157   2.085
 3135SOL     OW10303   4.479   1.848   4.772
 3135SOL    HW110304   4.488   1.840   4.673
 3135SOL    HW210305   4.555   1.800   4.817
 3136SOL     OW10306   6.251   6.392   5.401
 3136SOL    HW110307   6.289   6.326   5.336
 3136SOL    HW210308   6.192   6.456   5.352
 3137SOL     OW10309   5.308   0.726   3.612
 3137SOL    HW110310   5.296   0.647   3.672
 3137SOL    HW210311   5.384   0.782   3.644
 3138SOL     OW10312   6.525   1.742   4.172
 3138SOL    HW110313   6.528   1.829   4.123
 3138SOL    HW210314   6.479   1.755   4.259
 3139SOL     OW10315   4.988   0.007   6.249
 3139SOL    HW110316   5.060   0.007   6.319
 3139SOL    HW210317   4.984   0.097   6.205
 3140SOL     OW10318   6.238   5.976   6.245
 3140SOL    HW110319   6.168   5.974   6.315
 3140SOL    HW210320   6.288   5.890   6.244
 3141SOL     OW10321   0.763   6.947   6.198
 3141SOL    HW110322   0.729   6.862   6.156
 3141SOL    HW210323   0.812   6.924   6.282
 3142SOL     OW10324   4.928   6.394   0.214
 3142SOL    HW110325   4.954   6.361   0.124
 3142SOL    HW210326   4.915   6.317   0.276
 3143SOL     OW10327   6.676   2.612   6.838
 3143SOL    HW110328   6.676   2.547   6.914
 3143SOL    HW210329   6.704   2.702   6.872
 3144SOL     OW10330   2.741   3.656   1.021
 3144SOL    HW110331   2.697   3.566   1.017
 3144SOL    HW210332   2.822   3.656   0.962
 3145SOL     OW10333   2.271   5.498   2.866
 3145SOL    HW110334   2.225   5.496   2.777
 3145SOL    HW210335   2.370   5.505   2.852
 3146SOL     OW10336   1.281   6.239   3.331
 3146SOL    HW110337   1.216   6.230   3.406
 3146SOL    HW210338   1.280   6.333   3.296
 3147SOL     OW10339   4.102   5.233   6.431
 3147SOL    HW110340   4.160   5.200   6.356
 3147SOL    HW210341   4.018   5.273   6.394
 3148SOL     OW10342   4.213   5.517   4.596
 3148SOL    HW110343   4.286   5.581   4.570
 3148SOL    HW210344   4.254   5.428   4.618
 3149SOL     OW10345   2.918   0.283   5.315
 3149SOL    HW110346   3.010   0.264   5.351
 3149SOL    HW210347   2.857   0.308   5.390
 3150SOL     OW10348   5.266   5.938   4.559
 3150SOL    HW110349   5.352   5.893   4.586
 3150SOL    HW210350   5.192   5.871   4.560
 3151SOL     OW10351   4.910   1.557   6.658
 3151SOL    HW110352   4.927   1.464   6.689
 3151SOL    HW210353   4.825   1.591   6.698
 3152SOL     OW10354   1.314   5.274   1.791
 3152SOL    HW110355   1.256   5.206   1.747
 3152SOL    HW210356   1.271   5.304   1.876
 3153SOL     OW10357   6.272   4.407   1.932
 3153SOL    HW110358   6.323   4.375   1.853
 3153SOL    HW210359   6.179   4.433   1.903
 3154SOL     OW10360   6.299   1.634   0.317
 3154SOL    HW110361   6.264   1.541   0.335
 3154SOL    HW210362   6.222   1.695   0.302
 3155SOL     OW10363   0.144   5.369   1.365
 3155SOL    HW110364   0.217   5.382   1.298
 3155SOL    HW210365   0.093   5.286   1.342
 3156SOL     OW10366   3.917   3.387   3.837
 3156SOL    HW110367   3.974   3.314   3.875
 3156SOL    HW210368   3.907   3.373   3.738
 3157SOL     OW10369   1.968   3.040   4.803
 3157SOL    HW110370   2.016   3.071   4.721
 3157SOL    HW210371   2.033   3.031   4.878
 3158SOL     OW10372   4.420   0.239   1.039
 3158SOL    HW110373   4.437   0.224   1.136
 3158SOL    HW210374   4.484   0.185   0.985
 3159SOL     OW10375   4.967   6.324   6.820
 3159SOL    HW110376   4.888   6.385   6.813
 3159SOL    HW210377   5.050   6.375   6.797
 3160SOL     OW10378   6.315   4.930   6.022
 3160SOL    HW110379   6.329   4.983   5.938
 3160SOL    HW210380   6.235   4.965   6.071
 3161SOL     OW10381   1.100   1.454   2.603
 3161SOL    HW110382   1.055   1.499   2.681
 3161SOL    HW210383   1.186   1.413   2.633
 3162SOL     OW10384   0.601   5.155   7.015
 3162SOL    HW110385   0.701   5.159   7.015
 3162SOL    HW210386   0.565   5.220   0.063
 3163SOL     OW10387   3.526   2.542   6.180
 3163SOL    HW110388   3.427   2.550   6.189
 3163SOL    HW210389   3.548   2.482   6.104
 3164SOL     OW10390   5.185   3.982   1.725
 3164SOL    HW110391   5.127   3.971   1.643
 3164SOL    HW210392   5.135   4.033   1.794
 3165SOL     OW10393   1.657   6.674   1.681
 3165SOL    HW110394   1.619   6.660   1.773
 3165SOL    HW210395   1.586   6.655   1.613
 3166SOL     OW10396   4.870   2.640   6.554
 3166SOL    HW110397   4.823   2.648   6.466
 3166SOL    HW210398   4.842   2.555   6.599
 3167SOL     OW10399   6.464   4.795   2.114
 3167SOL    HW110400   6.401   4.813   2.039
 3167SOL    HW210401   6.514   4.710   2.096
 3168SOL     OW10402   5.199   2.800   0.764
 3168SOL    HW110403   5.132   2.742   0.717
 3168SOL    HW210404   5.178   2.803   0.861
 3169SOL     OW10405   0.703   3.604   6.002
 3169SOL    HW110406   0.684   3.666   6.078
 3169SOL    HW210407   0.649   3.631   5.923
 3170SOL     OW10408   3.911   0.082   0.253
 3170SOL    HW110409   3.956   7.012   0.242
 3170SOL    HW210410   3.922   0.115   0.346
 3171SOL     OW10411   6.503   6.835   1.238
 3171SOL    HW110412   6.468   6.916   1.286
 3171SOL    HW210413   6.601   6.846   1.222
 3172SOL     OW10414   6.932   6.062   4.923
 3172SOL    HW110415   7.003   6.065   4.852
 3172SOL    HW210416   6.880   5.977   4.913
 3173SOL     OW10417   2.804   0.856   1.387
 3173SOL    HW110418   2.766   0.934   1.436
 3173SOL    HW210419   2.801   0.775   1.446
 3174SOL     OW10420   2.595   3.377   6.245
 3174SOL    HW110421   2.590   3.451   6.178
 3174SOL    HW210422   2.511   3.375   6.299
 3175SOL     OW10423   1.079   6.733   6.661
 3175SOL    HW110424   1.085   6.711   6.564
 3175SOL    HW210425   0.983   6.746   6.687
 3176SOL     OW10426   1.889   4.631   5.967
 3176SOL    HW110427   1.927   4.684   5.891
 3176SOL    HW210428   1.802   4.671   5.995
 3177SOL     OW10429   5.526   5.466   5.777
 3177SOL    HW110430   5.519   5.397   5.848
 3177SOL    HW210431   5.608   5.521   5.791
 3178SOL     OW10432   6.855   3.961   1.852
 3178SOL    HW110433   6.858   3.955   1.752
 3178SOL    HW210434   6.814   4.048   1.879
 3179SOL     OW10435   1.807   2.333   2.144
 3179SOL    HW110436   1.891   2.323   2.198
 3179SOL    HW210437   1.738   2.381   2.199
 3180SOL     OW10438   4.345   1.038   6.134
 3180SOL    HW110439   4.320   1.097   6.057
 3180SOL    HW210440   4.406   1.088   6.196
 3181SOL     OW10441   0.656   0.955   3.755
 3181SOL    HW110442   0.686   0.883   3.693
 3181SOL    HW210443   0.713   1.036   3.743
 3182SOL     OW10444   0.548   0.559   5.505
 3182SOL    HW110445   0.533   0.515   5.593
 3182SOL    HW210446   0.642   0.595   5.501
 3183SOL     OW10447   3.810   4.506   1.676
 3183SOL    HW110448   3.805   4.515   1.577
 3183SOL    HW210449   3.731   4.551   1.717
 3184SOL     OW10450   2.715   1.807   2.023
 3184SOL    HW110451   2.731   1.878   2.092
 3184SOL    HW210452   2.802   1.763   2.000
 3185SOL     OW10453   6.848   0.583   5.393
 3185SOL    HW110454   6.844   0.565   5.491
 3185SOL    HW210455   6.854   0.682   5.378
 3186SOL     OW10456   3.532   0.810   3.375
 3186SOL    HW110457   3.503   0.882   3.439
 3186SOL    HW210458   3.494   0.830   3.284
 3187SOL     OW10459   3.781   3.939   6.578
 3187SOL    HW110460   3.842   3.859   6.575
 3187SOL    HW210461   3.713   3.926   6.649
 3188SOL     OW10462   3.416   6.139   2.763
 3188SOL    HW110463   3.492   6.165   2.822
 3188SOL    HW210464   3.393   6.043   2.779
 3189SOL     OW10465   1.999   1.270   2.717
 3189SOL    HW110466   1.998   1.322   2.632
 3189SOL    HW210467   1.920   1.295   2.773
 3190SOL     OW10468   1.171   6.450   1.188
 3190SOL    HW110469   1.211   6.382   1.126
 3190SOL    HW210470   1.199   6.541   1.158
 3191SOL     OW10471   3.408   0.590   1.191
 3191SOL    HW110472   3.432   0.562   1.284
 3191SOL    HW210473   3.491   0.594   1.135
 3192SOL     OW10474   0.518   1.986   0.709
 3192SOL    HW110475   0.425   2.017   0.731
 3192SOL    HW210476   0.528   1.890   0.733
 3193SOL     OW10477   4.424   2.269   5.845
 3193SOL    HW110478   4.433   2.197   5.777
 3193SOL    HW210479   4.329   2.301   5.846
 3194SOL     OW10480   1.582   2.963   6.483
 3194SOL    HW110481   1.612   3.039   6.426
 3194SOL    HW210482   1.487   2.977   6.511
 3195SOL     OW10483   1.556   2.462   3.564
 3195SOL    HW110484   1.647   2.424   3.551
 3195SOL    HW210485   1.527   2.509   3.480
 3196SOL     OW10486   6.938   0.088   4.832
 3196SOL    HW110487   6.993   0.079   4.749
 3196SOL    HW210488   6.992   0.060   4.911
 3197SOL     OW10489   1.136   5.542   2.684
 3197SOL    HW110490   1.213   5.593   2.643
 3197SOL    HW210491   1.172   5.462   2.733
 3198SOL     OW10492   0.054   2.191   6.710
 3198SOL    HW110493   0.007   2.210   6.796
 3198SOL    HW210494   0.122   2.118   6.725
 3199SOL     OW10495   4.841   2.236   1.631
 3199SOL    HW110496   4.863   2.323   1.675
 3199SOL    HW210497   4.781   2.183   1.691
 3200SOL     OW10498   6.984   2.996   0.876
 3200SOL    HW110499   6.974   2.966   0.971
 3200SOL    HW210500   0.039   2.945   0.833
 3201SOL     OW10501   5.385   3.822   3.844
 3201SOL    HW110502   5.418   3.906   3.801
 3201SOL    HW210503   5.367   3.753   3.774
 3202SOL     OW10504   2.000   4.514   2.471
 3202SOL    HW110505   2.077   4.470   2.516
 3202SOL    HW210506   1.923   4.450   2.466
 3203SOL     OW10507   6.448   0.843   1.259
 3203SOL    HW110508   6.427   0.940   1.272
 3203SOL    HW210509   6.518   0.814   1.324
 3204SOL     OW10510   6.063   5.376   1.679
 3204SOL    HW110511   5.978   5.420   1.709
 3204SOL    HW210512   6.053   5.347   1.584
 3205SOL     OW10513   6.611   4.548   6.377
 3205SOL    HW110514   6.662   4.478   6.327
 3205SOL    HW210515   6.561   4.506   6.452
 3206SOL     OW10516   0.143   6.844   5.739
 3206SOL    HW110517   0.097   6.764   5.778
 3206SOL    HW210518   0.080   6.922   5.739
 3207SOL     OW10519   0.626   1.498   5.526
 3207SOL    HW110520   0.607   1.492   5.428
 3207SOL    HW210521   0.659   1.590   5.547
 3208SOL     OW10522   4.388   5.653   5.191
 3208SOL    HW110523   4.402   5.608   5.102
 3208SOL    HW210524   4.467   5.636   5.249
 3209SOL     OW10525   2.855   6.670   4.002
 3209SOL    HW110526   2.781   6.603   4.000
 3209SOL    HW210527   2.875   6.701   3.909
 3210SOL     OW10528   0.624   3.556   2.427
 3210SOL    HW110529   0.574   3.635   2.462
 3210SOL    HW210530   0.670   3.510   2.503
 3211SOL     OW10531   2.414   4.044   1.039
 3211SOL    HW110532   2.423   4.123   0.978
 3211SOL    HW210533   2.331   3.994   1.016
 3212SOL     OW10534   4.465   2.034   6.889
 3212SOL    HW110535   4.482   2.107   6.956
 3212SOL    HW210536   4.419   2.072   6.809
 3213SOL     OW10537   6.136   5.451   2.822
 3213SOL    HW110538   6.041   5.427   2.805
 3213SOL    HW210539   6.194   5.370   2.812
 3214SOL     OW10540   4.353   6.103   6.967
 3214SOL    HW110541   4.262   6.103   6.925
 3214SOL    HW210542   4.422   6.115   6.895
 3215SOL     OW10543   6.284   3.073   0.834
 3215SOL    HW110544   6.368   3.106   0.791
 3215SOL    HW210545   6.305   2.996   0.893
 3216SOL     OW10546   5.924   6.122   3.193
 3216SOL    HW110547   5.830   6.109   3.162
 3216SOL    HW210548   5.956   6.213   3.166
 3217SOL     OW10549   1.169   4.432   3.457
 3217SOL    HW110550   1.212   4.393   3.539
 3217SOL    HW210551   1.070   4.416   3.460
 3218SOL     OW10552   4.120   6.863   3.195
 3218SOL    HW110553   4.147   6.803   3.120
 3218SOL    HW210554   4.092   6.952   3.158
 3219SOL     OW10555   6.678   0.328   3.110
 3219SOL    HW110556   6.778   0.329   3.105
 3219SOL    HW210557   6.641   0.280   3.031
 3220SOL     OW10558   0.127   4.605   4.885
 3220SOL    HW110559   0.168   4.514   4.891
 3220SOL    HW210560   0.098   4.622   4.792
 3221SOL     OW10561   2.576   6.408   2.493
 3221SOL    HW110562   2.608   6.352   2.570
 3221SOL    HW210563   2.574   6.353   2.410
 3222SOL     OW10564   5.021   1.807   3.031
 3222SOL    HW110565   5.063   1.776   2.946
 3222SOL    HW210566   5.088   1.857   3.086
 3223SOL     OW10567   2.576   5.269   6.544
 3223SOL    HW110568   2.611   5.353   6.585
 3223SOL    HW210569   2.652   5.210   6.518
 3224SOL     OW10570   4.391   5.633   6.607
 3224SOL    HW110571   4.405   5.587   6.695
 3224SOL    HW210572   4.480   5.661   6.569
 3225SOL     OW10573   4.471   3.440   6.597
 3225SOL    HW110574   4.443   3.510   6.662
 3225SOL    HW210575   4.413   3.444   6.516
 3226SOL     OW10576   2.293   0.792   4.166
 3226SOL    HW110577   2.291   0.712   4.226
 3226SOL    HW210578   2.205   0.801   4.119
 3227SOL     OW10579   3.571   1.643   6.313
 3227SOL    HW110580   3.593   1.643   6.410
 3227SOL    HW210581   3.499   1.709   6.294
 3228SOL     OW10582   6.304   3.557   4.243
 3228SOL    HW110583   6.351   3.609   4.314
 3228SOL    HW210584   6.351   3.572   4.155
 3229SOL     OW10585   3.371   2.315   5.832
 3229SOL    HW110586   3.373   2.412   5.812
 3229SOL    HW210587   3.456   2.289   5.880
 3230SOL     OW10588   0.489   1.322   3.087
 3230SOL    HW110589   0.441   1.239   3.115
 3230SOL    HW210590   0.453   1.399   3.140
 3231SOL     OW10591   4.863   5.683   1.288
 3231SOL    HW110592   4.775   5.641   1.269
 3231SOL    HW210593   4.924   5.617   1.331
 3232SOL     OW10594   4.019   5.056   4.987
 3232SOL    HW110595   4.079   4.986   5.025
 3232SOL    HW210596   4.075   5.134   4.956
 3233SOL     OW10597   1.153   3.908   1.924
 3233SOL    HW110598   1.236   3.942   1.880
 3233SOL    HW210599   1.172   3.888   2.021
 3234SOL     OW10600   6.976   2.095   0.398
 3234SOL    HW110601   0.043   2.046   0.383
 3234SOL    HW210602   6.995   2.191   0.420
 3235SOL     OW10603   5.632   6.618   2.830
 3235SOL    HW110604   5.537   6.631   2.859
 3235SOL    HW210605   5.681   6.704   2.837
 3236SOL     OW10606   1.544   2.888   2.141
 3236SOL    HW110607   1.466   2.884   2.203
 3236SOL    HW210608   1.562   2.797   2.103
 3237SOL     OW10609   4.818   6.651   4.573
 3237SOL    HW110610   4.767   6.686   4.495
 3237SOL    HW210611   4.842   6.555   4.558
 3238SOL     OW10612   0.588   5.756   6.567
 3238SOL    HW110613   0.668   5.698   6.549
 3238SOL    HW210614   0.618   5.843   6.604
 3239SOL     OW10615   6.336   0.434   6.528
 3239SOL    HW110616   6.313   0.390   6.441
 3239SOL    HW210617   6.295   0.525   6.531
 3240SOL     OW10618   0.550   6.708   4.443
 3240SOL    HW110619   0.504   6.794   4.422
 3240SOL    HW210620   0.590   6.713   4.534
 3241SOL     OW10621   5.036   1.376   3.910
 3241SOL    HW110622   4.970   1.414   3.974
 3241SOL    HW210623   5.092   1.307   3.957
 3242SOL     OW10624   3.560   5.604   6.549
 3242SOL    HW110625   3.560   5.542   6.471
 3242SOL    HW210626   3.647   5.653   6.554
 3243SOL     OW10627   4.768   5.122   0.129
 3243SOL    HW110628   4.671   5.138   0.107
 3243SOL    HW210629   4.776   5.092   0.224
 3244SOL     OW10630   4.530   6.113   5.906
 3244SOL    HW110631   4.453   6.110   5.970
 3244SOL    HW210632   4.560   6.208   5.895
 3245SOL     OW10633   4.127   2.905   6.188
 3245SOL    HW110634   4.183   2.943   6.114
 3245SOL    HW210635   4.160   2.939   6.275
 3246SOL     OW10636   5.784   6.794   2.363
 3246SOL    HW110637   5.872   6.775   2.319
 3246SOL    HW210638   5.782   6.889   2.394
 3247SOL     OW10639   0.212   3.253   3.998
 3247SOL    HW110640   0.154   3.329   3.970
 3247SOL    HW210641   0.203   3.238   4.096
 3248SOL     OW10642   6.283   3.481   2.111
 3248SOL    HW110643   6.204   3.432   2.073
 3248SOL    HW210644   6.352   3.415   2.139
 3249SOL     OW10645   3.543   5.042   5.309
 3249SOL    HW110646   3.635   5.044   5.269
 3249SOL    HW210647   3.476   5.023   5.237
 3250SOL     OW10648   4.901   6.980   2.634
 3250SOL    HW110649   4.960   0.001   2.705
 3250SOL    HW210650   4.955   6.959   2.553
 3251SOL     OW10651   3.951   1.554   2.712
 3251SOL    HW110652   3.883   1.626   2.700
 3251SOL    HW210653   3.983   1.552   2.807
 3252SOL     OW10654   3.351   1.201   2.836
 3252SOL    HW110655   3.311   1.290   2.816
 3252SOL    HW210656   3.283   1.143   2.881
 3253SOL     OW10657   4.458   2.756   1.433
 3253SOL    HW110658   4.404   2.818   1.491
 3253SOL    HW210659   4.507   2.810   1.364
 3254SOL     OW10660   3.990   4.950   3.870
 3254SOL    HW110661   4.008   4.955   3.772
 3254SOL    HW210662   4.003   4.855   3.901
 3255SOL     OW10663   4.585   5.687   0.337
 3255SOL    HW110664   4.526   5.710   0.415
 3255SOL    HW210665   4.656   5.756   0.328
 3256SOL     OW10666   5.446   6.766   5.626
 3256SOL    HW110667   5.475   6.832   5.695
 3256SOL    HW210668   5.510   6.690   5.621
 3257SOL     OW10669   1.544   1.781   1.054
 3257SOL    HW110670   1.531   1.683   1.064
 3257SOL    HW210671   1.630   1.800   1.007
 3258SOL     OW10672   4.824   6.852   1.432
 3258SOL    HW110673   4.913   6.816   1.462
 3258SOL    HW210674   4.801   6.933   1.485
 3259SOL     OW10675   4.380   6.265   4.118
 3259SOL    HW110676   4.305   6.245   4.054
 3259SOL    HW210677   4.365   6.355   4.159
 3260SOL     OW10678   1.499   1.314   0.305
 3260SOL    HW110679   1.409   1.341   0.270
 3260SOL    HW210680   1.490   1.234   0.363
 3261SOL     OW10681   4.163   6.844   1.040
 3261SOL    HW110682   4.127   6.851   1.133
 3261SOL    HW210683   4.213   6.928   1.017
 3262SOL     OW10684   3.551   1.411   3.685
 3262SOL    HW110685   3.547   1.494   3.628
 3262SOL    HW210686   3.577   1.333   3.628
 3263SOL     OW10687   4.394   6.909   2.864
 3263SOL    HW110688   4.376   6.834   2.800
 3263SOL    HW210689   4.319   6.974   2.861
 3264SOL     OW10690   0.306   5.590   0.026
 3264SOL    HW110691   0.354   5.600   6.958
 3264SOL    HW210692   0.301   5.679   0.071
 3265SOL     OW10693   4.073   1.697   6.497
 3265SOL    HW110694   3.997   1.677   6.435
 3265SOL    HW210695   4.110   1.787   6.476
 3266SOL     OW10696   6.705   2.893   6.915
 3266SOL    HW110697   6.760   2.976   6.917
 3266SOL    HW210698   6.643   2.893   6.994
 3267SOL     OW10699   3.380   2.094   1.204
 3267SOL    HW110700   3.405   2.001   1.176
 3267SOL    HW210701   3.295   2.091   1.257
 3268SOL     OW10702   1.509   4.103   0.594
 3268SOL    HW110703   1.601   4.113   0.555
 3268SOL    HW210704   1.455   4.183   0.571
 3269SOL     OW10705   4.602   4.573   1.353
 3269SOL    HW110706   4.573   4.603   1.262
 3269SOL    HW210707   4.602   4.473   1.356
 3270SOL     OW10708   0.337   5.366   3.688
 3270SOL    HW110709   0.333   5.271   3.657
 3270SOL    HW210710   0.321   5.428   3.611
 3271SOL     OW10711   6.006   2.477   2.080
 3271SOL    HW110712   6.051   2.503   2.165
 3271SOL    HW210713   6.043   2.389   2.048
 3272SOL     OW10714   3.776   0.391   0.392
 3272SOL    HW110715   3.705   0.454   0.360
 3272SOL    HW210716   3.735   0.322   0.450
 3273SOL     OW10717   1.030   6.092   2.157
 3273SOL    HW110718   1.066   6.150   2.084
 3273SOL    HW210719   1.094   6.017   2.175
 3274SOL     OW10720   2.808   1.934   5.649
 3274SOL    HW110721   2.880   2.001   5.632
 3274SOL    HW210722   2.803   1.870   5.572
 3275SOL     OW10723   1.923   0.361   6.767
 3275SOL    HW110724   2.021   0.369   6.784
 3275SOL    HW210725   1.873   0.399   6.845
 3276SOL     OW10726   3.159   5.184   6.707
 3276SOL    HW110727   3.207   5.261   6.748
 3276SOL    HW210728   3.144   5.201   6.610
 3277SOL     OW10729   0.082   6.464   6.057
 3277SOL    HW110730   7.017   6.431   6.101
 3277SOL    HW210731   0.137   6.513   6.125
 3278SOL     OW10732   1.048   1.237   5.386
 3278SOL    HW110733   1.008   1.274   5.470
 3278SOL    HW210734   0.978   1.186   5.336
 3279SOL     OW10735   6.963   6.927   1.175
 3279SOL    HW110736   6.963   6.916   1.076
 3279SOL    HW210737   0.032   6.967   1.204
 3280SOL     OW10738   2.645   5.096   6.185
 3280SOL    HW110739   2.559   5.120   6.140
 3280SOL    HW210740   2.627   5.032   6.259
 3281SOL     OW10741   2.246   5.012   0.220
 3281SOL    HW110742   2.340   4.978   0.212
 3281SOL    HW210743   2.191   4.976   0.145
 3282SOL     OW10744   2.535   5.609   4.109
 3282SOL    HW110745   2.597   5.578   4.036
 3282SOL    HW210746   2.589   5.633   4.190
 3283SOL     OW10747   3.268   0.733   3.480
 3283SOL    HW110748   3.367   0.731   3.469
 3283SOL    HW210749   3.225   0.686   3.402
 3284SOL     OW10750   0.361   5.990   6.573
 3284SOL    HW110751   0.345   6.059   6.643
 3284SOL    HW210752   0.318   5.904   6.600
 3285SOL     OW10753   0.256   2.658   2.968
 3285SOL    HW110754   0.294   2.568   2.951
 3285SOL    HW210755   0.198   2.655   3.050
 3286SOL     OW10756   3.698   3.659   4.343
 3286SOL    HW110757   3.717   3.700   4.253
 3286SOL    HW210758   3.759   3.701   4.411
 3287SOL     OW10759   2.001   5.169   0.033
 3287SOL    HW110760   2.037   5.076   0.042
 3287SOL    HW210761   2.065   5.225   6.999
 3288SOL     OW10762   0.808   6.100   6.440
 3288SOL    HW110763   0.745   6.156   6.386
 3288SOL    HW210764   0.828   6.146   6.526
 3289SOL     OW10765   0.899   5.578   5.663
 3289SOL    HW110766   0.876   5.588   5.567
 3289SOL    HW210767   0.831   5.627   5.719
 3290SOL     OW10768   0.546   5.804   1.287
 3290SOL    HW110769   0.546   5.897   1.324
 3290SOL    HW210770   0.489   5.745   1.345
 3291SOL     OW10771   1.865   6.143   6.663
 3291SOL    HW110772   1.901   6.127   6.754
 3291SOL    HW210773   1.938   6.179   6.604
 3292SOL     OW10774   0.022   0.083   6.212
 3292SOL    HW110775   0.055   0.153   6.276
 3292SOL    HW210776   0.100   0.037   6.170
 3293SOL     OW10777   0.028   1.390   3.094
 3293SOL    HW110778   0.112   1.431   3.058
 3293SOL    HW210779   0.044   1.293   3.114
 3294SOL     OW10780   6.707   0.118   5.965
 3294SOL    HW110781   6.730   0.021   5.965
 3294SOL    HW210782   6.633   0.135   6.030
 3295SOL     OW10783   2.558   2.228   0.787
 3295SOL    HW110784   2.554   2.324   0.812
 3295SOL    HW210785   2.535   2.172   0.866
 3296SOL     OW10786   1.996   0.627   2.540
 3296SOL    HW110787   2.075   0.687   2.554
 3296SOL    HW210788   1.926   0.678   2.489
 3297SOL     OW10789   3.181   2.301   5.487
 3297SOL    HW110790   3.149   2.250   5.407
 3297SOL    HW210791   3.217   2.390   5.457
 3298SOL     OW10792   6.702   3.398   2.933
 3298SOL    HW110793   6.635   3.389   2.860
 3298SOL    HW210794   6.742   3.490   2.930
 3299SOL     OW10795   1.410   0.140   4.969
 3299SOL    HW110796   1.385   0.234   4.990
 3299SOL    HW210797   1.505   0.137   4.936
 3300SOL     OW10798   6.173   6.832   5.286
 3300SOL    HW110799   6.241   6.844   5.214
 3300SOL    HW210800   6.098   6.896   5.272
 3301SOL     OW10801   0.589   3.801   3.449
 3301SOL    HW110802   0.600   3.888   3.497
 3301SOL    HW210803   0.572   3.728   3.515
 3302SOL     OW10804   1.458   5.014   4.147
 3302SOL    HW110805   1.536   4.965   4.185
 3302SOL    HW210806   1.490   5.094   4.095
 3303SOL     OW10807   3.675   2.905   3.171
 3303SOL    HW110808   3.717   2.903   3.262
 3303SOL    HW210809   3.577   2.889   3.179
 3304SOL     OW10810   1.236   6.098   3.780
 3304SOL    HW110811   1.309   6.067   3.841
 3304SOL    HW210812   1.166   6.146   3.833
 3305SOL     OW10813   1.686   1.255   1.814
 3305SOL    HW110814   1.724   1.298   1.732
 3305SOL    HW210815   1.748   1.182   1.844
 3306SOL     OW10816   2.157   3.848   3.498
 3306SOL    HW110817   2.217   3.900   3.437
 3306SOL    HW210818   2.153   3.894   3.587
 3307SOL     OW10819   0.232   6.122   0.421
 3307SOL    HW110820   0.202   6.192   0.356
 3307SOL    HW210821   0.158   6.056   0.436
 3308SOL     OW10822   4.196   6.170   0.423
 3308SOL    HW110823   4.227   6.263   0.442
 3308SOL    HW210824   4.267   6.105   0.450
 3309SOL     OW10825   1.320   5.235   3.553
 3309SOL    HW110826   1.372   5.286   3.621
 3309SOL    HW210827   1.306   5.292   3.472
 3310SOL     OW10828   0.557   4.531   2.856
 3310SOL    HW110829   0.595   4.469   2.786
 3310SOL    HW210830   0.630   4.557   2.919
 3311SOL     OW10831   3.887   6.758   1.550
 3311SOL    HW110832   3.966   6.701   1.571
 3311SOL    HW210833   3.915   6.854   1.543
 3312SOL     OW10834   3.275   3.855   6.141
 3312SOL    HW110835   3.275   3.954   6.154
 3312SOL    HW210836   3.306   3.810   6.225
 3313SOL     OW10837   1.198   5.517   3.732
 3313SOL    HW110838   1.150   5.501   3.818
 3313SOL    HW210839   1.135   5.501   3.656
 3314SOL     OW10840   1.534   3.123   5.340
 3314SOL    HW110841   1.487   3.184   5.403
 3314SOL    HW210842   1.598   3.066   5.391
 3315SOL     OW10843   6.610   2.178   3.677
 3315SOL    HW110844   6.591   2.081   3.693
 3315SOL    HW210845   6.632   2.222   3.764
 3316SOL     OW10846   4.624   2.024   6.226
 3316SOL    HW110847   4.595   1.947   6.169
 3316SOL    HW210848   4.700   1.996   6.284
 3317SOL     OW10849   4.608   2.729   1.898
 3317SOL    HW110850   4.637   2.824   1.908
 3317SOL    HW210851   4.614   2.702   1.801
 3318SOL     OW10852   2.813   6.048   5.919
 3318SOL    HW110853   2.826   6.136   5.963
 3318SOL    HW210854   2.794   5.978   5.989
 3319SOL     OW10855   0.690   6.692   3.816
 3319SOL    HW110856   0.721   6.769   3.872
 3319SOL    HW210857   0.625   6.725   3.747
 3320SOL     OW10858   5.663   1.316   5.568
 3320SOL    HW110859   5.585   1.258   5.545
 3320SOL    HW210860   5.631   1.401   5.610
 3321SOL     OW10861   3.655   2.970   2.772
 3321SOL    HW110862   3.725   3.009   2.712
 3321SOL    HW210863   3.698   2.936   2.856
 3322SOL     OW10864   3.932   2.058   0.727
 3322SOL    HW110865   3.840   2.023   0.711
 3322SOL    HW210866   3.927   2.153   0.757
 3323SOL     OW10867   1.994   4.193   6.753
 3323SOL    HW110868   1.946   4.281   6.759
 3323SOL    HW210869   2.092   4.207   6.770
 3324SOL     OW10870   1.074   3.799   0.442
 3324SOL    HW110871   1.126   3.884   0.451
 3324SOL    HW210872   0.994   3.814   0.385
 3325SOL     OW10873   1.250   2.477   0.587
 3325SOL    HW110874   1.210   2.466   0.678
 3325SOL    HW210875   1.232   2.395   0.532
 3326SOL     OW10876   6.381   1.900   1.284
 3326SOL    HW110877   6.303   1.856   1.240
 3326SOL    HW210878   6.458   1.902   1.220
 3327SOL     OW10879   2.439   7.013   2.148
 3327SOL    HW110880   2.354   0.030   2.187
 3327SOL    HW210881   2.423   6.984   2.054
 3328SOL     OW10882   5.070   0.890   2.236
 3328SOL    HW110883   4.988   0.868   2.183
 3328SOL    HW210884   5.050   0.965   2.299
 3329SOL     OW10885   3.978   0.854   5.401
 3329SOL    HW110886   4.012   0.764   5.372
 3329SOL    HW210887   3.952   0.907   5.320
 3330SOL     OW10888   6.020   6.769   2.225
 3330SOL    HW110889   5.945   6.765   2.160
 3330SOL    HW210890   6.099   6.718   2.190
 3331SOL     OW10891   2.113   3.590   3.022
 3331SOL    HW110892   2.130   3.675   2.972
 3331SOL    HW210893   2.117   3.608   3.120
 3332SOL     OW10894   4.468   5.227   0.077
 3332SOL    HW110895   4.492   5.290   0.150
 3332SOL    HW210896   4.421   5.147   0.115
 3333SOL     OW10897   3.234   3.509   1.524
 3333SOL    HW110898   3.213   3.520   1.621
 3333SOL    HW210899   3.281   3.422   1.510
 3334SOL     OW10900   1.961   2.363   2.411
 3334SOL    HW110901   1.941   2.334   2.505
 3334SOL    HW210902   1.946   2.462   2.403
 3335SOL     OW10903   3.530   4.469   5.366
 3335SOL    HW110904   3.459   4.516   5.314
 3335SOL    HW210905   3.620   4.507   5.342
 3336SOL     OW10906   3.634   6.844   4.004
 3336SOL    HW110907   3.718   6.880   4.044
 3336SOL    HW210908   3.608   6.759   4.051
 3337SOL     OW10909   3.546   3.530   2.629
 3337SOL    HW110910   3.552   3.539   2.529
 3337SOL    HW210911   3.474   3.464   2.651
 3338SOL     OW10912   1.725   1.497   1.380
 3338SOL    HW110913   1.645   1.540   1.338
 3338SOL    HW210914   1.794   1.478   1.310
 3339SOL     OW10915   2.108   0.475   5.169
 3339SOL    HW110916   2.027   0.439   5.124
 3339SOL    HW210917   2.189   0.427   5.136
 3340SOL     OW10918   4.339   1.117   3.879
 3340SOL    HW110919   4.376   1.141   3.969
 3340SOL    HW210920   4.394   1.043   3.839
 3341SOL     OW10921   2.768   4.747   2.435
 3341SOL    HW110922   2.798   4.763   2.341
 3341SOL    HW210923   2.771   4.833   2.485
 3342SOL     OW10924   6.157   0.304   2.944
 3342SOL    HW110925   6.136   0.385   2.889
 3342SOL    HW210926   6.072   0.255   2.965
 3343SOL     OW10927   4.623   5.323   6.660
 3343SOL    HW110928   4.646   5.234   6.700
 3343SOL    HW210929   4.526   5.342   6.676
 3344SOL     OW10930   0.367   2.752   1.428
 3344SOL    HW110931   0.444   2.772   1.489
 3344SOL    HW210932   0.365   2.819   1.354
 3345SOL     OW10933   0.811   4.585   0.870
 3345SOL    HW110934   0.837   4.680   0.887
 3345SOL    HW210935   0.798   4.538   0.957
 3346SOL     OW10936   2.669   0.763   6.475
 3346SOL    HW110937   2.663   0.805   6.566
 3346SOL    HW210938   2.591   0.792   6.420
 3347SOL     OW10939   0.616   3.284   6.508
 3347SOL    HW110940   0.580   3.337   6.431
 3347SOL    HW210941   0.700   3.326   6.541
 3348SOL     OW10942   3.951   3.589   6.093
 3348SOL    HW110943   3.938   3.502   6.142
 3348SOL    HW210944   3.983   3.659   6.157
 3349SOL     OW10945   2.639   4.604   3.666
 3349SOL    HW110946   2.616   4.669   3.739
 3349SOL    HW210947   2.726   4.631   3.624
 3350SOL     OW10948   0.244   4.116   5.464
 3350SOL    HW110949   0.267   4.200   5.415
 3350SOL    HW210950   0.147   4.095   5.453
 3351SOL     OW10951   5.067   0.490   0.552
 3351SOL    HW110952   5.137   0.422   0.533
 3351SOL    HW210953   4.977   0.445   0.557
 3352SOL     OW10954   5.361   2.324   6.930
 3352SOL    HW110955   5.386   2.237   6.972
 3352SOL    HW210956   5.444   2.369   6.896
 3353SOL     OW10957   2.383   0.707   1.648
 3353SOL    HW110958   2.434   0.783   1.688
 3353SOL    HW210959   2.285   0.729   1.647
 3354SOL     OW10960   4.009   3.016   5.718
 3354SOL    HW110961   3.933   2.953   5.733
 3354SOL    HW210962   4.000   3.095   5.779
 3355SOL     OW10963   2.114   1.087   5.143
 3355SOL    HW110964   2.187   1.023   5.166
 3355SOL    HW210965   2.139   1.137   5.059
 3356SOL     OW10966   1.475   6.865   5.952
 3356SOL    HW110967   1.413   6.888   5.877
 3356SOL    HW210968   1.475   6.766   5.966
 3357SOL     OW10969   2.853   3.622   2.347
 3357SOL    HW110970   2.860   3.645   2.249
 3357SOL    HW210971   2.829   3.705   2.398
 3358SOL     OW10972   6.024   1.175   2.840
 3358SOL    HW110973   6.082   1.194   2.761
 3358SOL    HW210974   6.048   1.237   2.915
 3359SOL     OW10975   0.101   5.794   4.080
 3359SOL    HW110976   0.178   5.857   4.068
 3359SOL    HW210977   0.043   5.795   3.998
 3360SOL     OW10978   0.135   2.693   5.718
 3360SOL    HW110979   0.117   2.655   5.809
 3360SOL    HW210980   0.130   2.793   5.722
 3361SOL     OW10981   0.151   0.369   4.176
 3361SOL    HW110982   0.107   0.399   4.091
 3361SOL    HW210983   0.129   0.434   4.249
 3362SOL     OW10984   3.761   2.057   3.847
 3362SOL    HW110985   3.680   2.094   3.893
 3362SOL    HW210986   3.842   2.074   3.903
 3363SOL     OW10987   6.071   2.979   1.016
 3363SOL    HW110988   6.100   3.071   1.042
 3363SOL    HW210989   6.087   2.917   1.092
 3364SOL     OW10990   2.393   4.293   3.244
 3364SOL    HW110991   2.407   4.381   3.290
 3364SOL    HW210992   2.411   4.303   3.147
 3365SOL     OW10993   2.092   3.331   4.831
 3365SOL    HW110994   2.051   3.260   4.888
 3365SOL    HW210995   2.131   3.403   4.889
 3366SOL     OW10996   6.916   3.457   4.472
 3366SOL    HW110997   6.980   3.520   4.515
 3366SOL    HW210998   6.966   3.386   4.423
 3367SOL     OW10999   3.466   3.509   4.440
 3367SOL    HW111000   3.532   3.576   4.405
 3367SOL    HW211001   3.373   3.541   4.424
 3368SOL     OW11002   1.751   5.901   6.714
 3368SOL    HW111003   1.801   5.828   6.667
 3368SOL    HW211004   1.801   5.987   6.705
 3369SOL     OW11005   4.296   1.733   1.269
 3369SOL    HW111006   4.208   1.760   1.309
 3369SOL    HW211007   4.312   1.635   1.287
 3370SOL     OW11008   0.200   5.295   1.609
 3370SOL    HW111009   0.207   5.339   1.520
 3370SOL    HW211010   0.272   5.227   1.619
 3371SOL     OW11011   2.046   3.173   3.254
 3371SOL    HW111012   2.065   3.100   3.321
 3371SOL    HW211013   2.115   3.245   3.265
 3372SOL     OW11014   6.702   2.641   0.984
 3372SOL    HW111015   6.694   2.544   1.005
 3372SOL    HW211016   6.720   2.692   1.069
 3373SOL     OW11017   0.093   1.753   1.734
 3373SOL    HW111018   0.117   1.850   1.745
 3373SOL    HW211019   0.167   1.696   1.770
 3374SOL     OW11020   0.905   6.995   3.250
 3374SOL    HW111021   0.919   0.075   3.242
 3374SOL    HW211022   0.838   6.964   3.182
 3375SOL     OW11023   6.962   5.190   6.681
 3375SOL    HW111024   6.997   5.276   6.643
 3375SOL    HW211025   0.018   5.141   6.726
 3376SOL     OW11026   2.274   3.386   5.333
 3376SOL    HW111027   2.236   3.463   5.384
 3376SOL    HW211028   2.373   3.396   5.326
 3377SOL     OW11029   6.709   4.888   3.557
 3377SOL    HW111030   6.620   4.895   3.602
 3377SOL    HW211031   6.697   4.884   3.458
 3378SOL     OW11032   1.584   6.826   6.930
 3378SOL    HW111033   1.625   6.771   6.857
 3378SOL    HW211034   1.522   6.769   6.984
 3379SOL     OW11035   0.682   3.609   4.599
 3379SOL    HW111036   0.700   3.512   4.613
 3379SOL    HW211037   0.642   3.623   4.508
 3380SOL     OW11038   3.916   4.012   5.698
 3380SOL    HW111039   3.952   4.086   5.642
 3380SOL    HW211040   3.937   4.029   5.794
 3381SOL     OW11041   1.124   2.777   1.252
 3381SOL    HW111042   1.152   2.798   1.159
 3381SOL    HW211043   1.039   2.723   1.250
 3382SOL     OW11044   6.766   2.363   1.053
 3382SOL    HW111045   6.791   2.298   1.125
 3382SOL    HW211046   6.835   2.362   0.981
 3383SOL     OW11047   3.927   4.521   6.825
 3383SOL    HW111048   3.944   4.611   6.785
 3383SOL    HW211049   3.836   4.489   6.798
 3384SOL     OW11050   3.286   4.268   0.635
 3384SOL    HW111051   3.357   4.206   0.668
 3384SOL    HW211052   3.205   4.215   0.611
 3385SOL     OW11053   0.397   2.419   3.643
 3385SOL    HW111054   0.359   2.454   3.557
 3385SOL    HW211055   0.472   2.478   3.672
 3386SOL     OW11056   6.768   4.891   6.633
 3386SOL    HW111057   6.741   4.867   6.539
 3386SOL    HW211058   6.713   4.840   6.698
 3387SOL     OW11059   5.998   0.474   3.126
 3387SOL    HW111060   5.979   0.387   3.082
 3387SOL    HW211061   6.080   0.466   3.182
 3388SOL     OW11062   5.064   3.449   1.736
 3388SOL    HW111063   5.050   3.547   1.753
 3388SOL    HW211064   5.005   3.396   1.796
 3389SOL     OW11065   6.105   6.325   0.541
 3389SOL    HW111066   6.113   6.317   0.442
 3389SOL    HW211067   6.193   6.303   0.583
 3390SOL     OW11068   3.675   6.643   5.994
 3390SOL    HW111069   3.588   6.608   5.958
 3390SOL    HW211070   3.676   6.743   5.987
 3391SOL     OW11071   5.984   3.355   3.605
 3391SOL    HW111072   5.884   3.349   3.609
 3391SOL    HW211073   6.011   3.407   3.525
 3392SOL     OW11074   4.272   0.220   5.058
 3392SOL    HW111075   4.351   0.221   4.997
 3392SOL    HW211076   4.210   0.295   5.034
 3393SOL     OW11077   5.196   0.041   0.954
 3393SOL    HW111078   5.169   6.992   0.885
 3393SOL    HW211079   5.292   0.065   0.940
 3394SOL     OW11080   3.177   5.551   0.969
 3394SOL    HW111081   3.100   5.565   1.031
 3394SOL    HW211082   3.179   5.455   0.940
 3395SOL     OW11083   4.037   0.345   3.256
 3395SOL    HW111084   4.069   0.439   3.263
 3395SOL    HW211085   4.062   0.294   3.338
 3396SOL     OW11086   4.931   2.493   3.795
 3396SOL    HW111087   4.879   2.436   3.731
 3396SOL    HW211088   4.876   2.573   3.820
 3397SOL     OW11089   2.405   6.053   6.169
 3397SOL    HW111090   2.427   5.975   6.229
 3397SOL    HW211091   2.308   6.073   6.175
 3398SOL     OW11092   0.163   2.095   5.604
 3398SOL    HW111093   0.164   2.195   5.600
 3398SOL    HW211094   0.257   2.061   5.613
 3399SOL     OW11095   0.396   4.629   3.594
 3399SOL    HW111096   0.362   4.635   3.688
 3399SOL    HW211097   0.332   4.676   3.533
 3400SOL     OW11098   5.641   2.635   5.454
 3400SOL    HW111099   5.624   2.689   5.536
 3400SOL    HW211100   5.639   2.695   5.374
 3401SOL     OW11101   6.710   3.977   6.199
 3401SOL    HW111102   6.661   3.895   6.228
 3401SOL    HW211103   6.665   4.015   6.118
 3402SOL     OW11104   6.871   5.082   1.101
 3402SOL    HW111105   6.956   5.030   1.114
 3402SOL    HW211106   6.855   5.141   1.180
 3403SOL     OW11107   4.607   6.419   6.515
 3403SOL    HW111108   4.667   6.499   6.509
 3403SOL    HW211109   4.512   6.448   6.524
 3404SOL     OW11110   4.937   3.184   5.687
 3404SOL    HW111111   4.901   3.147   5.772
 3404SOL    HW211112   5.025   3.228   5.704
 3405SOL     OW11113   4.824   6.400   6.112
 3405SOL    HW111114   4.912   6.443   6.128
 3405SOL    HW211115   4.804   6.399   6.014
 3406SOL     OW11116   2.108   3.910   2.085
 3406SOL    HW111117   2.059   3.965   2.152
 3406SOL    HW211118   2.172   3.968   2.035
 3407SOL     OW11119   2.055   3.676   0.871
 3407SOL    HW111120   1.966   3.639   0.897
 3407SOL    HW211121   2.087   3.739   0.942
 3408SOL     OW11122   4.772   2.342   3.644
 3408SOL    HW111123   4.699   2.409   3.631
 3408SOL    HW211124   4.736   2.250   3.629
 3409SOL     OW11125   4.119   0.657   0.450
 3409SOL    HW111126   4.082   0.737   0.404
 3409SOL    HW211127   4.203   0.628   0.402
 3410SOL     OW11128   5.546   6.720   2.237
 3410SOL    HW111129   5.628   6.731   2.295
 3410SOL    HW211130   5.481   6.793   2.258
 3411SOL     OW11131   6.791   1.592   1.126
 3411SOL    HW111132   6.867   1.654   1.106
 3411SOL    HW211133   6.738   1.628   1.203
 3412SOL     OW11134   5.212   3.074   1.336
 3412SOL    HW111135   5.296   3.127   1.328
 3412SOL    HW211136   5.168   3.094   1.423
 3413SOL     OW11137   0.237   2.321   6.547
 3413SOL    HW111138   0.183   2.257   6.601
 3413SOL    HW211139   0.222   2.414   6.580
 3414SOL     OW11140   3.839   3.033   0.658
 3414SOL    HW111141   3.751   3.080   0.651
 3414SOL    HW211142   3.830   2.938   0.628
 3415SOL     OW11143   2.448   2.592   4.378
 3415SOL    HW111144   2.391   2.626   4.453
 3415SOL    HW211145   2.528   2.544   4.416
 3416SOL     OW11146   6.363   6.820   0.001
 3416SOL    HW111147   6.379   6.834   0.099
 3416SOL    HW211148   6.372   6.723   6.998
 3417SOL     OW11149   6.792   6.995   3.124
 3417SOL    HW111150   6.780   6.898   3.101
 3417SOL    HW211151   6.864   0.015   3.068
 3418SOL     OW11152   4.659   4.932   2.359
 3418SOL    HW111153   4.720   4.921   2.438
 3418SOL    HW211154   4.635   5.028   2.349
 3419SOL     OW11155   3.024   5.443   6.242
 3419SOL    HW111156   2.959   5.405   6.176
 3419SOL    HW211157   3.103   5.480   6.193
 3420SOL     OW11158   4.730   2.676   3.802
 3420SOL    HW111159   4.638   2.682   3.840
 3420SOL    HW211160   4.774   2.765   3.807
 3421SOL     OW11161   5.765   1.992   3.038
 3421SOL    HW111162   5.731   2.013   2.947
 3421SOL    HW211163   5.817   1.907   3.036
 3422SOL     OW11164   2.072   0.096   0.975
 3422SOL    HW111165   2.078   0.031   1.051
 3422SOL    HW211166   2.032   0.182   1.008
 3423SOL     OW11167   0.960   4.386   5.668
 3423SOL    HW111168   0.889   4.424   5.728
 3423SOL    HW211169   0.926   4.303   5.625
 3424SOL     OW11170   4.644   6.715   1.276
 3424SOL    HW111171   4.581   6.792   1.266
 3424SOL    HW211172   4.716   6.739   1.340
 3425SOL     OW11173   5.448   4.435   1.489
 3425SOL    HW111174   5.421   4.499   1.417
 3425SOL    HW211175   5.385   4.444   1.566
 3426SOL     OW11176   5.587   3.813   0.426
 3426SOL    HW111177   5.606   3.804   0.523
 3426SOL    HW211178   5.529   3.893   0.410
 3427SOL     OW11179   1.064   2.094   0.973
 3427SOL    HW111180   1.152   2.049   0.982
 3427SOL    HW211181   1.003   2.037   0.918
 3428SOL     OW11182   5.142   6.154   5.407
 3428SOL    HW111183   5.145   6.187   5.501
 3428SOL    HW211184   5.047   6.134   5.382
 3429SOL     OW11185   0.336   0.331   1.103
 3429SOL    HW111186   0.323   0.270   1.181
 3429SOL    HW211187   0.369   0.419   1.136
 3430SOL     OW11188   2.224   4.748   5.408
 3430SOL    HW111189   2.156   4.678   5.431
 3430SOL    HW211190   2.222   4.765   5.310
 3431SOL     OW11191   2.498   6.049   2.747
 3431SOL    HW111192   2.442   5.994   2.685
 3431SOL    HW211193   2.503   6.004   2.836
 3432SOL     OW11194   2.435   4.036   0.474
 3432SOL    HW111195   2.339   4.009   0.480
 3432SOL    HW211196   2.492   3.954   0.465
 3433SOL     OW11197   2.251   1.421   6.455
 3433SOL    HW111198   2.171   1.361   6.456
 3433SOL    HW211199   2.334   1.367   6.443
 3434SOL     OW11200   3.216   1.999   1.409
 3434SOL    HW111201   3.197   2.040   1.498
 3434SOL    HW211202   3.277   1.920   1.421
 3435SOL     OW11203   2.045   0.374   0.510
 3435SOL    HW111204   1.969   0.343   0.567
 3435SOL    HW211205   2.012   0.440   0.442
 3436SOL     OW11206   3.831   5.667   0.646
 3436SOL    HW111207   3.924   5.654   0.681
 3436SOL    HW211208   3.771   5.697   0.720
 3437SOL     OW11209   1.289   6.638   6.028
 3437SOL    HW111210   1.298   6.549   6.073
 3437SOL    HW211211   1.293   6.711   6.096
 3438SOL     OW11212   0.928   4.218   0.922
 3438SOL    HW111213   1.006   4.253   0.975
 3438SOL    HW211214   0.962   4.158   0.850
 3439SOL     OW11215   2.098   5.787   2.810
 3439SOL    HW111216   2.156   5.797   2.891
 3439SOL    HW211217   2.155   5.779   2.729
 3440SOL     OW11218   3.850   3.420   4.420
 3440SOL    HW111219   3.877   3.349   4.355
 3440SOL    HW211220   3.774   3.473   4.382
 3441SOL     OW11221   4.924   5.547   5.833
 3441SOL    HW111222   5.007   5.492   5.824
 3441SOL    HW211223   4.947   5.643   5.820
 3442SOL     OW11224   3.290   3.324   1.975
 3442SOL    HW111225   3.278   3.226   1.960
 3442SOL    HW211226   3.383   3.342   2.009
 3443SOL     OW11227   2.565   5.719   2.648
 3443SOL    HW111228   2.575   5.671   2.561
 3443SOL    HW211229   2.644   5.778   2.663
 3444SOL     OW11230   5.492   4.670   1.981
 3444SOL    HW111231   5.528   4.759   1.955
 3444SOL    HW211232   5.407   4.653   1.932
 3445SOL     OW11233   6.813   5.057   3.736
 3445SOL    HW111234   6.794   5.004   3.654
 3445SOL    HW211235   6.781   5.151   3.724
 3446SOL     OW11236   5.144   0.565   1.511
 3446SOL    HW111237   5.198   0.606   1.584
 3446SOL    HW211238   5.058   0.615   1.502
 3447SOL     OW11239   4.970   0.584   0.051
 3447SOL    HW111240   5.066   0.600   0.075
 3447SOL    HW211241   4.911   0.613   0.126
 3448SOL     OW11242   1.385   6.279   4.929
 3448SOL    HW111243   1.390   6.344   5.005
 3448SOL    HW211244   1.477   6.261   4.894
 3449SOL     OW11245   6.405   4.647   5.062
 3449SOL    HW111246   6.477   4.716   5.072
 3449SOL    HW211247   6.410   4.583   5.138
 3450SOL     OW11248   1.468   0.035   0.004
 3450SOL    HW111249   1.491   6.960   6.996
 3450SOL    HW211250   1.534   0.098   6.983
 3451SOL     OW11251   1.756   6.168   0.400
 3451SOL    HW111252   1.747   6.222   0.484
 3451SOL    HW211253   1.837   6.110   0.406
 3452SOL     OW11254   5.049   0.740   5.434
 3452SOL    HW111255   5.100   0.824   5.422
 3452SOL    HW211256   5.008   0.737   5.525
 3453SOL     OW11257   5.050   6.630   5.755
 3453SOL    HW111258   5.038   6.724   5.723
 3453SOL    HW211259   5.117   6.583   5.698
 3454SOL     OW11260   1.221   2.363   2.770
 3454SOL    HW111261   1.305   2.350   2.718
 3454SOL    HW211262   1.152   2.297   2.739
 3455SOL     OW11263   1.798   2.980   5.247
 3455SOL    HW111264   1.810   2.945   5.155
 3455SOL    HW211265   1.742   3.064   5.244
 3456SOL     OW11266   4.745   4.564   2.499
 3456SOL    HW111267   4.659   4.519   2.523
 3456SOL    HW211268   4.761   4.556   2.400
 3457SOL     OW11269   4.250   5.600   5.429
 3457SOL    HW111270   4.159   5.633   5.404
 3457SOL    HW211271   4.313   5.616   5.352
 3458SOL     OW11272   4.149   1.505   2.543
 3458SOL    HW111273   4.071   1.526   2.602
 3458SOL    HW211274   4.228   1.559   2.572
 3459SOL     OW11275   4.034   0.620   3.146
 3459SOL    HW111276   3.945   0.603   3.103
 3459SOL    HW211277   4.023   0.688   3.219
 3460SOL     OW11278   3.929   1.861   5.803
 3460SOL    HW111279   3.844   1.913   5.790
 3460SOL    HW211280   4.007   1.919   5.781
 3461SOL     OW11281   5.459   4.773   0.008
 3461SOL    HW111282   5.488   4.717   0.085
 3461SOL    HW211283   5.392   4.841   0.038
 3462SOL     OW11284   2.448   3.306   6.638
 3462SOL    HW111285   2.356   3.325   6.604
 3462SOL    HW211286   2.505   3.387   6.628
 3463SOL     OW11287   6.530   4.149   1.519
 3463SOL    HW111288   6.469   4.151   1.440
 3463SOL    HW211289   6.625   4.148   1.488
 3464SOL     OW11290   6.878   4.962   5.913
 3464SOL    HW111291   6.951   4.965   5.845
 3464SOL    HW211292   6.911   4.915   5.995
 3465SOL     OW11293   1.798   0.780   1.791
 3465SOL    HW111294   1.809   0.856   1.727
 3465SOL    HW211295   1.833   0.696   1.750
 3466SOL     OW11296   6.652   4.056   5.397
 3466SOL    HW111297   6.630   4.076   5.493
 3466SOL    HW211298   6.707   3.973   5.392
 3467SOL     OW11299   1.724   2.609   6.523
 3467SOL    HW111300   1.624   2.621   6.526
 3467SOL    HW211301   1.758   2.636   6.433
 3468SOL     OW11302   3.530   6.666   3.801
 3468SOL    HW111303   3.582   6.749   3.820
 3468SOL    HW211304   3.433   6.683   3.819
 3469SOL     OW11305   6.234   2.345   3.120
 3469SOL    HW111306   6.177   2.325   3.041
 3469SOL    HW211307   6.236   2.444   3.135
 3470SOL     OW11308   0.475   5.652   1.085
 3470SOL    HW111309   0.397   5.671   1.025
 3470SOL    HW211310   0.490   5.730   1.145
 3471SOL     OW11311   4.071   5.854   4.877
 3471SOL    HW111312   4.167   5.838   4.853
 3471SOL    HW211313   4.057   5.951   4.896
 3472SOL     OW11314   2.930   0.552   4.404
 3472SOL    HW111315   2.855   0.619   4.407
 3472SOL    HW211316   2.934   0.511   4.313
 3473SOL     OW11317   6.201   1.285   6.080
 3473SOL    HW111318   6.267   1.243   6.019
 3473SOL    HW211319   6.199   1.384   6.063
 3474SOL     OW11320   3.945   5.131   1.927
 3474SOL    HW111321   3.953   5.065   2.001
 3474SOL    HW211322   4.009   5.107   1.854
 3475SOL     OW11323   1.150   5.702   4.300
 3475SOL    HW111324   1.084   5.774   4.279
 3475SOL    HW211325   1.129   5.663   4.390
 3476SOL     OW11326   4.346   0.818   4.309
 3476SOL    HW111327   4.281   0.888   4.337
 3476SOL    HW211328   4.343   0.742   4.374
 3477SOL     OW11329   3.929   6.399   1.523
 3477SOL    HW111330   3.980   6.320   1.491
 3477SOL    HW211331   3.831   6.380   1.520
 3478SOL     OW11332   3.494   5.247   5.924
 3478SOL    HW111333   3.443   5.177   5.972
 3478SOL    HW211334   3.591   5.222   5.921
 3479SOL     OW11335   0.927   0.225   1.878
 3479SOL    HW111336   0.834   0.220   1.841
 3479SOL    HW211337   0.971   0.136   1.870
 3480SOL     OW11338   6.730   1.577   3.681
 3480SOL    HW111339   6.750   1.674   3.670
 3480SOL    HW211340   6.679   1.563   3.766
 3481SOL     OW11341   2.605   6.938   6.610
 3481SOL    HW111342   2.554   6.924   6.695
 3481SOL    HW211343   2.546   6.982   6.542
 3482SOL     OW11344   6.581   2.173   1.179
 3482SOL    HW111345   6.640   2.096   1.203
 3482SOL    HW211346   6.576   2.181   1.079
 3483SOL     OW11347   2.061   0.478   1.585
 3483SOL    HW111348   2.071   0.493   1.487
 3483SOL    HW211349   2.048   0.566   1.632
 3484SOL     OW11350   3.346   2.884   3.785
 3484SOL    HW111351   3.313   2.805   3.837
 3484SOL    HW211352   3.329   2.968   3.837
 3485SOL     OW11353   1.421   2.734   5.274
 3485SOL    HW111354   1.442   2.731   5.371
 3485SOL    HW211355   1.385   2.646   5.245
 3486SOL     OW11356   4.454   2.119   1.606
 3486SOL    HW111357   4.358   2.130   1.634
 3486SOL    HW211358   4.458   2.087   1.512
 3487SOL     OW11359   5.684   1.983   6.145
 3487SOL    HW111360   5.643   2.073   6.157
 3487SOL    HW211361   5.686   1.935   6.233
 3488SOL     OW11362   5.884   3.764   3.871
 3488SOL    HW111363   5.918   3.728   3.958
 3488SOL    HW211364   5.883   3.691   3.803
 3489SOL     OW11365   3.723   0.183   1.491
 3489SOL    HW111366   3.624   0.174   1.476
 3489SOL    HW211367   3.763   0.240   1.420
 3490SOL     OW11368   4.916   3.709   0.387
 3490SOL    HW111369   4.854   3.740   0.315
 3490SOL    HW211370   5.010   3.720   0.356
 3491SOL     OW11371   0.339   2.997   5.594
 3491SOL    HW111372   0.434   3.020   5.612
 3491SOL    HW211373   0.293   2.975   5.681
 3492SOL     OW11374   0.011   4.849   6.268
 3492SOL    HW111375   6.996   4.755   6.259
 3492SOL    HW211376   0.080   4.866   6.198
 3493SOL     OW11377   6.311   4.930   1.296
 3493SOL    HW111378   6.297   5.025   1.324
 3493SOL    HW211379   6.379   4.927   1.222
 3494SOL     OW11380   3.294   0.080   1.563
 3494SOL    HW111381   3.272   0.109   1.657
 3494SOL    HW211382   3.231   0.008   1.535
 3495SOL     OW11383   4.336   4.977   1.664
 3495SOL    HW111384   4.364   4.881   1.673
 3495SOL    HW211385   4.385   5.019   1.588
 3496SOL     OW11386   1.937   2.833   0.452
 3496SOL    HW111387   1.921   2.776   0.372
 3496SOL    HW211388   1.869   2.906   0.456
 3497SOL     OW11389   4.181   0.818   3.484
 3497SOL    HW111390   4.206   0.897   3.541
 3497SOL    HW211391   4.137   0.850   3.400
 3498SOL     OW11392   2.292   1.417   1.256
 3498SOL    HW111393   2.349   1.368   1.190
 3498SOL    HW211394   2.241   1.488   1.209
 3499SOL     OW11395   0.115   2.985   4.628
 3499SOL    HW111396   0.120   2.886   4.615
 3499SOL    HW211397   0.041   3.022   4.571
 3500SOL     OW11398   6.391   4.138   6.437
 3500SOL    HW111399   6.386   4.087   6.523
 3500SOL    HW211400   6.330   4.096   6.370
 3501SOL     OW11401   1.531   4.606   4.891
 3501SOL    HW111402   1.457   4.578   4.829
 3501SOL    HW211403   1.599   4.533   4.897
 3502SOL     OW11404   0.505   2.070   1.050
 3502SOL    HW111405   0.408   2.091   1.056
 3502SOL    HW211406   0.544   2.116   0.970
 3503SOL     OW11407   4.783   5.904   5.336
 3503SOL    HW111408   4.702   5.929   5.282
 3503SOL    HW211409   4.754   5.856   5.419
 3504SOL     OW11410   2.828   3.471   1.349
 3504SOL    HW111411   2.838   3.378   1.313
 3504SOL    HW211412   2.734   3.484   1.381
 3505SOL     OW11413   5.063   5.797   5.585
 3505SOL    HW111414   5.112   5.852   5.518
 3505SOL    HW211415   5.036   5.710   5.544
 3506SOL     OW11416   4.228   5.248   3.685
 3506SOL    HW111417   4.234   5.332   3.739
 3506SOL    HW211418   4.132   5.230   3.662
 3507SOL     OW11419   1.298   0.251   6.773
 3507SOL    HW111420   1.372   0.293   6.721
 3507SOL    HW211421   1.286   0.298   6.860
 3508SOL     OW11422   5.583   3.568   0.303
 3508SOL    HW111423   5.539   3.569   0.213
 3508SOL    HW211424   5.579   3.660   0.343
 3509SOL     OW11425   6.628   6.053   6.724
 3509SOL    HW111426   6.541   6.073   6.768
 3509SOL    HW211427   6.631   6.100   6.635
 3510SOL     OW11428   2.109   2.356   2.036
 3510SOL    HW111429   2.183   2.361   1.970
 3510SOL    HW211430   2.148   2.350   2.129
 3511SOL     OW11431   0.186   2.649   6.937
 3511SOL    HW111432   0.155   2.656   0.014
 3511SOL    HW211433   0.229   2.734   6.910
 3512SOL     OW11434   2.430   3.214   0.322
 3512SOL    HW111435   2.440   3.185   0.226
 3512SOL    HW211436   2.520   3.217   0.365
 3513SOL     OW11437   6.903   3.914   1.585
 3513SOL    HW111438   6.968   3.839   1.574
 3513SOL    HW211439   6.811   3.881   1.563
 3514SOL     OW11440   0.708   6.601   1.008
 3514SOL    HW111441   0.753   6.629   1.093
 3514SOL    HW211442   0.666   6.681   0.965
 3515SOL     OW11443   3.089   6.103   2.988
 3515SOL    HW111444   3.060   6.035   3.056
 3515SOL    HW211445   3.074   6.066   2.896
 3516SOL     OW11446   2.902   1.510   0.254
 3516SOL    HW111447   2.977   1.568   0.283
 3516SOL    HW211448   2.908   1.422   0.301
 3517SOL     OW11449   0.773   1.421   6.908
 3517SOL    HW111450   0.700   1.383   6.852
 3517SOL    HW211451   0.857   1.428   6.854
 3518SOL     OW11452   4.899   3.288   6.412
 3518SOL    HW111453   4.945   3.369   6.376
 3518SOL    HW211454   4.819   3.316   6.464
 3519SOL     OW11455   2.066   6.815   6.366
 3519SOL    HW111456   2.124   6.837   6.288
 3519SOL    HW211457   1.983   6.870   6.363
 3520SOL     OW11458   4.095   5.638   0.751
 3520SOL    HW111459   4.124   5.624   0.846
 3520SOL    HW211460   4.159   5.592   0.690
 3521SOL     OW11461   5.499   2.074   1.878
 3521SOL    HW111462   5.572   2.099   1.814
 3521SOL    HW211463   5.413   2.062   1.828
 3522SOL     OW11464   3.349   5.594   2.293
 3522SOL    HW111465   3.382   5.682   2.258
 3522SOL    HW211466   3.313   5.539   2.218
 3523SOL     OW11467   2.938   4.871   5.033
 3523SOL    HW111468   2.917   4.777   5.009
 3523SOL    HW211469   2.877   4.901   5.107
 3524SOL     OW11470   2.696   0.147   0.570
 3524SOL    HW111471   2.720   0.233   0.613
 3524SOL    HW211472   2.675   0.079   0.640
 3525SOL     OW11473   0.392   2.883   2.111
 3525SOL    HW111474   0.460   2.951   2.082
 3525SOL    HW211475   0.440   2.802   2.145
 3526SOL     OW11476   1.260   0.901   2.730
 3526SOL    HW111477   1.163   0.897   2.754
 3526SOL    HW211478   1.286   0.816   2.686
 3527SOL     OW11479   5.579   3.124   6.534
 3527SOL    HW111480   5.566   3.048   6.598
 3527SOL    HW211481   5.560   3.093   6.441
 3528SOL     OW11482   0.203   6.317   3.308
 3528SOL    HW111483   0.167   6.275   3.391
 3528SOL    HW211484   0.219   6.245   3.240
 3529SOL     OW11485   4.421   6.976   5.295
 3529SOL    HW111486   4.342   0.011   5.264
 3529SOL    HW211487   4.443   7.001   5.389
 3530SOL     OW11488   2.907   5.598   2.550
 3530SOL    HW111489   2.985   5.651   2.516
 3530SOL    HW211490   2.903   5.607   2.650
 3531SOL     OW11491   6.095   4.670   0.768
 3531SOL    HW111492   6.128   4.763   0.780
 3531SOL    HW211493   6.147   4.607   0.826
 3532SOL     OW11494   2.491   0.367   6.508
 3532SOL    HW111495   2.505   0.319   6.421
 3532SOL    HW211496   2.576   0.364   6.561
 3533SOL     OW11497   0.774   1.594   3.231
 3533SOL    HW111498   0.836   1.522   3.262
 3533SOL    HW211499   0.820   1.683   3.237
 3534SOL     OW11500   5.708   1.311   4.759
 3534SOL    HW111501   5.695   1.399   4.715
 3534SOL    HW211502   5.651   1.242   4.714
 3535SOL     OW11503   5.748   5.488   6.164
 3535SOL    HW111504   5.686   5.413   6.140
 3535SOL    HW211505   5.834   5.477   6.114
 3536SOL     OW11506   1.808   3.281   3.443
 3536SOL    HW111507   1.724   3.321   3.406
 3536SOL    HW211508   1.883   3.346   3.432
 3537SOL     OW11509   2.292   5.710   0.736
 3537SOL    HW111510   2.266   5.724   0.641
 3537SOL    HW211511   2.363   5.775   0.762
 3538SOL     OW11512   2.791   0.386   3.235
 3538SOL    HW111513   2.707   0.428   3.202
 3538SOL    HW211514   2.793   0.387   3.335
 3539SOL     OW11515   5.034   4.863   6.818
 3539SOL    HW111516   5.068   4.945   6.771
 3539SOL    HW211517   5.101   4.790   6.811
 3540SOL     OW11518   3.053   3.302   6.397
 3540SOL    HW111519   2.977   3.362   6.422
 3540SOL    HW211520   3.022   3.236   6.328
 3541SOL     OW11521   2.977   2.450   0.828
 3541SOL    HW111522   2.974   2.353   0.803
 3541SOL    HW211523   3.021   2.460   0.917
 3542SOL     OW11524   5.557   2.247   6.248
 3542SOL    HW111525   5.487   2.314   6.226
 3542SOL    HW211526   5.644   2.295   6.266
 3543SOL     OW11527   2.174   2.718   3.307
 3543SOL    HW111528   2.256   2.729   3.251
 3543SOL    HW211529   2.155   2.621   3.319
 3544SOL     OW11530   2.641   4.705   5.938
 3544SOL    HW111531   2.691   4.791   5.948
 3544SOL    HW211532   2.592   4.705   5.851
 3545SOL     OW11533   3.445   6.879   1.392
 3545SOL    HW111534   3.484   6.898   1.302
 3545SOL    HW211535   3.378   6.950   1.414
 3546SOL     OW11536   6.586   3.539   3.213
 3546SOL    HW111537   6.542   3.628   3.223
 3546SOL    HW211538   6.545   3.489   3.136
 3547SOL     OW11539   0.172   3.664   5.574
 3547SOL    HW111540   0.246   3.731   5.567
 3547SOL    HW211541   0.210   3.571   5.569
 3548SOL     OW11542   5.386   1.225   5.812
 3548SOL    HW111543   5.405   1.320   5.785
 3548SOL    HW211544   5.471   1.183   5.845
 3549SOL     OW11545   3.189   5.232   0.068
 3549SOL    HW111546   3.202   5.166   0.142
 3549SOL    HW211547   3.093   5.233   0.040
 3550SOL     OW11548   5.380   1.302   5.397
 3550SOL    HW111549   5.282   1.318   5.386
 3550SOL    HW211550   5.403   1.302   5.494
 3551SOL     OW11551   3.916   2.152   4.900
 3551SOL    HW111552   3.962   2.064   4.913
 3551SOL    HW211553   3.982   2.221   4.873
 3552SOL     OW11554   0.069   5.906   2.282
 3552SOL    HW111555   0.114   5.953   2.206
 3552SOL    HW211556   0.136   5.884   2.352
 3553SOL     OW11557   3.757   5.203   5.870
 3553SOL    HW111558   3.838   5.224   5.923
 3553SOL    HW211559   3.764   5.110   5.833
 3554SOL     OW11560   4.304   3.446   1.804
 3554SOL    HW111561   4.252   3.365   1.833
 3554SOL    HW211562   4.264   3.528   1.844
 3555SOL     OW11563   1.843   2.132   3.848
 3555SOL    HW111564   1.877   2.098   3.760
 3555SOL    HW211565   1.836   2.056   3.913
 3556SOL     OW11566   4.287   0.963   5.495
 3556SOL    HW111567   4.212   0.898   5.507
 3556SOL    HW211568   4.253   1.047   5.454
 3557SOL     OW11569   6.873   1.699   2.073
 3557SOL    HW111570   6.813   1.639   2.126
 3557SOL    HW211571   6.901   1.777   2.129
 3558SOL     OW11572   3.578   0.116   1.179
 3558SOL    HW111573   3.635   0.035   1.170
 3558SOL    HW211574   3.550   0.148   1.088
 3559SOL     OW11575   4.109   6.329   4.399
 3559SOL    HW111576   4.102   6.266   4.321
 3559SOL    HW211577   4.115   6.423   4.365
 3560SOL     OW11578   1.738   5.487   5.224
 3560SOL    HW111579   1.811   5.552   5.203
 3560SOL    HW211580   1.768   5.395   5.200
 3561SOL     OW11581   5.033   4.419   5.477
 3561SOL    HW111582   4.962   4.362   5.518
 3561SOL    HW211583   5.068   4.374   5.395
 3562SOL     OW11584   2.470   1.522   5.338
 3562SOL    HW111585   2.554   1.525   5.392
 3562SOL    HW211586   2.391   1.533   5.398
 3563SOL     OW11587   5.521   2.306   5.773
 3563SOL    HW111588   5.555   2.338   5.684
 3563SOL    HW211589   5.595   2.308   5.839
 3564SOL     OW11590   6.966   4.600   2.492
 3564SOL    HW111591   6.980   4.681   2.548
 3564SOL    HW211592   6.905   4.536   2.541
 3565SOL     OW11593   3.340   5.511   3.702
 3565SOL    HW111594   3.410   5.565   3.655
 3565SOL    HW211595   3.299   5.566   3.775
 3566SOL     OW11596   6.730   1.070   5.604
 3566SOL    HW111597   6.701   0.974   5.609
 3566SOL    HW211598   6.811   1.083   5.661
 3567SOL     OW11599   0.409   4.531   6.802
 3567SOL    HW111600   0.381   4.510   6.896
 3567SOL    HW211601   0.471   4.609   6.803
 3568SOL     OW11602   6.322   3.681   6.164
 3568SOL    HW111603   6.370   3.593   6.172
 3568SOL    HW211604   6.289   3.709   6.254
 3569SOL     OW11605   2.804   2.415   5.464
 3569SOL    HW111606   2.849   2.381   5.547
 3569SOL    HW211607   2.856   2.386   5.384
 3570SOL     OW11608   6.358   1.221   4.182
 3570SOL    HW111609   6.275   1.246   4.132
 3570SOL    HW211610   6.400   1.303   4.220
 3571SOL     OW11611   5.976   5.674   6.567
 3571SOL    HW111612   6.065   5.627   6.564
 3571SOL    HW211613   5.913   5.630   6.503
 3572SOL     OW11614   5.536   3.596   4.099
 3572SOL    HW111615   5.625   3.613   4.140
 3572SOL    HW211616   5.469   3.574   4.170
 3573SOL     OW11617   1.504   3.904   3.248
 3573SOL    HW111618   1.576   3.889   3.315
 3573SOL    HW211619   1.453   3.987   3.272
 3574SOL     OW11620   0.140   4.550   0.569
 3574SOL    HW111621   0.206   4.547   0.643
 3574SOL    HW211622   0.185   4.525   0.483
 3575SOL     OW11623   6.452   5.291   3.045
 3575SOL    HW111624   6.397   5.328   3.120
 3575SOL    HW211625   6.544   5.331   3.049
 3576SOL     OW11626   0.390   1.514   6.350
 3576SOL    HW111627   0.409   1.594   6.293
 3576SOL    HW211628   0.297   1.483   6.333
 3577SOL     OW11629   0.773   2.460   6.619
 3577SOL    HW111630   0.762   2.417   6.529
 3577SOL    HW211631   0.775   2.389   6.689
 3578SOL     OW11632   3.020   4.311   6.729
 3578SOL    HW111633   2.994   4.262   6.812
 3578SOL    HW211634   3.113   4.345   6.738
 3579SOL     OW11635   0.059   3.219   5.048
 3579SOL    HW111636   0.120   3.248   4.974
 3579SOL    HW211637   0.111   3.162   5.112
 3580SOL     OW11638   5.873   1.901   1.725
 3580SOL    HW111639   5.961   1.894   1.679
 3580SOL    HW211640   5.879   1.860   1.816
 3581SOL     OW11641   6.752   0.660   2.467
 3581SOL    HW111642   6.837   0.609   2.466
 3581SOL    HW211643   6.682   0.608   2.516
 3582SOL     OW11644   0.643   0.721   5.839
 3582SOL    HW111645   0.669   0.811   5.872
 3582SOL    HW211646   0.544   0.709   5.851
 3583SOL     OW11647   1.055   4.644   0.119
 3583SOL    HW111648   1.012   4.698   0.191
 3583SOL    HW211649   1.154   4.653   0.126
 3584SOL     OW11650   5.566   6.150   6.206
 3584SOL    HW111651   5.620   6.120   6.284
 3584SOL    HW211652   5.624   6.151   6.124
 3585SOL     OW11653   3.494   5.184   4.493
 3585SOL    HW111654   3.406   5.173   4.539
 3585SOL    HW211655   3.483   5.243   4.413
 3586SOL     OW11656   6.427   2.855   5.430
 3586SOL    HW111657   6.481   2.772   5.438
 3586SOL    HW211658   6.343   2.835   5.379
 3587SOL     OW11659   3.324   6.742   0.411
 3587SOL    HW111660   3.295   6.691   0.492
 3587SOL    HW211661   3.251   6.742   0.344
 3588SOL     OW11662   2.126   2.170   5.877
 3588SOL    HW111663   2.086   2.107   5.811
 3588SOL    HW211664   2.211   2.131   5.913
 3589SOL     OW11665   3.018   0.865   4.524
 3589SOL    HW111666   2.927   0.824   4.529
 3589SOL    HW211667   3.066   0.829   4.444
 3590SOL     OW11668   1.218   5.253   6.241
 3590SOL    HW111669   1.267   5.179   6.286
 3590SOL    HW211670   1.141   5.216   6.190
 3591SOL     OW11671   5.477   3.150   5.897
 3591SOL    HW111672   5.475   3.073   5.833
 3591SOL    HW211673   5.556   3.208   5.877
 3592SOL     OW11674   5.135   3.206   2.927
 3592SOL    HW111675   5.191   3.125   2.909
 3592SOL    HW211676   5.143   3.231   3.024
 3593SOL     OW11677   1.988   6.780   4.153
 3593SOL    HW111678   1.984   6.848   4.080
 3593SOL    HW211679   1.896   6.747   4.173
 3594SOL     OW11680   2.174   1.189   3.478
 3594SOL    HW111681   2.239   1.116   3.459
 3594SOL    HW211682   2.160   1.244   3.396
 3595SOL     OW11683   2.473   6.465   5.637
 3595SOL    HW111684   2.477   6.425   5.729
 3595SOL    HW211685   2.411   6.543   5.637
 3596SOL     OW11686   6.274   0.661   2.595
 3596SOL    HW111687   6.258   0.752   2.557
 3596SOL    HW211688   6.346   0.615   2.544
 3597SOL     OW11689   3.967   6.445   4.610
 3597SOL    HW111690   3.894   6.381   4.633
 3597SOL    HW211691   4.020   6.410   4.533
 3598SOL     OW11692   0.896   0.362   5.445
 3598SOL    HW111693   0.841   0.354   5.362
 3598SOL    HW211694   0.917   0.458   5.463
 3599SOL     OW11695   0.146   2.376   5.618
 3599SOL    HW111696   0.099   2.371   5.530
 3599SOL    HW211697   0.167   2.471   5.639
 3600SOL     OW11698   6.278   3.506   1.458
 3600SOL    HW111699   6.300   3.470   1.548
 3600SOL    HW211700   6.192   3.557   1.462
 3601SOL     OW11701   0.161   3.957   0.270
 3601SOL    HW111702   0.236   3.940   0.334
 3601SOL    HW211703   0.161   3.886   0.199
 3602SOL     OW11704   1.714   0.952   0.238
 3602SOL    HW111705   1.736   0.956   0.140
 3602SOL    HW211706   1.696   0.857   0.264
 3603SOL     OW11707   3.903   4.891   4.446
 3603SOL    HW111708   3.918   4.888   4.545
 3603SOL    HW211709   3.943   4.809   4.404
 3604SOL     OW11710   6.878   2.692   2.796
 3604SOL    HW111711   6.907   2.598   2.776
 3604SOL    HW211712   6.888   2.748   2.714
 3605SOL     OW11713   5.933   4.418   6.222
 3605SOL    HW111714   6.002   4.407   6.293
 3605SOL    HW211715   5.842   4.401   6.261
 3606SOL     OW11716   6.698   4.523   5.923
 3606SOL    HW111717   6.739   4.534   5.832
 3606SOL    HW211718   6.603   4.554   5.921
 3607SOL     OW11719   5.188   0.701   0.412
 3607SOL    HW111720   5.218   0.753   0.492
 3607SOL    HW211721   5.136   0.621   0.442
 3608SOL     OW11722   0.279   1.362   1.533
 3608SOL    HW111723   0.321   1.363   1.624
 3608SOL    HW211724   0.181   1.375   1.541
 3609SOL     OW11725   6.432   0.652   4.544
 3609SOL    HW111726   6.503   0.623   4.608
 3609SOL    HW211727   6.345   0.608   4.570
 3610SOL     OW11728   0.897   6.756   4.796
 3610SOL    HW111729   0.925   6.823   4.865
 3610SOL    HW211730   0.977   6.724   4.746
 3611SOL     OW11731   3.237   5.107   5.602
 3611SOL    HW111732   3.269   5.131   5.511
 3611SOL    HW211733   3.184   5.023   5.598
 3612SOL     OW11734   1.169   6.423   6.517
 3612SOL    HW111735   1.176   6.385   6.609
 3612SOL    HW211736   1.073   6.426   6.489
 3613SOL     OW11737   4.883   5.087   0.399
 3613SOL    HW111738   4.851   5.182   0.393
 3613SOL    HW211739   4.979   5.085   0.427
 3614SOL     OW11740   3.769   3.238   3.243
 3614SOL    HW111741   3.713   3.298   3.300
 3614SOL    HW211742   3.711   3.185   3.182
 3615SOL     OW11743   5.738   5.260   5.541
 3615SOL    HW111744   5.658   5.250   5.600
 3615SOL    HW211745   5.715   5.316   5.462
 3616SOL     OW11746   6.782   2.190   6.568
 3616SOL    HW111747   6.779   2.166   6.665
 3616SOL    HW211748   6.754   2.286   6.557
 3617SOL     OW11749   5.965   2.063   6.640
 3617SOL    HW111750   5.979   2.079   6.738
 3617SOL    HW211751   5.874   2.025   6.625
 3618SOL     OW11752   1.368   2.048   5.962
 3618SOL    HW111753   1.353   2.083   5.869
 3618SOL    HW211754   1.400   2.123   6.021
 3619SOL     OW11755   5.849   2.276   4.089
 3619SOL    HW111756   5.831   2.372   4.068
 3619SOL    HW211757   5.792   2.248   4.166
 3620SOL     OW11758   5.501   6.968   5.797
 3620SOL    HW111759   5.461   0.037   5.769
 3620SOL    HW211760   5.538   6.977   5.890
 3621SOL     OW11761   3.277   2.883   5.926
 3621SOL    HW111762   3.261   2.982   5.931
 3621SOL    HW211763   3.290   2.857   5.830
 3622SOL     OW11764   0.700   1.145   3.003
 3622SOL    HW111765   0.605   1.169   3.022
 3622SOL    HW211766   0.728   1.189   2.917
 3623SOL     OW11767   6.237   5.211   4.013
 3623SOL    HW111768   6.151   5.238   3.971
 3623SOL    HW211769   6.270   5.284   4.073
 3624SOL     OW11770   2.092   6.341   3.198
 3624SOL    HW111771   2.154   6.386   3.134
 3624SOL    HW211772   2.136   6.333   3.288
 3625SOL     OW11773   6.676   3.292   6.050
 3625SOL    HW111774   6.598   3.231   6.041
 3625SOL    HW211775   6.761   3.239   6.051
 3626SOL     OW11776   2.049   3.595   4.951
 3626SOL    HW111777   1.961   3.601   4.904
 3626SOL    HW211778   2.078   3.686   4.978
 3627SOL     OW11779   4.144   3.627   3.625
 3627SOL    HW111780   4.053   3.589   3.608
 3627SOL    HW211781   4.146   3.723   3.595
 3628SOL     OW11782   2.321   5.808   2.096
 3628SOL    HW111783   2.313   5.907   2.084
 3628SOL    HW211784   2.230   5.767   2.102
 3629SOL     OW11785   6.572   2.194   4.730
 3629SOL    HW111786   6.544   2.269   4.790
 3629SOL    HW211787   6.667   2.208   4.702
 3630SOL     OW11788   5.877   2.618   4.246
 3630SOL    HW111789   5.975   2.602   4.253
 3630SOL    HW211790   5.841   2.571   4.165
 3631SOL     OW11791   2.262   6.931   4.776
 3631SOL    HW111792   2.291   6.890   4.690
 3631SOL    HW211793   2.314   6.892   4.852
 3632SOL     OW11794   5.227   1.032   0.956
 3632SOL    HW111795   5.296   0.966   0.984
 3632SOL    HW211796   5.154   1.035   1.024
 3633SOL     OW11797   3.020   2.170   5.679
 3633SOL    HW111798   2.934   2.218   5.696
 3633SOL    HW211799   3.079   2.226   5.622
 3634SOL     OW11800   0.866   6.424   4.572
 3634SOL    HW111801   0.921   6.341   4.560
 3634SOL    HW211802   0.919   6.504   4.545
 3635SOL     OW11803   3.348   1.114   5.548
 3635SOL    HW111804   3.444   1.089   5.545
 3635SOL    HW211805   3.299   1.066   5.475
 3636SOL     OW11806   6.698   6.240   5.930
 3636SOL    HW111807   6.790   6.221   5.898
 3636SOL    HW211808   6.702   6.302   6.009
 3637SOL     OW11809   6.069   1.900   0.921
 3637SOL    HW111810   5.979   1.927   0.955
 3637SOL    HW211811   6.119   1.980   0.889
 3638SOL     OW11812   6.465   4.837   3.758
 3638SOL    HW111813   6.556   4.844   3.799
 3638SOL    HW211814   6.410   4.771   3.810
 3639SOL     OW11815   3.512   3.558   1.220
 3639SOL    HW111816   3.511   3.597   1.312
 3639SOL    HW211817   3.448   3.607   1.162
 3640SOL     OW11818   3.307   6.024   6.852
 3640SOL    HW111819   3.368   5.992   6.779
 3640SOL    HW211820   3.291   6.122   6.840
 3641SOL     OW11821   3.647   1.698   4.782
 3641SOL    HW111822   3.591   1.639   4.725
 3641SOL    HW211823   3.733   1.718   4.734
 3642SOL     OW11824   4.885   1.100   5.670
 3642SOL    HW111825   4.981   1.091   5.644
 3642SOL    HW211826   4.860   1.025   5.731
 3643SOL     OW11827   3.523   5.810   4.741
 3643SOL    HW111828   3.517   5.875   4.817
 3643SOL    HW211829   3.433   5.801   4.698
 3644SOL     OW11830   6.730   1.082   1.344
 3644SOL    HW111831   6.674   1.057   1.424
 3644SOL    HW211832   6.722   1.180   1.327
 3645SOL     OW11833   5.591   1.623   4.087
 3645SOL    HW111834   5.593   1.528   4.057
 3645SOL    HW211835   5.566   1.683   4.011
 3646SOL     OW11836   6.610   4.797   5.542
 3646SOL    HW111837   6.515   4.772   5.523
 3646SOL    HW211838   6.653   4.725   5.596
 3647SOL     OW11839   1.767   3.461   0.236
 3647SOL    HW111840   1.724   3.504   0.156
 3647SOL    HW211841   1.755   3.362   0.231
 3648SOL     OW11842   3.776   5.492   3.013
 3648SOL    HW111843   3.767   5.435   3.094
 3648SOL    HW211844   3.804   5.584   3.039
 3649SOL     OW11845   4.043   3.481   0.844
 3649SOL    HW111846   4.112   3.483   0.771
 3649SOL    HW211847   4.009   3.388   0.855
 3650SOL     OW11848   6.802   5.553   0.800
 3650SOL    HW111849   6.900   5.549   0.819
 3650SOL    HW211850   6.756   5.477   0.844
 3651SOL     OW11851   0.823   5.942   2.294
 3651SOL    HW111852   0.915   5.982   2.284
 3651SOL    HW211853   0.832   5.845   2.316
 3652SOL     OW11854   4.905   6.679   3.269
 3652SOL    HW111855   4.869   6.588   3.248
 3652SOL    HW211856   4.927   6.727   3.184
 3653SOL     OW11857   6.335   0.996   2.882
 3653SOL    HW111858   6.396   1.001   2.802
 3653SOL    HW211859   6.314   0.900   2.902
 3654SOL     OW11860   2.056   6.369   0.232
 3654SOL    HW111861   1.977   6.350   0.173
 3654SOL    HW211862   2.056   6.305   0.309
 3655SOL     OW11863   1.353   7.003   3.625
 3655SOL    HW111864   1.367   0.077   3.591
 3655SOL    HW211865   1.302   6.949   3.558
 3656SOL     OW11866   1.566   2.689   1.511
 3656SOL    HW111867   1.591   2.597   1.542
 3656SOL    HW211868   1.519   2.682   1.423
 3657SOL     OW11869   4.148   5.764   6.229
 3657SOL    HW111870   4.174   5.668   6.217
 3657SOL    HW211871   4.226   5.823   6.208
 3658SOL     OW11872   1.453   5.727   4.526
 3658SOL    HW111873   1.488   5.721   4.619
 3658SOL    HW211874   1.356   5.752   4.528
 3659SOL     OW11875   2.632   4.264   6.010
 3659SOL    HW111876   2.614   4.278   6.107
 3659SOL    HW211877   2.548   4.276   5.958
 3660SOL     OW11878   4.858   6.323   2.096
 3660SOL    HW111879   4.952   6.325   2.132
 3660SOL    HW211880   4.853   6.381   2.015
 3661SOL     OW11881   4.842   2.063   6.802
 3661SOL    HW111882   4.814   2.106   6.717
 3661SOL    HW211883   4.893   2.128   6.858
 3662SOL     OW11884   3.315   0.405   4.536
 3662SOL    HW111885   3.321   0.475   4.466
 3662SOL    HW211886   3.221   0.400   4.570
 3663SOL     OW11887   1.511   1.277   0.781
 3663SOL    HW111888   1.451   1.309   0.707
 3663SOL    HW211889   1.469   1.198   0.825
 3664SOL     OW11890   5.214   1.439   1.386
 3664SOL    HW111891   5.217   1.519   1.326
 3664SOL    HW211892   5.230   1.356   1.332
 3665SOL     OW11893   0.655   5.855   5.560
 3665SOL    HW111894   0.665   5.950   5.589
 3665SOL    HW211895   0.561   5.838   5.529
 3666SOL     OW11896   1.840   4.485   3.587
 3666SOL    HW111897   1.794   4.396   3.590
 3666SOL    HW211898   1.936   4.472   3.563
 3667SOL     OW11899   6.236   0.272   0.565
 3667SOL    HW111900   6.193   0.297   0.652
 3667SOL    HW211901   6.176   0.299   0.489
 3668SOL     OW11902   1.465   0.678   2.235
 3668SOL    HW111903   1.507   0.652   2.322
 3668SOL    HW211904   1.515   0.635   2.159
 3669SOL     OW11905   5.753   1.391   4.336
 3669SOL    HW111906   5.711   1.441   4.259
 3669SOL    HW211907   5.717   1.298   4.338
 3670SOL     OW11908   2.600   5.617   0.942
 3670SOL    HW111909   2.684   5.610   0.889
 3670SOL    HW211910   2.621   5.605   1.039
 3671SOL     OW11911   6.189   0.477   3.315
 3671SOL    HW111912   6.277   0.436   3.342
 3671SOL    HW211913   6.171   0.558   3.370
 3672SOL     OW11914   5.909   1.579   1.126
 3672SOL    HW111915   5.870   1.529   1.203
 3672SOL    HW211916   5.837   1.632   1.081
 3673SOL     OW11917   3.817   0.563   6.085
 3673SOL    HW111918   3.906   0.528   6.057
 3673SOL    HW211919   3.748   0.533   6.019
 3674SOL     OW11920   0.566   0.093   5.779
 3674SOL    HW111921   0.470   0.119   5.765
 3674SOL    HW211922   0.621   0.176   5.787
 3675SOL     OW11923   1.871   2.457   5.439
 3675SOL    HW111924   1.797   2.456   5.506
 3675SOL    HW211925   1.913   2.548   5.437
 3676SOL     OW11926   3.999   5.097   4.245
 3676SOL    HW111927   3.948   5.180   4.266
 3676SOL    HW211928   3.968   5.022   4.304
 3677SOL     OW11929   1.103   5.994   2.740
 3677SOL    HW111930   1.172   6.020   2.807
 3677SOL    HW211931   1.143   5.997   2.648
 3678SOL     OW11932   0.706   2.845   3.821
 3678SOL    HW111933   0.797   2.846   3.782
 3678SOL    HW211934   0.638   2.861   3.749
 3679SOL     OW11935   0.297   1.182   2.783
 3679SOL    HW111936   0.378   1.205   2.729
 3679SOL    HW211937   0.216   1.220   2.740
 3680SOL     OW11938   6.648   3.054   4.145
 3680SOL    HW111939   6.686   3.028   4.057
 3680SOL    HW211940   6.678   3.147   4.169
 3681SOL     OW11941   0.696   0.983   5.901
 3681SOL    HW111942   0.611   1.023   5.934
 3681SOL    HW211943   0.769   0.999   5.967
 3682SOL     OW11944   5.999   2.481   6.016
 3682SOL    HW111945   6.093   2.509   5.997
 3682SOL    HW211946   5.942   2.562   6.029
 3683SOL     OW11947   6.820   0.506   4.910
 3683SOL    HW111948   6.765   0.523   4.992
 3683SOL    HW211949   6.917   0.512   4.933
 3684SOL     OW11950   1.492   2.769   1.255
 3684SOL    HW111951   1.399   2.799   1.232
 3684SOL    HW211952   1.556   2.799   1.184
 3685SOL     OW11953   6.163   6.228   5.626
 3685SOL    HW111954   6.174   6.289   5.547
 3685SOL    HW211955   6.087   6.261   5.682
 3686SOL     OW11956   6.300   4.928   3.328
 3686SOL    HW111957   6.251   4.965   3.407
 3686SOL    HW211958   6.382   4.880   3.360
 3687SOL     OW11959   3.055   5.911   5.313
 3687SOL    HW111960   2.995   5.847   5.360
 3687SOL    HW211961   3.075   5.876   5.221
 3688SOL     OW11962   1.177   4.178   6.996
 3688SOL    HW111963   1.201   4.183   0.074
 3688SOL    HW211964   1.112   4.251   6.974
 3689SOL     OW11965   0.821   0.638   5.438
 3689SOL    HW111966   0.833   0.737   5.431
 3689SOL    HW211967   0.799   0.600   5.348
 3690SOL     OW11968   4.352   0.483   6.463
 3690SOL    HW111969   4.349   0.438   6.552
 3690SOL    HW211970   4.438   0.534   6.454
 3691SOL     OW11971   2.452   3.107   6.440
 3691SOL    HW111972   2.366   3.057   6.440
 3691SOL    HW211973   2.455   3.171   6.516
 3692SOL     OW11974   1.211   6.120   4.267
 3692SOL    HW111975   1.273   6.053   4.225
 3692SOL    HW211976   1.245   6.143   4.359
 3693SOL     OW11977   1.605   2.844   2.971
 3693SOL    HW111978   1.599   2.934   3.014
 3693SOL    HW211979   1.665   2.849   2.891
 3694SOL     OW11980   1.346   5.006   3.376
 3694SOL    HW111981   1.442   4.982   3.392
 3694SOL    HW211982   1.325   5.092   3.422
 3695SOL     OW11983   0.656   2.391   2.583
 3695SOL    HW111984   0.591   2.458   2.547
 3695SOL    HW211985   0.677   2.413   2.678
 3696SOL     OW11986   4.353   6.066   5.394
 3696SOL    HW111987   4.275   6.068   5.331
 3696SOL    HW211988   4.336   6.128   5.471
 3697SOL     OW11989   6.840   6.003   3.550
 3697SOL    HW111990   6.766   5.999   3.618
 3697SOL    HW211991   6.918   6.053   3.588
 3698SOL     OW11992   3.563   6.675   5.409
 3698SOL    HW111993   3.546   6.773   5.422
 3698SOL    HW211994   3.482   6.633   5.368
 3699SOL     OW11995   6.808   3.650   2.912
 3699SOL    HW111996   6.869   3.666   2.989
 3699SOL    HW211997   6.849   3.686   2.828
 3700SOL     OW11998   5.624   0.775   3.515
 3700SOL    HW111999   5.692   0.846   3.500
 3700SOL    HW212000   5.632   0.704   3.445
 3701SOL     OW12001   0.352   0.962   3.676
 3701SOL    HW112002   0.449   0.971   3.697
 3701SOL    HW212003   0.333   1.002   3.587
 3702SOL     OW12004   4.524   0.109   1.934
 3702SOL    HW112005   4.615   0.146   1.952
 3702SOL    HW212006   4.459   0.148   1.999
 3703SOL     OW12007   3.944   3.713   5.693
 3703SOL    HW112008   3.981   3.681   5.780
 3703SOL    HW212009   3.917   3.809   5.702
 3704SOL     OW12010   3.112   1.040   1.739
 3704SOL    HW112011   3.099   1.136   1.765
 3704SOL    HW212012   3.153   0.991   1.816
 3705SOL     OW12013   5.060   6.679   3.653
 3705SOL    HW112014   5.053   6.657   3.555
 3705SOL    HW212015   4.969   6.691   3.691
 3706SOL     OW12016   1.354   2.415   4.457
 3706SOL    HW112017   1.284   2.368   4.404
 3706SOL    HW212018   1.389   2.493   4.405
 3707SOL     OW12019   5.609   3.083   5.165
 3707SOL    HW112020   5.556   3.131   5.095
 3707SOL    HW212021   5.549   3.054   5.239
 3708SOL     OW12022   6.141   6.902   6.424
 3708SOL    HW112023   6.050   6.912   6.464
 3708SOL    HW212024   6.151   6.810   6.386
 3709SOL     OW12025   3.548   0.908   6.525
 3709SOL    HW112026   3.518   0.856   6.445
 3709SOL    HW212027   3.648   0.917   6.523
 3710SOL     OW12028   6.979   6.014   0.407
 3710SOL    HW112029   6.939   5.956   0.477
 3710SOL    HW212030   6.913   6.027   0.333
 3711SOL     OW12031   0.312   5.849   2.455
 3711SOL    HW112032   0.367   5.823   2.375
 3711SOL    HW212033   0.369   5.899   2.520
 3712SOL     OW12034   0.074   6.043   6.871
 3712SOL    HW112035   0.051   5.946   6.877
 3712SOL    HW212036   0.003   6.091   6.819
 3713SOL     OW12037   2.231   6.329   4.782
 3713SOL    HW112038   2.199   6.336   4.876
 3713SOL    HW212039   2.197   6.407   4.729
 3714SOL     OW12040   5.254   6.119   4.757
 3714SOL    HW112041   5.226   6.043   4.699
 3714SOL    HW212042   5.305   6.185   4.702
 3715SOL     OW12043   5.697   4.043   4.965
 3715SOL    HW112044   5.676   4.102   4.887
 3715SOL    HW212045   5.718   3.951   4.932
 3716SOL     OW12046   0.351   6.404   4.100
 3716SOL    HW112047   0.283   6.337   4.131
 3716SOL    HW212048   0.415   6.423   4.174
 3717SOL     OW12049   6.356   5.589   0.705
 3717SOL    HW112050   6.308   5.606   0.619
 3717SOL    HW212051   6.370   5.490   0.716
 3718SOL     OW12052   2.070   6.379   6.287
 3718SOL    HW112053   2.035   6.443   6.219
 3718SOL    HW212054   2.106   6.298   6.242
 3719SOL     OW12055   4.842   4.257   1.337
 3719SOL    HW112056   4.918   4.294   1.283
 3719SOL    HW212057   4.867   4.257   1.434
 3720SOL     OW12058   6.116   2.270   6.805
 3720SOL    HW112059   6.028   2.272   6.853
 3720SOL    HW212060   6.103   2.294   6.709
 3721SOL     OW12061   5.471   4.696   0.280
 3721SOL    HW112062   5.436   4.786   0.306
 3721SOL    HW212063   5.516   4.654   0.359
 3722SOL     OW12064   6.852   6.376   2.308
 3722SOL    HW112065   6.839   6.278   2.290
 3722SOL    HW212066   6.932   6.388   2.367
 3723SOL     OW12067   5.833   6.544   2.054
 3723SOL    HW112068   5.744   6.504   2.032
 3723SOL    HW212069   5.859   6.520   2.147
 3724SOL     OW12070   2.155   5.203   6.603
 3724SOL    HW112071   2.136   5.255   6.687
 3724SOL    HW212072   2.212   5.259   6.542
 3725SOL     OW12073   5.179   6.061   6.772
 3725SOL    HW112074   5.243   6.138   6.770
 3725SOL    HW212075   5.152   6.043   6.867
 3726SOL     OW12076   6.817   4.139   1.474
 3726SOL    HW112077   6.845   4.062   1.532
 3726SOL    HW212078   6.836   4.117   1.378
 3727SOL     OW12079   0.224   3.016   6.319
 3727SOL    HW112080   0.302   3.078   6.317
 3727SOL    HW212081   0.205   2.983   6.227
 3728SOL     OW12082   1.421   3.639   0.323
 3728SOL    HW112083   1.389   3.579   0.396
 3728SOL    HW212084   1.445   3.728   0.360
 3729SOL     OW12085   0.821   2.435   3.408
 3729SOL    HW112086   0.727   2.400   3.418
 3729SOL    HW212087   0.854   2.416   3.316
 3730SOL     OW12088   2.695   6.024   6.973
 3730SOL    HW112089   2.603   6.017   7.012
 3730SOL    HW212090   2.749   5.944   6.998
 3731SOL     OW12091   4.805   1.129   0.241
 3731SOL    HW112092   4.901   1.132   0.269
 3731SOL    HW212093   4.756   1.061   0.296
 3732SOL     OW12094   2.088   3.095   6.135
 3732SOL    HW112095   2.027   3.151   6.192
 3732SOL    HW212096   2.176   3.142   6.124
 3733SOL     OW12097   2.205   3.853   1.462
 3733SOL    HW112098   2.185   3.949   1.479
 3733SOL    HW212099   2.144   3.796   1.517
 3734SOL     OW12100   4.270   1.550   1.662
 3734SOL    HW112101   4.219   1.611   1.603
 3734SOL    HW212102   4.216   1.530   1.744
 3735SOL     OW12103   0.862   1.747   2.818
 3735SOL    HW112104   0.849   1.825   2.879
 3735SOL    HW212105   0.901   1.779   2.731
 3736SOL     OW12106   0.097   3.405   0.798
 3736SOL    HW112107   0.022   3.431   0.737
 3736SOL    HW212108   0.092   3.459   0.883
 3737SOL     OW12109   4.960   0.270   3.285
 3737SOL    HW112110   5.044   0.242   3.240
 3737SOL    HW212111   4.906   0.189   3.308
 3738SOL     OW12112   6.413   5.987   3.396
 3738SOL    HW112113   6.388   6.010   3.490
 3738SOL    HW212114   6.336   5.945   3.350
 3739SOL     OW12115   1.603   4.256   2.643
 3739SOL    HW112116   1.534   4.293   2.580
 3739SOL    HW212117   1.611   4.157   2.629
 3740SOL     OW12118   4.647   0.773   6.798
 3740SOL    HW112119   4.713   0.843   6.824
 3740SOL    HW212120   4.596   0.803   6.718
 3741SOL     OW12121   4.336   3.762   1.158
 3741SOL    HW112122   4.409   3.728   1.099
 3741SOL    HW212123   4.324   3.860   1.143
 3742SOL     OW12124   2.281   2.074   5.595
 3742SOL    HW112125   2.339   2.152   5.617
 3742SOL    HW212126   2.261   2.074   5.497
 3743SOL     OW12127   6.103   4.934   0.763
 3743SOL    HW112128   6.040   4.974   0.829
 3743SOL    HW212129   6.145   5.007   0.709
 3744SOL     OW12130   0.575   5.789   3.680
 3744SOL    HW112131   0.671   5.816   3.669
 3744SOL    HW212132   0.559   5.702   3.632
 3745SOL     OW12133   3.168   5.655   2.937
 3745SOL    HW112134   3.174   5.568   2.987
 3745SOL    HW212135   3.154   5.730   3.002
 3746SOL     OW12136   4.475   1.397   1.524
 3746SOL    HW112137   4.561   1.403   1.574
 3746SOL    HW212138   4.406   1.452   1.570
 3747SOL     OW12139   2.845   6.506   6.168
 3747SOL    HW112140   2.868   6.600   6.190
 3747SOL    HW212141   2.747   6.498   6.153
 3748SOL     OW12142   5.445   0.618   2.103
 3748SOL    HW112143   5.538   0.627   2.065
 3748SOL    HW212144   5.392   0.699   2.078
 3749SOL     OW12145   1.501   6.809   4.079
 3749SOL    HW112146   1.467   6.864   4.002
 3749SOL    HW212147   1.570   6.745   4.046
 3750SOL     OW12148   1.670   3.959   0.321
 3750SOL    HW112149   1.579   3.982   0.285
 3750SOL    HW212150   1.739   4.016   0.276
 3751SOL     OW12151   0.169   4.054   2.841
 3751SOL    HW112152   0.070   4.041   2.849
 3751SOL    HW212153   0.210   4.043   2.932
 3752SOL     OW12154   5.159   1.102   5.630
 3752SOL    HW112155   5.230   1.122   5.698
 3752SOL    HW212156   5.196   1.039   5.562
 3753SOL     OW12157   5.930   0.439   4.629
 3753SOL    HW112158   5.985   0.356   4.633
 3753SOL    HW212159   5.899   0.453   4.535
 3754SOL     OW12160   1.799   0.796   2.413
 3754SOL    HW112161   1.738   0.840   2.347
 3754SOL    HW212162   1.823   0.860   2.485
 3755SOL     OW12163   3.304   5.073   4.829
 3755SOL    HW112164   3.299   5.165   4.791
 3755SOL    HW212165   3.395   5.035   4.813
 3756SOL     OW12166   2.884   5.794   6.968
 3756SOL    HW112167   2.918   5.700   6.966
 3756SOL    HW212168   2.934   5.849   6.901
 3757SOL     OW12169   6.426   5.092   2.086
 3757SOL    HW112170   6.334   5.059   2.063
 3757SOL    HW212171   6.477   5.018   2.130
 3758SOL     OW12172   2.044   1.000   4.507
 3758SOL    HW112173   2.043   1.012   4.607
 3758SOL    HW212174   2.051   1.089   4.463
 3759SOL     OW12175   4.622   0.879   4.723
 3759SOL    HW112176   4.593   0.908   4.631
 3759SOL    HW212177   4.681   0.799   4.715
 3760SOL     OW12178   0.231   0.147   3.444
 3760SOL    HW112179   0.203   0.083   3.373
 3760SOL    HW212180   0.328   0.136   3.463
 3761SOL     OW12181   6.183   1.541   4.841
 3761SOL    HW112182   6.152   1.479   4.769
 3761SOL    HW212183   6.203   1.631   4.800
 3762SOL     OW12184   1.492   3.754   2.337
 3762SOL    HW112185   1.565   3.744   2.269
 3762SOL    HW212186   1.485   3.670   2.390
 3763SOL     OW12187   6.971   4.115   0.212
 3763SOL    HW112188   6.975   4.192   0.276
 3763SOL    HW212189   0.028   4.052   0.231
 3764SOL     OW12190   2.023   0.304   2.829
 3764SOL    HW112191   2.077   0.305   2.913
 3764SOL    HW212192   1.986   0.396   2.812
 3765SOL     OW12193   6.095   1.849   1.586
 3765SOL    HW112194   6.049   1.790   1.519
 3765SOL    HW212195   6.194   1.843   1.574
 3766SOL     OW12196   1.940   2.737   4.285
 3766SOL    HW112197   1.960   2.824   4.240
 3766SOL    HW212198   1.951   2.663   4.219
 3767SOL     OW12199   3.156   4.201   6.102
 3767SOL    HW112200   3.062   4.235   6.106
 3767SOL    HW212201   3.207   4.251   6.032
 3768SOL     OW12202   1.718   0.773   4.665
 3768SOL    HW112203   1.699   0.773   4.567
 3768SOL    HW212204   1.639   0.812   4.713
 3769SOL     OW12205   5.608   5.495   5.040
 3769SOL    HW112206   5.663   5.483   5.123
 3769SOL    HW212207   5.610   5.410   4.987
 3770SOL     OW12208   1.256   1.132   0.245
 3770SOL    HW112209   1.208   1.204   0.296
 3770SOL    HW212210   1.274   1.164   0.152
 3771SOL     OW12211   6.657   4.526   0.503
 3771SOL    HW112212   6.570   4.486   0.529
 3771SOL    HW212213   6.675   4.607   0.560
 3772SOL     OW12214   1.032   6.480   0.082
 3772SOL    HW112215   0.953   6.420   0.094
 3772SOL    HW212216   1.032   6.517   7.007
 3773SOL     OW12217   5.665   4.069   5.634
 3773SOL    HW112218   5.603   4.093   5.559
 3773SOL    HW212219   5.698   3.976   5.622
 3774SOL     OW12220   5.955   4.846   1.933
 3774SOL    HW112221   5.921   4.883   1.846
 3774SOL    HW212222   5.904   4.762   1.955
 3775SOL     OW12223   3.717   4.972   3.376
 3775SOL    HW112224   3.694   5.052   3.431
 3775SOL    HW212225   3.642   4.906   3.379
 3776SOL     OW12226   3.678   2.552   6.410
 3776SOL    HW112227   3.685   2.461   6.450
 3776SOL    HW212228   3.625   2.547   6.325
 3777SOL     OW12229   2.630   5.999   3.476
 3777SOL    HW112230   2.708   6.061   3.483
 3777SOL    HW212231   2.586   5.990   3.565
 3778SOL     OW12232   2.963   5.992   4.204
 3778SOL    HW112233   2.986   6.014   4.299
 3778SOL    HW212234   3.033   5.931   4.166
 3779SOL     OW12235   0.350   5.108   0.717
 3779SOL    HW112236   0.311   5.109   0.809
 3779SOL    HW212237   0.277   5.115   0.649
 3780SOL     OW12238   7.002   2.381   2.415
 3780SOL    HW112239   6.921   2.439   2.414
 3780SOL    HW212240   0.035   2.397   2.500
 3781SOL     OW12241   1.420   6.452   5.156
 3781SOL    HW112242   1.437   6.394   5.235
 3781SOL    HW212243   1.337   6.506   5.171
 3782SOL     OW12244   4.307   6.380   2.365
 3782SOL    HW112245   4.241   6.441   2.322
 3782SOL    HW212246   4.392   6.430   2.383
 3783SOL     OW12247   5.199   4.494   5.730
 3783SOL    HW112248   5.277   4.443   5.694
 3783SOL    HW212249   5.114   4.457   5.691
 3784SOL     OW12250   5.498   2.618   2.243
 3784SOL    HW112251   5.489   2.608   2.342
 3784SOL    HW212252   5.424   2.676   2.208
 3785SOL     OW12253   0.539   3.333   5.060
 3785SOL    HW112254   0.553   3.397   4.985
 3785SOL    HW212255   0.626   3.319   5.108
 3786SOL     OW12256   2.468   2.311   3.336
 3786SOL    HW112257   2.405   2.286   3.410
 3786SOL    HW212258   2.523   2.389   3.365
 3787SOL     OW12259   3.952   0.544   2.821
 3787SOL    HW112260   4.004   0.619   2.861
 3787SOL    HW212261   3.854   0.567   2.823
 3788SOL     OW12262   6.844   4.030   4.922
 3788SOL    HW112263   6.861   4.129   4.930
 3788SOL    HW212264   6.901   3.993   4.849
 3789SOL     OW12265   0.583   3.192   3.322
 3789SOL    HW112266   0.653   3.129   3.291
 3789SOL    HW212267   0.497   3.143   3.335
 3790SOL     OW12268   1.266   6.075   6.974
 3790SOL    HW112269   1.355   6.115   6.992
 3790SOL    HW212270   1.196   6.123   0.009
 3791SOL     OW12271   5.511   1.602   6.011
 3791SOL    HW112272   5.432   1.581   6.068
 3791SOL    HW212273   5.526   1.701   6.010
 3792SOL     OW12274   0.914   0.844   4.314
 3792SOL    HW112275   0.906   0.757   4.266
 3792SOL    HW212276   1.002   0.847   4.362
 3793SOL     OW12277   6.128   5.805   1.182
 3793SOL    HW112278   6.189   5.815   1.103
 3793SOL    HW212279   6.125   5.891   1.233
 3794SOL     OW12280   1.796   3.197   0.974
 3794SOL    HW112281   1.761   3.163   1.061
 3794SOL    HW212282   1.880   3.148   0.951
 3795SOL     OW12283   3.082   5.883   0.760
 3795SOL    HW112284   3.044   5.897   0.669
 3795SOL    HW212285   3.020   5.826   0.814
 3796SOL     OW12286   3.963   2.204   1.147
 3796SOL    HW112287   4.019   2.284   1.126
 3796SOL    HW212288   4.015   2.121   1.125
 3797SOL     OW12289   1.418   4.256   2.411
 3797SOL    HW112290   1.323   4.268   2.437
 3797SOL    HW212291   1.442   4.159   2.417
 3798SOL     OW12292   2.400   6.739   2.892
 3798SOL    HW112293   2.443   6.830   2.892
 3798SOL    HW212294   2.441   6.683   2.964
 3799SOL     OW12295   6.522   2.604   3.061
 3799SOL    HW112296   6.570   2.540   3.001
 3799SOL    HW212297   6.588   2.670   3.098
 3800SOL     OW12298   4.672   1.658   2.962
 3800SOL    HW112299   4.711   1.723   3.028
 3800SOL    HW212300   4.661   1.703   2.874
 3801SOL     OW12301   5.259   6.802   2.166
 3801SOL    HW112302   5.333   6.869   2.178
 3801SOL    HW212303   5.205   6.797   2.249
 3802SOL     OW12304   0.772   1.864   2.010
 3802SOL    HW112305   0.751   1.781   2.061
 3802SOL    HW212306   0.689   1.915   1.993
 3803SOL     OW12307   3.614   3.819   3.747
 3803SOL    HW112308   3.557   3.858   3.819
 3803SOL    HW212309   3.624   3.720   3.762
 3804SOL     OW12310   3.137   1.312   4.501
 3804SOL    HW112311   3.114   1.409   4.492
 3804SOL    HW212312   3.234   1.298   4.482
 3805SOL     OW12313   2.470   2.645   1.067
 3805SOL    HW112314   2.443   2.567   1.124
 3805SOL    HW212315   2.391   2.704   1.051
 3806SOL     OW12316   4.251   3.760   6.251
 3806SOL    HW112317   4.276   3.767   6.154
 3806SOL    HW212318   4.170   3.816   6.268
 3807SOL     OW12319   1.675   4.903   4.320
 3807SOL    HW112320   1.770   4.914   4.348
 3807SOL    HW212321   1.635   4.825   4.367
 3808SOL     OW12322   4.945   0.710   5.691
 3808SOL    HW112323   4.878   0.777   5.723
 3808SOL    HW212324   4.917   0.618   5.720
 3809SOL     OW12325   6.402   1.639   1.682
 3809SOL    HW112326   6.443   1.566   1.627
 3809SOL    HW212327   6.406   1.725   1.631
 3810SOL     OW12328   6.716   2.755   3.151
 3810SOL    HW112329   6.630   2.794   3.182
 3810SOL    HW212330   6.792   2.814   3.181
 3811SOL     OW12331   0.206   5.957   4.484
 3811SOL    HW112332   0.125   5.898   4.477
 3811SOL    HW212333   0.177   6.051   4.500
 3812SOL     OW12334   3.288   5.671   6.579
 3812SOL    HW112335   3.381   5.635   6.571
 3812SOL    HW212336   3.290   5.771   6.572
 3813SOL     OW12337   6.098   4.096   1.311
 3813SOL    HW112338   6.082   4.003   1.278
 3813SOL    HW212339   6.073   4.161   1.239
 3814SOL     OW12340   6.925   6.845   3.802
 3814SOL    HW112341   6.970   6.921   3.850
 3814SOL    HW212342   6.954   6.758   3.843
 3815SOL     OW12343   5.307   3.061   0.686
 3815SOL    HW112344   5.253   3.089   0.607
 3815SOL    HW212345   5.279   2.969   0.714
 3816SOL     OW12346   0.776   6.494   4.829
 3816SOL    HW112347   0.788   6.450   4.740
 3816SOL    HW212348   0.791   6.592   4.821
 3817SOL     OW12349   4.852   3.275   2.614
 3817SOL    HW112350   4.917   3.343   2.580
 3817SOL    HW212351   4.822   3.301   2.706
 3818SOL     OW12352   0.422   0.561   1.210
 3818SOL    HW112353   0.363   0.626   1.258
 3818SOL    HW212354   0.511   0.602   1.195
 3819SOL     OW12355   6.753   4.150   2.700
 3819SOL    HW112356   6.658   4.126   2.720
 3819SOL    HW212357   6.815   4.086   2.746
 3820SOL     OW12358   5.335   6.871   3.453
 3820SOL    HW112359   5.297   6.788   3.412
 3820SOL    HW212360   5.267   6.912   3.514
 3821SOL     OW12361   0.801   0.071   0.433
 3821SOL    HW112362   0.738   7.016   0.455
 3821SOL    HW212363   0.838   0.110   0.518
 3822SOL     OW12364   3.454   6.914   0.107
 3822SOL    HW112365   3.522   6.961   0.052
 3822SOL    HW212366   3.480   6.919   0.204
 3823SOL     OW12367   4.429   4.380   6.512
 3823SOL    HW112368   4.382   4.467   6.526
 3823SOL    HW212369   4.364   4.312   6.480
 3824SOL     OW12370   0.724   2.761   0.667
 3824SOL    HW112371   0.670   2.810   0.736
 3824SOL    HW212372   0.705   2.800   0.577
 3825SOL     OW12373   1.100   4.177   1.185
 3825SOL    HW112374   1.075   4.159   1.280
 3825SOL    HW212375   1.198   4.196   1.179
 3826SOL     OW12376   0.553   3.796   2.572
 3826SOL    HW112377   0.480   3.800   2.640
 3826SOL    HW212378   0.599   3.885   2.569
 3827SOL     OW12379   0.641   0.719   1.617
 3827SOL    HW112380   0.639   0.793   1.551
 3827SOL    HW212381   0.668   0.634   1.572
 3828SOL     OW12382   3.697   3.875   4.712
 3828SOL    HW112383   3.757   3.809   4.666
 3828SOL    HW212384   3.721   3.882   4.808
 3829SOL     OW12385   0.325   4.790   1.927
 3829SOL    HW112386   0.372   4.773   1.840
 3829SOL    HW212387   0.374   4.744   2.001
 3830SOL     OW12388   0.354   0.626   5.342
 3830SOL    HW112389   0.389   0.700   5.284
 3830SOL    HW212390   0.426   0.598   5.406
 3831SOL     OW12391   4.094   2.271   2.934
 3831SOL    HW112392   4.011   2.274   2.989
 3831SOL    HW212393   4.172   2.297   2.991
 3832SOL     OW12394   0.114   0.472   2.155
 3832SOL    HW112395   0.156   0.383   2.141
 3832SOL    HW212396   0.170   0.526   2.218
 3833SOL     OW12397   1.801   6.771   6.601
 3833SOL    HW112398   1.808   6.813   6.692
 3833SOL    HW212399   1.883   6.792   6.548
 3834SOL     OW12400   4.017   4.095   0.866
 3834SOL    HW112401   3.970   4.072   0.952
 3834SOL    HW212402   3.965   4.165   0.818
 3835SOL     OW12403   3.986   5.667   5.368
 3835SOL    HW112404   3.947   5.691   5.279
 3835SOL    HW212405   3.941   5.721   5.440
 3836SOL     OW12406   0.503   4.649   5.688
 3836SOL    HW112407   0.424   4.708   5.702
 3836SOL    HW212408   0.476   4.553   5.699
 3837SOL     OW12409   4.133   5.351   5.170
 3837SOL    HW112410   4.080   5.316   5.247
 3837SOL    HW212411   4.136   5.451   5.174
 3838SOL     OW12412   1.565   1.525   3.074
 3838SOL    HW112413   1.629   1.453   3.101
 3838SOL    HW212414   1.571   1.601   3.139
 3839SOL     OW12415   4.246   0.699   2.703
 3839SOL    HW112416   4.186   0.690   2.624
 3839SOL    HW212417   4.195   0.739   2.779
 3840SOL     OW12418   2.673   1.757   5.843
 3840SOL    HW112419   2.702   1.823   5.774
 3840SOL    HW212420   2.687   1.664   5.808
 3841SOL     OW12421   1.176   4.252   4.139
 3841SOL    HW112422   1.271   4.277   4.153
 3841SOL    HW212423   1.145   4.192   4.213
 3842SOL     OW12424   2.557   2.489   4.134
 3842SOL    HW112425   2.634   2.432   4.162
 3842SOL    HW212426   2.509   2.522   4.215
 3843SOL     OW12427   5.670   3.760   1.081
 3843SOL    HW112428   5.717   3.843   1.054
 3843SOL    HW212429   5.703   3.683   1.025
 3844SOL     OW12430   1.022   4.396   6.985
 3844SOL    HW112431   1.036   4.470   0.032
 3844SOL    HW212432   0.925   4.373   6.981
 3845SOL     OW12433   2.432   5.985   0.019
 3845SOL    HW112434   2.344   6.033   0.009
 3845SOL    HW212435   2.464   5.994   0.113
 3846SOL     OW12436   0.532   3.434   4.374
 3846SOL    HW112437   0.460   3.481   4.424
 3846SOL    HW212438   0.561   3.353   4.426
 3847SOL     OW12439   5.106   2.277   4.544
 3847SOL    HW112440   5.185   2.339   4.544
 3847SOL    HW212441   5.108   2.221   4.461
 3848SOL     OW12442   4.874   3.591   2.822
 3848SOL    HW112443   4.965   3.632   2.821
 3848SOL    HW212444   4.818   3.635   2.892
 3849SOL     OW12445   0.722   0.094   6.432
 3849SOL    HW112446   0.728   0.047   6.344
 3849SOL    HW212447   0.813   0.105   6.471
 3850SOL     OW12448   3.378   2.908   1.326
 3850SOL    HW112449   3.424   2.990   1.361
 3850SOL    HW212450   3.303   2.936   1.266
 3851SOL     OW12451   6.997   5.207   3.397
 3851SOL    HW112452   6.905   5.211   3.357
 3851SOL    HW212453   7.001   5.267   3.477
 3852SOL     OW12454   3.695   6.468   4.442
 3852SOL    HW112455   3.728   6.381   4.407
 3852SOL    HW212456   3.709   6.539   4.374
 3853SOL     OW12457   1.324   2.361   3.024
 3853SOL    HW112458   1.422   2.346   3.011
 3853SOL    HW212459   1.277   2.351   2.936
 3854SOL     OW12460   0.904   2.852   3.399
 3854SOL    HW112461   0.947   2.926   3.451
 3854SOL    HW212462   0.936   2.855   3.305
 3855SOL     OW12463   3.811   6.278   6.920
 3855SOL    HW112464   3.741   6.207   6.922
 3855SOL    HW212465   3.780   6.357   6.973
 3856SOL     OW12466   0.375   1.639   6.083
 3856SOL    HW112467   0.394   1.738   6.085
 3856SOL    HW212468   0.461   1.589   6.071
 3857SOL     OW12469   1.402   6.372   6.011
 3857SOL    HW112470   1.333   6.307   5.979
 3857SOL    HW212471   1.470   6.322   6.067
 3858SOL     OW12472   3.395   1.371   6.077
 3858SOL    HW112473   3.338   1.403   6.001
 3858SOL    HW212474   3.486   1.412   6.068
 3859SOL     OW12475   6.219   0.728   1.722
 3859SOL    HW112476   6.202   0.826   1.709
 3859SOL    HW212477   6.195   0.678   1.639
 3860SOL     OW12478   1.852   1.275   4.640
 3860SOL    HW112479   1.905   1.323   4.570
 3860SOL    HW212480   1.772   1.329   4.665
 3861SOL     OW12481   4.795   6.437   3.189
 3861SOL    HW112482   4.844   6.432   3.102
 3861SOL    HW212483   4.697   6.436   3.173
 3862SOL     OW12484   0.770   0.331   4.578
 3862SOL    HW112485   0.850   0.390   4.567
 3862SOL    HW212486   0.751   0.319   4.675
 3863SOL     OW12487   6.134   1.536   6.414
 3863SOL    HW112488   6.197   1.523   6.490
 3863SOL    HW212489   6.046   1.494   6.436
 3864SOL     OW12490   2.066   0.733   5.113
 3864SOL    HW112491   2.146   0.772   5.066
 3864SOL    HW212492   2.084   0.637   5.136
 3865SOL     OW12493   4.111   1.560   1.099
 3865SOL    HW112494   4.159   1.513   1.173
 3865SOL    HW212495   4.113   1.504   1.017
 3866SOL     OW12496   3.789   1.059   7.017
 3866SOL    HW112497   3.872   1.016   6.981
 3866SOL    HW212498   3.746   1.114   6.945
 3867SOL     OW12499   1.381   4.163   3.264
 3867SOL    HW112500   1.471   4.205   3.255
 3867SOL    HW212501   1.333   4.204   3.342
 3868SOL     OW12502   4.073   0.176   0.031
 3868SOL    HW112503   3.997   0.155   0.093
 3868SOL    HW212504   4.151   0.116   0.052
 3869SOL     OW12505   6.733   2.897   3.475
 3869SOL    HW112506   6.695   2.987   3.452
 3869SOL    HW212507   6.661   2.829   3.476
 3870SOL     OW12508   6.822   6.413   1.303
 3870SOL    HW112509   6.774   6.412   1.391
 3870SOL    HW212510   6.760   6.446   1.232
 3871SOL     OW12511   3.454   0.562   3.231
 3871SOL    HW112512   3.502   0.597   3.312
 3871SOL    HW212513   3.469   0.463   3.224
 3872SOL     OW12514   3.016   3.388   3.899
 3872SOL    HW112515   3.079   3.343   3.834
 3872SOL    HW212516   2.925   3.393   3.858
 3873SOL     OW12517   5.870   4.488   1.164
 3873SOL    HW112518   5.827   4.570   1.125
 3873SOL    HW212519   5.811   4.452   1.236
 3874SOL     OW12520   3.992   0.727   0.205
 3874SOL    HW112521   3.988   0.627   0.200
 3874SOL    HW212522   3.918   0.760   0.263
 3875SOL     OW12523   1.988   2.929   3.723
 3875SOL    HW112524   2.074   2.981   3.715
 3875SOL    HW212525   1.923   2.964   3.656
 3876SOL     OW12526   3.531   5.424   1.008
 3876SOL    HW112527   3.437   5.403   1.032
 3876SOL    HW212528   3.570   5.347   0.956
 3877SOL     OW12529   6.459   2.450   1.269
 3877SOL    HW112530   6.519   2.403   1.205
 3877SOL    HW212531   6.509   2.467   1.354
 3878SOL     OW12532   4.918   6.391   4.448
 3878SOL    HW112533   4.884   6.336   4.372
 3878SOL    HW212534   4.995   6.447   4.417
 3879SOL     OW12535   6.054   5.649   0.909
 3879SOL    HW112536   6.010   5.720   0.853
 3879SOL    HW212537   6.082   5.689   0.997
 3880SOL     OW12538   5.156   3.930   4.767
 3880SOL    HW112539   5.087   3.992   4.804
 3880SOL    HW212540   5.245   3.950   4.808
 3881SOL     OW12541   1.427   3.122   1.803
 3881SOL    HW112542   1.364   3.153   1.874
 3881SOL    HW212543   1.445   3.197   1.739
 3882SOL     OW12544   0.463   0.961   5.996
 3882SOL    HW112545   0.436   0.868   6.021
 3882SOL    HW212546   0.442   1.024   6.071
 3883SOL     OW12547   3.880   1.333   2.013
 3883SOL    HW112548   3.832   1.350   2.099
 3883SOL    HW212549   3.822   1.362   1.937
 3884SOL     OW12550   0.569   6.047   2.242
 3884SOL    HW112551   0.531   6.107   2.312
 3884SOL    HW212552   0.647   5.996   2.280
 3885SOL     OW12553   6.550   5.569   3.056
 3885SOL    HW112554   6.592   5.660   3.055
 3885SOL    HW212555   6.454   5.577   3.029
 3886SOL     OW12556   4.598   5.635   5.354
 3886SOL    HW112557   4.670   5.582   5.311
 3886SOL    HW212558   4.635   5.685   5.432
 3887SOL     OW12559   0.873   0.060   0.177
 3887SOL    HW112560   0.892   0.153   0.146
 3887SOL    HW212561   0.831   0.062   0.268
 3888SOL     OW12562   6.709   6.884   5.106
 3888SOL    HW112563   6.794   6.832   5.109
 3888SOL    HW212564   6.701   6.928   5.016
 3889SOL     OW12565   6.654   3.769   0.418
 3889SOL    HW112566   6.701   3.743   0.334
 3889SOL    HW212567   6.690   3.857   0.450
 3890SOL     OW12568   6.741   4.474   3.607
 3890SOL    HW112569   6.675   4.475   3.531
 3890SOL    HW212570   6.834   4.469   3.570
 3891SOL     OW12571   5.491   4.100   4.390
 3891SOL    HW112572   5.486   4.001   4.388
 3891SOL    HW212573   5.398   4.138   4.391
 3892SOL     OW12574   0.363   2.241   1.440
 3892SOL    HW112575   0.437   2.184   1.402
 3892SOL    HW212576   0.340   2.313   1.374
 3893SOL     OW12577   4.274   3.293   0.138
 3893SOL    HW112578   4.338   3.218   0.157
 3893SOL    HW212579   4.224   3.273   0.053
 3894SOL     OW12580   4.638   1.065   0.025
 3894SOL    HW112581   4.679   1.087   0.113
 3894SOL    HW212582   4.576   0.987   0.036
 3895SOL     OW12583   0.826   0.553   5.709
 3895SOL    HW112584   0.780   0.628   5.757
 3895SOL    HW212585   0.829   0.573   5.611
 3896SOL     OW12586   0.616   1.451   5.992
 3896SOL    HW112587   0.534   1.410   5.952
 3896SOL    HW212588   0.652   1.391   6.064
 3897SOL     OW12589   3.812   5.418   2.770
 3897SOL    HW112590   3.796   5.460   2.859
 3897SOL    HW212591   3.725   5.382   2.734
 3898SOL     OW12592   2.785   2.892   5.958
 3898SOL    HW112593   2.723   2.816   5.976
 3898SOL    HW212594   2.877   2.870   5.992
 3899SOL     OW12595   4.602   6.767   5.217
 3899SOL    HW112596   4.670   6.840   5.213
 3899SOL    HW212597   4.526   6.795   5.275
 3900SOL     OW12598   4.777   2.963   3.749
 3900SOL    HW112599   4.822   3.030   3.690
 3900SOL    HW212600   4.796   2.985   3.845
 3901SOL     OW12601   2.846   0.663   5.967
 3901SOL    HW112602   2.938   0.692   5.942
 3901SOL    HW212603   2.821   0.705   6.055
 3902SOL     OW12604   6.152   2.998   2.133
 3902SOL    HW112605   6.134   2.918   2.191
 3902SOL    HW212606   6.099   2.988   2.048
 3903SOL     OW12607   3.769   5.858   0.448
 3903SOL    HW112608   3.810   5.803   0.521
 3903SOL    HW212609   3.835   5.868   0.373
 3904SOL     OW12610   2.325   1.164   6.197
 3904SOL    HW112611   2.271   1.205   6.124
 3904SOL    HW212612   2.422   1.186   6.183
 3905SOL     OW12613   0.154   0.084   6.814
 3905SOL    HW112614   0.245   0.042   6.819
 3905SOL    HW212615   0.114   0.088   6.906
 3906SOL     OW12616   5.623   6.205   5.632
 3906SOL    HW112617   5.523   6.200   5.629
 3906SOL    HW212618   5.655   6.261   5.555
 3907SOL     OW12619   5.475   0.970   3.653
 3907SOL    HW112620   5.545   0.911   3.614
 3907SOL    HW212621   5.456   1.046   3.590
 3908SOL     OW12622   0.655   2.473   0.355
 3908SOL    HW112623   0.742   2.518   0.335
 3908SOL    HW212624   0.598   2.472   0.273
 3909SOL     OW12625   6.342   5.758   5.734
 3909SOL    HW112626   6.362   5.854   5.754
 3909SOL    HW212627   6.251   5.750   5.693
 3910SOL     OW12628   3.558   3.768   2.814
 3910SOL    HW112629   3.551   3.688   2.754
 3910SOL    HW212630   3.628   3.830   2.779
 3911SOL     OW12631   5.021   1.661   5.258
 3911SOL    HW112632   4.945   1.703   5.207
 3911SOL    HW212633   4.984   1.603   5.330
 3912SOL     OW12634   5.254   0.956   5.178
 3912SOL    HW112635   5.157   0.976   5.163
 3912SOL    HW212636   5.285   0.887   5.113
 3913SOL     OW12637   2.577   6.537   6.505
 3913SOL    HW112638   2.647   6.608   6.501
 3913SOL    HW212639   2.504   6.558   6.440
 3914SOL     OW12640   2.874   0.742   1.124
 3914SOL    HW112641   2.937   0.775   1.053
 3914SOL    HW212642   2.866   0.811   1.196
 3915SOL     OW12643   4.796   5.475   1.564
 3915SOL    HW112644   4.851   5.511   1.489
 3915SOL    HW212645   4.781   5.377   1.550
 3916SOL     OW12646   1.358   0.750   4.325
 3916SOL    HW112647   1.393   0.670   4.276
 3916SOL    HW212648   1.434   0.797   4.370
 3917SOL     OW12649   6.517   6.061   0.253
 3917SOL    HW112650   6.446   5.995   0.230
 3917SOL    HW212651   6.479   6.154   0.252
 3918SOL     OW12652   4.937   6.189   1.553
 3918SOL    HW112653   4.967   6.284   1.564
 3918SOL    HW212654   4.968   6.155   1.464
 3919SOL     OW12655   3.024   6.505   6.533
 3919SOL    HW112656   3.009   6.407   6.546
 3919SOL    HW212657   3.083   6.519   6.454
 3920SOL     OW12658   3.113   3.193   0.768
 3920SOL    HW112659   3.092   3.110   0.717
 3920SOL    HW212660   3.174   3.171   0.844
 3921SOL     OW12661   0.200   3.557   1.760
 3921SOL    HW112662   0.162   3.624   1.824
 3921SOL    HW212663   0.299   3.549   1.776
 3922SOL     OW12664   6.496   3.052   1.829
 3922SOL    HW112665   6.574   3.018   1.775
 3922SOL    HW212666   6.414   3.053   1.771
 3923SOL     OW12667   6.632   0.877   0.013
 3923SOL    HW112668   6.680   0.846   6.949
 3923SOL    HW212669   6.624   0.977   0.011
 3924SOL     OW12670   0.181   4.899   3.529
 3924SOL    HW112671   0.101   4.857   3.572
 3924SOL    HW212672   0.183   4.875   3.432
 3925SOL     OW12673   3.150   5.230   0.943
 3925SOL    HW112674   3.082   5.159   0.926
 3925SOL    HW212675   3.122   5.284   1.022
 3926SOL     OW12676   6.949   5.849   2.922
 3926SOL    HW112677   6.998   5.818   3.003
 3926SOL    HW212678   6.945   5.774   2.856
 3927SOL     OW12679   6.534   2.646   3.711
 3927SOL    HW112680   6.461   2.630   3.778
 3927SOL    HW212681   6.552   2.562   3.660
 3928SOL     OW12682   3.782   6.092   6.196
 3928SOL    HW112683   3.876   6.082   6.230
 3928SOL    HW212684   3.773   6.044   6.110
 3929SOL     OW12685   0.315   0.920   5.105
 3929SOL    HW112686   0.345   1.000   5.053
 3929SOL    HW212687   0.324   0.939   5.203
 3930SOL     OW12688   2.576   2.095   3.853
 3930SOL    HW112689   2.569   2.053   3.762
 3930SOL    HW212690   2.570   2.024   3.923
 3931SOL     OW12691   1.171   1.197   1.849
 3931SOL    HW112692   1.158   1.290   1.885
 3931SOL    HW212693   1.082   1.159   1.825
 3932SOL     OW12694   1.639   4.670   3.482
 3932SOL    HW112695   1.725   4.668   3.533
 3932SOL    HW212696   1.622   4.580   3.441
 3933SOL     OW12697   2.249   6.500   6.941
 3933SOL    HW112698   2.255   6.545   0.012
 3933SOL    HW212699   2.318   6.537   6.880
 3934SOL     OW12700   6.908   0.930   0.386
 3934SOL    HW112701   6.957   1.002   0.337
 3934SOL    HW212702   6.860   0.871   0.321
 3935SOL     OW12703   2.628   6.501   6.921
 3935SOL    HW112704   2.720   6.472   6.893
 3935SOL    HW212705   2.573   6.520   6.840
 3936SOL     OW12706   0.051   5.147   5.560
 3936SOL    HW112707   0.014   5.055   5.574
 3936SOL    HW212708   0.141   5.154   5.604
 3937SOL     OW12709   6.831   1.831   3.568
 3937SOL    HW112710   6.804   1.803   3.475
 3937SOL    HW212711   6.918   1.880   3.564
 3938SOL     OW12712   0.515   1.903   3.762
 3938SOL    HW112713   0.534   1.997   3.790
 3938SOL    HW212714   0.472   1.853   3.837
 3939SOL     OW12715   2.749   2.356   2.595
 3939SOL    HW112716   2.724   2.300   2.516
 3939SOL    HW212717   2.812   2.428   2.566
 3940SOL     OW12718   5.103   5.280   1.168
 3940SOL    HW112719   5.004   5.280   1.180
 3940SOL    HW212720   5.138   5.187   1.177
 3941SOL     OW12721   4.857   3.142   5.963
 3941SOL    HW112722   4.848   3.055   6.010
 3941SOL    HW212723   4.932   3.194   6.003
 3942SOL     OW12724   0.531   6.987   6.584
 3942SOL    HW112725   0.608   0.002   6.530
 3942SOL    HW212726   0.559   6.905   6.635
 3943SOL     OW12727   0.192   3.580   2.871
 3943SOL    HW112728   0.153   3.535   2.952
 3943SOL    HW212729   0.159   3.532   2.789
 3944SOL     OW12730   4.880   2.781   4.844
 3944SOL    HW112731   4.868   2.787   4.943
 3944SOL    HW212732   4.801   2.735   4.804
 3945SOL     OW12733   6.969   1.726   0.429
 3945SOL    HW112734   7.010   1.802   0.480
 3945SOL    HW212735   6.904   1.678   0.487
 3946SOL     OW12736   5.548   5.474   5.488
 3946SOL    HW112737   5.459   5.510   5.459
 3946SOL    HW212738   5.549   5.466   5.588
 3947SOL     OW12739   5.872   6.120   0.929
 3947SOL    HW112740   5.816   6.135   0.847
 3947SOL    HW212741   5.931   6.040   0.915
 3948SOL     OW12742   1.449   5.600   2.342
 3948SOL    HW112743   1.448   5.543   2.260
 3948SOL    HW212744   1.472   5.694   2.317
 3949SOL     OW12745   4.466   0.423   3.147
 3949SOL    HW112746   4.405   0.501   3.160
 3949SOL    HW212747   4.546   0.451   3.094
 3950SOL     OW12748   1.940   3.986   1.191
 3950SOL    HW112749   1.960   3.889   1.207
 3950SOL    HW212750   1.841   4.000   1.192
 3951SOL     OW12751   5.327   6.686   1.004
 3951SOL    HW112752   5.233   6.669   1.032
 3951SOL    HW212753   5.357   6.612   0.943
 3952SOL     OW12754   6.315   2.949   2.837
 3952SOL    HW112755   6.322   3.022   2.769
 3952SOL    HW212756   6.399   2.894   2.835
 3953SOL     OW12757   3.875   4.845   1.620
 3953SOL    HW112758   3.923   4.907   1.559
 3953SOL    HW212759   3.938   4.777   1.656
 3954SOL     OW12760   4.307   5.070   4.911
 3954SOL    HW112761   4.394   5.112   4.886
 3954SOL    HW212762   4.308   4.973   4.885
 3955SOL     OW12763   3.028   5.906   6.769
 3955SOL    HW112764   2.984   5.982   6.721
 3955SOL    HW212765   3.126   5.925   6.778
 3956SOL     OW12766   6.977   1.263   3.450
 3956SOL    HW112767   7.000   1.361   3.449
 3956SOL    HW212768   0.002   1.220   3.530
 3957SOL     OW12769   4.866   6.212   4.255
 3957SOL    HW112770   4.810   6.220   4.172
 3957SOL    HW212771   4.906   6.120   4.260
 3958SOL     OW12772   6.053   1.397   5.065
 3958SOL    HW112773   6.109   1.331   5.116
 3958SOL    HW212774   6.104   1.430   4.986
 3959SOL     OW12775   4.336   6.734   0.677
 3959SOL    HW112776   4.282   6.673   0.736
 3959SOL    HW212777   4.338   6.826   0.717
 3960SOL     OW12778   5.034   1.844   6.739
 3960SOL    HW112779   4.959   1.900   6.773
 3960SOL    HW212780   5.034   1.845   6.639
 3961SOL     OW12781   5.607   1.926   2.262
 3961SOL    HW112782   5.602   2.024   2.247
 3961SOL    HW212783   5.598   1.878   2.175
 3962SOL     OW12784   2.842   3.945   0.254
 3962SOL    HW112785   2.867   3.861   0.207
 3962SOL    HW212786   2.905   3.961   0.330
 3963SOL     OW12787   4.927   4.913   4.081
 3963SOL    HW112788   4.944   4.989   4.144
 3963SOL    HW212789   4.830   4.911   4.056
 3964SOL     OW12790   4.438   5.046   4.200
 3964SOL    HW112791   4.419   5.063   4.297
 3964SOL    HW212792   4.356   5.062   4.146
 3965SOL     OW12793   5.015   2.780   5.334
 3965SOL    HW112794   4.996   2.858   5.394
 3965SOL    HW212795   4.938   2.716   5.338
 3966SOL     OW12796   4.793   5.917   6.496
 3966SOL    HW112797   4.746   5.980   6.558
 3966SOL    HW212798   4.886   5.901   6.529
 3967SOL     OW12799   2.091   3.647   2.382
 3967SOL    HW112800   2.019   3.598   2.431
 3967SOL    HW212801   2.158   3.583   2.347
 3968SOL     OW12802   4.722   0.353   1.094
 3968SOL    HW112803   4.766   0.344   1.005
 3968SOL    HW212804   4.717   0.264   1.138
 3969SOL     OW12805   1.580   4.644   2.452
 3969SOL    HW112806   1.663   4.692   2.480
 3969SOL    HW212807   1.603   4.553   2.418
 3970SOL     OW12808   6.162   6.258   3.389
 3970SOL    HW112809   6.158   6.200   3.308
 3970SOL    HW212810   6.076   6.310   3.396
 3971SOL     OW12811   3.044   5.459   3.272
 3971SOL    HW112812   3.115   5.470   3.203
 3971SOL    HW212813   3.086   5.450   3.363
 3972SOL     OW12814   1.205   3.972   0.993
 3972SOL    HW112815   1.298   3.989   0.961
 3972SOL    HW212816   1.184   4.032   1.070
 3973SOL     OW12817   1.493   5.339   6.515
 3973SOL    HW112818   1.518   5.311   6.422
 3973SOL    HW212819   1.448   5.428   6.513
 3974SOL     OW12820   1.953   0.172   4.942
 3974SOL    HW112821   1.971   0.161   5.040
 3974SOL    HW212822   1.993   0.259   4.911
 3975SOL     OW12823   4.962   1.553   5.511
 3975SOL    HW112824   5.016   1.482   5.466
 3975SOL    HW212825   4.933   1.520   5.601
 3976SOL     OW12826   1.567   5.864   1.949
 3976SOL    HW112827   1.659   5.868   1.989
 3976SOL    HW212828   1.554   5.942   1.888
 3977SOL     OW12829   2.308   3.666   5.340
 3977SOL    HW112830   2.386   3.613   5.305
 3977SOL    HW212831   2.259   3.706   5.263
 3978SOL     OW12832   5.798   5.063   4.830
 3978SOL    HW112833   5.757   4.996   4.768
 3978SOL    HW212834   5.861   5.017   4.893
 3979SOL     OW12835   2.956   0.100   0.926
 3979SOL    HW112836   2.891   0.025   0.922
 3979SOL    HW212837   3.005   0.097   1.013
 3980SOL     OW12838   5.729   6.110   0.320
 3980SOL    HW112839   5.696   6.026   0.362
 3980SOL    HW212840   5.655   6.153   0.269
 3981SOL     OW12841   2.873   0.693   0.359
 3981SOL    HW112842   2.914   0.631   0.427
 3981SOL    HW212843   2.832   0.639   0.286
 3982SOL     OW12844   2.390   0.333   3.246
 3982SOL    HW112845   2.322   0.327   3.173
 3982SOL    HW212846   2.459   0.262   3.234
 3983SOL     OW12847   5.365   4.654   4.079
 3983SOL    HW112848   5.302   4.705   4.022
 3983SOL    HW212849   5.428   4.601   4.021
 3984SOL     OW12850   6.539   1.380   3.128
 3984SOL    HW112851   6.596   1.320   3.184
 3984SOL    HW212852   6.479   1.324   3.070
 3985SOL     OW12853   2.823   4.458   6.354
 3985SOL    HW112854   2.850   4.385   6.417
 3985SOL    HW212855   2.734   4.436   6.315
 3986SOL     OW12856   4.762   2.058   2.804
 3986SOL    HW112857   4.853   2.078   2.840
 3986SOL    HW212858   4.724   2.140   2.761
 3987SOL     OW12859   3.633   5.115   3.698
 3987SOL    HW112860   3.676   5.057   3.767
 3987SOL    HW212861   3.585   5.191   3.742
 3988SOL     OW12862   3.619   4.204   6.636
 3988SOL    HW112863   3.710   4.196   6.595
 3988SOL    HW212864   3.599   4.121   6.689
 3989SOL     OW12865   6.482   3.039   6.775
 3989SOL    HW112866   6.502   2.944   6.748
 3989SOL    HW212867   6.468   3.043   6.874
 3990SOL     OW12868   4.472   2.112   2.946
 3990SOL    HW112869   4.537   2.172   2.899
 3990SOL    HW212870   4.381   2.123   2.907
 3991SOL     OW12871   5.850   1.027   2.985
 3991SOL    HW112872   5.924   1.059   2.925
 3991SOL    HW212873   5.879   1.031   3.080
 3992SOL     OW12874   2.804   1.849   6.919
 3992SOL    HW112875   2.736   1.797   6.866
 3992SOL    HW212876   2.882   1.790   6.940
 3993SOL     OW12877   1.518   2.033   2.601
 3993SOL    HW112878   1.612   2.001   2.610
 3993SOL    HW212879   1.518   2.128   2.571
 3994SOL     OW12880   1.947   0.362   5.436
 3994SOL    HW112881   1.990   0.439   5.390
 3994SOL    HW212882   1.943   0.283   5.374
 3995SOL     OW12883   2.383   3.695   5.589
 3995SOL    HW112884   2.345   3.678   5.498
 3995SOL    HW212885   2.481   3.675   5.588
 3996SOL     OW12886   1.199   0.197   4.559
 3996SOL    HW112887   1.176   0.263   4.487
 3996SOL    HW212888   1.291   0.161   4.542
 3997SOL     OW12889   5.224   1.616   3.444
 3997SOL    HW112890   5.301   1.678   3.428
 3997SOL    HW212891   5.153   1.664   3.496
 3998SOL     OW12892   4.146   1.428   3.650
 3998SOL    HW112893   4.202   1.383   3.582
 3998SOL    HW212894   4.196   1.436   3.736
 3999SOL     OW12895   5.651   3.458   3.852
 3999SOL    HW112896   5.738   3.422   3.885
 3999SOL    HW212897   5.595   3.486   3.930
 4000SOL     OW12898   3.497   6.638   2.963
 4000SOL    HW112899   3.524   6.605   3.054
 4000SOL    HW212900   3.555   6.715   2.937
 4001SOL     OW12901   2.285   2.075   3.311
 4001SOL    HW112902   2.360   2.128   3.271
 4001SOL    HW212903   2.206   2.078   3.250
 4002SOL     OW12904   3.411   4.296   0.130
 4002SOL    HW112905   3.372   4.308   0.221
 4002SOL    HW212906   3.392   4.204   0.096
 4003SOL     OW12907   3.697   6.911   4.481
 4003SOL    HW112908   3.762   6.971   4.528
 4003SOL    HW212909   3.677   6.949   4.391
 4004SOL     OW12910   5.023   1.759   4.116
 4004SOL    HW112911   5.122   1.751   4.119
 4004SOL    HW212912   4.995   1.799   4.028
 4005SOL     OW12913   5.129   5.091   6.710
 4005SOL    HW112914   5.220   5.114   6.676
 4005SOL    HW212915   5.101   5.160   6.778
 4006SOL     OW12916   4.602   5.335   2.824
 4006SOL    HW112917   4.580   5.313   2.919
 4006SOL    HW212918   4.630   5.431   2.818
 4007SOL     OW12919   6.895   2.602   0.281
 4007SOL    HW112920   6.977   2.650   0.249
 4007SOL    HW212921   6.842   2.663   0.340
 4008SOL     OW12922   3.139   1.640   3.814
 4008SOL    HW112923   3.124   1.708   3.741
 4008SOL    HW212924   3.237   1.630   3.829
 4009SOL     OW12925   4.215   3.232   1.479
 4009SOL    HW112926   4.245   3.184   1.396
 4009SOL    HW212927   4.259   3.321   1.484
 4010SOL     OW12928   2.239   3.557   1.205
 4010SOL    HW112929   2.302   3.635   1.210
 4010SOL    HW212930   2.249   3.501   1.287
 4011SOL     OW12931   0.466   1.418   1.826
 4011SOL    HW112932   0.486   1.430   1.729
 4011SOL    HW212933   0.489   1.325   1.854
 4012SOL     OW12934   5.761   4.608   1.943
 4012SOL    HW112935   5.662   4.616   1.949
 4012SOL    HW212936   5.800   4.597   2.034
 4013SOL     OW12937   3.009   1.485   5.250
 4013SOL    HW112938   2.982   1.464   5.344
 4013SOL    HW212939   3.023   1.399   5.200
 4014SOL     OW12940   5.112   6.440   2.353
 4014SOL    HW112941   5.190   6.495   2.382
 4014SOL    HW212942   5.033   6.459   2.411
 4015SOL     OW12943   5.031   5.000   6.469
 4015SOL    HW112944   5.055   5.052   6.551
 4015SOL    HW212945   5.115   4.964   6.427
 4016SOL     OW12946   2.786   5.808   6.047
 4016SOL    HW112947   2.767   5.744   5.973
 4016SOL    HW212948   2.716   5.797   6.118
 4017SOL     OW12949   0.434   5.935   0.429
 4017SOL    HW112950   0.512   5.922   0.490
 4017SOL    HW212951   0.385   6.018   0.455
 4018SOL     OW12952   4.149   6.329   2.593
 4018SOL    HW112953   4.226   6.328   2.530
 4018SOL    HW212954   4.097   6.244   2.584
 4019SOL     OW12955   5.460   4.262   3.286
 4019SOL    HW112956   5.487   4.186   3.227
 4019SOL    HW212957   5.411   4.330   3.232
 4020SOL     OW12958   4.684   1.550   5.315
 4020SOL    HW112959   4.657   1.455   5.331
 4020SOL    HW212960   4.605   1.610   5.329
 4021SOL     OW12961   4.113   4.860   6.128
 4021SOL    HW112962   4.015   4.841   6.136
 4021SOL    HW212963   4.164   4.775   6.140
 4022SOL     OW12964   4.941   1.277   6.685
 4022SOL    HW112965   4.976   1.209   6.621
 4022SOL    HW212966   4.936   1.237   6.777
 4023SOL     OW12967   6.244   1.474   4.432
 4023SOL    HW112968   6.202   1.563   4.448
 4023SOL    HW212969   6.306   1.479   4.354
 4024SOL     OW12970   3.134   6.775   3.325
 4024SOL    HW112971   3.148   6.688   3.373
 4024SOL    HW212972   3.116   6.757   3.228
 4025SOL     OW12973   0.490   4.509   3.226
 4025SOL    HW112974   0.523   4.599   3.196
 4025SOL    HW212975   0.555   4.439   3.195
 4026SOL     OW12976   5.786   5.909   3.804
 4026SOL    HW112977   5.708   5.854   3.835
 4026SOL    HW212978   5.837   5.858   3.734
 4027SOL     OW12979   3.725   4.160   1.787
 4027SOL    HW112980   3.691   4.235   1.731
 4027SOL    HW212981   3.754   4.084   1.729
 4028SOL     OW12982   1.848   2.394   4.420
 4028SOL    HW112983   1.828   2.298   4.399
 4028SOL    HW212984   1.768   2.436   4.463
 4029SOL     OW12985   2.703   4.045   5.858
 4029SOL    HW112986   2.704   4.110   5.934
 4029SOL    HW212987   2.629   4.068   5.795
 4030SOL     OW12988   0.766   2.440   5.763
 4030SOL    HW112989   0.823   2.517   5.734
 4030SOL    HW212990   0.819   2.355   5.756
 4031SOL     OW12991   5.152   5.467   3.813
 4031SOL    HW112992   5.194   5.524   3.743
 4031SOL    HW212993   5.058   5.445   3.787
 4032SOL     OW12994   6.554   6.299   4.332
 4032SOL    HW112995   6.567   6.279   4.235
 4032SOL    HW212996   6.619   6.246   4.386
 4033SOL     OW12997   3.207   3.072   4.400
 4033SOL    HW112998   3.287   3.068   4.340
 4033SOL    HW212999   3.131   3.114   4.351
 4034SOL     OW13000   6.073   1.407   4.629
 4034SOL    HW113001   6.139   1.405   4.553
 4034SOL    HW213002   5.991   1.457   4.600
 4035SOL     OW13003   0.352   4.483   0.045
 4035SOL    HW113004   0.263   4.454   0.078
 4035SOL    HW213005   0.417   4.407   0.049
 4036SOL     OW13006   5.696   6.195   2.609
 4036SOL    HW113007   5.668   6.116   2.555
 4036SOL    HW213008   5.749   6.165   2.689
 4037SOL     OW13009   1.279   3.224   6.228
 4037SOL    HW113010   1.216   3.199   6.302
 4037SOL    HW213011   1.295   3.144   6.170
 4038SOL     OW13012   4.819   4.664   2.740
 4038SOL    HW113013   4.903   4.652   2.792
 4038SOL    HW213014   4.831   4.627   2.648
 4039SOL     OW13015   5.134   5.956   0.007
 4039SOL    HW113016   5.147   5.860   0.030
 4039SOL    HW213017   5.204   6.011   0.052
 4040SOL     OW13018   2.845   0.327   1.045
 4040SOL    HW113019   2.890   0.361   1.128
 4040SOL    HW213020   2.891   0.244   1.014
 4041SOL     OW13021   0.851   6.083   2.816
 4041SOL    HW113022   0.865   6.118   2.909
 4041SOL    HW213023   0.940   6.066   2.773
 4042SOL     OW13024   5.980   5.277   2.474
 4042SOL    HW113025   5.919   5.204   2.443
 4042SOL    HW213026   6.070   5.266   2.430
 4043SOL     OW13027   4.850   1.884   2.444
 4043SOL    HW113028   4.759   1.844   2.433
 4043SOL    HW213029   4.855   1.932   2.531
 4044SOL     OW13030   5.697   0.572   3.345
 4044SOL    HW113031   5.719   0.655   3.293
 4044SOL    HW213032   5.735   0.492   3.299
 4045SOL     OW13033   2.344   4.527   6.980
 4045SOL    HW113034   2.254   4.498   6.946
 4045SOL    HW213035   2.337   4.547   0.059
 4046SOL     OW13036   1.080   1.811   2.244
 4046SOL    HW113037   1.162   1.830   2.192
 4046SOL    HW213038   1.023   1.894   2.247
 4047SOL     OW13039   2.921   3.632   1.673
 4047SOL    HW113040   2.848   3.677   1.622
 4047SOL    HW213041   2.883   3.557   1.727
 4048SOL     OW13042   5.591   0.748   1.228
 4048SOL    HW113043   5.560   0.719   1.318
 4048SOL    HW213044   5.513   0.771   1.170
 4049SOL     OW13045   5.803   6.684   5.911
 4049SOL    HW113046   5.789   6.585   5.908
 4049SOL    HW213047   5.853   6.714   5.830
 4050SOL     OW13048   1.743   6.507   0.128
 4050SOL    HW113049   1.793   6.563   0.062
 4050SOL    HW213050   1.716   6.565   0.206
 4051SOL     OW13051   2.887   4.674   0.412
 4051SOL    HW113052   2.891   4.592   0.470
 4051SOL    HW213053   2.978   4.714   0.406
 4052SOL     OW13054   0.875   0.507   0.325
 4052SOL    HW113055   0.831   0.568   0.391
 4052SOL    HW213056   0.924   0.435   0.374
 4053SOL     OW13057   3.204   5.203   3.848
 4053SOL    HW113058   3.237   5.108   3.847
 4053SOL    HW213059   3.266   5.259   3.903
 4054SOL     OW13060   2.992   2.730   0.588
 4054SOL    HW113061   2.966   2.693   0.499
 4054SOL    HW213062   2.931   2.694   0.659
 4055SOL     OW13063   2.747   2.501   6.260
 4055SOL    HW113064   2.729   2.404   6.248
 4055SOL    HW213065   2.683   2.539   6.327
 4056SOL     OW13066   3.795   3.242   6.944
 4056SOL    HW113067   3.863   3.310   6.919
 4056SOL    HW213068   3.762   3.260   0.018
 4057SOL     OW13069   4.788   3.364   0.208
 4057SOL    HW113070   4.811   3.445   0.155
 4057SOL    HW213071   4.763   3.289   0.147
 4058SOL     OW13072   2.516   1.422   4.700
 4058SOL    HW113073   2.419   1.428   4.722
 4058SOL    HW213074   2.568   1.398   4.782
 4059SOL     OW13075   2.035   2.021   4.716
 4059SOL    HW113076   2.074   1.936   4.682
 4059SOL    HW213077   2.047   2.093   4.647
 4060SOL     OW13078   4.071   4.815   4.200
 4060SOL    HW113079   4.086   4.772   4.111
 4060SOL    HW213080   4.051   4.912   4.187
 4061SOL     OW13081   3.469   4.383   1.681
 4061SOL    HW113082   3.519   4.432   1.752
 4061SOL    HW213083   3.423   4.449   1.620
 4062SOL     OW13084   3.444   1.156   2.419
 4062SOL    HW113085   3.375   1.089   2.390
 4062SOL    HW213086   3.535   1.117   2.410
 4063SOL     OW13087   2.976   6.049   5.699
 4063SOL    HW113088   2.987   5.958   5.658
 4063SOL    HW213089   2.911   6.043   5.775
 4064SOL     OW13090   1.204   0.210   2.756
 4064SOL    HW113091   1.174   0.137   2.818
 4064SOL    HW213092   1.258   0.277   2.806
 4065SOL     OW13093   0.408   6.607   0.898
 4065SOL    HW113094   0.367   6.667   0.966
 4065SOL    HW213095   0.503   6.586   0.924
 4066SOL     OW13096   5.665   3.869   1.753
 4066SOL    HW113097   5.585   3.914   1.714
 4066SOL    HW213098   5.701   3.925   1.828
 4067SOL     OW13099   5.368   1.810   2.893
 4067SOL    HW113100   5.399   1.905   2.903
 4067SOL    HW213101   5.415   1.768   2.816
 4068SOL     OW13102   5.326   0.684   4.727
 4068SOL    HW113103   5.413   0.696   4.775
 4068SOL    HW213104   5.341   0.628   4.646
 4069SOL     OW13105   5.437   5.040   0.601
 4069SOL    HW113106   5.519   4.984   0.617
 4069SOL    HW213107   5.461   5.137   0.609
 4070SOL     OW13108   2.428   4.318   2.980
 4070SOL    HW113109   2.470   4.364   2.901
 4070SOL    HW213110   2.384   4.234   2.949
 4071SOL     OW13111   1.479   0.786   5.049
 4071SOL    HW113112   1.512   0.804   5.141
 4071SOL    HW213113   1.382   0.810   5.043
 4072SOL     OW13114   1.456   0.098   4.519
 4072SOL    HW113115   1.495   0.185   4.551
 4072SOL    HW213116   1.523   0.025   4.531
 4073SOL     OW13117   2.617   5.535   6.063
 4073SOL    HW113118   2.542   5.476   6.035
 4073SOL    HW213119   2.702   5.483   6.066
 4074SOL     OW13120   0.686   2.306   1.257
 4074SOL    HW113121   0.660   2.214   1.287
 4074SOL    HW213122   0.772   2.302   1.206
 4075SOL     OW13123   4.255   1.533   2.812
 4075SOL    HW113124   4.197   1.453   2.828
 4075SOL    HW213125   4.340   1.523   2.864
 4076SOL     OW13126   2.064   3.365   5.179
 4076SOL    HW113127   2.057   3.429   5.102
 4076SOL    HW213128   2.144   3.387   5.233
 4077SOL     OW13129   3.651   0.127   0.136
 4077SOL    HW113130   3.621   0.222   0.146
 4077SOL    HW213131   3.724   0.108   0.201
 4078SOL     OW13132   6.372   4.241   1.314
 4078SOL    HW113133   6.307   4.170   1.286
 4078SOL    HW213134   6.359   4.323   1.257
 4079SOL     OW13135   0.867   1.004   3.979
 4079SOL    HW113136   0.893   0.922   4.029
 4079SOL    HW213137   0.777   0.991   3.937
 4080SOL     OW13138   3.325   3.816   1.434
 4080SOL    HW113139   3.244   3.856   1.392
 4080SOL    HW213140   3.323   3.716   1.424
 4081SOL     OW13141   2.132   1.364   5.261
 4081SOL    HW113142   2.144   1.442   5.200
 4081SOL    HW213143   2.073   1.297   5.218
 4082SOL     OW13144   0.795   2.732   4.992
 4082SOL    HW113145   0.753   2.821   4.979
 4082SOL    HW213146   0.725   2.663   5.009
 4083SOL     OW13147   5.945   4.698   3.493
 4083SOL    HW113148   6.016   4.696   3.563
 4083SOL    HW213149   5.882   4.622   3.507
 4084SOL     OW13150   4.182   2.042   3.119
 4084SOL    HW113151   4.225   2.125   3.083
 4084SOL    HW213152   4.241   2.002   3.190
 4085SOL     OW13153   3.456   5.749   1.573
 4085SOL    HW113154   3.386   5.803   1.526
 4085SOL    HW213155   3.476   5.790   1.662
 4086SOL     OW13156   6.383   5.405   6.373
 4086SOL    HW113157   6.390   5.305   6.373
 4086SOL    HW213158   6.433   5.442   6.294
 4087SOL     OW13159   2.407   6.709   2.212
 4087SOL    HW113160   2.436   6.803   2.196
 4087SOL    HW213161   2.450   6.675   2.296
 4088SOL     OW13162   6.984   1.117   5.680
 4088SOL    HW113163   0.021   1.110   5.597
 4088SOL    HW213164   7.013   1.198   5.733
 4089SOL     OW13165   0.036   6.569   3.704
 4089SOL    HW113166   6.962   6.564   3.668
 4089SOL    HW213167   0.032   6.578   3.804
 4090SOL     OW13168   2.186   6.439   5.035
 4090SOL    HW113169   2.268   6.430   5.093
 4090SOL    HW213170   2.188   6.527   4.988
 4091SOL     OW13171   1.998   5.436   1.164
 4091SOL    HW113172   1.920   5.476   1.117
 4091SOL    HW213173   2.074   5.423   1.100
 4092SOL     OW13174   5.118   3.166   4.504
 4092SOL    HW113175   5.073   3.185   4.591
 4092SOL    HW213176   5.086   3.230   4.435
 4093SOL     OW13177   5.601   5.603   2.703
 4093SOL    HW113178   5.616   5.656   2.786
 4093SOL    HW213179   5.689   5.578   2.662
 4094SOL     OW13180   0.299   5.455   6.597
 4094SOL    HW113181   0.321   5.523   6.667
 4094SOL    HW213182   0.367   5.382   6.598
 4095SOL     OW13183   0.284   4.508   0.332
 4095SOL    HW113184   0.336   4.573   0.277
 4095SOL    HW213185   0.281   4.419   0.286
 4096SOL     OW13186   1.817   1.834   6.834
 4096SOL    HW113187   1.774   1.860   6.748
 4096SOL    HW213188   1.746   1.824   6.904
 4097SOL     OW13189   0.067   4.466   5.358
 4097SOL    HW113190   0.063   4.558   5.320
 4097SOL    HW213191   0.148   4.418   5.322
 4098SOL     OW13192   2.457   4.987   2.601
 4098SOL    HW113193   2.474   5.004   2.698
 4098SOL    HW213194   2.369   4.940   2.590
 4099SOL     OW13195   4.587   4.116   6.005
 4099SOL    HW113196   4.630   4.167   6.080
 4099SOL    HW213197   4.584   4.019   6.029
 4100SOL     OW13198   1.316   0.472   3.712
 4100SOL    HW113199   1.319   0.559   3.760
 4100SOL    HW213200   1.299   0.398   3.777
 4101SOL     OW13201   6.422   0.434   0.245
 4101SOL    HW113202   6.406   0.481   0.158
 4101SOL    HW213203   6.491   0.363   0.233
 4102SOL     OW13204   1.926   0.626   0.072
 4102SOL    HW113205   1.856   0.567   0.033
 4102SOL    HW213206   1.901   0.722   0.056
 4103SOL     OW13207   1.270   6.852   2.180
 4103SOL    HW113208   1.251   6.759   2.150
 4103SOL    HW213209   1.359   6.881   2.143
 4104SOL     OW13210   0.325   5.705   3.085
 4104SOL    HW113211   0.237   5.715   3.132
 4104SOL    HW213212   0.319   5.632   3.018
 4105SOL     OW13213   4.588   1.139   1.006
 4105SOL    HW113214   4.672   1.114   0.958
 4105SOL    HW213215   4.594   1.109   1.101
 4106SOL     OW13216   0.038   1.971   3.571
 4106SOL    HW113217   0.111   2.039   3.567
 4106SOL    HW213218   0.063   1.900   3.637
 4107SOL     OW13219   0.301   6.199   6.254
 4107SOL    HW113220   0.375   6.135   6.279
 4107SOL    HW213221   0.231   6.198   6.325
 4108SOL     OW13222   0.149   5.174   4.076
 4108SOL    HW113223   0.210   5.235   4.127
 4108SOL    HW213224   0.127   5.215   3.988
 4109SOL     OW13225   6.217   5.692   3.397
 4109SOL    HW113226   6.139   5.747   3.368
 4109SOL    HW213227   6.248   5.723   3.486
 4110SOL     OW13228   4.848   3.581   0.071
 4110SOL    HW113229   4.947   3.582   0.054
 4110SOL    HW213230   4.823   3.664   0.122
 4111SOL     OW13231   6.758   3.777   5.515
 4111SOL    HW113232   6.669   3.757   5.474
 4111SOL    HW213233   6.804   3.692   5.539
 4112SOL     OW13234   4.611   7.012   4.828
 4112SOL    HW113235   4.633   6.973   4.739
 4112SOL    HW213236   4.587   6.939   4.892
 4113SOL     OW13237   4.732   4.129   4.686
 4113SOL    HW113238   4.700   4.171   4.770
 4113SOL    HW213239   4.701   4.183   4.607
 4114SOL     OW13240   6.288   1.323   3.331
 4114SOL    HW113241   6.372   1.364   3.366
 4114SOL    HW213242   6.306   1.279   3.243
 4115SOL     OW13243   2.753   5.137   3.644
 4115SOL    HW113244   2.732   5.111   3.738
 4115SOL    HW213245   2.718   5.069   3.581
 4116SOL     OW13246   5.852   2.853   3.075
 4116SOL    HW113247   5.758   2.819   3.081
 4116SOL    HW213248   5.910   2.800   3.137
 4117SOL     OW13249   1.366   2.584   2.341
 4117SOL    HW113250   1.460   2.586   2.306
 4117SOL    HW213251   1.352   2.661   2.404
 4118SOL     OW13252   6.658   6.200   6.500
 4118SOL    HW113253   6.749   6.243   6.497
 4118SOL    HW213254   6.592   6.260   6.455
 4119SOL     OW13255   2.212   0.853   3.204
 4119SOL    HW113256   2.253   0.853   3.113
 4119SOL    HW213257   2.269   0.907   3.266
 4120SOL     OW13258   1.914   1.498   6.328
 4120SOL    HW113259   1.839   1.493   6.394
 4120SOL    HW213260   1.941   1.406   6.300
 4121SOL     OW13261   7.002   6.747   2.734
 4121SOL    HW113262   6.962   6.763   2.644
 4121SOL    HW213263   0.016   6.653   2.740
 4122SOL     OW13264   0.544   5.547   4.461
 4122SOL    HW113265   0.568   5.636   4.500
 4122SOL    HW213266   0.445   5.533   4.468
 4123SOL     OW13267   3.987   4.853   2.769
 4123SOL    HW113268   4.065   4.914   2.756
 4123SOL    HW213269   3.911   4.884   2.713
 4124SOL     OW13270   6.552   6.377   0.945
 4124SOL    HW113271   6.633   6.424   0.980
 4124SOL    HW213272   6.566   6.352   0.849
 4125SOL     OW13273   5.302   2.445   2.013
 4125SOL    HW113274   5.284   2.511   2.086
 4125SOL    HW213275   5.398   2.420   2.013
 4126SOL     OW13276   1.323   2.911   2.289
 4126SOL    HW113277   1.230   2.896   2.254
 4126SOL    HW213278   1.335   3.008   2.310
 4127SOL     OW13279   3.587   2.065   4.216
 4127SOL    HW113280   3.681   2.096   4.229
 4127SOL    HW213281   3.584   1.965   4.222
 4128SOL     OW13282   0.431   3.405   1.403
 4128SOL    HW113283   0.524   3.428   1.375
 4128SOL    HW213284   0.380   3.488   1.424
 4129SOL     OW13285   2.766   3.062   1.035
 4129SOL    HW113286   2.688   3.113   0.998
 4129SOL    HW213287   2.793   2.990   0.971
 4130SOL     OW13288   6.121   2.858   1.285
 4130SOL    HW113289   6.098   2.831   1.379
 4130SOL    HW213290   6.219   2.873   1.278
 4131SOL     OW13291   5.023   0.627   2.074
 4131SOL    HW113292   4.986   0.535   2.063
 4131SOL    HW213293   5.082   0.630   2.155
 4132SOL     OW13294   6.630   4.036   4.695
 4132SOL    HW113295   6.622   4.130   4.661
 4132SOL    HW213296   6.706   4.031   4.759
 4133SOL     OW13297   6.162   6.718   1.615
 4133SOL    HW113298   6.133   6.726   1.710
 4133SOL    HW213299   6.110   6.647   1.569
 4134SOL     OW13300   2.439   2.872   1.497
 4134SOL    HW113301   2.415   2.784   1.457
 4134SOL    HW213302   2.360   2.933   1.495
 4135SOL     OW13303   0.053   1.747   3.162
 4135SOL    HW113304   7.010   1.674   3.190
 4135SOL    HW213305   0.148   1.717   3.172
 4136SOL     OW13306   0.917   4.194   1.893
 4136SOL    HW113307   0.941   4.099   1.872
 4136SOL    HW213308   0.832   4.217   1.848
 4137SOL     OW13309   1.653   2.577   0.705
 4137SOL    HW113310   1.703   2.643   0.763
 4137SOL    HW213311   1.719   2.524   0.652
 4138SOL     OW13312   4.750   6.323   1.182
 4138SOL    HW113313   4.833   6.315   1.238
 4138SOL    HW213314   4.677   6.364   1.237
 4139SOL     OW13315   1.835   1.930   3.170
 4139SOL    HW113316   1.791   1.941   3.259
 4139SOL    HW213317   1.927   1.969   3.173
 4140SOL     OW13318   2.712   2.258   4.208
 4140SOL    HW113319   2.616   2.242   4.184
 4140SOL    HW213320   2.744   2.186   4.270
 4141SOL     OW13321   3.925   0.059   6.756
 4141SOL    HW113322   4.007   0.042   6.810
 4141SOL    HW213323   3.911   7.003   6.691
 4142SOL     OW13324   0.135   4.339   2.663
 4142SOL    HW113325   0.180   4.417   2.707
 4142SOL    HW213326   0.145   4.258   2.719
 4143SOL     OW13327   5.655   3.508   0.927
 4143SOL    HW113328   5.567   3.460   0.932
 4143SOL    HW213329   5.730   3.442   0.929
 4144SOL     OW13330   5.750   1.726   0.463
 4144SOL    HW113331   5.743   1.824   0.482
 4144SOL    HW213332   5.692   1.703   0.385
 4145SOL     OW13333   0.511   6.344   0.313
 4145SOL    HW113334   0.423   6.361   0.358
 4145SOL    HW213335   0.582   6.401   0.354
 4146SOL     OW13336   5.637   6.516   3.211
 4146SOL    HW113337   5.625   6.440   3.147
 4146SOL    HW213338   5.660   6.599   3.160
 4147SOL     OW13339   4.846   4.217   5.568
 4147SOL    HW113340   4.761   4.201   5.619
 4147SOL    HW213341   4.881   4.130   5.534
 4148SOL     OW13342   2.637   0.597   5.040
 4148SOL    HW113343   2.640   0.693   5.070
 4148SOL    HW213344   2.600   0.541   5.114
 4149SOL     OW13345   1.746   2.791   0.817
 4149SOL    HW113346   1.844   2.810   0.808
 4149SOL    HW213347   1.715   2.820   0.907
 4150SOL     OW13348   6.235   2.589   6.448
 4150SOL    HW113349   6.137   2.578   6.435
 4150SOL    HW213350   6.276   2.630   6.367
 4151SOL     OW13351   1.854   0.030   4.531
 4151SOL    HW113352   1.764   7.005   4.533
 4151SOL    HW213353   1.904   0.007   4.615
 4152SOL     OW13354   3.854   5.643   1.763
 4152SOL    HW113355   3.804   5.589   1.695
 4152SOL    HW213356   3.944   5.666   1.727
 4153SOL     OW13357   6.560   4.865   1.693
 4153SOL    HW113358   6.635   4.928   1.669
 4153SOL    HW213359   6.593   4.771   1.683
 4154SOL     OW13360   0.666   5.764   3.955
 4154SOL    HW113361   0.601   5.771   3.879
 4154SOL    HW213362   0.737   5.697   3.932
 4155SOL     OW13363   1.135   2.173   1.683
 4155SOL    HW113364   1.172   2.198   1.593
 4155SOL    HW213365   1.099   2.081   1.679
 4156SOL     OW13366   6.746   4.519   4.943
 4156SOL    HW113367   6.666   4.543   4.998
 4156SOL    HW213368   6.732   4.549   4.849
 4157SOL     OW13369   6.700   6.877   2.165
 4157SOL    HW113370   6.611   6.853   2.127
 4157SOL    HW213371   6.770   6.816   2.127
 4158SOL     OW13372   1.822   2.781   1.789
 4158SOL    HW113373   1.807   2.714   1.861
 4158SOL    HW213374   1.917   2.812   1.790
 4159SOL     OW13375   2.885   1.630   2.970
 4159SOL    HW113376   2.859   1.721   3.004
 4159SOL    HW213377   2.892   1.633   2.870
 4160SOL     OW13378   0.151   6.737   6.889
 4160SOL    HW113379   0.175   6.802   6.961
 4160SOL    HW213380   0.052   6.731   6.881
 4161SOL     OW13381   2.385   1.726   1.661
 4161SOL    HW113382   2.416   1.803   1.717
 4161SOL    HW213383   2.387   1.753   1.564
 4162SOL     OW13384   6.385   6.039   1.298
 4162SOL    HW113385   6.377   6.105   1.224
 4162SOL    HW213386   6.466   6.059   1.354
 4163SOL     OW13387   4.649   6.516   1.582
 4163SOL    HW113388   4.579   6.469   1.528
 4163SOL    HW213389   4.691   6.452   1.645
 4164SOL     OW13390   0.278   6.053   5.182
 4164SOL    HW113391   0.344   5.989   5.222
 4164SOL    HW213392   0.315   6.146   5.185
 4165SOL     OW13393   4.128   1.252   5.859
 4165SOL    HW113394   4.095   1.336   5.902
 4165SOL    HW213395   4.059   1.180   5.870
 4166SOL     OW13396   5.676   0.612   2.935
 4166SOL    HW113397   5.753   0.568   2.888
 4166SOL    HW213398   5.711   0.681   2.998
 4167SOL     OW13399   2.829   5.002   5.728
 4167SOL    HW113400   2.830   4.989   5.827
 4167SOL    HW213401   2.793   4.919   5.684
 4168SOL     OW13402   6.693   4.727   0.331
 4168SOL    HW113403   6.789   4.731   0.303
 4168SOL    HW213404   6.677   4.643   0.382
 4169SOL     OW13405   5.059   4.043   5.323
 4169SOL    HW113406   5.108   4.025   5.408
 4169SOL    HW213407   5.059   3.960   5.266
 4170SOL     OW13408   4.870   2.969   4.627
 4170SOL    HW113409   4.787   3.022   4.608
 4170SOL    HW213410   4.857   2.917   4.711
 4171SOL     OW13411   1.511   3.670   1.135
 4171SOL    HW113412   1.488   3.694   1.041
 4171SOL    HW213413   1.504   3.570   1.146
 4172SOL     OW13414   3.342   3.456   0.856
 4172SOL    HW113415   3.320   3.475   0.760
 4172SOL    HW213416   3.380   3.539   0.898
 4173SOL     OW13417   4.438   2.903   5.370
 4173SOL    HW113418   4.445   2.808   5.339
 4173SOL    HW213419   4.376   2.908   5.448
 4174SOL     OW13420   4.526   0.217   3.926
 4174SOL    HW113421   4.509   0.287   3.995
 4174SOL    HW213422   4.608   0.165   3.951
 4175SOL     OW13423   1.871   4.575   6.267
 4175SOL    HW113424   1.911   4.520   6.194
 4175SOL    HW213425   1.774   4.554   6.277
 4176SOL     OW13426   5.157   6.279   0.087
 4176SOL    HW113427   5.199   6.194   0.119
 4176SOL    HW213428   5.188   6.298   7.012
 4177SOL     OW13429   5.020   4.674   4.924
 4177SOL    HW113430   5.113   4.658   4.956
 4177SOL    HW213431   5.011   4.769   4.892
 4178SOL     OW13432   4.312   6.677   2.694
 4178SOL    HW113433   4.223   6.662   2.650
 4178SOL    HW213434   4.385   6.664   2.627
 4179SOL     OW13435   5.458   3.063   4.077
 4179SOL    HW113436   5.552   3.040   4.050
 4179SOL    HW213437   5.431   3.008   4.156
 4180SOL     OW13438   5.590   3.648   0.700
 4180SOL    HW113439   5.499   3.615   0.671
 4180SOL    HW213440   5.613   3.606   0.788
 4181SOL     OW13441   5.277   0.413   6.096
 4181SOL    HW113442   5.192   0.375   6.132
 4181SOL    HW213443   5.333   0.447   6.171
 4182SOL     OW13444   0.680   6.074   3.756
 4182SOL    HW113445   0.746   6.002   3.732
 4182SOL    HW213446   0.713   6.124   3.835
 4183SOL     OW13447   2.182   1.145   1.344
 4183SOL    HW113448   2.102   1.165   1.400
 4183SOL    HW213449   2.254   1.212   1.362
 4184SOL     OW13450   3.729   0.506   2.085
 4184SOL    HW113451   3.646   0.561   2.096
 4184SOL    HW213452   3.705   0.409   2.086
 4185SOL     OW13453   0.555   3.800   3.778
 4185SOL    HW113454   0.457   3.784   3.777
 4185SOL    HW213455   0.602   3.716   3.751
 4186SOL     OW13456   2.185   5.753   6.709
 4186SOL    HW113457   2.140   5.735   6.796
 4186SOL    HW213458   2.116   5.779   6.641
 4187SOL     OW13459   2.233   3.492   0.020
 4187SOL    HW113460   2.261   3.398   0.003
 4187SOL    HW213461   2.252   3.548   6.958
 4188SOL     OW13462   5.523   0.743   5.432
 4188SOL    HW113463   5.590   0.790   5.490
 4188SOL    HW213464   5.517   0.788   5.344
 4189SOL     OW13465   4.695   5.311   3.652
 4189SOL    HW113466   4.627   5.346   3.587
 4189SOL    HW213467   4.775   5.370   3.652
 4190SOL     OW13468   0.542   6.324   0.920
 4190SOL    HW113469   0.449   6.289   0.912
 4190SOL    HW213470   0.551   6.379   1.003
 4191SOL     OW13471   5.318   3.786   6.513
 4191SOL    HW113472   5.353   3.850   6.581
 4191SOL    HW213473   5.330   3.692   6.546
 4192SOL     OW13474   0.886   1.609   2.413
 4192SOL    HW113475   0.937   1.675   2.468
 4192SOL    HW213476   0.815   1.656   2.362
 4193SOL     OW13477   5.669   0.402   0.019
 4193SOL    HW113478   5.621   0.334   6.983
 4193SOL    HW213479   5.767   0.388   0.011
 4194SOL     OW13480   4.093   0.551   5.287
 4194SOL    HW113481   4.124   0.495   5.364
 4194SOL    HW213482   4.134   0.516   5.203
 4195SOL     OW13483   4.406   6.616   1.780
 4195SOL    HW113484   4.470   6.657   1.714
 4195SOL    HW213485   4.395   6.519   1.760
 4196SOL     OW13486   6.956   2.725   3.882
 4196SOL    HW113487   7.010   2.675   3.950
 4196SOL    HW213488   7.012   2.740   3.800
 4197SOL     OW13489   3.994   6.081   5.580
 4197SOL    HW113490   3.944   5.994   5.582
 4197SOL    HW213491   4.020   6.103   5.486
 4198SOL     OW13492   6.377   0.362   2.414
 4198SOL    HW113493   6.385   0.414   2.329
 4198SOL    HW213494   6.289   0.314   2.415
 4199SOL     OW13495   1.503   3.391   6.344
 4199SOL    HW113496   1.477   3.487   6.329
 4199SOL    HW213497   1.422   3.333   6.339
 4200SOL     OW13498   3.611   1.036   5.503
 4200SOL    HW113499   3.582   0.963   5.440
 4200SOL    HW213500   3.685   1.089   5.462
 4201SOL     OW13501   6.074   6.540   3.766
 4201SOL    HW113502   6.172   6.557   3.755
 4201SOL    HW213503   6.027   6.552   3.679
 4202SOL     OW13504   3.166   5.261   6.416
 4202SOL    HW113505   3.133   5.337   6.361
 4202SOL    HW213506   3.239   5.213   6.367
 4203SOL     OW13507   4.800   4.837   0.426
 4203SOL    HW113508   4.817   4.814   0.330
 4203SOL    HW213509   4.829   4.931   0.444
 4204SOL     OW13510   3.870   3.353   5.482
 4204SOL    HW113511   3.791   3.406   5.450
 4204SOL    HW213512   3.937   3.414   5.524
 4205SOL     OW13513   3.665   5.360   5.247
 4205SOL    HW113514   3.625   5.339   5.336
 4205SOL    HW213515   3.616   5.309   5.176
 4206SOL     OW13516   0.826   1.335   4.986
 4206SOL    HW113517   0.754   1.320   5.053
 4206SOL    HW213518   0.880   1.251   4.976
 4207SOL     OW13519   1.959   2.377   1.457
 4207SOL    HW113520   1.938   2.403   1.551
 4207SOL    HW213521   2.023   2.443   1.417
 4208SOL     OW13522   1.113   3.982   5.448
 4208SOL    HW113523   1.180   3.909   5.433
 4208SOL    HW213524   1.137   4.034   5.530
 4209SOL     OW13525   6.320   5.705   2.995
 4209SOL    HW113526   6.252   5.671   2.931
 4209SOL    HW213527   6.327   5.805   2.986
 4210SOL     OW13528   4.061   3.160   3.962
 4210SOL    HW113529   4.155   3.141   3.935
 4210SOL    HW213530   3.998   3.107   3.905
 4211SOL     OW13531   3.539   1.771   5.576
 4211SOL    HW113532   3.605   1.846   5.585
 4211SOL    HW213533   3.450   1.807   5.549
 4212SOL     OW13534   6.787   1.392   3.995
 4212SOL    HW113535   6.754   1.299   3.981
 4212SOL    HW213536   6.715   1.457   3.972
 4213SOL     OW13537   2.658   1.060   3.699
 4213SOL    HW113538   2.695   1.011   3.620
 4213SOL    HW213539   2.725   1.060   3.773
 4214SOL     OW13540   0.484   5.634   4.786
 4214SOL    HW113541   0.497   5.679   4.698
 4214SOL    HW213542   0.558   5.569   4.802
 4215SOL     OW13543   4.962   0.076   5.387
 4215SOL    HW113544   4.883   0.137   5.376
 4215SOL    HW213545   4.997   0.085   5.480
 4216SOL     OW13546   1.235   1.179   2.610
 4216SOL    HW113547   1.278   1.089   2.596
 4216SOL    HW213548   1.240   1.231   2.525
 4217SOL     OW13549   1.051   7.016   1.813
 4217SOL    HW113550   1.039   6.935   1.757
 4217SOL    HW213551   1.143   7.015   1.854
 4218SOL     OW13552   3.262   0.918   1.111
 4218SOL    HW113553   3.169   0.954   1.104
 4218SOL    HW213554   3.264   0.824   1.079
 4219SOL     OW13555   4.492   6.414   4.444
 4219SOL    HW113556   4.419   6.349   4.458
 4219SOL    HW213557   4.564   6.399   4.512
 4220SOL     OW13558   5.693   2.412   2.249
 4220SOL    HW113559   5.745   2.480   2.300
 4220SOL    HW213560   5.611   2.455   2.212
 4221SOL     OW13561   6.667   4.615   6.717
 4221SOL    HW113562   6.600   4.590   6.787
 4221SOL    HW213563   6.723   4.535   6.695
 4222SOL     OW13564   5.440   1.788   3.345
 4222SOL    HW113565   5.527   1.749   3.314
 4222SOL    HW213566   5.445   1.888   3.343
 4223SOL     OW13567   3.651   3.692   0.934
 4223SOL    HW113568   3.747   3.721   0.929
 4223SOL    HW213569   3.641   3.622   1.005
 4224SOL     OW13570   5.296   4.577   4.908
 4224SOL    HW113571   5.319   4.591   4.812
 4224SOL    HW213572   5.365   4.620   4.966
 4225SOL     OW13573   1.690   1.814   5.649
 4225SOL    HW113574   1.692   1.914   5.654
 4225SOL    HW213575   1.597   1.781   5.667
 4226SOL     OW13576   1.411   6.508   3.838
 4226SOL    HW113577   1.511   6.512   3.840
 4226SOL    HW213578   1.382   6.438   3.773
 4227SOL     OW13579   4.763   6.008   1.717
 4227SOL    HW113580   4.732   5.913   1.714
 4227SOL    HW213581   4.828   6.025   1.642
 4228SOL     OW13582   0.864   6.267   4.962
 4228SOL    HW113583   0.843   6.180   4.918
 4228SOL    HW213584   0.862   6.341   4.894
 4229SOL     OW13585   4.566   6.128   5.632
 4229SOL    HW113586   4.535   6.049   5.579
 4229SOL    HW213587   4.550   6.111   5.729
 4230SOL     OW13588   0.669   6.336   2.967
 4230SOL    HW113589   0.699   6.421   2.925
 4230SOL    HW213590   0.733   6.311   3.040
 4231SOL     OW13591   4.822   0.599   5.377
 4231SOL    HW113592   4.795   0.544   5.298
 4231SOL    HW213593   4.913   0.637   5.361
 4232SOL     OW13594   2.007   5.593   3.815
 4232SOL    HW113595   2.084   5.643   3.774
 4232SOL    HW213596   2.037   5.550   3.900
 4233SOL     OW13597   0.406   6.893   4.285
 4233SOL    HW113598   0.453   6.976   4.317
 4233SOL    HW213599   0.450   6.859   4.203
 4234SOL     OW13600   2.021   5.149   5.326
 4234SOL    HW113601   2.078   5.229   5.307
 4234SOL    HW213602   1.931   5.162   5.285
 4235SOL     OW13603   6.343   4.751   5.520
 4235SOL    HW113604   6.302   4.784   5.605
 4235SOL    HW213605   6.300   4.798   5.443
 4236SOL     OW13606   0.277   4.557   1.656
 4236SOL    HW113607   0.348   4.502   1.611
 4236SOL    HW213608   0.247   4.510   1.739
 4237SOL     OW13609   6.648   4.201   4.228
 4237SOL    HW113610   6.730   4.234   4.276
 4237SOL    HW213611   6.619   4.114   4.270
 4238SOL     OW13612   0.989   1.039   3.414
 4238SOL    HW113613   0.998   1.097   3.495
 4238SOL    HW213614   0.914   1.071   3.357
 4239SOL     OW13615   4.226   1.195   2.296
 4239SOL    HW113616   4.185   1.245   2.220
 4239SOL    HW213617   4.202   1.239   2.383
 4240SOL     OW13618   2.093   4.896   0.042
 4240SOL    HW113619   2.100   4.886   6.961
 4240SOL    HW213620   2.048   4.816   0.081
 4241SOL     OW13621   5.851   1.558   0.202
 4241SOL    HW113622   5.911   1.636   0.218
 4241SOL    HW213623   5.898   1.491   0.143
 4242SOL     OW13624   2.113   1.987   4.154
 4242SOL    HW113625   2.133   1.956   4.247
 4242SOL    HW213626   2.175   2.061   4.129
 4243SOL     OW13627   5.037   1.723   2.526
 4243SOL    HW113628   5.005   1.630   2.543
 4243SOL    HW213629   4.964   1.776   2.483
 4244SOL     OW13630   3.412   3.863   1.705
 4244SOL    HW113631   3.345   3.829   1.640
 4244SOL    HW213632   3.432   3.959   1.686
 4245SOL     OW13633   6.571   1.907   6.697
 4245SOL    HW113634   6.601   1.978   6.761
 4245SOL    HW213635   6.509   1.947   6.630
 4246SOL     OW13636   6.356   4.164   3.045
 4246SOL    HW113637   6.303   4.236   2.999
 4246SOL    HW213638   6.453   4.180   3.029
 4247SOL     OW13639   1.047   6.300   3.888
 4247SOL    HW113640   0.950   6.282   3.899
 4247SOL    HW213641   1.063   6.350   3.802
 4248SOL     OW13642   2.656   1.778   4.761
 4248SOL    HW113643   2.617   1.812   4.846
 4248SOL    HW213644   2.582   1.742   4.703
 4249SOL     OW13645   6.426   3.129   4.995
 4249SOL    HW113646   6.357   3.101   5.062
 4249SOL    HW213647   6.382   3.141   4.906
 4250SOL     OW13648   0.210   4.572   3.199
 4250SOL    HW113649   0.299   4.526   3.200
 4250SOL    HW213650   0.181   4.586   3.104
 4251SOL     OW13651   5.978   5.255   0.106
 4251SOL    HW113652   5.972   5.221   0.012
 4251SOL    HW213653   5.887   5.255   0.148
 4252SOL     OW13654   6.479   6.335   5.106
 4252SOL    HW113655   6.430   6.247   5.104
 4252SOL    HW213656   6.550   6.332   5.176
 4253SOL     OW13657   2.557   0.483   2.018
 4253SOL    HW113658   2.652   0.507   1.999
 4253SOL    HW213659   2.500   0.504   1.938
 4254SOL     OW13660   1.029   2.992   1.585
 4254SOL    HW113661   0.989   3.070   1.632
 4254SOL    HW213662   0.975   2.970   1.504
 4255SOL     OW13663   6.111   2.504   3.681
 4255SOL    HW113664   6.207   2.530   3.686
 4255SOL    HW213665   6.092   2.430   3.745
 4256SOL     OW13666   1.475   6.358   0.749
 4256SOL    HW113667   1.436   6.432   0.803
 4256SOL    HW213668   1.445   6.270   0.785
 4257SOL     OW13669   3.818   0.563   5.233
 4257SOL    HW113670   3.916   0.577   5.248
 4257SOL    HW213671   3.783   0.636   5.175
 4258SOL     OW13672   6.000   6.603   1.819
 4258SOL    HW113673   5.971   6.575   1.911
 4258SOL    HW213674   5.919   6.610   1.760
 4259SOL     OW13675   3.020   0.506   6.800
 4259SOL    HW113676   3.107   0.502   6.850
 4259SOL    HW213677   2.945   0.485   6.861
 4260SOL     OW13678   5.351   6.007   4.211
 4260SOL    HW113679   5.355   6.090   4.156
 4260SOL    HW213680   5.405   6.019   4.294
 4261SOL     OW13681   1.647   0.625   2.031
 4261SOL    HW113682   1.697   0.662   2.109
 4261SOL    HW213683   1.670   0.677   1.949
 4262SOL     OW13684   1.090   4.636   5.301
 4262SOL    HW113685   1.108   4.637   5.203
 4262SOL    HW213686   1.074   4.730   5.333
 4263SOL     OW13687   2.597   6.530   3.933
 4263SOL    HW113688   2.589   6.442   3.884
 4263SOL    HW213689   2.562   6.519   4.026
 4264SOL     OW13690   6.974   1.900   2.234
 4264SOL    HW113691   6.916   1.942   2.303
 4264SOL    HW213692   6.978   1.958   2.153
 4265SOL     OW13693   5.741   1.775   6.852
 4265SOL    HW113694   5.715   1.791   6.947
 4265SOL    HW213695   5.841   1.783   6.843
 4266SOL     OW13696   2.359   5.407   0.745
 4266SOL    HW113697   2.391   5.501   0.757
 4266SOL    HW213698   2.435   5.344   0.754
 4267SOL     OW13699   2.151   4.017   4.743
 4267SOL    HW113700   2.155   4.116   4.736
 4267SOL    HW213701   2.214   3.985   4.813
 4268SOL     OW13702   1.814   6.955   6.833
 4268SOL    HW113703   1.895   6.973   6.890
 4268SOL    HW213704   1.742   6.917   6.891
 4269SOL     OW13705   1.999   1.295   0.689
 4269SOL    HW113706   2.014   1.201   0.657
 4269SOL    HW213707   2.045   1.359   0.627
 4270SOL     OW13708   2.938   3.378   3.608
 4270SOL    HW113709   2.911   3.474   3.612
 4270SOL    HW213710   2.935   3.345   3.514
 4271SOL     OW13711   0.116   0.475   5.953
 4271SOL    HW113712   0.059   0.527   5.888
 4271SOL    HW213713   0.081   0.382   5.960
 4272SOL     OW13714   0.471   4.957   4.975
 4272SOL    HW113715   0.467   5.020   5.053
 4272SOL    HW213716   0.555   4.974   4.924
 4273SOL     OW13717   4.728   6.393   3.820
 4273SOL    HW113718   4.765   6.486   3.809
 4273SOL    HW213719   4.628   6.398   3.826
 4274SOL     OW13720   0.824   0.007   2.737
 4274SOL    HW113721   0.803   6.984   2.648
 4274SOL    HW213722   0.748   0.066   2.765
 4275SOL     OW13723   0.060   1.831   5.896
 4275SOL    HW113724   0.152   1.865   5.920
 4275SOL    HW213725   0.023   1.779   5.973
 4276SOL     OW13726   1.492   4.908   2.820
 4276SOL    HW113727   1.498   5.006   2.838
 4276SOL    HW213728   1.492   4.858   2.906
 4277SOL     OW13729   6.702   4.808   3.889
 4277SOL    HW113730   6.685   4.880   3.957
 4277SOL    HW213731   6.798   4.781   3.892
 4278SOL     OW13732   0.120   0.773   4.999
 4278SOL    HW113733   0.067   0.816   4.926
 4278SOL    HW213734   0.202   0.828   5.018
 4279SOL     OW13735   3.412   5.870   5.296
 4279SOL    HW113736   3.418   5.794   5.360
 4279SOL    HW213737   3.365   5.947   5.339
 4280SOL     OW13738   4.673   1.276   5.619
 4280SOL    HW113739   4.742   1.207   5.640
 4280SOL    HW213740   4.681   1.303   5.523
 4281SOL     OW13741   2.538   4.901   4.503
 4281SOL    HW113742   2.586   4.815   4.485
 4281SOL    HW213743   2.442   4.890   4.478
 4282SOL     OW13744   2.718   2.418   7.016
 4282SOL    HW113745   2.715   2.435   0.096
 4282SOL    HW213746   2.814   2.408   6.987
 4283SOL     OW13747   1.879   0.525   3.987
 4283SOL    HW113748   1.947   0.598   3.985
 4283SOL    HW213749   1.870   0.485   3.895
 4284SOL     OW13750   5.271   6.191   1.867
 4284SOL    HW113751   5.257   6.265   1.933
 4284SOL    HW213752   5.204   6.199   1.793
 4285SOL     OW13753   0.452   0.071   6.055
 4285SOL    HW113754   0.485   0.160   6.086
 4285SOL    HW213755   0.478   0.057   5.960
 4286SOL     OW13756   4.884   5.424   6.761
 4286SOL    HW113757   4.911   5.506   6.710
 4286SOL    HW213758   4.793   5.395   6.731
 4287SOL     OW13759   6.147   0.517   6.084
 4287SOL    HW113760   6.090   0.467   6.018
 4287SOL    HW213761   6.170   0.458   6.161
 4288SOL     OW13762   0.766   5.836   3.343
 4288SOL    HW113763   0.749   5.752   3.291
 4288SOL    HW213764   0.828   5.817   3.419
 4289SOL     OW13765   5.931   3.148   1.299
 4289SOL    HW113766   5.932   3.152   1.399
 4289SOL    HW213767   5.941   3.053   1.269
 4290SOL     OW13768   1.967   6.458   1.233
 4290SOL    HW113769   1.868   6.470   1.230
 4290SOL    HW213770   2.002   6.445   1.141
 4291SOL     OW13771   4.640   3.395   1.691
 4291SOL    HW113772   4.673   3.481   1.653
 4291SOL    HW213773   4.546   3.407   1.725
 4292SOL     OW13774   6.380   4.168   5.636
 4292SOL    HW113775   6.332   4.179   5.549
 4292SOL    HW213776   6.329   4.215   5.708
 4293SOL     OW13777   0.241   3.971   6.851
 4293SOL    HW113778   0.193   4.057   6.836
 4293SOL    HW213779   0.227   3.911   6.772
 4294SOL     OW13780   4.467   2.924   0.299
 4294SOL    HW113781   4.424   2.998   0.351
 4294SOL    HW213782   4.552   2.896   0.344
 4295SOL     OW13783   3.629   6.339   4.904
 4295SOL    HW113784   3.606   6.297   4.992
 4295SOL    HW213785   3.554   6.326   4.840
 4296SOL     OW13786   3.027   1.758   0.021
 4296SOL    HW113787   2.987   1.708   0.097
 4296SOL    HW213788   3.070   1.842   0.054
 4297SOL     OW13789   5.307   0.548   5.855
 4297SOL    HW113790   5.252   0.621   5.814
 4297SOL    HW213791   5.263   0.516   5.938
 4298SOL     OW13792   1.896   5.539   6.773
 4298SOL    HW113793   1.886   5.574   6.680
 4298SOL    HW213794   1.806   5.513   6.808
 4299SOL     OW13795   0.957   2.730   0.142
 4299SOL    HW113796   0.971   2.639   0.181
 4299SOL    HW213797   0.861   2.756   0.152
 4300SOL     OW13798   2.890   1.374   6.314
 4300SOL    HW113799   2.871   1.290   6.365
 4300SOL    HW213800   2.944   1.352   6.232
 4301SOL     OW13801   2.348   1.354   0.321
 4301SOL    HW113802   2.316   1.445   0.347
 4301SOL    HW213803   2.290   1.318   0.248
 4302SOL     OW13804   0.904   6.420   5.418
 4302SOL    HW113805   0.885   6.509   5.375
 4302SOL    HW213806   0.905   6.349   5.348
 4303SOL     OW13807   6.337   4.618   3.900
 4303SOL    HW113808   6.309   4.656   3.988
 4303SOL    HW213809   6.435   4.599   3.902
 4304SOL     OW13810   2.979   3.766   4.262
 4304SOL    HW113811   3.017   3.852   4.296
 4304SOL    HW213812   2.932   3.781   4.176
 4305SOL     OW13813   6.161   1.371   3.779
 4305SOL    HW113814   6.137   1.441   3.713
 4305SOL    HW213815   6.260   1.366   3.789
 4306SOL     OW13816   0.104   3.628   6.489
 4306SOL    HW113817   0.126   3.643   6.393
 4306SOL    HW213818   0.030   3.561   6.496
 4307SOL     OW13819   4.721   4.288   6.224
 4307SOL    HW113820   4.814   4.277   6.257
 4307SOL    HW213821   4.709   4.379   6.186
 4308SOL     OW13822   5.462   5.935   5.882
 4308SOL    HW113823   5.549   5.945   5.836
 4308SOL    HW213824   5.455   6.002   5.956
 4309SOL     OW13825   0.822   0.351   0.117
 4309SOL    HW113826   0.828   0.390   0.209
 4309SOL    HW213827   0.760   0.405   0.061
 4310SOL     OW13828   1.828   2.429   3.627
 4310SOL    HW113829   1.902   2.382   3.581
 4310SOL    HW213830   1.849   2.437   3.725
 4311SOL     OW13831   1.341   5.213   3.109
 4311SOL    HW113832   1.275   5.288   3.108
 4311SOL    HW213833   1.361   5.187   3.203
 4312SOL     OW13834   1.593   5.308   1.710
 4312SOL    HW113835   1.495   5.311   1.733
 4312SOL    HW213836   1.631   5.220   1.737
 4313SOL     OW13837   5.231   1.758   2.016
 4313SOL    HW113838   5.185   1.754   1.927
 4313SOL    HW213839   5.187   1.694   2.079
 4314SOL     OW13840   5.398   2.635   3.579
 4314SOL    HW113841   5.399   2.553   3.522
 4314SOL    HW213842   5.396   2.716   3.520
 4315SOL     OW13843   1.589   0.937   2.246
 4315SOL    HW113844   1.515   0.874   2.266
 4315SOL    HW213845   1.565   1.029   2.278
 4316SOL     OW13846   5.159   0.216   1.169
 4316SOL    HW113847   5.104   0.179   1.245
 4316SOL    HW213848   5.177   0.144   1.103
 4317SOL     OW13849   3.000   1.103   4.661
 4317SOL    HW113850   3.038   1.179   4.608
 4317SOL    HW213851   3.002   1.019   4.607
 4318SOL     OW13852   0.919   3.528   3.486
 4318SOL    HW113853   0.967   3.440   3.484
 4318SOL    HW213854   0.922   3.570   3.395
 4319SOL     OW13855   2.672   2.748   0.508
 4319SOL    HW113856   2.725   2.830   0.530
 4319SOL    HW213857   2.720   2.667   0.541
 4320SOL     OW13858   1.586   5.855   1.597
 4320SOL    HW113859   1.492   5.884   1.615
 4320SOL    HW213860   1.588   5.755   1.591
 4321SOL     OW13861   6.580   0.046   4.374
 4321SOL    HW113862   6.642   0.071   4.449
 4321SOL    HW213863   6.488   0.080   4.393
 4322SOL     OW13864   6.086   0.899   0.008
 4322SOL    HW113865   6.121   0.813   0.044
 4322SOL    HW213866   6.005   0.927   0.060
 4323SOL     OW13867   5.561   3.704   1.980
 4323SOL    HW113868   5.481   3.655   1.945
 4323SOL    HW213869   5.589   3.772   1.913
 4324SOL     OW13870   5.444   4.853   6.750
 4324SOL    HW113871   5.457   4.837   6.847
 4324SOL    HW213872   5.348   4.840   6.726
 4325SOL     OW13873   0.922   0.791   6.744
 4325SOL    HW113874   1.001   0.853   6.740
 4325SOL    HW213875   0.952   0.700   6.773
 4326SOL     OW13876   6.211   2.776   5.257
 4326SOL    HW113877   6.236   2.680   5.267
 4326SOL    HW213878   6.115   2.788   5.284
 4327SOL     OW13879   6.234   5.233   2.681
 4327SOL    HW113880   6.239   5.321   2.633
 4327SOL    HW213881   6.140   5.200   2.680
 4328SOL     OW13882   4.974   4.303   6.324
 4328SOL    HW113883   5.022   4.352   6.397
 4328SOL    HW213884   5.016   4.325   6.236
 4329SOL     OW13885   3.092   1.779   6.302
 4329SOL    HW113886   3.081   1.682   6.320
 4329SOL    HW213887   3.019   1.810   6.240
 4330SOL     OW13888   3.254   0.480   5.187
 4330SOL    HW113889   3.263   0.392   5.234
 4330SOL    HW213890   3.211   0.465   5.098
 4331SOL     OW13891   4.874   3.281   1.322
 4331SOL    HW113892   4.928   3.340   1.381
 4331SOL    HW213893   4.777   3.290   1.345
 4332SOL     OW13894   5.550   4.144   2.226
 4332SOL    HW113895   5.628   4.196   2.262
 4332SOL    HW213896   5.562   4.047   2.248
 4333SOL     OW13897   4.712   1.751   5.138
 4333SOL    HW113898   4.722   1.673   5.201
 4333SOL    HW213899   4.689   1.717   5.047
 4334SOL     OW13900   2.767   1.914   2.297
 4334SOL    HW113901   2.696   1.940   2.363
 4334SOL    HW213902   2.820   1.994   2.271
 4335SOL     OW13903   3.391   4.159   3.388
 4335SOL    HW113904   3.472   4.175   3.445
 4335SOL    HW213905   3.318   4.120   3.445
 4336SOL     OW13906   1.012   6.931   5.639
 4336SOL    HW113907   0.986   6.952   5.545
 4336SOL    HW213908   1.105   6.894   5.641
 4337SOL     OW13909   1.343   4.735   0.187
 4337SOL    HW113910   1.337   4.825   0.143
 4337SOL    HW213911   1.439   4.713   0.205
 4338SOL     OW13912   4.779   5.805   4.554
 4338SOL    HW113913   4.741   5.722   4.595
 4338SOL    HW213914   4.784   5.877   4.624
 4339SOL     OW13915   5.358   3.410   5.247
 4339SOL    HW113916   5.337   3.348   5.172
 4339SOL    HW213917   5.288   3.481   5.252
 4340SOL     OW13918   5.935   4.334   2.944
 4340SOL    HW113919   5.963   4.337   2.848
 4340SOL    HW213920   5.855   4.274   2.953
 4341SOL     OW13921   0.805   4.887   1.713
 4341SOL    HW113922   0.795   4.905   1.811
 4341SOL    HW213923   0.834   4.793   1.699
 4342SOL     OW13924   6.859   2.817   4.331
 4342SOL    HW113925   6.890   2.731   4.290
 4342SOL    HW213926   6.864   2.890   4.262
 4343SOL     OW13927   2.401   6.670   6.325
 4343SOL    HW113928   2.345   6.637   6.250
 4343SOL    HW213929   2.342   6.701   6.400
 4344SOL     OW13930   2.198   5.261   2.960
 4344SOL    HW113931   2.236   5.353   2.960
 4344SOL    HW213932   2.117   5.258   3.017
 4345SOL     OW13933   2.035   2.742   5.634
 4345SOL    HW113934   1.962   2.794   5.591
 4345SOL    HW213935   2.065   2.788   5.718
 4346SOL     OW13936   2.159   3.115   1.829
 4346SOL    HW113937   2.107   3.199   1.827
 4346SOL    HW213938   2.221   3.115   1.907
 4347SOL     OW13939   6.361   0.884   1.885
 4347SOL    HW113940   6.335   0.813   1.820
 4347SOL    HW213941   6.285   0.902   1.947
 4348SOL     OW13942   0.450   3.097   2.431
 4348SOL    HW113943   0.417   3.170   2.489
 4348SOL    HW213944   0.543   3.118   2.400
 4349SOL     OW13945   6.971   2.002   3.224
 4349SOL    HW113946   6.874   1.980   3.236
 4349SOL    HW213947   0.003   1.918   3.204
 4350SOL     OW13948   5.108   2.075   4.328
 4350SOL    HW113949   5.128   1.987   4.371
 4350SOL    HW213950   5.036   2.063   4.260
 4351SOL     OW13951   2.044   6.358   1.003
 4351SOL    HW113952   1.990   6.345   0.920
 4351SOL    HW213953   2.131   6.400   0.980
 4352SOL     OW13954   0.937   2.338   1.659
 4352SOL    HW113955   1.019   2.282   1.675
 4352SOL    HW213956   0.958   2.434   1.677
 4353SOL     OW13957   3.081   4.866   0.574
 4353SOL    HW113958   3.041   4.953   0.543
 4353SOL    HW213959   3.178   4.864   0.550
 4354SOL     OW13960   2.197   6.675   5.909
 4354SOL    HW113961   2.279   6.652   5.962
 4354SOL    HW213962   2.131   6.601   5.917
 4355SOL     OW13963   3.306   6.896   1.865
 4355SOL    HW113964   3.294   6.819   1.928
 4355SOL    HW213965   3.335   6.862   1.776
 4356SOL     OW13966   4.777   4.072   1.862
 4356SOL    HW113967   4.837   4.149   1.838
 4356SOL    HW213968   4.714   4.054   1.787
 4357SOL     OW13969   6.350   0.073   0.001
 4357SOL    HW113970   6.446   0.094   7.002
 4357SOL    HW213971   6.340   6.995   0.025
 4358SOL     OW13972   6.954   6.192   0.645
 4358SOL    HW113973   6.968   6.145   0.558
 4358SOL    HW213974   6.914   6.282   0.628
 4359SOL     OW13975   1.512   1.954   5.232
 4359SOL    HW113976   1.601   1.928   5.270
 4359SOL    HW213977   1.525   1.991   5.140
 4360SOL     OW13978   1.889   3.044   2.874
 4360SOL    HW113979   1.885   3.098   2.958
 4360SOL    HW213980   1.959   3.080   2.814
 4361SOL     OW13981   2.934   2.724   1.722
 4361SOL    HW113982   2.925   2.649   1.787
 4361SOL    HW213983   2.881   2.703   1.640
 4362SOL     OW13984   6.016   3.656   4.536
 4362SOL    HW113985   5.923   3.653   4.497
 4362SOL    HW213986   6.080   3.685   4.465
 4363SOL     OW13987   4.992   2.329   5.943
 4363SOL    HW113988   4.984   2.237   5.981
 4363SOL    HW213989   5.004   2.395   6.017
 4364SOL     OW13990   3.009   3.775   5.378
 4364SOL    HW113991   2.992   3.678   5.399
 4364SOL    HW213992   2.923   3.818   5.350
 4365SOL     OW13993   2.746   1.033   2.109
 4365SOL    HW113994   2.810   1.097   2.151
 4365SOL    HW213995   2.658   1.038   2.158
 4366SOL     OW13996   5.787   6.885   0.409
 4366SOL    HW113997   5.864   6.847   0.460
 4366SOL    HW213998   5.820   6.955   0.345
 4367SOL     OW13999   1.322   4.881   5.413
 4367SOL    HW114000   1.332   4.850   5.507
 4367SOL    HW214001   1.225   4.902   5.395
 4368SOL     OW14002   4.224   5.375   1.083
 4368SOL    HW114003   4.240   5.292   1.137
 4368SOL    HW214004   4.276   5.371   0.998
 4369SOL     OW14005   4.313   5.447   2.658
 4369SOL    HW114006   4.324   5.347   2.660
 4369SOL    HW214007   4.398   5.490   2.686
 4370SOL     OW14008   5.080   4.724   2.904
 4370SOL    HW114009   5.095   4.690   2.997
 4370SOL    HW214010   5.139   4.675   2.840
 4371SOL     OW14011   6.459   0.510   1.824
 4371SOL    HW114012   6.500   0.516   1.733
 4371SOL    HW214013   6.522   0.549   1.891
 4372SOL     OW14014   4.210   1.227   2.593
 4372SOL    HW114015   4.156   1.311   2.605
 4372SOL    HW214016   4.202   1.170   2.676
 4373SOL     OW14017   0.207   2.909   6.831
 4373SOL    HW114018   0.174   2.931   6.739
 4373SOL    HW214019   0.294   2.956   6.847
 4374SOL     OW14020   1.000   1.847   1.837
 4374SOL    HW114021   0.912   1.839   1.883
 4374SOL    HW214022   0.985   1.853   1.738
 4375SOL     OW14023   3.227   0.035   4.310
 4375SOL    HW114024   3.300   0.017   4.377
 4375SOL    HW214025   3.238   6.992   4.232
 4376SOL     OW14026   6.821   0.199   2.715
 4376SOL    HW114027   6.855   0.280   2.667
 4376SOL    HW214028   6.815   0.123   2.651
 4377SOL     OW14029   6.200   3.920   0.423
 4377SOL    HW114030   6.101   3.933   0.415
 4377SOL    HW214031   6.221   3.878   0.511
 4378SOL     OW14032   1.808   1.558   2.881
 4378SOL    HW114033   1.809   1.458   2.883
 4378SOL    HW214034   1.714   1.591   2.882
 4379SOL     OW14035   2.810   1.343   3.907
 4379SOL    HW114036   2.779   1.262   3.957
 4379SOL    HW214037   2.736   1.409   3.901
 4380SOL     OW14038   1.276   0.562   1.894
 4380SOL    HW114039   1.176   0.569   1.888
 4380SOL    HW214040   1.307   0.482   1.844
 4381SOL     OW14041   1.086   5.816   5.114
 4381SOL    HW114042   1.120   5.813   5.208
 4381SOL    HW214043   1.110   5.903   5.072
 4382SOL     OW14044   6.920   3.175   5.924
 4382SOL    HW114045   6.883   3.184   5.832
 4382SOL    HW214046   0.001   3.183   5.920
 4383SOL     OW14047   6.631   4.227   6.332
 4383SOL    HW114048   6.538   4.210   6.364
 4383SOL    HW214049   6.673   4.140   6.305
 4384SOL     OW14050   5.761   1.000   3.574
 4384SOL    HW114051   5.814   1.024   3.493
 4384SOL    HW214052   5.764   1.075   3.639
 4385SOL     OW14053   4.471   2.443   5.026
 4385SOL    HW114054   4.383   2.439   5.073
 4385SOL    HW214055   4.508   2.535   5.031
 4386SOL     OW14056   1.379   3.966   5.249
 4386SOL    HW114057   1.426   3.980   5.336
 4386SOL    HW214058   1.437   3.999   5.174
 4387SOL     OW14059   6.702   2.881   1.649
 4387SOL    HW114060   6.795   2.845   1.639
 4387SOL    HW214061   6.654   2.872   1.562
 4388SOL     OW14062   4.531   2.295   6.100
 4388SOL    HW114063   4.490   2.275   6.012
 4388SOL    HW214064   4.540   2.211   6.153
 4389SOL     OW14065   6.595   3.467   1.124
 4389SOL    HW114066   6.609   3.378   1.080
 4389SOL    HW214067   6.638   3.538   1.069
 4390SOL     OW14068   4.787   0.097   1.213
 4390SOL    HW114069   4.844   0.121   1.292
 4390SOL    HW214070   4.829   0.020   1.165
 4391SOL     OW14071   2.822   4.903   6.017
 4391SOL    HW114072   2.920   4.901   6.037
 4391SOL    HW214073   2.774   4.947   6.092
 4392SOL     OW14074   0.951   1.590   4.958
 4392SOL    HW114075   0.964   1.597   4.859
 4392SOL    HW214076   0.884   1.518   4.978
 4393SOL     OW14077   6.636   0.951   2.017
 4393SOL    HW114078   6.719   0.896   2.006
 4393SOL    HW214079   6.558   0.902   1.978
 4394SOL     OW14080   1.090   6.344   1.734
 4394SOL    HW114081   1.125   6.329   1.641
 4394SOL    HW214082   1.135   6.424   1.774
 4395SOL     OW14083   1.699   0.601   1.447
 4395SOL    HW114084   1.646   0.682   1.472
 4395SOL    HW214085   1.775   0.628   1.389
 4396SOL     OW14086   1.686   2.012   4.232
 4396SOL    HW114087   1.749   2.059   4.294
 4396SOL    HW214088   1.736   1.978   4.152
 4397SOL     OW14089   1.985   3.252   4.431
 4397SOL    HW114090   1.926   3.191   4.377
 4397SOL    HW214091   1.930   3.297   4.502
 4398SOL     OW14092   1.709   3.322   6.734
 4398SOL    HW114093   1.716   3.381   6.653
 4398SOL    HW214094   1.800   3.308   6.773
 4399SOL     OW14095   2.288   6.549   1.747
 4399SOL    HW114096   2.386   6.530   1.745
 4399SOL    HW214097   2.250   6.517   1.834
 4400SOL     OW14098   2.248   6.793   3.690
 4400SOL    HW114099   2.223   6.754   3.602
 4400SOL    HW214100   2.326   6.743   3.728
 4401SOL     OW14101   4.135   6.317   5.041
 4401SOL    HW114102   4.048   6.365   5.046
 4401SOL    HW214103   4.119   6.218   5.047
 4402SOL     OW14104   0.550   0.537   2.589
 4402SOL    HW114105   0.575   0.536   2.492
 4402SOL    HW214106   0.463   0.584   2.600
 4403SOL     OW14107   1.528   6.298   1.083
 4403SOL    HW114108   1.606   6.329   1.028
 4403SOL    HW214109   1.561   6.233   1.153
 4404SOL     OW14110   1.188   5.811   5.363
 4404SOL    HW114111   1.206   5.719   5.397
 4404SOL    HW214112   1.227   5.879   5.426
 4405SOL     OW14113   2.517   4.700   2.722
 4405SOL    HW114114   2.424   4.736   2.724
 4405SOL    HW214115   2.539   4.670   2.629
 4406SOL     OW14116   6.853   3.175   1.135
 4406SOL    HW114117   6.839   3.185   1.233
 4406SOL    HW214118   6.788   3.109   1.098
 4407SOL     OW14119   0.216   5.529   0.669
 4407SOL    HW114120   0.288   5.483   0.721
 4407SOL    HW214121   0.256   5.569   0.586
 4408SOL     OW14122   3.098   6.274   6.734
 4408SOL    HW114123   3.175   6.280   6.797
 4408SOL    HW214124   3.022   6.227   6.779
 4409SOL     OW14125   4.451   1.130   1.461
 4409SOL    HW114126   4.471   1.068   1.537
 4409SOL    HW214127   4.449   1.224   1.495
 4410SOL     OW14128   6.856   5.875   0.593
 4410SOL    HW114129   6.836   5.778   0.607
 4410SOL    HW214130   6.788   5.930   0.643
 4411SOL     OW14131   3.445   4.774   5.408
 4411SOL    HW114132   3.437   4.874   5.415
 4411SOL    HW214133   3.496   4.740   5.487
 4412SOL     OW14134   5.103   6.602   4.356
 4412SOL    HW114135   5.132   6.539   4.284
 4412SOL    HW214136   5.182   6.656   4.387
 4413SOL     OW14137   4.651   6.191   4.015
 4413SOL    HW114138   4.701   6.257   3.958
 4413SOL    HW214139   4.561   6.229   4.037
 4414SOL     OW14140   4.441   5.646   1.598
 4414SOL    HW114141   4.538   5.635   1.617
 4414SOL    HW214142   4.387   5.590   1.661
 4415SOL     OW14143   3.609   3.659   0.649
 4415SOL    HW114144   3.574   3.578   0.602
 4415SOL    HW214145   3.610   3.641   0.748
 4416SOL     OW14146   4.067   1.355   4.216
 4416SOL    HW114147   4.143   1.294   4.238
 4416SOL    HW214148   4.043   1.345   4.120
 4417SOL     OW14149   6.488   2.835   4.133
 4417SOL    HW114150   6.518   2.928   4.154
 4417SOL    HW214151   6.396   2.838   4.093
 4418SOL     OW14152   6.006   1.820   2.169
 4418SOL    HW114153   5.933   1.844   2.105
 4418SOL    HW214154   6.045   1.731   2.143
 4419SOL     OW14155   6.369   6.959   6.077
 4419SOL    HW114156   6.358   6.894   6.002
 4419SOL    HW214157   6.279   6.981   6.115
 4420SOL     OW14158   3.430   1.758   0.945
 4420SOL    HW114159   3.354   1.796   0.892
 4420SOL    HW214160   3.423   1.789   1.040
 4421SOL     OW14161   1.580   2.312   5.345
 4421SOL    HW114162   1.519   2.233   5.341
 4421SOL    HW214163   1.608   2.337   5.252
 4422SOL     OW14164   0.942   4.808   6.925
 4422SOL    HW114165   0.977   4.749   6.999
 4422SOL    HW214166   1.017   4.863   6.888
 4423SOL     OW14167   6.456   4.654   5.935
 4423SOL    HW114168   6.365   4.614   5.949
 4423SOL    HW214169   6.456   4.748   5.968
 4424SOL     OW14170   5.567   6.023   4.421
 4424SOL    HW114171   5.590   5.965   4.499
 4424SOL    HW214172   5.643   6.022   4.356
 4425SOL     OW14173   1.823   5.641   1.049
 4425SOL    HW114174   1.826   5.710   1.121
 4425SOL    HW214175   1.866   5.677   0.966
 4426SOL     OW14176   0.895   0.694   3.754
 4426SOL    HW114177   0.870   0.627   3.684
 4426SOL    HW214178   0.988   0.726   3.738
 4427SOL     OW14179   3.924   6.127   2.676
 4427SOL    HW114180   3.869   6.193   2.625
 4427SOL    HW214181   3.864   6.061   2.721
 4428SOL     OW14182   5.102   0.963   4.542
 4428SOL    HW114183   5.161   1.023   4.488
 4428SOL    HW214184   5.028   0.928   4.485
 4429SOL     OW14185   2.958   6.561   2.773
 4429SOL    HW114186   3.033   6.626   2.763
 4429SOL    HW214187   2.958   6.498   2.695
 4430SOL     OW14188   5.645   5.207   4.583
 4430SOL    HW114189   5.680   5.136   4.522
 4430SOL    HW214190   5.579   5.263   4.533
 4431SOL     OW14191   3.053   0.548   3.745
 4431SOL    HW114192   3.015   0.641   3.746
 4431SOL    HW214193   3.118   0.540   3.669
 4432SOL     OW14194   2.186   3.138   6.447
 4432SOL    HW114195   2.176   3.056   6.504
 4432SOL    HW214196   2.096   3.172   6.423
 4433SOL     OW14197   0.444   2.429   4.679
 4433SOL    HW114198   0.473   2.343   4.637
 4433SOL    HW214199   0.418   2.494   4.608
 4434SOL     OW14200   5.527   1.821   2.009
 4434SOL    HW114201   5.521   1.919   1.990
 4434SOL    HW214202   5.441   1.776   1.986
 4435SOL     OW14203   3.931   3.767   0.968
 4435SOL    HW114204   3.983   3.769   1.054
 4435SOL    HW214205   3.946   3.679   0.923
 4436SOL     OW14206   3.605   1.528   1.228
 4436SOL    HW114207   3.530   1.545   1.293
 4436SOL    HW214208   3.570   1.474   1.151
 4437SOL     OW14209   0.643   3.461   2.692
 4437SOL    HW114210   0.627   3.499   2.783
 4437SOL    HW214211   0.667   3.364   2.699
 4438SOL     OW14212   4.657   0.046   5.506
 4438SOL    HW114213   4.721   6.988   5.505
 4438SOL    HW214214   4.666   0.098   5.421
 4439SOL     OW14215   1.074   4.722   2.944
 4439SOL    HW114216   1.093   4.820   2.947
 4439SOL    HW214217   1.108   4.679   3.028
 4440SOL     OW14218   2.709   4.355   1.097
 4440SOL    HW114219   2.646   4.278   1.105
 4440SOL    HW214220   2.793   4.334   1.147
 4441SOL     OW14221   0.007   1.736   1.058
 4441SOL    HW114222   0.016   1.676   0.978
 4441SOL    HW214223   0.044   1.689   1.138
 4442SOL     OW14224   1.189   4.973   5.894
 4442SOL    HW114225   1.248   5.034   5.840
 4442SOL    HW214226   1.093   4.996   5.878
 4443SOL     OW14227   0.635   4.603   6.181
 4443SOL    HW114228   0.702   4.652   6.126
 4443SOL    HW214229   0.668   4.594   6.275
 4444SOL     OW14230   4.614   3.873   0.404
 4444SOL    HW114231   4.547   3.806   0.433
 4444SOL    HW214232   4.659   3.913   0.484
 4445SOL     OW14233   1.408   5.525   0.194
 4445SOL    HW114234   1.468   5.485   0.125
 4445SOL    HW214235   1.343   5.588   0.150
 4446SOL     OW14236   5.599   1.640   0.186
 4446SOL    HW114237   5.684   1.591   0.169
 4446SOL    HW214238   5.521   1.582   0.162
 4447SOL     OW14239   5.814   4.234   5.163
 4447SOL    HW114240   5.795   4.169   5.090
 4447SOL    HW214241   5.777   4.199   5.249
 4448SOL     OW14242   2.639   0.085   1.269
 4448SOL    HW114243   2.713   0.042   1.320
 4448SOL    HW214244   2.581   0.015   1.228
 4449SOL     OW14245   4.571   1.100   6.763
 4449SOL    HW114246   4.608   1.114   6.855
 4449SOL    HW214247   4.471   1.090   6.769
 4450SOL     OW14248   3.032   1.536   6.858
 4450SOL    HW114249   3.124   1.498   6.862
 4450SOL    HW214250   3.035   1.633   6.884
 4451SOL     OW14251   4.684   4.876   4.369
 4451SOL    HW114252   4.719   4.943   4.304
 4451SOL    HW214253   4.622   4.813   4.321
 4452SOL     OW14254   6.238   5.968   4.693
 4452SOL    HW114255   6.295   6.048   4.712
 4452SOL    HW214256   6.216   5.965   4.595
 4453SOL     OW14257   1.175   2.769   1.829
 4453SOL    HW114258   1.134   2.852   1.789
 4453SOL    HW214259   1.161   2.770   1.928
 4454SOL     OW14260   0.585   1.449   0.080
 4454SOL    HW114261   0.673   1.425   0.038
 4454SOL    HW214262   0.594   1.446   0.180
 4455SOL     OW14263   5.740   5.511   5.305
 4455SOL    HW114264   5.663   5.488   5.365
 4455SOL    HW214265   5.757   5.610   5.308
 4456SOL     OW14266   2.273   6.321   3.402
 4456SOL    HW114267   2.255   6.391   3.472
 4456SOL    HW214268   2.269   6.230   3.444
 4457SOL     OW14269   1.829   2.077   4.914
 4457SOL    HW114270   1.858   2.066   5.009
 4457SOL    HW214271   1.903   2.046   4.854
 4458SOL     OW14272   2.211   3.410   1.434
 4458SOL    HW114273   2.136   3.463   1.473
 4458SOL    HW214274   2.273   3.381   1.507
 4459SOL     OW14275   2.270   1.715   3.951
 4459SOL    HW114276   2.294   1.796   4.003
 4459SOL    HW214277   2.307   1.634   3.996
 4460SOL     OW14278   0.694   3.529   4.952
 4460SOL    HW114279   0.785   3.506   4.916
 4460SOL    HW214280   0.697   3.532   5.052
 4461SOL     OW14281   1.542   0.759   1.048
 4461SOL    HW114282   1.630   0.732   1.085
 4461SOL    HW214283   1.546   0.854   1.017
 4462SOL     OW14284   6.049   4.208   2.451
 4462SOL    HW114285   5.976   4.185   2.386
 4462SOL    HW214286   6.083   4.125   2.494
 4463SOL     OW14287   4.951   1.329   1.125
 4463SOL    HW114288   5.009   1.248   1.139
 4463SOL    HW214289   4.911   1.357   1.212
 4464SOL     OW14290   0.864   5.749   0.222
 4464SOL    HW114291   0.815   5.750   0.135
 4464SOL    HW214292   0.815   5.691   0.287
 4465SOL     OW14293   2.699   5.477   0.406
 4465SOL    HW114294   2.614   5.430   0.429
 4465SOL    HW214295   2.678   5.563   0.360
 4466SOL     OW14296   1.964   2.305   3.102
 4466SOL    HW114297   1.913   2.358   3.169
 4466SOL    HW214298   1.904   2.280   3.026
 4467SOL     OW14299   2.484   5.887   3.707
 4467SOL    HW114300   2.413   5.933   3.760
 4467SOL    HW214301   2.545   5.838   3.769
 4468SOL     OW14302   1.134   3.693   0.901
 4468SOL    HW114303   1.164   3.787   0.918
 4468SOL    HW214304   1.202   3.630   0.939
 4469SOL     OW14305   2.452   0.692   1.338
 4469SOL    HW114306   2.412   0.669   1.427
 4469SOL    HW214307   2.546   0.657   1.334
 4470SOL     OW14308   0.511   1.352   2.285
 4470SOL    HW114309   0.466   1.272   2.326
 4470SOL    HW214310   0.443   1.423   2.268
 4471SOL     OW14311   2.199   2.998   6.774
 4471SOL    HW114312   2.111   3.019   6.732
 4471SOL    HW214313   2.241   3.083   6.808
 4472SOL     OW14314   1.332   2.180   0.819
 4472SOL    HW114315   1.391   2.168   0.739
 4472SOL    HW214316   1.344   2.102   0.881
 4473SOL     OW14317   6.356   3.062   3.532
 4473SOL    HW114318   6.393   2.969   3.536
 4473SOL    HW214319   6.260   3.061   3.559
 4474SOL     OW14320   2.893   0.076   2.283
 4474SOL    HW114321   2.945   0.152   2.320
 4474SOL    HW214322   2.796   0.098   2.282
 4475SOL     OW14323   0.993   3.791   1.505
 4475SOL    HW114324   1.087   3.792   1.472
 4475SOL    HW214325   0.973   3.701   1.545
 4476SOL     OW14326   6.176   1.174   4.432
 4476SOL    HW114327   6.176   1.260   4.380
 4476SOL    HW214328   6.092   1.124   4.413
 4477SOL     OW14329   1.751   0.214   5.266
 4477SOL    HW114330   1.714   0.305   5.246
 4477SOL    HW214331   1.678   0.156   5.303
 4478SOL     OW14332   0.944   0.123   1.597
 4478SOL    HW114333   1.003   0.110   1.676
 4478SOL    HW214334   0.982   0.074   1.518
 4479SOL     OW14335   1.053   1.491   0.613
 4479SOL    HW114336   0.989   1.557   0.573
 4479SOL    HW214337   1.010   1.445   0.690
 4480SOL     OW14338   0.875   4.267   4.987
 4480SOL    HW114339   0.916   4.212   5.060
 4480SOL    HW214340   0.854   4.358   5.021
 4481SOL     OW14341   2.231   5.482   5.449
 4481SOL    HW114342   2.166   5.558   5.453
 4481SOL    HW214343   2.282   5.486   5.363
 4482SOL     OW14344   2.624   3.815   5.992
 4482SOL    HW114345   2.674   3.852   5.913
 4482SOL    HW214346   2.536   3.860   6.000
 4483SOL     OW14347   0.592   2.488   1.820
 4483SOL    HW114348   0.644   2.534   1.748
 4483SOL    HW214349   0.494   2.504   1.806
 4484SOL     OW14350   2.404   2.831   0.536
 4484SOL    HW114351   2.346   2.751   0.522
 4484SOL    HW214352   2.495   2.813   0.497
 4485SOL     OW14353   4.628   2.687   5.090
 4485SOL    HW114354   4.570   2.666   5.169
 4485SOL    HW214355   4.700   2.750   5.118
 4486SOL     OW14356   5.745   4.987   5.417
 4486SOL    HW114357   5.769   4.950   5.507
 4486SOL    HW214358   5.667   5.049   5.425
 4487SOL     OW14359   2.250   2.709   6.858
 4487SOL    HW114360   2.217   2.784   6.802
 4487SOL    HW214361   2.325   2.663   6.812
 4488SOL     OW14362   1.192   3.758   3.826
 4488SOL    HW114363   1.255   3.708   3.766
 4488SOL    HW214364   1.099   3.724   3.812
 4489SOL     OW14365   5.123   5.410   5.011
 4489SOL    HW114366   5.203   5.467   5.029
 4489SOL    HW214367   5.070   5.400   5.096
 4490SOL     OW14368   5.459   2.379   1.110
 4490SOL    HW114369   5.525   2.312   1.075
 4490SOL    HW214370   5.442   2.362   1.207
 4491SOL     OW14371   0.792   3.739   3.288
 4491SOL    HW114372   0.713   3.747   3.348
 4491SOL    HW214373   0.762   3.744   3.193
 4492SOL     OW14374   5.618   1.325   1.973
 4492SOL    HW114375   5.704   1.370   1.997
 4492SOL    HW214376   5.601   1.335   1.875
 4493SOL     OW14377   5.947   6.447   4.448
 4493SOL    HW114378   5.852   6.448   4.482
 4493SOL    HW214379   5.951   6.496   4.361
 4494SOL     OW14380   0.890   1.191   5.736
 4494SOL    HW114381   0.920   1.148   5.820
 4494SOL    HW214382   0.829   1.129   5.686
 4495SOL     OW14383   4.039   6.871   2.520
 4495SOL    HW114384   3.984   6.874   2.436
 4495SOL    HW214385   4.060   6.776   2.543
 4496SOL     OW14386   4.583   6.124   6.830
 4496SOL    HW114387   4.601   6.027   6.846
 4496SOL    HW214388   4.662   6.165   6.784
 4497SOL     OW14389   3.937   2.602   0.078
 4497SOL    HW114390   3.991   2.525   0.044
 4497SOL    HW214391   3.846   2.599   0.037
 4498SOL     OW14392   6.984   5.270   6.317
 4498SOL    HW114393   6.932   5.189   6.290
 4498SOL    HW214394   6.929   5.352   6.300
 4499SOL     OW14395   5.845   1.941   3.590
 4499SOL    HW114396   5.808   1.892   3.512
 4499SOL    HW214397   5.896   2.021   3.558
 4500SOL     OW14398   4.093   4.450   6.525
 4500SOL    HW114399   4.158   4.526   6.523
 4500SOL    HW214400   4.115   4.390   6.602
 4501SOL     OW14401   5.957   1.919   2.412
 4501SOL    HW114402   5.991   1.877   2.328
 4501SOL    HW214403   5.917   2.009   2.392
 4502SOL     OW14404   0.963   4.042   0.150
 4502SOL    HW114405   0.924   4.042   0.058
 4502SOL    HW214406   0.901   4.089   0.213
 4503SOL     OW14407   2.971   6.866   2.145
 4503SOL    HW114408   2.883   6.834   2.108
 4503SOL    HW214409   2.955   6.944   2.205
 4504SOL     OW14410   6.529   1.945   4.001
 4504SOL    HW114411   6.447   1.998   4.024
 4504SOL    HW214412   6.536   1.936   3.902
 4505SOL     OW14413   6.784   4.333   2.320
 4505SOL    HW114414   6.867   4.303   2.366
 4505SOL    HW214415   6.801   4.423   2.279
 4506SOL     OW14416   5.701   3.314   3.634
 4506SOL    HW114417   5.614   3.299   3.588
 4506SOL    HW214418   5.689   3.379   3.709
 4507SOL     OW14419   0.108   3.047   3.838
 4507SOL    HW114420   0.174   2.982   3.801
 4507SOL    HW214421   0.152   3.137   3.847
 4508SOL     OW14422   1.570   4.336   0.278
 4508SOL    HW114423   1.575   4.399   0.356
 4508SOL    HW214424   1.656   4.287   0.269
 4509SOL     OW14425   4.935   2.341   2.643
 4509SOL    HW114426   4.844   2.316   2.676
 4509SOL    HW214427   4.935   2.338   2.543
 4510SOL     OW14428   4.497   1.455   4.124
 4510SOL    HW114429   4.582   1.452   4.176
 4510SOL    HW214430   4.423   1.487   4.183
 4511SOL     OW14431   6.787   3.720   1.137
 4511SOL    HW114432   6.734   3.791   1.183
 4511SOL    HW214433   6.828   3.659   1.206
 4512SOL     OW14434   3.160   1.752   5.979
 4512SOL    HW114435   3.260   1.744   5.973
 4512SOL    HW214436   3.133   1.843   5.949
 4513SOL     OW14437   0.600   6.259   6.230
 4513SOL    HW114438   0.585   6.160   6.231
 4513SOL    HW214439   0.513   6.306   6.249
 4514SOL     OW14440   3.357   3.463   6.983
 4514SOL    HW114441   3.421   3.468   6.906
 4514SOL    HW214442   3.401   3.416   0.040
 4515SOL     OW14443   5.481   1.189   4.649
 4515SOL    HW114444   5.482   1.110   4.710
 4515SOL    HW214445   5.415   1.256   4.683
 4516SOL     OW14446   2.649   0.624   5.467
 4516SOL    HW114447   2.668   0.693   5.398
 4516SOL    HW214448   2.565   0.648   5.516
 4517SOL     OW14449   4.208   6.758   6.664
 4517SOL    HW114450   4.163   6.772   6.752
 4517SOL    HW214451   4.229   6.846   6.622
 4518SOL     OW14452   1.221   6.739   1.234
 4518SOL    HW114453   1.237   6.809   1.305
 4518SOL    HW214454   1.276   6.761   1.153
 4519SOL     OW14455   4.831   6.726   6.975
 4519SOL    HW114456   4.770   6.779   6.916
 4519SOL    HW214457   4.843   6.634   6.937
 4520SOL     OW14458   4.230   5.828   5.572
 4520SOL    HW114459   4.215   5.736   5.536
 4520SOL    HW214460   4.255   5.889   5.496
 4521SOL     OW14461   5.037   1.822   4.734
 4521SOL    HW114462   5.081   1.895   4.785
 4521SOL    HW214463   4.940   1.819   4.756
 4522SOL     OW14464   5.748   3.960   3.257
 4522SOL    HW114465   5.718   3.871   3.291
 4522SOL    HW214466   5.670   4.008   3.217
 4523SOL     OW14467   1.200   3.848   0.074
 4523SOL    HW114468   1.124   3.906   0.104
 4523SOL    HW214469   1.164   3.770   0.023
 4524SOL     OW14470   0.099   3.929   2.128
 4524SOL    HW114471   0.106   4.021   2.166
 4524SOL    HW214472   0.005   3.896   2.139
 4525SOL     OW14473   2.578   2.152   5.729
 4525SOL    HW114474   2.508   2.218   5.759
 4525SOL    HW214475   2.575   2.144   5.629
 4526SOL     OW14476   0.065   0.802   6.518
 4526SOL    HW114477   0.159   0.785   6.486
 4526SOL    HW214478   0.069   0.856   6.603
 4527SOL     OW14479   6.592   0.202   2.875
 4527SOL    HW114480   6.668   0.187   2.811
 4527SOL    HW214481   6.561   0.113   2.910
 4528SOL     OW14482   4.241   0.954   6.447
 4528SOL    HW114483   4.154   0.912   6.472
 4528SOL    HW214484   4.261   0.936   6.350
 4529SOL     OW14485   2.614   1.215   6.185
 4529SOL    HW114486   2.592   1.176   6.096
 4529SOL    HW214487   2.631   1.142   6.251
 4530SOL     OW14488   2.355   6.259   4.546
 4530SOL    HW114489   2.305   6.177   4.516
 4530SOL    HW214490   2.318   6.291   4.633
 4531SOL     OW14491   1.180   4.210   6.473
 4531SOL    HW114492   1.224   4.165   6.396
 4531SOL    HW214493   1.219   4.176   6.558
 4532SOL     OW14494   5.040   0.566   2.902
 4532SOL    HW114495   4.996   0.553   2.813
 4532SOL    HW214496   5.042   0.663   2.924
 4533SOL     OW14497   1.485   0.932   2.906
 4533SOL    HW114498   1.433   0.925   2.821
 4533SOL    HW214499   1.577   0.967   2.886
 4534SOL     OW14500   4.351   2.301   5.302
 4534SOL    HW114501   4.364   2.212   5.258
 4534SOL    HW214502   4.439   2.348   5.310
 4535SOL     OW14503   3.749   1.575   1.009
 4535SOL    HW114504   3.685   1.600   1.082
 4535SOL    HW214505   3.765   1.655   0.951
 4536SOL     OW14506   2.626   1.474   5.747
 4536SOL    HW114507   2.527   1.462   5.743
 4536SOL    HW214508   2.663   1.419   5.822
 4537SOL     OW14509   4.125   3.550   3.088
 4537SOL    HW114510   4.176   3.567   3.004
 4537SOL    HW214511   4.128   3.452   3.109
 4538SOL     OW14512   1.006   2.497   2.015
 4538SOL    HW114513   1.026   2.399   2.027
 4538SOL    HW214514   1.085   2.550   2.046
 4539SOL     OW14515   2.475   5.484   4.624
 4539SOL    HW114516   2.409   5.545   4.580
 4539SOL    HW214517   2.470   5.496   4.723
 4540SOL     OW14518   0.919   0.764   0.747
 4540SOL    HW114519   0.847   0.701   0.719
 4540SOL    HW214520   0.885   0.858   0.741
 4541SOL     OW14521   4.666   1.582   6.771
 4541SOL    HW114522   4.594   1.558   6.705
 4541SOL    HW214523   4.672   1.681   6.779
 4542SOL     OW14524   6.919   2.601   0.795
 4542SOL    HW114525   6.867   2.550   0.727
 4542SOL    HW214526   6.859   2.623   0.873
 4543SOL     OW14527   4.612   2.108   0.715
 4543SOL    HW114528   4.636   2.033   0.655
 4543SOL    HW214529   4.657   2.095   0.804
 4544SOL     OW14530   4.550   5.009   1.091
 4544SOL    HW114531   4.591   4.924   1.058
 4544SOL    HW214532   4.566   5.018   1.190
 4545SOL     OW14533   0.665   4.200   5.243
 4545SOL    HW114534   0.742   4.146   5.208
 4545SOL    HW214535   0.688   4.297   5.241
 4546SOL     OW14536   3.012   0.830   5.747
 4546SOL    HW114537   3.103   0.799   5.718
 4546SOL    HW214538   3.021   0.906   5.810
 4547SOL     OW14539   6.479   0.560   0.002
 4547SOL    HW114540   6.577   0.576   0.015
 4547SOL    HW214541   6.447   0.609   6.940
 4548SOL     OW14542   2.545   2.588   3.340
 4548SOL    HW114543   2.487   2.665   3.312
 4548SOL    HW214544   2.529   2.567   3.436
 4549SOL     OW14545   4.996   4.462   2.633
 4549SOL    HW114546   4.914   4.406   2.641
 4549SOL    HW214547   5.065   4.413   2.579
 4550SOL     OW14548   0.622   4.788   3.560
 4550SOL    HW114549   0.652   4.793   3.464
 4550SOL    HW214550   0.533   4.744   3.565
 4551SOL     OW14551   0.771   3.970   5.082
 4551SOL    HW114552   0.724   3.988   4.995
 4551SOL    HW214553   0.870   3.962   5.066
 4552SOL     OW14554   5.833   2.228   2.062
 4552SOL    HW114555   5.792   2.287   2.131
 4552SOL    HW214556   5.808   2.261   1.970
 4553SOL     OW14557   5.424   4.508   6.605
 4553SOL    HW114558   5.495   4.441   6.625
 4553SOL    HW214559   5.457   4.599   6.628
 4554SOL     OW14560   0.519   6.413   1.196
 4554SOL    HW114561   0.584   6.408   1.271
 4554SOL    HW214562   0.441   6.470   1.222
 4555SOL     OW14563   1.159   0.944   6.734
 4555SOL    HW114564   1.247   0.919   6.695
 4555SOL    HW214565   1.105   0.994   6.666
 4556SOL     OW14566   6.067   3.424   5.328
 4556SOL    HW114567   5.980   3.458   5.365
 4556SOL    HW214568   6.092   3.340   5.375
 4557SOL     OW14569   6.071   5.244   4.957
 4557SOL    HW114570   6.000   5.261   5.025
 4557SOL    HW214571   6.034   5.257   4.865
 4558SOL     OW14572   6.750   3.173   5.050
 4558SOL    HW114573   6.840   3.217   5.048
 4558SOL    HW214574   6.679   3.239   5.025
 4559SOL     OW14575   0.410   3.313   2.588
 4559SOL    HW114576   0.409   3.411   2.569
 4559SOL    HW214577   0.347   3.292   2.664
 4560SOL     OW14578   6.205   4.426   2.346
 4560SOL    HW114579   6.152   4.362   2.401
 4560SOL    HW214580   6.239   4.380   2.264
 4561SOL     OW14581   3.479   2.109   3.934
 4561SOL    HW114582   3.447   2.128   4.027
 4561SOL    HW214583   3.411   2.139   3.868
 4562SOL     OW14584   2.381   6.486   0.482
 4562SOL    HW114585   2.407   6.575   0.520
 4562SOL    HW214586   2.443   6.416   0.518
 4563SOL     OW14587   6.642   3.301   1.528
 4563SOL    HW114588   6.584   3.366   1.480
 4563SOL    HW214589   6.664   3.336   1.619
 4564SOL     OW14590   6.932   4.311   2.060
 4564SOL    HW114591   6.951   4.239   2.126
 4564SOL    HW214592   6.981   4.394   2.087
 4565SOL     OW14593   1.736   1.068   4.466
 4565SOL    HW114594   1.803   0.994   4.469
 4565SOL    HW214595   1.765   1.141   4.527
 4566SOL     OW14596   0.303   3.619   1.196
 4566SOL    HW114597   0.331   3.710   1.166
 4566SOL    HW214598   0.320   3.609   1.294
 4567SOL     OW14599   6.788   0.576   0.003
 4567SOL    HW114600   6.807   0.486   6.983
 4567SOL    HW214601   6.812   0.647   6.955
 4568SOL     OW14602   0.596   4.356   4.738
 4568SOL    HW114603   0.691   4.342   4.768
 4568SOL    HW214604   0.544   4.272   4.754
 4569SOL     OW14605   3.076   0.711   2.684
 4569SOL    HW114606   3.038   0.656   2.758
 4569SOL    HW214607   3.149   0.770   2.720
 4570SOL     OW14608   5.985   6.159   2.201
 4570SOL    HW114609   6.053   6.220   2.242
 4570SOL    HW214610   6.008   6.064   2.222
 4571SOL     OW14611   4.983   2.891   6.613
 4571SOL    HW114612   5.076   2.894   6.649
 4571SOL    HW214613   4.950   2.796   6.616
 4572SOL     OW14614   2.570   2.174   6.424
 4572SOL    HW114615   2.600   2.194   6.331
 4572SOL    HW214616   2.619   2.094   6.459
 4573SOL     OW14617   1.077   6.966   0.705
 4573SOL    HW114618   1.022   0.021   0.745
 4573SOL    HW214619   1.025   6.880   0.706
 4574SOL     OW14620   6.025   4.213   0.053
 4574SOL    HW114621   6.030   4.172   6.980
 4574SOL    HW214622   6.078   4.299   0.054
 4575SOL     OW14623   5.985   0.802   4.310
 4575SOL    HW114624   6.069   0.793   4.364
 4575SOL    HW214625   5.968   0.717   4.261
 4576SOL     OW14626   2.489   4.831   5.024
 4576SOL    HW114627   2.519   4.743   4.987
 4576SOL    HW214628   2.555   4.864   5.091
 4577SOL     OW14629   1.058   2.576   2.652
 4577SOL    HW114630   1.104   2.506   2.707
 4577SOL    HW214631   1.090   2.666   2.679
 4578SOL     OW14632   0.157   0.647   3.471
 4578SOL    HW114633   0.199   0.564   3.434
 4578SOL    HW214634   0.196   0.727   3.427
 4579SOL     OW14635   4.698   1.309   1.699
 4579SOL    HW114636   4.652   1.239   1.755
 4579SOL    HW214637   4.780   1.270   1.658
 4580SOL     OW14638   5.624   4.227   0.640
 4580SOL    HW114639   5.648   4.134   0.667
 4580SOL    HW214640   5.706   4.285   0.645
 4581SOL     OW14641   2.867   6.426   2.087
 4581SOL    HW114642   2.845   6.331   2.109
 4581SOL    HW214643   2.876   6.437   1.988
 4582SOL     OW14644   4.508   0.621   2.814
 4582SOL    HW114645   4.425   0.649   2.765
 4582SOL    HW214646   4.511   0.521   2.820
 4583SOL     OW14647   2.070   1.150   6.476
 4583SOL    HW114648   1.999   1.180   6.412
 4583SOL    HW214649   2.092   1.054   6.460
 4584SOL     OW14650   1.834   6.813   5.782
 4584SOL    HW114651   1.826   6.811   5.882
 4584SOL    HW214652   1.914   6.868   5.757
 4585SOL     OW14653   1.760   3.938   3.356
 4585SOL    HW114654   1.786   4.028   3.321
 4585SOL    HW214655   1.808   3.920   3.441
 4586SOL     OW14656   4.958   4.284   0.623
 4586SOL    HW114657   5.005   4.235   0.550
 4586SOL    HW214658   4.923   4.371   0.588
 4587SOL     OW14659   3.553   3.418   4.731
 4587SOL    HW114660   3.537   3.491   4.664
 4587SOL    HW214661   3.639   3.372   4.710
 4588SOL     OW14662   3.212   3.363   5.451
 4588SOL    HW114663   3.259   3.426   5.390
 4588SOL    HW214664   3.279   3.313   5.506
 4589SOL     OW14665   5.692   6.039   1.966
 4589SOL    HW114666   5.759   6.113   1.963
 4589SOL    HW214667   5.737   5.953   1.940
 4590SOL     OW14668   3.656   5.881   2.113
 4590SOL    HW114669   3.693   5.965   2.153
 4590SOL    HW214670   3.658   5.888   2.013
 4591SOL     OW14671   2.317   0.721   5.015
 4591SOL    HW114672   2.329   0.679   5.105
 4591SOL    HW214673   2.321   0.650   4.944
 4592SOL     OW14674   2.844   1.961   3.501
 4592SOL    HW114675   2.771   1.894   3.486
 4592SOL    HW214676   2.859   1.972   3.599
 4593SOL     OW14677   6.472   5.759   2.684
 4593SOL    HW114678   6.490   5.781   2.589
 4593SOL    HW214679   6.531   5.683   2.712
 4594SOL     OW14680   2.794   6.872   2.899
 4594SOL    HW114681   2.716   6.931   2.880
 4594SOL    HW214682   2.877   6.928   2.907
 4595SOL     OW14683   4.892   2.888   5.775
 4595SOL    HW114684   4.792   2.887   5.767
 4595SOL    HW214685   4.933   2.908   5.686
 4596SOL     OW14686   0.327   1.170   2.077
 4596SOL    HW114687   0.353   1.251   2.130
 4596SOL    HW214688   0.409   1.133   2.032
 4597SOL     OW14689   2.399   5.103   6.683
 4597SOL    HW114690   2.463   5.144   6.617
 4597SOL    HW214691   2.305   5.119   6.652
 4598SOL     OW14692   2.417   5.364   0.440
 4598SOL    HW114693   2.417   5.333   0.535
 4598SOL    HW214694   2.395   5.461   0.437
 4599SOL     OW14695   1.805   3.534   2.112
 4599SOL    HW114696   1.816   3.438   2.086
 4599SOL    HW214697   1.894   3.580   2.110
 4600SOL     OW14698   0.439   6.884   6.238
 4600SOL    HW114699   0.381   6.941   6.297
 4600SOL    HW214700   0.474   6.940   6.163
 4601SOL     OW14701   0.902   0.740   4.784
 4601SOL    HW114702   0.805   0.767   4.781
 4601SOL    HW214703   0.913   0.652   4.737
 4602SOL     OW14704   2.769   0.113   5.964
 4602SOL    HW114705   2.775   0.155   6.055
 4602SOL    HW214706   2.717   0.027   5.970
 4603SOL     OW14707   3.785   6.007   1.218
 4603SOL    HW114708   3.828   6.096   1.204
 4603SOL    HW214709   3.814   5.944   1.145
 4604SOL     OW14710   4.814   6.833   5.494
 4604SOL    HW114711   4.893   6.825   5.555
 4604SOL    HW214712   4.845   6.824   5.399
 4605SOL     OW14713   2.025   0.189   1.831
 4605SOL    HW114714   1.979   0.179   1.742
 4605SOL    HW214715   2.062   0.282   1.838
 4606SOL     OW14716   6.961   6.485   2.811
 4606SOL    HW114717   6.898   6.426   2.862
 4606SOL    HW214718   0.036   6.451   2.824
 4607SOL     OW14719   2.089   3.674   3.295
 4607SOL    HW114720   2.009   3.700   3.240
 4607SOL    HW214721   2.105   3.744   3.366
 4608SOL     OW14722   0.444   3.173   4.123
 4608SOL    HW114723   0.414   3.221   4.206
 4608SOL    HW214724   0.366   3.161   4.062
 4609SOL     OW14725   4.686   5.729   6.789
 4609SOL    HW114726   4.707   5.706   6.694
 4609SOL    HW214727   4.770   5.725   6.843
 4610SOL     OW14728   5.458   2.093   6.991
 4610SOL    HW114729   5.538   2.060   0.024
 4610SOL    HW214730   5.377   2.042   0.002
 4611SOL     OW14731   0.320   0.978   5.758
 4611SOL    HW114732   0.275   0.892   5.731
 4611SOL    HW214733   0.370   0.964   5.843
 4612SOL     OW14734   2.207   6.447   1.978
 4612SOL    HW114735   2.282   6.389   2.011
 4612SOL    HW214736   2.179   6.510   2.050
 4613SOL     OW14737   2.118   4.933   2.580
 4613SOL    HW114738   2.149   5.021   2.617
 4613SOL    HW214739   2.020   4.938   2.561
 4614SOL     OW14740   6.572   3.469   4.025
 4614SOL    HW114741   6.504   3.397   4.032
 4614SOL    HW214742   6.527   3.556   4.004
 4615SOL     OW14743   0.844   0.904   1.586
 4615SOL    HW114744   0.775   0.844   1.627
 4615SOL    HW214745   0.935   0.866   1.599
 4616SOL     OW14746   6.452   2.427   4.882
 4616SOL    HW114747   6.364   2.399   4.919
 4616SOL    HW214748   6.444   2.519   4.843
 4617SOL     OW14749   0.885   2.710   2.259
 4617SOL    HW114750   0.851   2.649   2.188
 4617SOL    HW214751   0.962   2.667   2.306
 4618SOL     OW14752   2.799   3.595   5.231
 4618SOL    HW114753   2.860   3.552   5.297
 4618SOL    HW214754   2.809   3.694   5.237
 4619SOL     OW14755   3.155   6.287   3.632
 4619SOL    HW114756   3.100   6.351   3.578
 4619SOL    HW214757   3.211   6.232   3.571
 4620SOL     OW14758   0.799   5.414   1.427
 4620SOL    HW114759   0.699   5.424   1.427
 4620SOL    HW214760   0.830   5.391   1.519
 4621SOL     OW14761   4.880   0.383   2.014
 4621SOL    HW114762   4.826   0.419   1.939
 4621SOL    HW214763   4.863   0.285   2.025
 4622SOL     OW14764   4.657   4.775   1.031
 4622SOL    HW114765   4.683   4.774   0.934
 4622SOL    HW214766   4.664   4.683   1.069
 4623SOL     OW14767   4.118   5.556   1.261
 4623SOL    HW114768   4.022   5.585   1.264
 4623SOL    HW214769   4.127   5.478   1.199
 4624SOL     OW14770   3.986   1.348   3.129
 4624SOL    HW114771   3.932   1.317   3.207
 4624SOL    HW214772   3.939   1.425   3.085
 4625SOL     OW14773   2.229   5.841   1.757
 4625SOL    HW114774   2.287   5.766   1.789
 4625SOL    HW214775   2.188   5.887   1.836
 4626SOL     OW14776   4.181   3.688   1.822
 4626SOL    HW114777   4.120   3.728   1.890
 4626SOL    HW214778   4.209   3.758   1.757
 4627SOL     OW14779   0.306   6.022   4.905
 4627SOL    HW114780   0.341   5.934   4.871
 4627SOL    HW214781   0.280   6.012   5.001
 4628SOL     OW14782   4.731   4.799   3.274
 4628SOL    HW114783   4.746   4.875   3.211
 4628SOL    HW214784   4.642   4.811   3.319
 4629SOL     OW14785   2.354   5.453   6.020
 4629SOL    HW114786   2.354   5.522   6.092
 4629SOL    HW214787   2.283   5.474   5.953
 4630SOL     OW14788   1.756   5.373   2.840
 4630SOL    HW114789   1.750   5.465   2.879
 4630SOL    HW214790   1.817   5.374   2.761
 4631SOL     OW14791   0.957   0.359   3.675
 4631SOL    HW114792   1.047   0.336   3.638
 4631SOL    HW214793   0.949   0.323   3.768
 4632SOL     OW14794   2.545   5.503   2.842
 4632SOL    HW114795   2.619   5.536   2.901
 4632SOL    HW214796   2.532   5.566   2.766
 4633SOL     OW14797   5.043   1.362   4.313
 4633SOL    HW114798   4.954   1.324   4.288
 4633SOL    HW214799   5.115   1.314   4.262
 4634SOL     OW14800   2.902   3.784   4.948
 4634SOL    HW114801   2.884   3.839   5.030
 4634SOL    HW214802   2.914   3.688   4.974
 4635SOL     OW14803   4.341   4.898   0.968
 4635SOL    HW114804   4.413   4.933   1.027
 4635SOL    HW214805   4.285   4.832   1.018
 4636SOL     OW14806   1.877   5.106   0.710
 4636SOL    HW114807   1.788   5.137   0.744
 4636SOL    HW214808   1.921   5.049   0.779
 4637SOL     OW14809   1.148   6.636   0.929
 4637SOL    HW114810   1.135   6.555   0.873
 4637SOL    HW214811   1.246   6.657   0.936
 4638SOL     OW14812   3.322   5.069   6.900
 4638SOL    HW114813   3.272   5.131   6.960
 4638SOL    HW214814   3.301   5.091   6.805
 4639SOL     OW14815   2.897   2.187   6.641
 4639SOL    HW114816   2.843   2.136   6.574
 4639SOL    HW214817   2.936   2.124   6.708
 4640SOL     OW14818   6.027   2.571   4.979
 4640SOL    HW114819   6.080   2.655   4.970
 4640SOL    HW214820   5.965   2.562   4.901
 4641SOL     OW14821   1.967   6.973   3.959
 4641SOL    HW114822   1.868   6.983   3.971
 4641SOL    HW214823   2.012   0.043   3.970
 4642SOL     OW14824   1.652   1.073   3.947
 4642SOL    HW114825   1.644   1.086   4.046
 4642SOL    HW214826   1.627   0.979   3.924
 4643SOL     OW14827   6.344   2.023   0.246
 4643SOL    HW114828   6.408   2.004   0.321
 4643SOL    HW214829   6.258   1.974   0.263
 4644SOL     OW14830   6.932   0.896   5.807
 4644SOL    HW114831   6.873   0.922   5.884
 4644SOL    HW214832   6.952   0.977   5.752
 4645SOL     OW14833   1.367   0.669   3.902
 4645SOL    HW114834   1.273   0.688   3.932
 4645SOL    HW214835   1.414   0.617   3.973
 4646SOL     OW14836   2.519   4.990   4.774
 4646SOL    HW114837   2.535   4.960   4.681
 4646SOL    HW214838   2.442   4.939   4.813
 4647SOL     OW14839   1.758   6.895   3.100
 4647SOL    HW114840   1.850   6.870   3.071
 4647SOL    HW214841   1.692   6.867   3.029
 4648SOL     OW14842   2.813   0.946   4.213
 4648SOL    HW114843   2.772   0.999   4.139
 4648SOL    HW214844   2.893   0.995   4.249
 4649SOL     OW14845   5.724   0.998   1.258
 4649SOL    HW114846   5.676   0.910   1.256
 4649SOL    HW214847   5.767   1.015   1.170
 4650SOL     OW14848   4.390   6.008   1.062
 4650SOL    HW114849   4.403   5.911   1.083
 4650SOL    HW214850   4.446   6.063   1.124
 4651SOL     OW14851   6.043   3.838   6.605
 4651SOL    HW114852   5.980   3.762   6.618
 4651SOL    HW214853   6.132   3.816   6.646
 4652SOL     OW14854   6.755   6.142   4.050
 4652SOL    HW114855   6.751   6.056   4.102
 4652SOL    HW214856   6.825   6.201   4.090
 4653SOL     OW14857   4.877   5.835   0.394
 4653SOL    HW114858   4.869   5.800   0.487
 4653SOL    HW214859   4.885   5.759   0.330
 4654SOL     OW14860   6.927   6.727   5.187
 4654SOL    HW114861   6.910   6.659   5.258
 4654SOL    HW214862   6.973   6.806   5.228
 4655SOL     OW14863   4.913   3.705   1.709
 4655SOL    HW114864   4.823   3.678   1.674
 4655SOL    HW214865   4.977   3.710   1.633
 4656SOL     OW14866   0.674   0.085   1.671
 4656SOL    HW114867   0.767   0.105   1.640
 4656SOL    HW214868   0.632   0.168   1.707
 4657SOL     OW14869   5.417   6.120   1.455
 4657SOL    HW114870   5.446   6.043   1.398
 4657SOL    HW214871   5.432   6.098   1.551
 4658SOL     OW14872   2.844   2.606   5.718
 4658SOL    HW114873   2.923   2.604   5.657
 4658SOL    HW214874   2.875   2.619   5.812
 4659SOL     OW14875   3.599   4.285   1.365
 4659SOL    HW114876   3.586   4.384   1.366
 4659SOL    HW214877   3.527   4.241   1.419
 4660SOL     OW14878   1.640   0.255   4.110
 4660SOL    HW114879   1.707   0.185   4.085
 4660SOL    HW214880   1.687   0.342   4.125
 4661SOL     OW14881   2.459   4.398   5.609
 4661SOL    HW114882   2.471   4.350   5.522
 4661SOL    HW214883   2.547   4.434   5.639
 4662SOL     OW14884   2.768   0.090   5.202
 4662SOL    HW114885   2.700   0.134   5.144
 4662SOL    HW214886   2.823   0.159   5.249
 4663SOL     OW14887   1.305   6.681   0.069
 4663SOL    HW114888   1.264   6.722   0.150
 4663SOL    HW214889   1.265   6.723   7.006
 4664SOL     OW14890   6.857   7.002   0.724
 4664SOL    HW114891   6.774   6.971   0.770
 4664SOL    HW214892   6.859   0.084   0.722
 4665SOL     OW14893   2.163   0.949   6.105
 4665SOL    HW114894   2.071   0.951   6.144
 4665SOL    HW214895   2.216   1.026   6.139
 4666SOL     OW14896   1.871   2.429   0.003
 4666SOL    HW114897   1.850   2.356   6.956
 4666SOL    HW214898   1.900   2.388   0.090
 4667SOL     OW14899   6.430   4.014   2.032
 4667SOL    HW114900   6.465   4.040   1.941
 4667SOL    HW214901   6.505   4.008   2.097
 4668SOL     OW14902   4.057   2.167   5.175
 4668SOL    HW114903   4.122   2.091   5.170
 4668SOL    HW214904   4.073   2.229   5.099
 4669SOL     OW14905   4.868   0.130   6.885
 4669SOL    HW114906   4.814   0.088   6.958
 4669SOL    HW214907   4.877   0.228   6.902
 4670SOL     OW14908   1.319   3.341   0.193
 4670SOL    HW114909   1.395   3.407   0.192
 4670SOL    HW214910   1.302   3.312   0.287
 4671SOL     OW14911   0.676   3.445   0.203
 4671SOL    HW114912   0.768   3.409   0.190
 4671SOL    HW214913   0.641   3.415   0.292
 4672SOL     OW14914   4.498   4.593   6.242
 4672SOL    HW114915   4.569   4.586   6.172
 4672SOL    HW214916   4.534   4.560   6.329
 4673SOL     OW14917   5.181   0.341   0.132
 4673SOL    HW114918   5.157   0.308   0.041
 4673SOL    HW214919   5.200   0.439   0.128
 4674SOL     OW14920   6.509   1.190   0.543
 4674SOL    HW114921   6.607   1.176   0.530
 4674SOL    HW214922   6.467   1.104   0.572
 4675SOL     OW14923   3.926   0.298   6.632
 4675SOL    HW114924   3.833   0.335   6.634
 4675SOL    HW214925   3.925   0.206   6.673
 4676SOL     OW14926   0.793   6.750   4.324
 4676SOL    HW114927   0.864   6.731   4.391
 4676SOL    HW214928   0.704   6.722   4.361
 4677SOL     OW14929   2.732   0.502   6.884
 4677SOL    HW114930   2.645   0.544   6.856
 4677SOL    HW214931   2.714   0.414   6.927
 4678SOL     OW14932   1.963   5.145   1.999
 4678SOL    HW114933   2.012   5.160   2.085
 4678SOL    HW214934   1.932   5.233   1.963
 4679SOL     OW14935   2.761   1.343   5.984
 4679SOL    HW114936   2.844   1.393   6.010
 4679SOL    HW214937   2.710   1.317   6.066
 4680SOL     OW14938   2.332   5.374   1.409
 4680SOL    HW114939   2.312   5.276   1.414
 4680SOL    HW214940   2.375   5.394   1.321
 4681SOL     OW14941   6.729   6.101   4.463
 4681SOL    HW114942   6.740   6.033   4.391
 4681SOL    HW214943   6.723   6.055   4.552
 4682SOL     OW14944   4.125   5.675   6.678
 4682SOL    HW114945   4.221   5.658   6.656
 4682SOL    HW214946   4.100   5.766   6.646
 4683SOL     OW14947   5.685   4.044   2.563
 4683SOL    HW114948   5.739   4.004   2.637
 4683SOL    HW214949   5.668   3.974   2.494
 4684SOL     OW14950   1.114   2.125   4.429
 4684SOL    HW114951   1.135   2.094   4.522
 4684SOL    HW214952   1.014   2.129   4.418
 4685SOL     OW14953   6.703   5.540   4.791
 4685SOL    HW114954   6.762   5.538   4.871
 4685SOL    HW214955   6.759   5.538   4.708
 4686SOL     OW14956   5.181   5.251   0.337
 4686SOL    HW114957   5.180   5.175   0.271
 4686SOL    HW214958   5.150   5.218   0.426
 4687SOL     OW14959   6.412   4.453   4.707
 4687SOL    HW114960   6.489   4.516   4.695
 4687SOL    HW214961   6.339   4.498   4.759
 4688SOL     OW14962   0.842   3.341   6.642
 4688SOL    HW114963   0.796   3.386   6.719
 4688SOL    HW214964   0.900   3.267   6.677
 4689SOL     OW14965   6.234   0.338   5.584
 4689SOL    HW114966   6.329   0.341   5.552
 4689SOL    HW214967   6.210   0.427   5.624
 4690SOL     OW14968   1.141   0.989   6.996
 4690SOL    HW114969   1.059   0.952   0.020
 4690SOL    HW214970   1.138   0.972   6.897
 4691SOL     OW14971   2.689   4.079   1.096
 4691SOL    HW114972   2.590   4.085   1.102
 4691SOL    HW214973   2.717   4.077   1.000
 4692SOL     OW14974   0.090   5.275   2.539
 4692SOL    HW114975   0.157   5.202   2.528
 4692SOL    HW214976   0.010   5.256   2.482
 4693SOL     OW14977   0.340   1.603   4.966
 4693SOL    HW114978   0.319   1.653   4.882
 4693SOL    HW214979   0.256   1.589   5.018
 4694SOL     OW14980   2.834   0.591   0.101
 4694SOL    HW114981   2.891   0.514   0.128
 4694SOL    HW214982   2.777   0.565   0.023
 4695SOL     OW14983   3.805   3.202   1.575
 4695SOL    HW114984   3.836   3.222   1.668
 4695SOL    HW214985   3.843   3.115   1.545
 4696SOL     OW14986   1.393   4.184   5.916
 4696SOL    HW114987   1.396   4.159   5.819
 4696SOL    HW214988   1.476   4.236   5.940
 4697SOL     OW14989   1.685   3.516   0.738
 4697SOL    HW114990   1.620   3.459   0.687
 4697SOL    HW214991   1.774   3.471   0.743
 4698SOL     OW14992   4.972   4.779   2.182
 4698SOL    HW114993   4.891   4.722   2.176
 4698SOL    HW214994   4.945   4.875   2.182
 4699SOL     OW14995   0.287   6.596   2.578
 4699SOL    HW114996   0.237   6.683   2.584
 4699SOL    HW214997   0.274   6.545   2.663
 4700SOL     OW14998   5.262   2.018   1.756
 4700SOL    HW114999   5.209   2.098   1.730
 4700SOL    HW215000   5.201   1.942   1.776
 4701SOL     OW15001   0.900   1.357   0.174
 4701SOL    HW115002   0.945   1.352   0.085
 4701SOL    HW215003   0.883   1.264   0.208
 4702SOL     OW15004   4.762   4.101   6.628
 4702SOL    HW115005   4.780   4.167   6.701
 4702SOL    HW215006   4.688   4.135   6.570
 4703SOL     OW15007   0.849   1.947   3.037
 4703SOL    HW115008   0.781   2.003   2.989
 4703SOL    HW215009   0.941   1.979   3.014
 4704SOL     OW15010   0.295   5.793   0.898
 4704SOL    HW115011   0.375   5.848   0.873
 4704SOL    HW215012   0.234   5.786   0.819
 4705SOL     OW15013   3.675   2.897   3.448
 4705SOL    HW115014   3.605   2.968   3.436
 4705SOL    HW215015   3.661   2.851   3.535
 4706SOL     OW15016   3.530   5.950   6.712
 4706SOL    HW115017   3.562   6.008   6.638
 4706SOL    HW215018   3.600   5.882   6.734
 4707SOL     OW15019   2.135   5.685   1.243
 4707SOL    HW115020   2.104   5.594   1.219
 4707SOL    HW215021   2.062   5.751   1.224
 4708SOL     OW15022   2.694   2.895   0.834
 4708SOL    HW115023   2.731   2.802   0.842
 4708SOL    HW215024   2.724   2.935   0.747
 4709SOL     OW15025   4.193   5.322   4.919
 4709SOL    HW115026   4.247   5.241   4.894
 4709SOL    HW215027   4.161   5.313   5.013
 4710SOL     OW15028   4.810   1.425   6.452
 4710SOL    HW115029   4.852   1.463   6.534
 4710SOL    HW215030   4.733   1.367   6.478
 4711SOL     OW15031   3.687   0.185   2.364
 4711SOL    HW115032   3.633   0.255   2.411
 4711SOL    HW215033   3.689   0.205   2.266
 4712SOL     OW15034   2.436   4.491   1.216
 4712SOL    HW115035   2.522   4.447   1.194
 4712SOL    HW215036   2.435   4.517   1.313
 4713SOL     OW15037   3.285   4.517   1.508
 4713SOL    HW115038   3.256   4.458   1.432
 4713SOL    HW215039   3.215   4.518   1.578
 4714SOL     OW15040   1.820   1.597   0.614
 4714SOL    HW115041   1.754   1.561   0.549
 4714SOL    HW215042   1.903   1.541   0.611
 4715SOL     OW15043   6.471   3.356   2.256
 4715SOL    HW115044   6.544   3.409   2.212
 4715SOL    HW215045   6.469   3.264   2.218
 4716SOL     OW15046   3.782   4.528   6.189
 4716SOL    HW115047   3.768   4.481   6.276
 4716SOL    HW215048   3.700   4.581   6.168
 4717SOL     OW15049   1.121   5.825   2.261
 4717SOL    HW115050   1.085   5.757   2.324
 4717SOL    HW215051   1.143   5.782   2.174
 4718SOL     OW15052   5.114   1.858   6.429
 4718SOL    HW115053   5.120   1.758   6.430
 4718SOL    HW215054   5.204   1.897   6.409
 4719SOL     OW15055   4.962   3.711   3.210
 4719SOL    HW115056   4.926   3.755   3.293
 4719SOL    HW215057   4.933   3.616   3.209
 4720SOL     OW15058   2.333   6.715   5.651
 4720SOL    HW115059   2.271   6.700   5.728
 4720SOL    HW215060   2.372   6.807   5.657
 4721SOL     OW15061   0.444   2.205   1.682
 4721SOL    HW115062   0.542   2.213   1.698
 4721SOL    HW215063   0.425   2.220   1.585
 4722SOL     OW15064   1.822   6.252   0.122
 4722SOL    HW115065   1.808   6.183   0.193
 4722SOL    HW215066   1.766   6.332   0.143
 4723SOL     OW15067   2.138   6.167   6.128
 4723SOL    HW115068   2.093   6.108   6.061
 4723SOL    HW215069   2.173   6.249   6.083
 4724SOL     OW15070   4.441   6.500   2.822
 4724SOL    HW115071   4.523   6.481   2.768
 4724SOL    HW215072   4.394   6.580   2.784
 4725SOL     OW15073   5.336   6.367   3.139
 4725SOL    HW115074   5.357   6.370   3.237
 4725SOL    HW215075   5.262   6.302   3.122
 4726SOL     OW15076   0.843   3.728   6.856
 4726SOL    HW115077   0.844   3.701   6.760
 4726SOL    HW215078   0.784   3.809   6.867
 4727SOL     OW15079   7.016   5.635   0.064
 4727SOL    HW115080   7.006   5.714   0.002
 4727SOL    HW215081   0.093   5.626   0.091
 4728SOL     OW15082   5.879   1.413   0.761
 4728SOL    HW115083   5.808   1.479   0.736
 4728SOL    HW215084   5.952   1.461   0.810
 4729SOL     OW15085   1.883   0.945   3.047
 4729SOL    HW115086   1.896   0.853   3.083
 4729SOL    HW215087   1.911   1.012   3.116
 4730SOL     OW15088   2.592   5.961   5.495
 4730SOL    HW115089   2.605   6.009   5.408
 4730SOL    HW215090   2.629   5.868   5.488
 4731SOL     OW15091   5.993   0.587   5.154
 4731SOL    HW115092   5.923   0.626   5.214
 4731SOL    HW215093   6.061   0.539   5.210
 4732SOL     OW15094   6.932   3.451   6.527
 4732SOL    HW115095   6.970   3.362   6.502
 4732SOL    HW215096   6.855   3.439   6.588
 4733SOL     OW15097   0.521   4.021   2.876
 4733SOL    HW115098   0.468   3.963   2.815
 4733SOL    HW215099   0.618   4.015   2.852
 4734SOL     OW15100   5.574   2.917   6.730
 4734SOL    HW115101   5.506   2.890   6.798
 4734SOL    HW215102   5.666   2.906   6.769
 4735SOL     OW15103   1.362   4.347   3.629
 4735SOL    HW115104   1.389   4.444   3.632
 4735SOL    HW215105   1.314   4.324   3.713
 4736SOL     OW15106   6.891   0.837   6.336
 4736SOL    HW115107   6.968   0.817   6.396
 4736SOL    HW215108   6.926   0.869   6.248
 4737SOL     OW15109   2.387   4.646   2.075
 4737SOL    HW115110   2.459   4.639   2.006
 4737SOL    HW215111   2.412   4.592   2.156
 4738SOL     OW15112   6.824   6.127   1.452
 4738SOL    HW115113   6.917   6.126   1.415
 4738SOL    HW215114   6.776   6.044   1.424
 4739SOL     OW15115   4.285   0.308   2.151
 4739SOL    HW115116   4.264   0.251   2.230
 4739SOL    HW215117   4.344   0.383   2.179
 4740SOL     OW15118   0.424   1.666   2.411
 4740SOL    HW115119   0.423   1.615   2.497
 4740SOL    HW215120   0.331   1.695   2.388
 4741SOL     OW15121   3.918   2.508   1.438
 4741SOL    HW115122   3.887   2.435   1.377
 4741SOL    HW215123   3.951   2.469   1.524
 4742SOL     OW15124   2.328   6.892   0.091
 4742SOL    HW115125   2.412   6.938   0.063
 4742SOL    HW215126   2.342   6.793   0.092
 4743SOL     OW15127   1.889   3.830   2.325
 4743SOL    HW115128   1.975   3.787   2.300
 4743SOL    HW215129   1.840   3.771   2.390
 4744SOL     OW15130   2.071   5.695   0.867
 4744SOL    HW115131   2.159   5.696   0.819
 4744SOL    HW215132   1.997   5.690   0.800
 4745SOL     OW15133   2.792   3.332   0.248
 4745SOL    HW115134   2.857   3.312   0.175
 4745SOL    HW215135   2.833   3.310   0.336
 4746SOL     OW15136   4.787   5.114   4.250
 4746SOL    HW115137   4.794   5.106   4.349
 4746SOL    HW215138   4.706   5.168   4.227
 4747SOL     OW15139   1.328   2.671   0.886
 4747SOL    HW115140   1.391   2.676   0.809
 4747SOL    HW215141   1.239   2.637   0.854
 4748SOL     OW15142   1.825   6.576   1.965
 4748SOL    HW115143   1.870   6.664   1.980
 4748SOL    HW215144   1.880   6.520   1.903
 4749SOL     OW15145   2.461   6.963   0.463
 4749SOL    HW115146   2.519   6.941   0.385
 4749SOL    HW215147   2.433   0.041   0.458
 4750SOL     OW15148   6.132   4.106   5.283
 4750SOL    HW115149   6.199   4.039   5.316
 4750SOL    HW215150   6.135   4.109   5.183
 4751SOL     OW15151   4.612   1.668   2.129
 4751SOL    HW115152   4.515   1.685   2.115
 4751SOL    HW215153   4.665   1.737   2.079
 4752SOL     OW15154   4.669   1.335   0.322
 4752SOL    HW115155   4.733   1.411   0.312
 4752SOL    HW215156   4.712   1.250   0.291
 4753SOL     OW15157   1.508   6.662   4.746
 4753SOL    HW115158   1.567   6.610   4.807
 4753SOL    HW215159   1.507   6.619   4.655
 4754SOL     OW15160   4.352   4.204   5.895
 4754SOL    HW115161   4.310   4.278   5.949
 4754SOL    HW215162   4.438   4.177   5.936
 4755SOL     OW15163   1.243   0.532   1.589
 4755SOL    HW115164   1.250   0.530   1.489
 4755SOL    HW215165   1.297   0.458   1.628
 4756SOL     OW15166   6.530   4.501   7.017
 4756SOL    HW115167   6.480   4.455   0.072
 4756SOL    HW215168   6.607   4.551   0.038
 4757SOL     OW15169   1.258   2.669   1.499
 4757SOL    HW115170   1.196   2.593   1.482
 4757SOL    HW215171   1.247   2.738   1.427
 4758SOL     OW15172   1.426   0.287   3.531
 4758SOL    HW115173   1.495   0.274   3.603
 4758SOL    HW215174   1.362   0.359   3.559
 4759SOL     OW15175   1.007   5.249   0.342
 4759SOL    HW115176   1.005   5.310   0.421
 4759SOL    HW215177   0.957   5.165   0.364
 4760SOL     OW15178   1.133   0.055   1.126
 4760SOL    HW115179   1.181   0.127   1.075
 4760SOL    HW215180   1.111   6.998   1.065
 4761SOL     OW15181   0.234   6.783   0.512
 4761SOL    HW115182   0.150   6.823   0.476
 4761SOL    HW215183   0.251   6.818   0.604
 4762SOL     OW15184   1.834   5.603   2.073
 4762SOL    HW115185   1.782   5.546   2.137
 4762SOL    HW215186   1.775   5.632   1.998
 4763SOL     OW15187   4.711   6.074   2.163
 4763SOL    HW115188   4.753   5.991   2.199
 4763SOL    HW215189   4.781   6.133   2.124
 4764SOL     OW15190   4.892   3.645   5.315
 4764SOL    HW115191   4.862   3.618   5.407
 4764SOL    HW215192   4.821   3.619   5.249
 4765SOL     OW15193   3.009   1.204   5.126
 4765SOL    HW115194   3.103   1.222   5.098
 4765SOL    HW215195   2.959   1.166   5.048
 4766SOL     OW15196   5.594   6.712   4.448
 4766SOL    HW115197   5.666   6.774   4.478
 4766SOL    HW215198   5.554   6.746   4.363
 4767SOL     OW15199   2.424   5.464   4.916
 4767SOL    HW115200   2.426   5.369   4.884
 4767SOL    HW215201   2.449   5.468   5.012
 4768SOL     OW15202   4.513   2.655   6.496
 4768SOL    HW115203   4.589   2.594   6.519
 4768SOL    HW215204   4.549   2.745   6.470
 4769SOL     OW15205   3.181   6.023   1.055
 4769SOL    HW115206   3.121   5.978   0.989
 4769SOL    HW215207   3.171   6.122   1.047
 4770SOL     OW15208   6.794   1.686   5.515
 4770SOL    HW115209   6.870   1.703   5.578
 4770SOL    HW215210   6.735   1.767   5.511
 4771SOL     OW15211   2.356   7.015   5.164
 4771SOL    HW115212   2.371   6.955   5.086
 4771SOL    HW215213   2.274   6.987   5.212
 4772SOL     OW15214   2.927   5.079   0.827
 4772SOL    HW115215   2.905   5.051   0.734
 4772SOL    HW215216   2.893   5.011   0.892
 4773SOL     OW15217   2.371   5.854   4.778
 4773SOL    HW115218   2.460   5.855   4.823
 4773SOL    HW215219   2.321   5.938   4.801
 4774SOL     OW15220   2.071   4.267   0.850
 4774SOL    HW115221   1.977   4.235   0.852
 4774SOL    HW215222   2.092   4.303   0.759
 4775SOL     OW15223   5.165   6.228   4.474
 4775SOL    HW115224   5.215   6.151   4.512
 4775SOL    HW215225   5.089   6.195   4.419
 4776SOL     OW15226   1.405   0.405   5.350
 4776SOL    HW115227   1.500   0.430   5.369
 4776SOL    HW215228   1.381   0.323   5.401
 4777SOL     OW15229   1.247   5.399   0.704
 4777SOL    HW115230   1.159   5.359   0.678
 4777SOL    HW215231   1.271   5.368   0.796
 4778SOL     OW15232   0.877   2.463   4.705
 4778SOL    HW115233   0.913   2.473   4.798
 4778SOL    HW215234   0.912   2.536   4.648
 4779SOL     OW15235   6.236   0.657   4.105
 4779SOL    HW115236   6.242   0.752   4.074
 4779SOL    HW215237   6.219   0.597   4.026
 4780SOL     OW15238   5.672   2.587   5.754
 4780SOL    HW115239   5.581   2.623   5.775
 4780SOL    HW215240   5.685   2.499   5.802
 4781SOL     OW15241   2.304   5.869   2.652
 4781SOL    HW115242   2.379   5.803   2.658
 4781SOL    HW215243   2.252   5.853   2.568
 4782SOL     OW15244   5.317   5.509   6.019
 4782SOL    HW115245   5.259   5.459   5.955
 4782SOL    HW215246   5.316   5.606   5.995
 4783SOL     OW15247   5.919   4.029   0.485
 4783SOL    HW115248   5.952   4.114   0.443
 4783SOL    HW215249   5.870   3.975   0.417
 4784SOL     OW15250   6.049   2.357   6.561
 4784SOL    HW115251   5.985   2.433   6.546
 4784SOL    HW215252   6.011   2.273   6.521
 4785SOL     OW15253   0.430   6.110   2.915
 4785SOL    HW115254   0.522   6.087   2.946
 4785SOL    HW215255   0.408   6.204   2.943
 4786SOL     OW15256   2.823   6.896   0.961
 4786SOL    HW115257   2.730   6.932   0.949
 4786SOL    HW215258   2.824   6.799   0.939
 4787SOL     OW15259   4.516   1.999   4.233
 4787SOL    HW115260   4.585   2.009   4.161
 4787SOL    HW215261   4.430   2.039   4.202
 4788SOL     OW15262   6.261   5.914   7.002
 4788SOL    HW115263   6.236   5.863   6.920
 4788SOL    HW215264   6.262   5.852   0.062
 4789SOL     OW15265   4.759   1.869   1.985
 4789SOL    HW115266   4.735   1.905   1.895
 4789SOL    HW215267   4.853   1.897   2.007
 4790SOL     OW15268   5.474   1.575   5.274
 4790SOL    HW115269   5.523   1.561   5.188
 4790SOL    HW215270   5.441   1.487   5.307
 4791SOL     OW15271   0.363   3.127   1.008
 4791SOL    HW115272   0.264   3.126   1.011
 4791SOL    HW215273   0.396   3.220   1.025
 4792SOL     OW15274   1.563   4.329   4.576
 4792SOL    HW115275   1.526   4.297   4.662
 4792SOL    HW215276   1.653   4.287   4.560
 4793SOL     OW15277   1.271   4.150   6.230
 4793SOL    HW115278   1.214   4.215   6.181
 4793SOL    HW215279   1.241   4.057   6.211
 4794SOL     OW15280   4.826   0.230   3.763
 4794SOL    HW115281   4.865   0.305   3.817
 4794SOL    HW215282   4.894   0.157   3.754
 4795SOL     OW15283   0.643   1.658   4.111
 4795SOL    HW115284   0.714   1.689   4.048
 4795SOL    HW215285   0.635   1.721   4.188
 4796SOL     OW15286   3.856   1.396   5.951
 4796SOL    HW115287   3.770   1.429   5.990
 4796SOL    HW215288   3.863   1.428   5.856
 4797SOL     OW15289   0.379   5.264   4.653
 4797SOL    HW115290   0.339   5.347   4.616
 4797SOL    HW215291   0.396   5.199   4.579
 4798SOL     OW15292   5.044   5.321   6.496
 4798SOL    HW115293   5.063   5.259   6.420
 4798SOL    HW215294   4.947   5.316   6.520
 4799SOL     OW15295   3.050   2.055   6.329
 4799SOL    HW115296   3.135   2.090   6.368
 4799SOL    HW215297   3.053   1.955   6.330
 4800SOL     OW15298   2.297   4.746   0.547
 4800SOL    HW115299   2.378   4.746   0.488
 4800SOL    HW215300   2.323   4.713   0.638
 4801SOL     OW15301   4.904   2.364   1.394
 4801SOL    HW115302   4.888   2.312   1.478
 4801SOL    HW215303   4.987   2.418   1.404
 4802SOL     OW15304   0.446   6.165   2.027
 4802SOL    HW115305   0.399   6.097   1.971
 4802SOL    HW215306   0.506   6.118   2.093
 4803SOL     OW15307   5.765   4.963   0.140
 4803SOL    HW115308   5.814   4.912   0.211
 4803SOL    HW215309   5.819   4.966   0.057
 4804SOL     OW15310   5.111   1.672   0.537
 4804SOL    HW115311   5.015   1.699   0.522
 4804SOL    HW215312   5.155   1.740   0.596
 4805SOL     OW15313   6.640   1.857   1.989
 4805SOL    HW115314   6.701   1.778   1.998
 4805SOL    HW215315   6.688   1.931   1.942
 4806SOL     OW15316   1.498   3.384   2.950
 4806SOL    HW115317   1.429   3.410   3.018
 4806SOL    HW215318   1.539   3.466   2.910
 4807SOL     OW15319   1.135   3.389   6.810
 4807SOL    HW115320   1.204   3.338   6.862
 4807SOL    HW215321   1.131   3.484   6.843
 4808SOL     OW15322   3.949   6.195   1.025
 4808SOL    HW115323   4.011   6.141   1.083
 4808SOL    HW215324   3.961   6.168   0.930
 4809SOL     OW15325   3.535   4.716   1.523
 4809SOL    HW115326   3.448   4.668   1.515
 4809SOL    HW215327   3.535   4.796   1.462
 4810SOL     OW15328   0.766   4.198   3.972
 4810SOL    HW115329   0.859   4.209   3.936
 4810SOL    HW215330   0.766   4.216   4.071
 4811SOL     OW15331   3.484   3.695   4.693
 4811SOL    HW115332   3.486   3.658   4.786
 4811SOL    HW215333   3.546   3.774   4.688
 4812SOL     OW15334   0.762   6.439   1.672
 4812SOL    HW115335   0.798   6.360   1.721
 4812SOL    HW215336   0.729   6.507   1.738
 4813SOL     OW15337   6.145   1.388   7.016
 4813SOL    HW115338   6.164   1.334   0.080
 4813SOL    HW215339   6.050   1.372   6.988
 4814SOL     OW15340   6.690   4.279   1.895
 4814SOL    HW115341   6.779   4.296   1.937
 4814SOL    HW215342   6.658   4.362   1.850
 4815SOL     OW15343   5.679   5.103   2.717
 4815SOL    HW115344   5.676   5.022   2.660
 4815SOL    HW215345   5.589   5.147   2.717
 4816SOL     OW15346   1.901   6.615   1.566
 4816SOL    HW115347   1.825   6.646   1.624
 4816SOL    HW215348   1.930   6.690   1.507
 4817SOL     OW15349   3.409   0.870   1.341
 4817SOL    HW115350   3.354   0.858   1.424
 4817SOL    HW215351   3.350   0.861   1.261
 4818SOL     OW15352   2.594   0.305   4.378
 4818SOL    HW115353   2.561   0.275   4.468
 4818SOL    HW215354   2.673   0.249   4.351
 4819SOL     OW15355   2.727   1.996   1.178
 4819SOL    HW115356   2.789   2.017   1.254
 4819SOL    HW215357   2.781   1.959   1.102
 4820SOL     OW15358   0.322   3.280   2.006
 4820SOL    HW115359   0.377   3.199   1.987
 4820SOL    HW215360   0.342   3.351   1.938
 4821SOL     OW15361   6.265   5.725   1.755
 4821SOL    HW115362   6.256   5.727   1.655
 4821SOL    HW215363   6.346   5.778   1.782
 4822SOL     OW15364   1.562   3.845   3.887
 4822SOL    HW115365   1.581   3.940   3.865
 4822SOL    HW215366   1.471   3.837   3.926
 4823SOL     OW15367   1.043   0.199   3.896
 4823SOL    HW115368   1.006   0.202   3.989
 4823SOL    HW215369   1.118   0.133   3.891
 4824SOL     OW15370   5.244   2.157   3.115
 4824SOL    HW115371   5.329   2.127   3.073
 4824SOL    HW215372   5.242   2.257   3.118
 4825SOL     OW15373   1.448   3.270   4.277
 4825SOL    HW115374   1.357   3.253   4.239
 4825SOL    HW215375   1.475   3.192   4.333
 4826SOL     OW15376   0.314   6.495   0.508
 4826SOL    HW115377   0.275   6.581   0.542
 4826SOL    HW215378   0.282   6.419   0.565
 4827SOL     OW15379   4.595   1.038   1.249
 4827SOL    HW115380   4.542   1.080   1.323
 4827SOL    HW215381   4.585   0.938   1.254
 4828SOL     OW15382   5.541   3.693   1.556
 4828SOL    HW115383   5.581   3.739   1.636
 4828SOL    HW215384   5.595   3.716   1.475
 4829SOL     OW15385   3.381   0.159   5.953
 4829SOL    HW115386   3.449   0.122   5.890
 4829SOL    HW215387   3.301   0.099   5.954
 4830SOL     OW15388   5.044   6.034   3.598
 4830SOL    HW115389   5.079   6.100   3.532
 4830SOL    HW215390   4.944   6.036   3.598
 4831SOL     OW15391   6.539   4.930   4.948
 4831SOL    HW115392   6.572   4.900   5.037
 4831SOL    HW215393   6.617   4.958   4.891
 4832SOL     OW15394   3.594   2.615   5.837
 4832SOL    HW115395   3.590   2.635   5.739
 4832SOL    HW215396   3.560   2.694   5.888
 4833SOL     OW15397   4.495   1.439   2.929
 4833SOL    HW115398   4.557   1.515   2.947
 4833SOL    HW215399   4.486   1.383   3.012
 4834SOL     OW15400   3.985   0.466   0.554
 4834SOL    HW115401   4.036   0.547   0.525
 4834SOL    HW215402   3.903   0.456   0.498
 4835SOL     OW15403   1.619   0.144   6.395
 4835SOL    HW115404   1.522   0.161   6.413
 4835SOL    HW215405   1.672   0.158   6.479
 4836SOL     OW15406   4.587   1.772   3.987
 4836SOL    HW115407   4.536   1.849   3.950
 4836SOL    HW215408   4.570   1.765   4.085
 4837SOL     OW15409   3.138   2.913   1.589
 4837SOL    HW115410   3.207   2.961   1.534
 4837SOL    HW215411   3.126   2.820   1.553
 4838SOL     OW15412   3.611   4.945   2.163
 4838SOL    HW115413   3.565   4.993   2.089
 4838SOL    HW215414   3.622   4.848   2.139
 4839SOL     OW15415   0.298   4.767   5.041
 4839SOL    HW115416   0.350   4.831   4.984
 4839SOL    HW215417   0.230   4.721   4.984
 4840SOL     OW15418   5.724   6.426   0.068
 4840SOL    HW115419   5.733   6.501   0.133
 4840SOL    HW215420   5.775   6.448   7.003
 4841SOL     OW15421   3.678   5.561   1.522
 4841SOL    HW115422   3.718   5.617   1.450
 4841SOL    HW215423   3.592   5.602   1.553
 4842SOL     OW15424   3.595   5.362   2.077
 4842SOL    HW115425   3.516   5.395   2.025
 4842SOL    HW215426   3.645   5.441   2.114
 4843SOL     OW15427   6.830   3.925   0.080
 4843SOL    HW115428   6.867   3.833   0.069
 4843SOL    HW215429   6.889   3.977   0.142
 4844SOL     OW15430   6.929   4.032   6.678
 4844SOL    HW115431   6.958   3.941   6.707
 4844SOL    HW215432   6.998   4.099   6.704
 4845SOL     OW15433   6.438   5.515   4.458
 4845SOL    HW115434   6.410   5.428   4.499
 4845SOL    HW215435   6.480   5.572   4.528
 4846SOL     OW15436   0.485   3.721   0.821
 4846SOL    HW115437   0.460   3.651   0.887
 4846SOL    HW215438   0.545   3.788   0.864
 4847SOL     OW15439   3.672   1.979   5.802
 4847SOL    HW115440   3.678   2.026   5.890
 4847SOL    HW215441   3.594   2.016   5.750
 4848SOL     OW15442   1.824   1.603   4.160
 4848SOL    HW115443   1.879   1.632   4.082
 4848SOL    HW215444   1.756   1.536   4.131
 4849SOL     OW15445   1.644   6.614   6.778
 4849SOL    HW115446   1.681   6.540   6.835
 4849SOL    HW215447   1.684   6.608   6.686
 4850SOL     OW15448   3.397   0.875   1.806
 4850SOL    HW115449   3.491   0.869   1.771
 4850SOL    HW215450   3.399   0.902   1.902
 4851SOL     OW15451   3.979   6.479   5.369
 4851SOL    HW115452   3.973   6.442   5.462
 4851SOL    HW215453   3.898   6.534   5.350
 4852SOL     OW15454   1.464   0.314   0.200
 4852SOL    HW115455   1.528   0.248   0.162
 4852SOL    HW215456   1.512   0.375   0.264
 4853SOL     OW15457   3.570   1.362   2.680
 4853SOL    HW115458   3.657   1.353   2.631
 4853SOL    HW215459   3.508   1.288   2.652
 4854SOL     OW15460   4.613   6.084   2.589
 4854SOL    HW115461   4.600   6.131   2.502
 4854SOL    HW215462   4.528   6.038   2.615
 4855SOL     OW15463   5.805   1.873   1.990
 4855SOL    HW115464   5.789   1.970   2.012
 4855SOL    HW215465   5.721   1.822   2.003
 4856SOL     OW15466   2.415   4.821   2.957
 4856SOL    HW115467   2.439   4.913   2.924
 4856SOL    HW215468   2.440   4.754   2.887
 4857SOL     OW15469   1.346   1.770   5.910
 4857SOL    HW115470   1.354   1.869   5.897
 4857SOL    HW215471   1.304   1.751   5.999
 4858SOL     OW15472   1.634   1.480   4.015
 4858SOL    HW115473   1.659   1.413   3.945
 4858SOL    HW215474   1.536   1.497   4.012
 4859SOL     OW15475   1.370   5.939   4.103
 4859SOL    HW115476   1.320   5.896   4.028
 4859SOL    HW215477   1.425   5.869   4.150
 4860SOL     OW15478   4.019   5.318   2.134
 4860SOL    HW115479   3.995   5.244   2.070
 4860SOL    HW215480   3.969   5.305   2.220
 4861SOL     OW15481   5.392   5.239   0.030
 4861SOL    HW115482   5.296   5.263   0.038
 4861SOL    HW215483   5.410   5.154   0.079
 4862SOL     OW15484   2.576   5.171   4.391
 4862SOL    HW115485   2.540   5.089   4.435
 4862SOL    HW215486   2.501   5.236   4.376
 4863SOL     OW15487   5.982   4.921   0.514
 4863SOL    HW115488   6.003   4.921   0.612
 4863SOL    HW215489   6.067   4.915   0.462
 4864SOL     OW15490   3.454   1.120   4.158
 4864SOL    HW115491   3.527   1.152   4.218
 4864SOL    HW215492   3.395   1.197   4.134
 4865SOL     OW15493   2.295   0.287   5.084
 4865SOL    HW115494   2.274   0.219   5.153
 4865SOL    HW215495   2.277   0.249   4.993
 4866SOL     OW15496   6.625   3.887   1.273
 4866SOL    HW115497   6.526   3.883   1.263
 4866SOL    HW215498   6.649   3.879   1.370
 4867SOL     OW15499   4.642   5.445   2.326
 4867SOL    HW115500   4.563   5.507   2.325
 4867SOL    HW215501   4.724   5.495   2.300
 4868SOL     OW15502   6.755   5.099   2.236
 4868SOL    HW115503   6.732   5.020   2.292
 4868SOL    HW215504   6.727   5.082   2.141
 4869SOL     OW15505   1.249   1.729   0.656
 4869SOL    HW115506   1.202   1.670   0.590
 4869SOL    HW215507   1.217   1.707   0.749
 4870SOL     OW15508   0.699   6.169   1.764
 4870SOL    HW115509   0.706   6.070   1.760
 4870SOL    HW215510   0.706   6.200   1.859
 4871SOL     OW15511   1.010   0.520   4.576
 4871SOL    HW115512   1.056   0.532   4.488
 4871SOL    HW215513   1.068   0.465   4.636
 4872SOL     OW15514   6.585   6.706   3.086
 4872SOL    HW115515   6.684   6.697   3.089
 4872SOL    HW215516   6.544   6.615   3.079
 4873SOL     OW15517   6.998   5.828   4.466
 4873SOL    HW115518   6.961   5.764   4.399
 4873SOL    HW215519   6.929   5.847   4.536
 4874SOL     OW15520   5.247   2.816   2.409
 4874SOL    HW115521   5.175   2.834   2.342
 4874SOL    HW215522   5.271   2.901   2.456
 4875SOL     OW15523   5.349   0.248   6.724
 4875SOL    HW115524   5.257   0.286   6.718
 4875SOL    HW215525   5.371   0.201   6.639
 4876SOL     OW15526   6.768   1.283   3.668
 4876SOL    HW115527   6.855   1.246   3.699
 4876SOL    HW215528   6.780   1.378   3.641
 4877SOL     OW15529   0.268   2.273   5.262
 4877SOL    HW115530   0.268   2.371   5.282
 4877SOL    HW215531   0.179   2.245   5.228
 4878SOL     OW15532   6.760   2.018   2.404
 4878SOL    HW115533   6.689   1.956   2.371
 4878SOL    HW215534   6.731   2.113   2.391
 4879SOL     OW15535   4.661   2.065   1.762
 4879SOL    HW115536   4.589   2.094   1.825
 4879SOL    HW215537   4.621   2.013   1.687
 4880SOL     OW15538   6.228   3.721   0.137
 4880SOL    HW115539   6.170   3.657   0.187
 4880SOL    HW215540   6.310   3.741   0.191
 4881SOL     OW15541   1.753   1.881   0.550
 4881SOL    HW115542   1.755   1.785   0.575
 4881SOL    HW215543   1.810   1.896   0.469
 4882SOL     OW15544   4.093   2.231   5.494
 4882SOL    HW115545   4.026   2.190   5.556
 4882SOL    HW215546   4.185   2.208   5.525
 4883SOL     OW15547   5.111   4.001   1.351
 4883SOL    HW115548   5.102   4.008   1.252
 4883SOL    HW215549   5.143   4.088   1.388
 4884SOL     OW15550   3.570   5.207   0.379
 4884SOL    HW115551   3.550   5.232   0.285
 4884SOL    HW215552   3.488   5.167   0.421
 4885SOL     OW15553   2.333   4.310   1.950
 4885SOL    HW115554   2.374   4.356   2.029
 4885SOL    HW215555   2.250   4.359   1.923
 4886SOL     OW15556   2.833   0.054   1.456
 4886SOL    HW115557   2.857   6.977   1.473
 4886SOL    HW215558   2.769   0.085   1.526
 4887SOL     OW15559   1.139   6.156   1.920
 4887SOL    HW115560   1.110   6.068   1.882
 4887SOL    HW215561   1.120   6.229   1.854
 4888SOL     OW15562   2.567   7.005   2.837
 4888SOL    HW115563   2.507   0.013   2.913
 4888SOL    HW215564   2.516   7.007   2.751
 4889SOL     OW15565   6.698   1.470   5.302
 4889SOL    HW115566   6.630   1.512   5.242
 4889SOL    HW215567   6.749   1.541   5.350
 4890SOL     OW15568   0.964   2.280   5.662
 4890SOL    HW115569   1.039   2.303   5.601
 4890SOL    HW215570   0.896   2.226   5.612
 4891SOL     OW15571   2.408   4.840   6.568
 4891SOL    HW115572   2.391   4.923   6.621
 4891SOL    HW215573   2.438   4.767   6.630
 4892SOL     OW15574   5.200   5.945   2.003
 4892SOL    HW115575   5.271   5.915   2.067
 4892SOL    HW215576   5.224   6.036   1.967
 4893SOL     OW15577   6.665   3.481   2.072
 4893SOL    HW115578   6.631   3.458   1.980
 4893SOL    HW215579   6.764   3.496   2.068
 4894SOL     OW15580   3.339   0.040   2.217
 4894SOL    HW115581   3.348   0.123   2.273
 4894SOL    HW215582   3.289   0.062   2.133
 4895SOL     OW15583   1.161   4.927   3.183
 4895SOL    HW115584   1.189   4.936   3.279
 4895SOL    HW215585   1.235   4.957   3.124
 4896SOL     OW15586   3.019   4.827   2.636
 4896SOL    HW115587   2.998   4.782   2.549
 4896SOL    HW215588   3.116   4.848   2.641
 4897SOL     OW15589   1.826   5.973   5.618
 4897SOL    HW115590   1.743   5.932   5.578
 4897SOL    HW215591   1.804   6.064   5.653
 4898SOL     OW15592   4.229   1.198   5.338
 4898SOL    HW115593   4.176   1.203   5.253
 4898SOL    HW215594   4.271   1.287   5.356
 4899SOL     OW15595   6.016   5.301   3.065
 4899SOL    HW115596   5.994   5.287   2.969
 4899SOL    HW215597   6.044   5.396   3.079
 4900SOL     OW15598   4.187   6.163   5.768
 4900SOL    HW115599   4.121   6.122   5.705
 4900SOL    HW215600   4.253   6.217   5.716
 4901SOL     OW15601   1.933   1.370   4.890
 4901SOL    HW115602   1.860   1.331   4.947
 4901SOL    HW215603   1.928   1.329   4.798
 4902SOL     OW15604   1.334   0.858   5.884
 4902SOL    HW115605   1.388   0.905   5.815
 4902SOL    HW215606   1.243   0.839   5.848
 4903SOL     OW15607   4.514   5.743   1.001
 4903SOL    HW115608   4.426   5.695   0.999
 4903SOL    HW215609   4.579   5.696   0.942
 4904SOL     OW15610   1.750   1.179   5.724
 4904SOL    HW115611   1.674   1.242   5.741
 4904SOL    HW215612   1.714   1.085   5.721
 4905SOL     OW15613   2.033   0.729   3.791
 4905SOL    HW115614   2.033   0.776   3.880
 4905SOL    HW215615   2.128   0.712   3.763
 4906SOL     OW15616   4.979   2.998   5.495
 4906SOL    HW115617   4.883   2.983   5.473
 4906SOL    HW215618   4.988   3.077   5.557
 4907SOL     OW15619   5.014   1.283   0.865
 4907SOL    HW115620   5.006   1.328   0.954
 4907SOL    HW215621   5.107   1.296   0.830
 4908SOL     OW15622   4.888   0.005   0.350
 4908SOL    HW115623   4.892   6.931   0.313
 4908SOL    HW215624   4.856   0.002   0.444
 4909SOL     OW15625   6.868   4.457   3.846
 4909SOL    HW115626   6.813   4.444   3.763
 4909SOL    HW215627   6.883   4.555   3.860
 4910SOL     OW15628   5.899   0.785   3.909
 4910SOL    HW115629   5.998   0.798   3.899
 4910SOL    HW215630   5.861   0.861   3.962
 4911SOL     OW15631   1.761   3.267   3.711
 4911SOL    HW115632   1.799   3.259   3.619
 4911SOL    HW215633   1.815   3.212   3.774
 4912SOL     OW15634   5.236   1.929   5.586
 4912SOL    HW115635   5.224   1.845   5.533
 4912SOL    HW215636   5.149   1.954   5.629
 4913SOL     OW15637   5.579   3.428   5.422
 4913SOL    HW115638   5.531   3.441   5.508
 4913SOL    HW215639   5.513   3.407   5.350
 4914SOL     OW15640   4.409   0.348   5.563
 4914SOL    HW115641   4.504   0.377   5.560
 4914SOL    HW215642   4.381   0.313   5.474
 4915SOL     OW15643   2.876   6.456   5.252
 4915SOL    HW115644   2.830   6.518   5.316
 4915SOL    HW215645   2.890   6.367   5.296
 4916SOL     OW15646   0.069   0.605   4.005
 4916SOL    HW115647   0.090   0.553   3.923
 4916SOL    HW215648   0.141   0.672   4.023
 4917SOL     OW15649   3.937   5.860   0.899
 4917SOL    HW115650   3.982   5.946   0.874
 4917SOL    HW215651   3.839   5.868   0.884
 4918SOL     OW15652   5.957   6.155   2.501
 4918SOL    HW115653   5.861   6.182   2.490
 4918SOL    HW215654   5.964   6.056   2.505
 4919SOL     OW15655   3.800   2.935   2.335
 4919SOL    HW115656   3.802   2.842   2.372
 4919SOL    HW215657   3.771   2.999   2.406
 4920SOL     OW15658   5.557   0.350   5.410
 4920SOL    HW115659   5.511   0.416   5.469
 4920SOL    HW215660   5.549   0.378   5.315
 4921SOL     OW15661   1.835   5.161   0.291
 4921SOL    HW115662   1.884   5.140   0.206
 4921SOL    HW215663   1.858   5.093   0.360
 4922SOL     OW15664   3.239   2.023   4.962
 4922SOL    HW115665   3.298   2.014   4.882
 4922SOL    HW215666   3.194   2.112   4.961
 4923SOL     OW15667   2.212   2.052   2.671
 4923SOL    HW115668   2.294   2.076   2.619
 4923SOL    HW215669   2.195   1.954   2.663
 4924SOL     OW15670   2.393   2.070   5.101
 4924SOL    HW115671   2.396   1.980   5.145
 4924SOL    HW215672   2.352   2.061   5.010
 4925SOL     OW15673   4.427   0.381   2.582
 4925SOL    HW115674   4.514   0.337   2.562
 4925SOL    HW215675   4.405   0.370   2.679
 4926SOL     OW15676   5.709   1.893   1.514
 4926SOL    HW115677   5.681   1.799   1.535
 4926SOL    HW215678   5.774   1.925   1.582
 4927SOL     OW15679   3.061   2.886   6.085
 4927SOL    HW115680   3.136   2.889   6.018
 4927SOL    HW215681   3.089   2.834   6.165
 4928SOL     OW15682   1.513   1.105   7.018
 4928SOL    HW115683   1.554   1.061   0.080
 4928SOL    HW215684   1.461   1.037   6.966
 4929SOL     OW15685   6.612   0.032   3.617
 4929SOL    HW115686   6.684   0.094   3.648
 4929SOL    HW215687   6.632   0.001   3.524
 4930SOL     OW15688   6.042   6.673   2.598
 4930SOL    HW115689   5.990   6.735   2.656
 4930SOL    HW215690   6.005   6.676   2.505
 4931SOL     OW15691   6.399   6.380   1.493
 4931SOL    HW115692   6.374   6.315   1.421
 4931SOL    HW215693   6.418   6.470   1.452
 4932SOL     OW15694   3.731   3.976   3.284
 4932SOL    HW115695   3.673   4.046   3.243
 4932SOL    HW215696   3.679   3.892   3.295
 4933SOL     OW15697   2.170   6.595   3.493
 4933SOL    HW115698   2.100   6.602   3.565
 4933SOL    HW215699   2.128   6.617   3.405
 4934SOL     OW15700   3.721   5.992   2.799
 4934SOL    HW115701   3.675   6.071   2.841
 4934SOL    HW215702   3.660   5.913   2.803
 4935SOL     OW15703   1.621   1.809   7.012
 4935SOL    HW115704   1.543   1.840   6.958
 4935SOL    HW215705   1.588   1.758   0.073
 4936SOL     OW15706   2.858   4.831   0.722
 4936SOL    HW115707   2.925   4.832   0.648
 4936SOL    HW215708   2.901   4.793   0.805
 4937SOL     OW15709   5.249   3.240   5.083
 4937SOL    HW115710   5.244   3.140   5.090
 4937SOL    HW215711   5.279   3.265   4.992
 4938SOL     OW15712   3.200   5.246   5.853
 4938SOL    HW115713   3.190   5.226   5.756
 4938SOL    HW215714   3.298   5.249   5.876
 4939SOL     OW15715   5.244   1.999   5.275
 4939SOL    HW115716   5.338   2.032   5.287
 4939SOL    HW215717   5.244   1.900   5.266
 4940SOL     OW15718   1.230   0.890   4.998
 4940SOL    HW115719   1.148   0.863   5.050
 4940SOL    HW215720   1.209   0.890   4.900
 4941SOL     OW15721   3.380   2.064   6.645
 4941SOL    HW115722   3.361   1.971   6.676
 4941SOL    HW215723   3.415   2.118   6.722
 4942SOL     OW15724   4.802   3.208   5.106
 4942SOL    HW115725   4.741   3.238   5.179
 4942SOL    HW215726   4.754   3.215   5.018
 4943SOL     OW15727   4.144   2.394   0.317
 4943SOL    HW115728   4.166   2.319   0.380
 4943SOL    HW215729   4.135   2.479   0.370
 4944SOL     OW15730   2.162   3.855   2.942
 4944SOL    HW115731   2.128   3.855   3.036
 4944SOL    HW215732   2.232   3.925   2.932
 4945SOL     OW15733   1.148   0.620   3.552
 4945SOL    HW115734   1.201   0.558   3.608
 4945SOL    HW215735   1.120   0.700   3.606
 4946SOL     OW15736   0.833   3.261   1.073
 4946SOL    HW115737   0.799   3.314   0.995
 4946SOL    HW215738   0.865   3.172   1.042
 4947SOL     OW15739   0.849   6.774   0.720
 4947SOL    HW115740   0.816   6.692   0.768
 4947SOL    HW215741   0.786   6.796   0.645
 4948SOL     OW15742   2.693   0.905   2.768
 4948SOL    HW115743   2.747   0.934   2.689
 4948SOL    HW215744   2.655   0.986   2.814
 4949SOL     OW15745   4.558   0.737   5.662
 4949SOL    HW115746   4.603   0.649   5.677
 4949SOL    HW215747   4.467   0.722   5.624
 4950SOL     OW15748   2.673   5.419   3.939
 4950SOL    HW115749   2.761   5.411   3.986
 4950SOL    HW215750   2.683   5.477   3.859
 4951SOL     OW15751   4.707   1.404   4.269
 4951SOL    HW115752   4.729   1.307   4.279
 4951SOL    HW215753   4.731   1.452   4.353
 4952SOL     OW15754   0.141   6.211   4.781
 4952SOL    HW115755   0.225   6.166   4.811
 4952SOL    HW215756   0.140   6.306   4.812
 4953SOL     OW15757   2.456   5.572   1.588
 4953SOL    HW115758   2.479   5.495   1.647
 4953SOL    HW215759   2.435   5.538   1.496
 4954SOL     OW15760   4.888   4.477   0.284
 4954SOL    HW115761   4.869   4.556   0.225
 4954SOL    HW215762   4.964   4.424   0.245
 4955SOL     OW15763   1.571   5.809   7.009
 4955SOL    HW115764   1.475   5.801   0.016
 4955SOL    HW215765   1.628   5.770   0.064
 4956SOL     OW15766   4.057   6.874   5.399
 4956SOL    HW115767   4.104   6.786   5.399
 4956SOL    HW215768   4.062   6.915   5.308
 4957SOL     OW15769   0.187   1.480   4.267
 4957SOL    HW115770   0.200   1.547   4.340
 4957SOL    HW215771   0.275   1.439   4.242
 4958SOL     OW15772   0.783   6.702   6.035
 4958SOL    HW115773   0.790   6.756   5.951
 4958SOL    HW215774   0.723   6.624   6.019
 4959SOL     OW15775   1.423   0.607   6.701
 4959SOL    HW115776   1.359   0.635   6.629
 4959SOL    HW215777   1.376   0.549   6.767
 4960SOL     OW15778   3.490   6.625   4.159
 4960SOL    HW115779   3.476   6.668   4.248
 4960SOL    HW215780   3.403   6.593   4.123
 4961SOL     OW15781   5.424   0.713   5.136
 4961SOL    HW115782   5.480   0.706   5.054
 4961SOL    HW215783   5.408   0.622   5.173
 4962SOL     OW15784   5.526   3.245   1.905
 4962SOL    HW115785   5.484   3.251   1.996
 4962SOL    HW215786   5.478   3.305   1.842
 4963SOL     OW15787   0.356   5.705   1.458
 4963SOL    HW115788   0.399   5.677   1.544
 4963SOL    HW215789   0.257   5.701   1.467
 4964SOL     OW15790   3.544   5.632   3.490
 4964SOL    HW115791   3.634   5.673   3.507
 4964SOL    HW215792   3.548   5.579   3.405
 4965SOL     OW15793   0.440   6.862   4.806
 4965SOL    HW115794   0.393   6.793   4.752
 4965SOL    HW215795   0.460   6.942   4.749
 4966SOL     OW15796   2.673   5.997   4.565
 4966SOL    HW115797   2.623   6.056   4.502
 4966SOL    HW215798   2.673   5.904   4.530
 4967SOL     OW15799   4.208   2.537   6.812
 4967SOL    HW115800   4.145   2.614   6.817
 4967SOL    HW215801   4.156   2.452   6.807
 4968SOL     OW15802   4.845   3.196   3.580
 4968SOL    HW115803   4.945   3.195   3.586
 4968SOL    HW215804   4.815   3.288   3.554
 4969SOL     OW15805   1.589   1.262   2.261
 4969SOL    HW115806   1.584   1.269   2.162
 4969SOL    HW215807   1.565   1.350   2.302
 4970SOL     OW15808   1.336   2.477   4.770
 4970SOL    HW115809   1.327   2.455   4.673
 4970SOL    HW215810   1.423   2.525   4.785
 4971SOL     OW15811   6.668   6.041   3.763
 4971SOL    HW115812   6.732   6.084   3.826
 4971SOL    HW215813   6.627   5.960   3.805
 4972SOL     OW15814   2.611   3.552   0.312
 4972SOL    HW115815   2.560   3.579   0.230
 4972SOL    HW215816   2.666   3.471   0.290
 4973SOL     OW15817   6.170   5.997   2.009
 4973SOL    HW115818   6.122   5.922   1.963
 4973SOL    HW215819   6.109   6.077   2.013
 4974SOL     OW15820   5.753   5.676   2.125
 4974SOL    HW115821   5.667   5.691   2.175
 4974SOL    HW215822   5.827   5.659   2.189
 4975SOL     OW15823   6.123   6.292   0.939
 4975SOL    HW115824   6.042   6.283   0.997
 4975SOL    HW215825   6.146   6.203   0.900
 4976SOL     OW15826   3.345   0.584   4.319
 4976SOL    HW115827   3.286   0.665   4.324
 4976SOL    HW215828   3.439   0.613   4.300
 4977SOL     OW15829   4.519   3.763   0.923
 4977SOL    HW115830   4.559   3.682   0.965
 4977SOL    HW215831   4.431   3.739   0.882
 4978SOL     OW15832   6.085   3.934   5.546
 4978SOL    HW115833   6.045   3.847   5.574
 4978SOL    HW215834   6.157   3.917   5.478
 4979SOL     OW15835   0.174   1.972   4.943
 4979SOL    HW115836   0.218   1.898   4.995
 4979SOL    HW215837   0.241   2.013   4.881
 4980SOL     OW15838   3.482   5.938   2.453
 4980SOL    HW115839   3.510   5.892   2.538
 4980SOL    HW215840   3.398   5.989   2.469
 4981SOL     OW15841   4.462   6.935   5.630
 4981SOL    HW115842   4.439   6.995   5.707
 4981SOL    HW215843   4.534   6.978   5.575
 4982SOL     OW15844   1.858   1.576   6.977
 4982SOL    HW115845   1.955   1.582   6.951
 4982SOL    HW215846   1.810   1.658   6.945
 4983SOL     OW15847   5.885   3.348   3.933
 4983SOL    HW115848   5.892   3.248   3.926
 4983SOL    HW215849   5.966   3.384   3.977
 4984SOL     OW15850   5.418   3.831   4.463
 4984SOL    HW115851   5.399   3.745   4.415
 4984SOL    HW215852   5.364   3.834   4.547
 4985SOL     OW15853   6.006   5.248   3.661
 4985SOL    HW115854   6.102   5.277   3.653
 4985SOL    HW215855   5.974   5.263   3.754
 4986SOL     OW15856   6.377   4.476   2.937
 4986SOL    HW115857   6.349   4.435   3.024
 4986SOL    HW215858   6.337   4.424   2.862
 4987SOL     OW15859   0.538   2.976   0.880
 4987SOL    HW115860   0.597   3.043   0.835
 4987SOL    HW215861   0.462   3.023   0.925
 4988SOL     OW15862   0.118   1.806   3.770
 4988SOL    HW115863   0.168   1.725   3.803
 4988SOL    HW215864   0.178   1.886   3.775
 4989SOL     OW15865   5.802   1.518   1.378
 4989SOL    HW115866   5.756   1.434   1.350
 4989SOL    HW215867   5.802   1.524   1.478
 4990SOL     OW15868   0.675   2.723   5.932
 4990SOL    HW115869   0.659   2.731   5.833
 4990SOL    HW215870   0.661   2.629   5.960
 4991SOL     OW15871   0.651   3.343   4.139
 4991SOL    HW115872   0.589   3.271   4.109
 4991SOL    HW215873   0.606   3.400   4.207
 4992SOL     OW15874   3.599   0.589   4.583
 4992SOL    HW115875   3.629   0.531   4.508
 4992SOL    HW215876   3.572   0.532   4.661
 4993SOL     OW15877   3.025   5.401   3.833
 4993SOL    HW115878   2.997   5.393   3.929
 4993SOL    HW215879   3.104   5.342   3.816
 4994SOL     OW15880   1.158   6.799   2.818
 4994SOL    HW115881   1.128   6.890   2.845
 4994SOL    HW215882   1.158   6.739   2.898
 4995SOL     OW15883   6.923   3.035   6.205
 4995SOL    HW115884   6.946   3.095   6.129
 4995SOL    HW215885   6.990   2.960   6.209
 4996SOL     OW15886   6.783   1.387   1.354
 4996SOL    HW115887   6.713   1.389   1.282
 4996SOL    HW215888   6.873   1.399   1.313
 4997SOL     OW15889   6.549   2.184   3.118
 4997SOL    HW115890   6.459   2.183   3.161
 4997SOL    HW215891   6.613   2.233   3.178
 4998SOL     OW15892   1.519   4.875   4.976
 4998SOL    HW115893   1.516   4.778   4.950
 4998SOL    HW215894   1.445   4.924   4.931
 4999SOL     OW15895   5.039   5.495   1.382
 4999SOL    HW115896   5.084   5.505   1.471
 4999SOL    HW215897   5.091   5.432   1.325
 5000SOL     OW15898   1.143   0.375   4.795
 5000SOL    HW115899   1.202   0.455   4.791
 5000SOL    HW215900   1.188   0.298   4.750
 5001SOL     OW15901   2.080   3.793   6.344
 5001SOL    HW115902   2.122   3.882   6.326
 5001SOL    HW215903   2.118   3.725   6.281
 5002SOL     OW15904   1.324   1.982   3.115
 5002SOL    HW115905   1.392   1.909   3.116
 5002SOL    HW215906   1.290   1.998   3.208
 5003SOL     OW15907   0.419   6.641   3.101
 5003SOL    HW115908   0.425   6.740   3.110
 5003SOL    HW215909   0.484   6.597   3.163
 5004SOL     OW15910   2.631   5.634   5.780
 5004SOL    HW115911   2.602   5.593   5.867
 5004SOL    HW215912   2.551   5.646   5.721
 5005SOL     OW15913   3.966   2.412   0.696
 5005SOL    HW115914   4.015   2.440   0.614
 5005SOL    HW215915   3.980   2.480   0.768
 5006SOL     OW15916   5.738   0.038   5.236
 5006SOL    HW115917   5.690   6.979   5.196
 5006SOL    HW215918   5.687   0.122   5.218
 5007SOL     OW15919   3.723   0.798   5.995
 5007SOL    HW115920   3.778   0.722   6.032
 5007SOL    HW215921   3.630   0.793   6.033
 5008SOL     OW15922   6.035   1.288   3.093
 5008SOL    HW115923   6.078   1.379   3.088
 5008SOL    HW215924   5.948   1.296   3.141
 5009SOL     OW15925   1.300   5.939   1.611
 5009SOL    HW115926   1.224   5.931   1.675
 5009SOL    HW215927   1.277   5.891   1.526
 5010SOL     OW15928   3.589   4.142   3.972
 5010SOL    HW115929   3.685   4.119   3.986
 5010SOL    HW215930   3.539   4.133   4.058
 5011SOL     OW15931   2.059   3.380   2.214
 5011SOL    HW115932   2.114   3.421   2.141
 5011SOL    HW215933   1.981   3.332   2.174
 5012SOL     OW15934   6.677   2.631   5.569
 5012SOL    HW115935   6.593   2.607   5.618
 5012SOL    HW215936   6.714   2.716   5.607
 5013SOL     OW15937   4.549   0.824   6.506
 5013SOL    HW115938   4.453   0.852   6.504
 5013SOL    HW215939   4.557   0.731   6.469
 5014SOL     OW15940   6.237   5.897   0.910
 5014SOL    HW115941   6.308   5.826   0.913
 5014SOL    HW215942   6.281   5.987   0.919
 5015SOL     OW15943   4.409   1.951   3.363
 5015SOL    HW115944   4.336   1.897   3.405
 5015SOL    HW215945   4.447   1.902   3.285
 5016SOL     OW15946   1.782   1.272   2.885
 5016SOL    HW115947   1.773   1.281   2.984
 5016SOL    HW215948   1.719   1.202   2.852
 5017SOL     OW15949   2.440   2.064   0.350
 5017SOL    HW115950   2.388   2.026   0.273
 5017SOL    HW215951   2.378   2.114   0.411
 5018SOL     OW15952   0.040   4.183   2.296
 5018SOL    HW115953   6.990   4.143   2.357
 5018SOL    HW215954   0.099   4.244   2.348
 5019SOL     OW15955   2.916   3.591   0.465
 5019SOL    HW115956   2.904   3.599   0.366
 5019SOL    HW215957   2.927   3.682   0.505
 5020SOL     OW15958   5.682   5.763   6.065
 5020SOL    HW115959   5.691   5.694   6.137
 5020SOL    HW215960   5.585   5.784   6.052
 5021SOL     OW15961   1.347   4.518   6.036
 5021SOL    HW115962   1.416   4.448   6.054
 5021SOL    HW215963   1.257   4.475   6.025
 5022SOL     OW15964   1.912   6.326   0.766
 5022SOL    HW115965   1.991   6.295   0.713
 5022SOL    HW215966   1.829   6.319   0.710
 5023SOL     OW15967   6.063   2.773   0.843
 5023SOL    HW115968   6.085   2.858   0.891
 5023SOL    HW215969   5.977   2.785   0.793
 5024SOL     OW15970   6.705   3.908   3.308
 5024SOL    HW115971   6.732   3.887   3.402
 5024SOL    HW215972   6.620   3.861   3.286
 5025SOL     OW15973   4.618   1.387   2.275
 5025SOL    HW115974   4.566   1.360   2.356
 5025SOL    HW215975   4.569   1.459   2.226
 5026SOL     OW15976   6.060   5.534   5.343
 5026SOL    HW115977   6.008   5.588   5.277
 5026SOL    HW215978   6.157   5.560   5.339
 5027SOL     OW15979   0.202   6.400   2.787
 5027SOL    HW115980   0.235   6.329   2.724
 5027SOL    HW215981   0.262   6.402   2.867
 5028SOL     OW15982   0.316   6.024   1.829
 5028SOL    HW115983   0.294   6.086   1.754
 5028SOL    HW215984   0.297   5.930   1.801
 5029SOL     OW15985   6.681   2.467   2.164
 5029SOL    HW115986   6.667   2.480   2.262
 5029SOL    HW215987   6.767   2.511   2.136
 5030SOL     OW15988   6.678   0.062   7.018
 5030SOL    HW115989   6.711   0.061   6.924
 5030SOL    HW215990   6.737   0.004   0.056
 5031SOL     OW15991   5.974   1.086   4.228
 5031SOL    HW115992   6.025   1.129   4.153
 5031SOL    HW215993   5.993   0.987   4.228
 5032SOL     OW15994   1.864   5.406   0.636
 5032SOL    HW115995   1.815   5.386   0.551
 5032SOL    HW215996   1.916   5.325   0.663
 5033SOL     OW15997   2.733   4.958   5.214
 5033SOL    HW115998   2.724   4.861   5.233
 5033SOL    HW215999   2.770   5.005   5.294
 5034SOL     OW16000   6.533   2.426   2.488
 5034SOL    HW116001   6.499   2.493   2.554
 5034SOL    HW216002   6.471   2.348   2.485
 5035SOL     OW16003   4.751   5.359   0.391
 5035SOL    HW116004   4.691   5.418   0.443
 5035SOL    HW216005   4.696   5.289   0.344
 5036SOL     OW16006   1.458   6.279   6.781
 5036SOL    HW116007   1.475   6.336   6.861
 5036SOL    HW216008   1.487   6.185   6.800
 5037SOL     OW16009   3.729   1.829   3.379
 5037SOL    HW116010   3.793   1.903   3.358
 5037SOL    HW216011   3.754   1.747   3.327
 5038SOL     OW16012   1.178   5.355   5.714
 5038SOL    HW116013   1.222   5.343   5.804
 5038SOL    HW216014   1.083   5.381   5.727
 5039SOL     OW16015   2.636   3.102   5.428
 5039SOL    HW116016   2.567   3.104   5.500
 5039SOL    HW216017   2.592   3.092   5.339
 5040SOL     OW16018   2.607   3.539   6.643
 5040SOL    HW116019   2.706   3.529   6.659
 5040SOL    HW216020   2.578   3.630   6.670
 5041SOL     OW16021   1.008   4.213   1.526
 5041SOL    HW116022   0.927   4.171   1.485
 5041SOL    HW216023   1.047   4.150   1.593
 5042SOL     OW16024   6.581   3.689   6.795
 5042SOL    HW116025   6.586   3.765   6.859
 5042SOL    HW216026   6.498   3.698   6.740
 5043SOL     OW16027   3.427   1.269   4.492
 5043SOL    HW116028   3.482   1.247   4.412
 5043SOL    HW216029   3.450   1.208   4.567
 5044SOL     OW16030   6.308   5.974   3.973
 5044SOL    HW116031   6.315   6.070   3.945
 5044SOL    HW216032   6.243   5.927   3.914
 5045SOL     OW16033   6.349   3.345   0.260
 5045SOL    HW116034   6.389   3.311   0.345
 5045SOL    HW216035   6.280   3.414   0.280
 5046SOL     OW16036   3.755   2.952   4.872
 5046SOL    HW116037   3.832   2.887   4.873
 5046SOL    HW216038   3.693   2.931   4.947
 5047SOL     OW16039   5.565   1.030   2.976
 5047SOL    HW116040   5.664   1.038   2.977
 5047SOL    HW216041   5.534   0.990   3.063
 5048SOL     OW16042   6.971   2.412   1.811
 5048SOL    HW116043   0.052   2.419   1.808
 5048SOL    HW216044   6.940   2.421   1.905
 5049SOL     OW16045   1.098   1.493   2.139
 5049SOL    HW116046   1.061   1.437   2.213
 5049SOL    HW216047   1.056   1.584   2.142
 5050SOL     OW16048   0.304   1.953   1.751
 5050SOL    HW116049   0.373   2.026   1.759
 5050SOL    HW216050   0.344   1.867   1.782
 5051SOL     OW16051   2.792   3.877   1.246
 5051SOL    HW116052   2.776   3.792   1.195
 5051SOL    HW216053   2.764   3.955   1.190
 5052SOL     OW16054   3.955   4.727   0.960
 5052SOL    HW116055   3.934   4.658   0.889
 5052SOL    HW216056   3.993   4.808   0.916
 5053SOL     OW16057   2.307   4.049   1.980
 5053SOL    HW116058   2.320   4.147   1.963
 5053SOL    HW216059   2.348   3.997   1.905
 5054SOL     OW16060   3.525   5.994   4.954
 5054SOL    HW116061   3.492   5.992   5.048
 5054SOL    HW216062   3.479   6.068   4.904
 5055SOL     OW16063   0.673   2.024   5.145
 5055SOL    HW116064   0.730   2.060   5.220
 5055SOL    HW216065   0.713   2.052   5.057
 5056SOL     OW16066   0.236   3.972   6.075
 5056SOL    HW116067   0.148   3.924   6.077
 5056SOL    HW216068   0.219   4.071   6.079
 5057SOL     OW16069   0.822   5.440   3.439
 5057SOL    HW116070   0.750   5.484   3.493
 5057SOL    HW216071   0.820   5.477   3.346
 5058SOL     OW16072   4.140   4.337   0.077
 5058SOL    HW116073   4.102   4.325   0.169
 5058SOL    HW216074   4.199   4.260   0.055
 5059SOL     OW16075   3.730   2.139   4.658
 5059SOL    HW116076   3.661   2.086   4.707
 5059SOL    HW216077   3.799   2.172   4.722
 5060SOL     OW16078   0.356   3.410   5.259
 5060SOL    HW116079   0.389   3.492   5.307
 5060SOL    HW216080   0.431   3.372   5.203
 5061SOL     OW16081   2.918   3.576   4.466
 5061SOL    HW116082   2.937   3.602   4.561
 5061SOL    HW216083   2.919   3.657   4.408
 5062SOL     OW16084   4.336   1.480   2.289
 5062SOL    HW116085   4.290   1.568   2.275
 5062SOL    HW216086   4.313   1.419   2.213
 5063SOL     OW16087   1.704   6.323   1.830
 5063SOL    HW116088   1.653   6.409   1.837
 5063SOL    HW216089   1.802   6.341   1.834
 5064SOL     OW16090   4.551   5.495   0.712
 5064SOL    HW116091   4.636   5.528   0.753
 5064SOL    HW216092   4.522   5.412   0.759
 5065SOL     OW16093   1.867   0.485   3.446
 5065SOL    HW116094   1.897   0.439   3.362
 5065SOL    HW216095   1.839   0.578   3.425
 5066SOL     OW16096   1.987   4.780   1.658
 5066SOL    HW116097   1.990   4.857   1.594
 5066SOL    HW216098   1.985   4.816   1.752
 5067SOL     OW16099   3.982   2.039   1.603
 5067SOL    HW116100   3.934   1.959   1.568
 5067SOL    HW216101   3.917   2.113   1.620
 5068SOL     OW16102   3.629   6.298   0.720
 5068SOL    HW116103   3.554   6.360   0.743
 5068SOL    HW216104   3.596   6.204   0.721
 5069SOL     OW16105   2.704   4.113   6.348
 5069SOL    HW116106   2.755   4.035   6.311
 5069SOL    HW216107   2.753   4.152   6.425
 5070SOL     OW16108   6.169   3.076   3.998
 5070SOL    HW116109   6.162   3.010   4.072
 5070SOL    HW216110   6.171   3.028   3.910
 5071SOL     OW16111   4.116   1.290   3.964
 5071SOL    HW116112   4.169   1.217   3.922
 5071SOL    HW216113   4.165   1.376   3.956
 5072SOL     OW16114   1.349   0.530   0.989
 5072SOL    HW116115   1.409   0.599   1.029
 5072SOL    HW216116   1.281   0.576   0.931
 5073SOL     OW16117   2.563   6.225   2.293
 5073SOL    HW116118   2.611   6.147   2.334
 5073SOL    HW216119   2.500   6.191   2.223
 5074SOL     OW16120   3.365   1.785   1.475
 5074SOL    HW116121   3.424   1.806   1.553
 5074SOL    HW216122   3.293   1.722   1.503
 5075SOL     OW16123   1.034   2.988   0.172
 5075SOL    HW116124   1.123   3.034   0.174
 5075SOL    HW216125   1.038   2.904   0.226
 5076SOL     OW16126   5.237   0.616   0.152
 5076SOL    HW116127   5.226   0.632   0.250
 5076SOL    HW216128   5.334   0.606   0.131
 5077SOL     OW16129   1.474   4.040   4.580
 5077SOL    HW116130   1.447   3.944   4.591
 5077SOL    HW216131   1.467   4.086   4.669
 5078SOL     OW16132   0.405   1.304   4.018
 5078SOL    HW116133   0.423   1.379   4.081
 5078SOL    HW216134   0.397   1.218   4.069
 5079SOL     OW16135   1.767   1.976   5.982
 5079SOL    HW116136   1.767   1.978   5.882
 5079SOL    HW216137   1.730   1.888   6.013
 5080SOL     OW16138   5.857   5.158   6.113
 5080SOL    HW116139   5.942   5.206   6.091
 5080SOL    HW216140   5.814   5.127   6.028
 5081SOL     OW16141   3.311   5.698   5.026
 5081SOL    HW116142   3.240   5.647   4.977
 5081SOL    HW216143   3.396   5.645   5.024
 5082SOL     OW16144   4.704   6.539   0.218
 5082SOL    HW116145   4.786   6.481   0.210
 5082SOL    HW216146   4.652   6.534   0.133
 5083SOL     OW16147   2.810   0.708   2.393
 5083SOL    HW116148   2.722   0.661   2.387
 5083SOL    HW216149   2.865   0.684   2.313
 5084SOL     OW16150   0.925   5.565   5.366
 5084SOL    HW116151   0.827   5.573   5.347
 5084SOL    HW216152   0.974   5.548   5.281
 5085SOL     OW16153   1.310   3.393   5.987
 5085SOL    HW116154   1.297   3.475   6.041
 5085SOL    HW216155   1.298   3.312   6.045
 5086SOL     OW16156   0.795   4.814   2.953
 5086SOL    HW116157   0.837   4.829   3.042
 5086SOL    HW216158   0.866   4.796   2.885
 5087SOL     OW16159   6.876   5.409   2.186
 5087SOL    HW116160   6.937   5.343   2.231
 5087SOL    HW216161   6.884   5.497   2.232
 5088SOL     OW16162   4.372   5.934   2.614
 5088SOL    HW116163   4.275   5.955   2.598
 5088SOL    HW216164   4.387   5.921   2.712
 5089SOL     OW16165   5.752   3.830   4.418
 5089SOL    HW116166   5.818   3.865   4.351
 5089SOL    HW216167   5.659   3.846   4.385
 5090SOL     OW16168   1.702   0.068   3.876
 5090SOL    HW116169   1.634   7.015   3.856
 5090SOL    HW216170   1.670   0.155   3.839
 5091SOL     OW16171   6.745   0.452   0.311
 5091SOL    HW116172   6.737   0.427   0.214
 5091SOL    HW216173   6.654   0.472   0.347
 5092SOL     OW16174   3.761   3.682   4.049
 5092SOL    HW116175   3.859   3.701   4.057
 5092SOL    HW216176   3.744   3.631   3.965
 5093SOL     OW16177   2.612   1.170   2.829
 5093SOL    HW116178   2.644   1.248   2.881
 5093SOL    HW216179   2.634   1.182   2.733
 5094SOL     OW16180   2.673   5.349   7.011
 5094SOL    HW116181   2.632   5.277   0.050
 5094SOL    HW216182   2.634   5.437   0.018
 5095SOL     OW16183   0.642   1.321   3.871
 5095SOL    HW116184   0.559   1.306   3.925
 5095SOL    HW216185   0.617   1.331   3.775
 5096SOL     OW16186   5.853   3.959   6.424
 5096SOL    HW116187   5.790   3.882   6.416
 5096SOL    HW216188   5.924   3.938   6.491
 5097SOL     OW16189   6.836   6.388   6.938
 5097SOL    HW116190   6.869   6.343   0.002
 5097SOL    HW216191   6.736   6.381   6.933
 5098SOL     OW16192   3.955   2.230   1.857
 5098SOL    HW116193   3.890   2.234   1.933
 5098SOL    HW216194   3.910   2.188   1.778
 5099SOL     OW16195   0.042   5.885   1.610
 5099SOL    HW116196   6.999   5.961   1.589
 5099SOL    HW216197   0.091   5.858   1.527
 5100SOL     OW16198   4.496   5.072   3.142
 5100SOL    HW116199   4.554   5.039   3.068
 5100SOL    HW216200   4.549   5.073   3.227
 5101SOL     OW16201   3.848   0.213   4.897
 5101SOL    HW116202   3.770   0.165   4.857
 5101SOL    HW216203   3.833   0.312   4.892
 5102SOL     OW16204   4.868   5.847   4.103
 5102SOL    HW116205   4.812   5.911   4.156
 5102SOL    HW216206   4.965   5.870   4.116
 5103SOL     OW16207   0.456   0.421   4.911
 5103SOL    HW116208   0.509   0.344   4.873
 5103SOL    HW216209   0.392   0.386   4.979
 5104SOL     OW16210   3.433   6.090   1.928
 5104SOL    HW116211   3.468   6.158   1.992
 5104SOL    HW216212   3.501   6.071   1.857
 5105SOL     OW16213   2.984   3.282   0.029
 5105SOL    HW116214   3.034   3.222   0.091
 5105SOL    HW216215   3.044   3.358   0.002
 5106SOL     OW16216   4.301   1.957   0.807
 5106SOL    HW116217   4.376   1.946   0.872
 5106SOL    HW216218   4.288   2.054   0.787
 5107SOL     OW16219   5.535   3.043   1.401
 5107SOL    HW116220   5.521   3.122   1.340
 5107SOL    HW216221   5.562   3.075   1.492
 5108SOL     OW16222   4.625   4.153   5.727
 5108SOL    HW116223   4.537   4.176   5.684
 5108SOL    HW216224   4.610   4.128   5.822
 5109SOL     OW16225   1.928   3.057   1.562
 5109SOL    HW116226   1.998   3.095   1.502
 5109SOL    HW216227   1.914   2.960   1.541
 5110SOL     OW16228   0.024   6.802   6.203
 5110SOL    HW116229   6.982   6.880   6.218
 5110SOL    HW216230   0.081   6.819   6.123
 5111SOL     OW16231   1.061   6.502   4.903
 5111SOL    HW116232   1.117   6.532   4.980
 5111SOL    HW216233   0.966   6.495   4.931
 5112SOL     OW16234   0.263   0.013   2.673
 5112SOL    HW116235   0.360   7.014   2.687
 5112SOL    HW216236   0.252   0.100   2.624
 5113SOL     OW16237   1.694   5.328   0.449
 5113SOL    HW116238   1.736   5.266   0.383
 5113SOL    HW216239   1.608   5.290   0.482
 5114SOL     OW16240   3.699   6.998   0.843
 5114SOL    HW116241   3.787   6.952   0.848
 5114SOL    HW216242   3.693   0.049   0.915
 5115SOL     OW16243   2.042   3.577   1.570
 5115SOL    HW116244   1.974   3.641   1.535
 5115SOL    HW216245   2.100   3.623   1.636
 5116SOL     OW16246   2.864   6.490   6.808
 5116SOL    HW116247   2.948   6.542   6.793
 5116SOL    HW216248   2.846   6.432   6.728
 5117SOL     OW16249   0.800   3.345   4.609
 5117SOL    HW116250   0.735   3.283   4.566
 5117SOL    HW216251   0.828   3.309   4.698
 5118SOL     OW16252   5.965   6.803   0.628
 5118SOL    HW116253   5.953   6.704   0.625
 5118SOL    HW216254   6.014   6.828   0.711
 5119SOL     OW16255   5.492   1.715   0.809
 5119SOL    HW116256   5.479   1.778   0.732
 5119SOL    HW216257   5.404   1.684   0.842
 5120SOL     OW16258   4.967   0.473   5.082
 5120SOL    HW116259   5.003   0.480   5.175
 5120SOL    HW216260   4.990   0.556   5.031
 5121SOL     OW16261   3.210   3.988   6.784
 5121SOL    HW116262   3.247   4.004   6.876
 5121SOL    HW216263   3.186   4.076   6.743
 5122SOL     OW16264   3.683   5.247   3.469
 5122SOL    HW116265   3.606   5.295   3.428
 5122SOL    HW216266   3.652   5.198   3.550
 5123SOL     OW16267   5.445   2.309   2.463
 5123SOL    HW116268   5.352   2.278   2.440
 5123SOL    HW216269   5.439   2.398   2.509
 5124SOL     OW16270   1.929   6.301   3.709
 5124SOL    HW116271   1.965   6.393   3.725
 5124SOL    HW216272   1.893   6.296   3.617
 5125SOL     OW16273   0.265   1.583   3.839
 5125SOL    HW116274   0.306   1.596   3.748
 5125SOL    HW216275   0.269   1.487   3.864
 5126SOL     OW16276   1.376   6.540   0.341
 5126SOL    HW116277   1.365   6.492   0.428
 5126SOL    HW216278   1.407   6.476   0.272
 5127SOL     OW16279   2.001   5.772   0.174
 5127SOL    HW116280   2.055   5.688   0.173
 5127SOL    HW216281   1.904   5.749   0.178
 5128SOL     OW16282   0.173   6.002   1.008
 5128SOL    HW116283   0.078   5.995   0.978
 5128SOL    HW216284   0.224   5.923   0.975
 5129SOL     OW16285   4.892   6.465   1.436
 5129SOL    HW116286   4.813   6.510   1.477
 5129SOL    HW216287   4.974   6.486   1.489
 5130SOL     OW16288   6.969   4.989   2.691
 5130SOL    HW116289   6.956   4.898   2.731
 5130SOL    HW216290   6.893   5.048   2.716
 5131SOL     OW16291   1.206   3.643   3.322
 5131SOL    HW116292   1.296   3.664   3.284
 5131SOL    HW216293   1.191   3.545   3.320
 5132SOL     OW16294   3.716   3.844   6.090
 5132SOL    HW116295   3.677   3.766   6.040
 5132SOL    HW216296   3.811   3.857   6.060
 5133SOL     OW16297   3.267   5.413   6.842
 5133SOL    HW116298   3.264   5.384   6.938
 5133SOL    HW216299   3.361   5.407   6.809
 5134SOL     OW16300   0.423   3.019   1.779
 5134SOL    HW116301   0.472   2.993   1.696
 5134SOL    HW216302   0.324   3.014   1.762
 5135SOL     OW16303   6.981   2.332   6.362
 5135SOL    HW116304   7.012   2.307   6.453
 5135SOL    HW216305   6.882   2.350   6.364
 5136SOL     OW16306   5.055   0.721   4.677
 5136SOL    HW116307   5.082   0.793   4.613
 5136SOL    HW216308   5.137   0.683   4.721
 5137SOL     OW16309   6.028   3.099   6.468
 5137SOL    HW116310   5.945   3.128   6.420
 5137SOL    HW216311   6.003   3.064   6.558
 5138SOL     OW16312   3.918   3.072   6.503
 5138SOL    HW116313   3.973   3.003   6.457
 5138SOL    HW216314   3.822   3.063   6.474
 5139SOL     OW16315   1.532   6.887   3.813
 5139SOL    HW116316   1.488   6.927   3.732
 5139SOL    HW216317   1.580   6.803   3.787
 5140SOL     OW16318   2.230   1.616   0.338
 5140SOL    HW116319   2.188   1.649   0.254
 5140SOL    HW216320   2.315   1.666   0.355
 5141SOL     OW16321   5.625   3.501   1.230
 5141SOL    HW116322   5.620   3.597   1.201
 5141SOL    HW216323   5.651   3.444   1.152
 5142SOL     OW16324   6.231   2.286   4.279
 5142SOL    HW116325   6.158   2.228   4.314
 5142SOL    HW216326   6.303   2.296   4.348
 5143SOL     OW16327   1.264   3.873   4.323
 5143SOL    HW116328   1.343   3.811   4.326
 5143SOL    HW216329   1.291   3.959   4.278
 5144SOL     OW16330   1.577   6.673   6.280
 5144SOL    HW116331   1.573   6.653   6.182
 5144SOL    HW216332   1.514   6.614   6.329
 5145SOL     OW16333   2.311   5.620   6.427
 5145SOL    HW116334   2.316   5.521   6.442
 5145SOL    HW216335   2.301   5.667   6.515
 5146SOL     OW16336   4.261   3.848   6.665
 5146SOL    HW116337   4.210   3.845   6.751
 5146SOL    HW216338   4.344   3.792   6.674
 5147SOL     OW16339   0.159   4.144   1.764
 5147SOL    HW116340   0.085   4.206   1.791
 5147SOL    HW216341   0.170   4.147   1.665
 5148SOL     OW16342   0.643   6.101   1.057
 5148SOL    HW116343   0.742   6.084   1.058
 5148SOL    HW216344   0.622   6.171   0.988
 5149SOL     OW16345   6.088   0.189   3.511
 5149SOL    HW116346   6.186   0.175   3.493
 5149SOL    HW216347   6.042   0.212   3.426
 5150SOL     OW16348   2.048   5.736   4.146
 5150SOL    HW116349   2.119   5.754   4.078
 5150SOL    HW216350   2.029   5.819   4.198
 5151SOL     OW16351   5.595   0.898   6.650
 5151SOL    HW116352   5.507   0.861   6.619
 5151SOL    HW216353   5.585   0.995   6.672
 5152SOL     OW16354   2.283   4.594   0.216
 5152SOL    HW116355   2.357   4.659   0.203
 5152SOL    HW216356   2.220   4.628   0.286
 5153SOL     OW16357   2.036   1.982   6.778
 5153SOL    HW116358   1.976   1.912   6.818
 5153SOL    HW216359   2.105   1.938   6.720
 5154SOL     OW16360   2.074   3.424   6.067
 5154SOL    HW116361   2.100   3.512   6.106
 5154SOL    HW216362   2.103   3.350   6.128
 5155SOL     OW16363   4.137   6.323   2.017
 5155SOL    HW116364   4.234   6.347   2.023
 5155SOL    HW216365   4.093   6.380   1.948
 5156SOL     OW16366   6.575   2.554   6.240
 5156SOL    HW116367   6.599   2.580   6.147
 5156SOL    HW216368   6.568   2.636   6.297
 5157SOL     OW16369   4.732   2.918   3.432
 5157SOL    HW116370   4.716   2.827   3.470
 5157SOL    HW216371   4.709   2.988   3.500
 5158SOL     OW16372   2.972   1.981   1.328
 5158SOL    HW116373   3.069   1.980   1.354
 5158SOL    HW216374   2.916   1.978   1.411
 5159SOL     OW16375   1.238   3.904   4.774
 5159SOL    HW116376   1.234   3.958   4.859
 5159SOL    HW216377   1.331   3.871   4.760
 5160SOL     OW16378   1.367   3.623   4.153
 5160SOL    HW116379   1.281   3.575   4.133
 5160SOL    HW216380   1.398   3.599   4.245
 5161SOL     OW16381   1.198   4.096   5.697
 5161SOL    HW116382   1.212   4.186   5.657
 5161SOL    HW216383   1.158   4.106   5.788
 5162SOL     OW16384   6.902   5.294   4.354
 5162SOL    HW116385   6.831   5.271   4.419
 5162SOL    HW216386   6.992   5.268   4.391
 5163SOL     OW16387   4.518   5.138   1.477
 5163SOL    HW116388   4.561   5.156   1.565
 5163SOL    HW216389   4.568   5.065   1.430
 5164SOL     OW16390   5.760   2.359   5.901
 5164SOL    HW116391   5.825   2.390   5.971
 5164SOL    HW216392   5.805   2.291   5.843
 5165SOL     OW16393   5.586   4.884   4.939
 5165SOL    HW116394   5.643   4.826   4.996
 5165SOL    HW216395   5.613   4.872   4.843
 5166SOL     OW16396   1.734   5.088   1.839
 5166SOL    HW116397   1.797   5.144   1.892
 5166SOL    HW216398   1.695   5.017   1.898
 5167SOL     OW16399   6.326   6.738   5.487
 5167SOL    HW116400   6.278   6.776   5.567
 5167SOL    HW216401   6.284   6.773   5.403
 5168SOL     OW16402   4.728   2.656   3.510
 5168SOL    HW116403   4.736   2.660   3.610
 5168SOL    HW216404   4.660   2.586   3.486
 5169SOL     OW16405   3.625   3.448   6.490
 5169SOL    HW116406   3.644   3.506   6.411
 5169SOL    HW216407   3.593   3.359   6.458
 5170SOL     OW16408   6.881   4.395   6.081
 5170SOL    HW116409   6.798   4.436   6.043
 5170SOL    HW216410   6.924   4.336   6.013
 5171SOL     OW16411   2.440   4.476   4.456
 5171SOL    HW116412   2.398   4.564   4.438
 5171SOL    HW216413   2.442   4.458   4.554
 5172SOL     OW16414   0.929   3.229   1.710
 5172SOL    HW116415   0.830   3.239   1.701
 5172SOL    HW216416   0.975   3.294   1.650
 5173SOL     OW16417   6.075   4.113   6.770
 5173SOL    HW116418   6.101   4.045   6.838
 5173SOL    HW216419   6.089   4.076   6.679
 5174SOL     OW16420   1.738   4.551   4.613
 5174SOL    HW116421   1.655   4.501   4.593
 5174SOL    HW216422   1.737   4.638   4.563
 5175SOL     OW16423   1.958   4.146   0.400
 5175SOL    HW116424   1.972   4.051   0.429
 5175SOL    HW216425   2.046   4.194   0.403
 5176SOL     OW16426   3.714   3.217   0.189
 5176SOL    HW116427   3.808   3.206   0.220
 5176SOL    HW216428   3.658   3.144   0.226
 5177SOL     OW16429   4.670   0.478   5.616
 5177SOL    HW116430   4.732   0.413   5.661
 5177SOL    HW216431   4.719   0.528   5.545
 5178SOL     OW16432   2.167   2.458   1.736
 5178SOL    HW116433   2.111   2.527   1.690
 5178SOL    HW216434   2.234   2.503   1.794
 5179SOL     OW16435   4.744   6.452   5.063
 5179SOL    HW116436   4.829   6.482   5.019
 5179SOL    HW216437   4.742   6.484   5.158
 5180SOL     OW16438   3.430   2.317   6.828
 5180SOL    HW116439   3.452   2.414   6.834
 5180SOL    HW216440   3.353   2.296   6.887
 5181SOL     OW16441   3.718   0.839   3.012
 5181SOL    HW116442   3.664   0.899   2.953
 5181SOL    HW216443   3.750   0.891   3.091
 5182SOL     OW16444   5.672   4.634   1.628
 5182SOL    HW116445   5.626   4.669   1.710
 5182SOL    HW216446   5.761   4.596   1.653
 5183SOL     OW16447   4.734   0.018   1.652
 5183SOL    HW116448   4.646   0.066   1.658
 5183SOL    HW216449   4.721   6.942   1.683
 5184SOL     OW16450   0.911   1.686   3.981
 5184SOL    HW116451   0.898   1.726   3.890
 5184SOL    HW216452   0.908   1.586   3.974
 5185SOL     OW16453   3.883   0.015   2.655
 5185SOL    HW116454   3.952   6.976   2.611
 5185SOL    HW216455   3.900   0.111   2.633
 5186SOL     OW16456   6.398   3.839   1.012
 5186SOL    HW116457   6.466   3.841   0.939
 5186SOL    HW216458   6.401   3.926   1.062
 5187SOL     OW16459   6.708   1.047   3.496
 5187SOL    HW116460   6.726   1.119   3.563
 5187SOL    HW216461   6.687   1.089   3.407
 5188SOL     OW16462   0.449   4.938   0.126
 5188SOL    HW116463   0.430   5.028   0.164
 5188SOL    HW216464   0.530   4.942   0.068
 5189SOL     OW16465   4.616   5.053   6.685
 5189SOL    HW116466   4.617   4.971   6.629
 5189SOL    HW216467   4.685   5.045   6.757
 5190SOL     OW16468   0.734   2.044   3.973
 5190SOL    HW116469   0.700   2.000   4.057
 5190SOL    HW216470   0.831   2.024   3.963
 5191SOL     OW16471   3.100   1.062   1.399
 5191SOL    HW116472   3.048   1.028   1.477
 5191SOL    HW216473   3.170   1.126   1.431
 5192SOL     OW16474   5.049   5.542   2.562
 5192SOL    HW116475   5.070   5.640   2.550
 5192SOL    HW216476   4.960   5.533   2.606
 5193SOL     OW16477   4.676   4.601   3.730
 5193SOL    HW116478   4.598   4.602   3.668
 5193SOL    HW216479   4.706   4.507   3.743
 5194SOL     OW16480   5.087   0.724   5.998
 5194SOL    HW116481   5.154   0.736   6.071
 5194SOL    HW216482   5.004   0.775   6.021
 5195SOL     OW16483   6.046   6.827   4.631
 5195SOL    HW116484   6.055   6.883   4.713
 5195SOL    HW216485   6.038   6.731   4.657
 5196SOL     OW16486   0.744   4.109   1.681
 5196SOL    HW116487   0.701   4.079   1.766
 5196SOL    HW216488   0.840   4.080   1.679
 5197SOL     OW16489   1.525   6.230   4.258
 5197SOL    HW116490   1.456   6.274   4.199
 5197SOL    HW216491   1.558   6.146   4.214
 5198SOL     OW16492   2.978   6.790   4.649
 5198SOL    HW116493   2.983   6.826   4.555
 5198SOL    HW216494   2.941   6.697   4.647
 5199SOL     OW16495   2.118   5.482   1.547
 5199SOL    HW116496   2.032   5.444   1.515
 5199SOL    HW216497   2.194   5.435   1.502
 5200SOL     OW16498   1.147   1.856   5.124
 5200SOL    HW116499   1.071   1.883   5.183
 5200SOL    HW216500   1.192   1.774   5.162
 5201SOL     OW16501   5.848   4.728   4.523
 5201SOL    HW116502   5.863   4.632   4.503
 5201SOL    HW216503   5.929   4.781   4.498
 5202SOL     OW16504   5.155   3.141   0.122
 5202SOL    HW116505   5.158   3.049   0.162
 5202SOL    HW216506   5.079   3.148   0.058
 5203SOL     OW16507   1.534   0.857   6.314
 5203SOL    HW116508   1.482   0.859   6.228
 5203SOL    HW216509   1.556   0.763   6.338
 5204SOL     OW16510   3.509   6.767   6.705
 5204SOL    HW116511   3.504   6.667   6.704
 5204SOL    HW216512   3.433   6.804   6.759
 5205SOL     OW16513   6.692   5.660   1.099
 5205SOL    HW116514   6.755   5.582   1.093
 5205SOL    HW216515   6.668   5.677   1.194
 5206SOL     OW16516   0.870   4.549   5.083
 5206SOL    HW116517   0.865   4.547   4.983
 5206SOL    HW216518   0.957   4.590   5.111
 5207SOL     OW16519   6.986   0.022   3.955
 5207SOL    HW116520   7.013   7.000   4.042
 5207SOL    HW216521   6.914   0.089   3.970
 5208SOL     OW16522   4.745   2.317   0.571
 5208SOL    HW116523   4.672   2.264   0.615
 5208SOL    HW216524   4.834   2.278   0.595
 5209SOL     OW16525   4.741   0.072   3.405
 5209SOL    HW116526   4.685   0.019   3.341
 5209SOL    HW216527   4.688   0.149   3.441
 5210SOL     OW16528   4.970   4.575   1.262
 5210SOL    HW116529   4.912   4.608   1.188
 5210SOL    HW216530   5.007   4.485   1.239
 5211SOL     OW16531   4.860   2.079   4.175
 5211SOL    HW116532   4.862   2.158   4.235
 5211SOL    HW216533   4.850   1.996   4.229
 5212SOL     OW16534   1.309   1.963   1.016
 5212SOL    HW116535   1.267   1.937   1.103
 5212SOL    HW216536   1.402   1.928   1.012
 5213SOL     OW16537   4.110   3.676   2.263
 5213SOL    HW116538   4.186   3.738   2.243
 5213SOL    HW216539   4.075   3.695   2.355
 5214SOL     OW16540   5.662   4.407   6.344
 5214SOL    HW116541   5.583   4.359   6.306
 5214SOL    HW216542   5.637   4.503   6.361
 5215SOL     OW16543   0.046   2.965   4.884
 5215SOL    HW116544   0.081   2.980   4.792
 5215SOL    HW216545   0.011   3.051   4.921
 5216SOL     OW16546   5.749   5.259   0.981
 5216SOL    HW116547   5.770   5.175   1.032
 5216SOL    HW216548   5.735   5.334   1.045
 5217SOL     OW16549   3.796   5.724   4.065
 5217SOL    HW116550   3.805   5.781   3.984
 5217SOL    HW216551   3.883   5.723   4.114
 5218SOL     OW16552   0.551   0.655   0.949
 5218SOL    HW116553   0.577   0.656   0.852
 5218SOL    HW216554   0.452   0.650   0.957
 5219SOL     OW16555   3.116   1.869   4.744
 5219SOL    HW116556   3.142   1.931   4.818
 5219SOL    HW216557   3.024   1.833   4.761
 5220SOL     OW16558   2.363   5.594   3.515
 5220SOL    HW116559   2.305   5.610   3.594
 5220SOL    HW216560   2.395   5.499   3.515
 5221SOL     OW16561   6.988   0.404   1.599
 5221SOL    HW116562   0.036   0.381   1.529
 5221SOL    HW216563   6.974   0.503   1.600
 5222SOL     OW16564   4.397   4.707   1.483
 5222SOL    HW116565   4.483   4.655   1.478
 5222SOL    HW216566   4.333   4.671   1.415
 5223SOL     OW16567   0.130   3.331   0.462
 5223SOL    HW116568   0.123   3.268   0.385
 5223SOL    HW216569   0.206   3.304   0.521
 5224SOL     OW16570   1.070   1.779   4.474
 5224SOL    HW116571   0.989   1.831   4.501
 5224SOL    HW216572   1.047   1.718   4.398
 5225SOL     OW16573   6.400   0.954   4.612
 5225SOL    HW116574   6.433   1.025   4.549
 5225SOL    HW216575   6.468   0.880   4.617
 5226SOL     OW16576   0.431   5.923   3.208
 5226SOL    HW116577   0.405   5.840   3.160
 5226SOL    HW216578   0.503   5.971   3.156
 5227SOL     OW16579   0.081   3.777   5.891
 5227SOL    HW116580   0.036   3.818   5.811
 5227SOL    HW216581   0.012   3.736   5.951
 5228SOL     OW16582   1.113   2.870   6.257
 5228SOL    HW116583   1.093   2.829   6.168
 5228SOL    HW216584   1.136   2.967   6.245
 5229SOL     OW16585   3.819   6.641   6.783
 5229SOL    HW116586   3.745   6.615   6.720
 5229SOL    HW216587   3.858   6.728   6.755
 5230SOL     OW16588   0.065   0.012   2.318
 5230SOL    HW116589   0.034   0.035   2.410
 5230SOL    HW216590   7.006   0.012   2.255
 5231SOL     OW16591   5.316   1.668   3.131
 5231SOL    HW116592   5.357   1.714   3.210
 5231SOL    HW216593   5.330   1.724   3.049
 5232SOL     OW16594   1.815   3.961   6.280
 5232SOL    HW116595   1.857   3.988   6.367
 5232SOL    HW216596   1.886   3.941   6.213
 5233SOL     OW16597   2.956   0.897   2.537
 5233SOL    HW116598   2.890   0.850   2.479
 5233SOL    HW216599   3.000   0.830   2.598
 5234SOL     OW16600   1.973   2.476   0.893
 5234SOL    HW116601   1.934   2.401   0.840
 5234SOL    HW216602   1.933   2.477   0.984
 5235SOL     OW16603   2.269   1.560   0.845
 5235SOL    HW116604   2.205   1.495   0.886
 5235SOL    HW216605   2.337   1.586   0.913
 5236SOL     OW16606   3.321   5.134   2.188
 5236SOL    HW116607   3.375   5.122   2.272
 5236SOL    HW216608   3.225   5.113   2.207
 5237SOL     OW16609   1.653   2.116   4.646
 5237SOL    HW116610   1.686   2.106   4.740
 5237SOL    HW216611   1.628   2.211   4.630
 5238SOL     OW16612   1.544   4.828   3.056
 5238SOL    HW116613   1.475   4.832   3.128
 5238SOL    HW216614   1.627   4.875   3.087
 5239SOL     OW16615   3.082   4.040   1.137
 5239SOL    HW116616   3.181   4.033   1.122
 5239SOL    HW216617   3.046   4.115   1.081
 5240SOL     OW16618   2.603   3.074   5.881
 5240SOL    HW116619   2.673   3.003   5.879
 5240SOL    HW216620   2.523   3.040   5.929
 5241SOL     OW16621   1.460   5.892   2.200
 5241SOL    HW116622   1.504   5.898   2.110
 5241SOL    HW216623   1.505   5.955   2.263
 5242SOL     OW16624   4.842   0.933   1.053
 5242SOL    HW116625   4.862   0.845   1.009
 5242SOL    HW216626   4.768   0.921   1.119
 5243SOL     OW16627   2.180   6.238   1.595
 5243SOL    HW116628   2.149   6.332   1.582
 5243SOL    HW216629   2.170   6.187   1.510
 5244SOL     OW16630   5.113   3.160   0.861
 5244SOL    HW116631   5.057   3.222   0.807
 5244SOL    HW216632   5.179   3.114   0.802
 5245SOL     OW16633   3.949   4.369   0.284
 5245SOL    HW116634   3.919   4.463   0.298
 5245SOL    HW216635   3.895   4.328   0.210
 5246SOL     OW16636   6.778   2.817   1.940
 5246SOL    HW116637   6.868   2.805   1.897
 5246SOL    HW216638   6.717   2.865   1.878
 5247SOL     OW16639   3.743   1.580   5.477
 5247SOL    HW116640   3.683   1.652   5.512
 5247SOL    HW216641   3.797   1.617   5.401
 5248SOL     OW16642   6.993   1.875   2.887
 5248SOL    HW116643   6.995   1.820   2.970
 5248SOL    HW216644   0.062   1.868   2.840
 5249SOL     OW16645   1.003   4.798   0.331
 5249SOL    HW116646   0.979   4.894   0.312
 5249SOL    HW216647   1.088   4.795   0.382
 5250SOL     OW16648   2.260   5.295   0.227
 5250SOL    HW116649   2.211   5.208   0.227
 5250SOL    HW216650   2.312   5.304   0.312
 5251SOL     OW16651   1.052   4.507   1.451
 5251SOL    HW116652   1.059   4.414   1.488
 5251SOL    HW216653   0.994   4.506   1.369
 5252SOL     OW16654   3.168   6.426   2.106
 5252SOL    HW116655   3.091   6.382   2.154
 5252SOL    HW216656   3.147   6.523   2.093
 5253SOL     OW16657   5.847   4.095   4.542
 5253SOL    HW116658   5.798   4.008   4.548
 5253SOL    HW216659   5.782   4.169   4.526
 5254SOL     OW16660   5.884   0.348   3.335
 5254SOL    HW116661   5.868   0.263   3.285
 5254SOL    HW216662   5.961   0.397   3.294
 5255SOL     OW16663   5.418   2.213   4.537
 5255SOL    HW116664   5.495   2.151   4.528
 5255SOL    HW216665   5.378   2.230   4.448
 5256SOL     OW16666   4.563   1.040   3.013
 5256SOL    HW116667   4.623   0.976   2.964
 5256SOL    HW216668   4.615   1.085   3.086
 5257SOL     OW16669   4.295   0.368   0.159
 5257SOL    HW116670   4.364   0.306   0.197
 5257SOL    HW216671   4.225   0.316   0.112
 5258SOL     OW16672   5.473   1.646   2.684
 5258SOL    HW116673   5.571   1.631   2.672
 5258SOL    HW216674   5.436   1.692   2.604
 5259SOL     OW16675   5.112   5.847   2.824
 5259SOL    HW116676   5.190   5.786   2.836
 5259SOL    HW216677   5.137   5.939   2.855
 5260SOL     OW16678   2.921   5.531   6.940
 5260SOL    HW116679   2.908   5.434   6.963
 5260SOL    HW216680   2.968   5.538   6.852
 5261SOL     OW16681   0.049   4.859   1.030
 5261SOL    HW116682   0.044   4.813   0.941
 5261SOL    HW216683   0.005   4.802   1.099
 5262SOL     OW16684   2.566   0.781   3.118
 5262SOL    HW116685   2.594   0.861   3.171
 5262SOL    HW216686   2.501   0.809   3.047
 5263SOL     OW16687   1.718   1.255   3.149
 5263SOL    HW116688   1.803   1.205   3.168
 5263SOL    HW216689   1.656   1.247   3.226
 5264SOL     OW16690   6.756   2.085   1.877
 5264SOL    HW116691   6.817   2.119   1.805
 5264SOL    HW216692   6.677   2.147   1.886
 5265SOL     OW16693   5.269   2.818   4.183
 5265SOL    HW116694   5.228   2.728   4.195
 5265SOL    HW216695   5.253   2.874   4.264
 5266SOL     OW16696   2.292   6.414   0.842
 5266SOL    HW116697   2.243   6.477   0.781
 5266SOL    HW216698   2.356   6.466   0.899
 5267SOL     OW16699   4.351   2.467   4.237
 5267SOL    HW116700   4.369   2.473   4.336
 5267SOL    HW216701   4.292   2.542   4.209
 5268SOL     OW16702   5.462   0.614   6.992
 5268SOL    HW116703   5.543   0.561   7.015
 5268SOL    HW216704   5.422   0.580   6.907
 5269SOL     OW16705   0.587   6.621   2.569
 5269SOL    HW116706   0.639   6.588   2.490
 5269SOL    HW216707   0.496   6.648   2.540
 5270SOL     OW16708   6.386   1.860   0.641
 5270SOL    HW116709   6.435   1.864   0.554
 5270SOL    HW216710   6.345   1.949   0.661
 5271SOL     OW16711   6.450   5.531   5.076
 5271SOL    HW116712   6.365   5.503   5.031
 5271SOL    HW216713   6.491   5.451   5.121
 5272SOL     OW16714   3.938   6.623   1.009
 5272SOL    HW116715   3.884   6.539   1.008
 5272SOL    HW216716   3.964   6.645   1.103
 5273SOL     OW16717   1.084   3.246   2.798
 5273SOL    HW116718   1.091   3.339   2.761
 5273SOL    HW216719   1.132   3.182   2.738
 5274SOL     OW16720   4.526   6.658   2.523
 5274SOL    HW116721   4.538   6.632   2.427
 5274SOL    HW216722   4.614   6.682   2.562
 5275SOL     OW16723   2.596   0.263   0.945
 5275SOL    HW116724   2.686   0.276   0.987
 5275SOL    HW216725   2.525   0.293   1.010
 5276SOL     OW16726   2.213   6.984   1.639
 5276SOL    HW116727   2.281   0.024   1.594
 5276SOL    HW216728   2.196   7.018   1.731
 5277SOL     OW16729   2.996   1.143   2.692
 5277SOL    HW116730   3.075   1.194   2.658
 5277SOL    HW216731   2.991   1.054   2.646
 5278SOL     OW16732   3.888   4.807   3.032
 5278SOL    HW116733   3.919   4.813   2.937
 5278SOL    HW216734   3.966   4.784   3.090
 5279SOL     OW16735   2.652   5.553   1.201
 5279SOL    HW116736   2.626   5.648   1.219
 5279SOL    HW216737   2.570   5.497   1.193
 5280SOL     OW16738   3.312   6.272   5.262
 5280SOL    HW116739   3.275   6.363   5.279
 5280SOL    HW216740   3.271   6.207   5.326
 5281SOL     OW16741   0.041   1.747   2.625
 5281SOL    HW116742   0.107   1.816   2.655
 5281SOL    HW216743   0.058   1.661   2.671
 5282SOL     OW16744   2.485   1.962   3.631
 5282SOL    HW116745   2.546   1.930   3.558
 5282SOL    HW216746   2.402   1.906   3.632
 5283SOL     OW16747   5.420   5.526   0.842
 5283SOL    HW116748   5.411   5.458   0.770
 5283SOL    HW216749   5.418   5.618   0.802
 5284SOL     OW16750   5.417   4.271   2.945
 5284SOL    HW116751   5.419   4.197   2.878
 5284SOL    HW216752   5.329   4.272   2.992
 5285SOL     OW16753   3.317   4.961   3.849
 5285SOL    HW116754   3.294   4.927   3.941
 5285SOL    HW216755   3.414   4.945   3.831
 5286SOL     OW16756   2.200   4.282   1.165
 5286SOL    HW116757   2.108   4.312   1.189
 5286SOL    HW216758   2.219   4.306   1.070
 5287SOL     OW16759   2.324   1.181   0.557
 5287SOL    HW116760   2.377   1.236   0.622
 5287SOL    HW216761   2.328   1.224   0.467
 5288SOL     OW16762   3.255   0.159   1.120
 5288SOL    HW116763   3.284   0.205   1.204
 5288SOL    HW216764   3.305   0.197   1.042
 5289SOL     OW16765   0.697   5.364   0.640
 5289SOL    HW116766   0.652   5.453   0.631
 5289SOL    HW216767   0.672   5.306   0.562
 5290SOL     OW16768   3.906   5.997   6.946
 5290SOL    HW116769   3.876   6.091   6.963
 5290SOL    HW216770   3.827   5.939   6.929
 5291SOL     OW16771   1.469   4.589   5.462
 5291SOL    HW116772   1.520   4.671   5.485
 5291SOL    HW216773   1.387   4.583   5.519
 5292SOL     OW16774   4.949   3.337   6.802
 5292SOL    HW116775   4.871   3.334   6.740
 5292SOL    HW216776   4.944   3.259   6.865
 5293SOL     OW16777   0.849   0.508   4.316
 5293SOL    HW116778   0.777   0.488   4.382
 5293SOL    HW216779   0.934   0.528   4.364
 5294SOL     OW16780   5.889   2.826   6.265
 5294SOL    HW116781   5.961   2.890   6.240
 5294SOL    HW216782   5.871   2.764   6.189
 5295SOL     OW16783   5.180   1.196   3.121
 5295SOL    HW116784   5.228   1.217   3.036
 5295SOL    HW216785   5.242   1.149   3.183
 5296SOL     OW16786   1.658   4.629   0.783
 5296SOL    HW116787   1.655   4.669   0.874
 5296SOL    HW216788   1.749   4.592   0.766
 5297SOL     OW16789   2.010   1.180   1.140
 5297SOL    HW116790   2.066   1.161   1.221
 5297SOL    HW216791   1.961   1.097   1.113
 5298SOL     OW16792   6.291   4.872   1.595
 5298SOL    HW116793   6.264   4.936   1.523
 5298SOL    HW216794   6.388   4.886   1.617
 5299SOL     OW16795   2.946   0.554   1.586
 5299SOL    HW116796   2.965   0.561   1.487
 5299SOL    HW216797   2.970   0.640   1.630
 5300SOL     OW16798   0.300   6.679   3.528
 5300SOL    HW116799   0.276   6.673   3.431
 5300SOL    HW216800   0.225   6.644   3.584
 5301SOL     OW16801   4.385   1.629   6.700
 5301SOL    HW116802   4.336   1.693   6.759
 5301SOL    HW216803   4.322   1.557   6.670
 5302SOL     OW16804   6.619   4.279   3.065
 5302SOL    HW116805   6.691   4.246   3.127
 5302SOL    HW216806   6.641   4.372   3.036
 5303SOL     OW16807   6.947   4.737   3.602
 5303SOL    HW116808   6.949   4.649   3.555
 5303SOL    HW216809   6.864   4.787   3.576
 5304SOL     OW16810   4.888   1.877   5.882
 5304SOL    HW116811   4.940   1.815   5.940
 5304SOL    HW216812   4.797   1.840   5.866
 5305SOL     OW16813   2.319   0.730   3.712
 5305SOL    HW116814   2.314   0.823   3.676
 5305SOL    HW216815   2.388   0.725   3.784
 5306SOL     OW16816   2.858   6.312   5.986
 5306SOL    HW116817   2.871   6.393   6.042
 5306SOL    HW216818   2.816   6.338   5.899
 5307SOL     OW16819   4.513   6.903   6.147
 5307SOL    HW116820   4.587   6.966   6.169
 5307SOL    HW216821   4.501   6.838   6.222
 5308SOL     OW16822   6.999   0.960   3.367
 5308SOL    HW116823   0.031   0.901   3.431
 5308SOL    HW216824   6.908   0.977   3.403
 5309SOL     OW16825   3.841   4.003   3.975
 5309SOL    HW116826   3.842   3.991   3.876
 5309SOL    HW216827   3.934   3.994   4.011
 5310SOL     OW16828   5.448   2.017   1.497
 5310SOL    HW116829   5.387   2.009   1.575
 5310SOL    HW216830   5.529   1.961   1.512
 5311SOL     OW16831   2.114   5.389   6.873
 5311SOL    HW116832   2.033   5.436   6.838
 5311SOL    HW216833   2.193   5.412   6.817
 5312SOL     OW16834   1.046   4.068   2.870
 5312SOL    HW116835   1.094   4.060   2.957
 5312SOL    HW216836   1.113   4.077   2.796
 5313SOL     OW16837   1.390   5.988   6.405
 5313SOL    HW116838   1.298   5.950   6.418
 5313SOL    HW216839   1.447   5.963   6.484
 5314SOL     OW16840   4.061   5.455   6.860
 5314SOL    HW116841   4.104   5.534   6.816
 5314SOL    HW216842   4.132   5.392   6.891
 5315SOL     OW16843   5.893   3.606   1.848
 5315SOL    HW116844   5.879   3.665   1.928
 5315SOL    HW216845   5.853   3.649   1.768
 5316SOL     OW16846   6.804   4.982   4.692
 5316SOL    HW116847   6.894   5.000   4.731
 5316SOL    HW216848   6.810   4.908   4.625
 5317SOL     OW16849   5.328   0.255   2.278
 5317SOL    HW116850   5.271   0.228   2.355
 5317SOL    HW216851   5.397   0.321   2.308
 5318SOL     OW16852   0.192   2.606   4.431
 5318SOL    HW116853   0.118   2.622   4.496
 5318SOL    HW216854   0.259   2.680   4.436
 5319SOL     OW16855   5.009   0.242   0.331
 5319SOL    HW116856   4.981   0.149   0.309
 5319SOL    HW216857   5.051   0.284   0.251
 5320SOL     OW16858   5.619   3.578   6.854
 5320SOL    HW116859   5.715   3.601   6.865
 5320SOL    HW216860   5.610   3.490   6.809
 5321SOL     OW16861   1.611   5.822   5.509
 5321SOL    HW116862   1.570   5.799   5.421
 5321SOL    HW216863   1.603   5.743   5.571
 5322SOL     OW16864   3.525   5.413   6.309
 5322SOL    HW116865   3.519   5.325   6.261
 5322SOL    HW216866   3.448   5.471   6.285
 5323SOL     OW16867   4.518   1.797   0.355
 5323SOL    HW116868   4.522   1.874   0.291
 5323SOL    HW216869   4.515   1.711   0.303
 5324SOL     OW16870   4.298   2.881   1.634
 5324SOL    HW116871   4.269   2.790   1.666
 5324SOL    HW216872   4.223   2.946   1.648
 5325SOL     OW16873   5.258   6.499   1.865
 5325SOL    HW116874   5.310   6.539   1.790
 5325SOL    HW216875   5.311   6.508   1.950
 5326SOL     OW16876   6.651   5.929   1.397
 5326SOL    HW116877   6.720   5.860   1.418
 5326SOL    HW216878   6.562   5.885   1.383
 5327SOL     OW16879   6.642   6.572   4.264
 5327SOL    HW116880   6.604   6.658   4.299
 5327SOL    HW216881   6.575   6.499   4.276
 5328SOL     OW16882   3.582   3.876   0.008
 5328SOL    HW116883   3.577   3.778   0.027
 5328SOL    HW216884   3.663   3.914   0.053
 5329SOL     OW16885   0.565   4.564   0.732
 5329SOL    HW116886   0.493   4.562   0.802
 5329SOL    HW216887   0.654   4.554   0.776
 5330SOL     OW16888   3.964   3.844   1.430
 5330SOL    HW116889   3.906   3.766   1.407
 5330SOL    HW216890   3.955   3.866   1.527
 5331SOL     OW16891   4.520   2.398   0.443
 5331SOL    HW116892   4.450   2.441   0.499
 5331SOL    HW216893   4.602   2.381   0.499
 5332SOL     OW16894   6.069   4.618   0.305
 5332SOL    HW116895   6.144   4.660   0.356
 5332SOL    HW216896   6.043   4.532   0.348
 5333SOL     OW16897   1.537   1.341   3.372
 5333SOL    HW116898   1.564   1.438   3.375
 5333SOL    HW216899   1.456   1.331   3.315
 5334SOL     OW16900   4.441   4.692   3.111
 5334SOL    HW116901   4.502   4.676   3.033
 5334SOL    HW216902   4.346   4.691   3.079
 5335SOL     OW16903   0.079   5.098   1.355
 5335SOL    HW116904   0.054   5.048   1.438
 5335SOL    HW216905   0.165   5.063   1.319
 5336SOL     OW16906   1.882   2.088   4.428
 5336SOL    HW116907   1.979   2.111   4.421
 5336SOL    HW216908   1.858   2.073   4.524
 5337SOL     OW16909   6.988   4.501   1.247
 5337SOL    HW116910   6.942   4.468   1.329
 5337SOL    HW216911   6.978   4.601   1.242
 5338SOL     OW16912   6.549   3.623   0.617
 5338SOL    HW116913   6.579   3.663   0.531
 5338SOL    HW216914   6.451   3.606   0.614
 5339SOL     OW16915   5.809   2.357   2.815
 5339SOL    HW116916   5.714   2.356   2.845
 5339SOL    HW216917   5.820   2.423   2.740
 5340SOL     OW16918   5.618   2.764   2.637
 5340SOL    HW116919   5.673   2.787   2.557
 5340SOL    HW216920   5.526   2.738   2.608
 5341SOL     OW16921   4.561   5.015   3.687
 5341SOL    HW116922   4.590   5.109   3.668
 5341SOL    HW216923   4.639   4.963   3.721
 5342SOL     OW16924   5.954   0.128   4.800
 5342SOL    HW116925   5.996   0.175   4.877
 5342SOL    HW216926   5.854   0.131   4.810
 5343SOL     OW16927   4.182   3.644   5.297
 5343SOL    HW116928   4.143   3.731   5.328
 5343SOL    HW216929   4.182   3.641   5.197
 5344SOL     OW16930   0.514   2.013   6.150
 5344SOL    HW116931   0.540   2.001   6.246
 5344SOL    HW216932   0.416   1.997   6.140
 5345SOL     OW16933   5.385   1.664   6.922
 5345SOL    HW116934   5.484   1.645   6.925
 5345SOL    HW216935   5.349   1.636   6.833
 5346SOL     OW16936   2.911   5.373   4.089
 5346SOL    HW116937   3.000   5.372   4.136
 5346SOL    HW216938   2.852   5.441   4.132
 5347SOL     OW16939   6.204   1.720   3.944
 5347SOL    HW116940   6.201   1.706   3.845
 5347SOL    HW216941   6.298   1.714   3.976
 5348SOL     OW16942   5.365   2.241   3.866
 5348SOL    HW116943   5.360   2.327   3.814
 5348SOL    HW216944   5.363   2.165   3.802
 5349SOL     OW16945   0.701   3.187   2.238
 5349SOL    HW116946   0.752   3.108   2.272
 5349SOL    HW216947   0.639   3.159   2.165
 5350SOL     OW16948   2.420   6.597   6.049
 5350SOL    HW116949   2.451   6.505   6.026
 5350SOL    HW216950   2.487   6.664   6.016
 5351SOL     OW16951   0.550   5.624   1.671
 5351SOL    HW116952   0.628   5.636   1.610
 5351SOL    HW216953   0.567   5.548   1.733
 5352SOL     OW16954   2.054   4.027   4.165
 5352SOL    HW116955   2.101   4.005   4.250
 5352SOL    HW216956   1.957   4.004   4.174
 5353SOL     OW16957   4.666   5.605   3.508
 5353SOL    HW116958   4.609   5.534   3.467
 5353SOL    HW216959   4.714   5.655   3.435
 5354SOL     OW16960   3.732   5.471   0.476
 5354SOL    HW116961   3.675   5.418   0.539
 5354SOL    HW216962   3.775   5.547   0.525
 5355SOL     OW16963   4.994   4.798   5.228
 5355SOL    HW116964   5.079   4.826   5.184
 5355SOL    HW216965   4.979   4.700   5.212
 5356SOL     OW16966   0.311   4.974   1.242
 5356SOL    HW116967   0.324   5.004   1.148
 5356SOL    HW216968   0.384   4.911   1.268
 5357SOL     OW16969   5.040   5.073   2.250
 5357SOL    HW116970   5.021   5.064   2.347
 5357SOL    HW216971   4.957   5.050   2.198
 5358SOL     OW16972   4.398   1.361   0.446
 5358SOL    HW116973   4.378   1.446   0.399
 5358SOL    HW216974   4.497   1.350   0.456
 5359SOL     OW16975   1.572   2.115   6.699
 5359SOL    HW116976   1.505   2.139   6.629
 5359SOL    HW216977   1.644   2.185   6.701
 5360SOL     OW16978   5.092   4.591   3.137
 5360SOL    HW116979   5.129   4.666   3.191
 5360SOL    HW216980   4.992   4.590   3.144
 5361SOL     OW16981   3.073   6.058   2.702
 5361SOL    HW116982   3.158   6.064   2.650
 5361SOL    HW216983   2.996   6.088   2.645
 5362SOL     OW16984   5.653   0.242   1.853
 5362SOL    HW116985   5.597   0.323   1.835
 5362SOL    HW216986   5.597   0.173   1.898
 5363SOL     OW16987   5.409   5.069   4.964
 5363SOL    HW116988   5.451   5.155   4.937
 5363SOL    HW216989   5.477   4.995   4.958
 5364SOL     OW16990   4.819   0.833   2.500
 5364SOL    HW116991   4.772   0.753   2.463
 5364SOL    HW216992   4.814   0.832   2.600
 5365SOL     OW16993   3.426   3.098   4.237
 5365SOL    HW116994   3.465   3.174   4.290
 5365SOL    HW216995   3.494   3.026   4.226
 5366SOL     OW16996   6.333   6.495   1.734
 5366SOL    HW116997   6.253   6.553   1.717
 5366SOL    HW216998   6.364   6.455   1.648
 5367SOL     OW16999   6.757   6.556   1.672
 5367SOL    HW117000   6.694   6.634   1.673
 5367SOL    HW217001   6.725   6.488   1.605
 5368SOL     OW17002   6.870   5.725   3.498
 5368SOL    HW117003   6.786   5.672   3.495
 5368SOL    HW217004   6.848   5.821   3.515
 5369SOL     OW17005   2.779   5.940   1.903
 5369SOL    HW117006   2.699   5.895   1.864
 5369SOL    HW217007   2.861   5.908   1.856
 5370SOL     OW17008   3.110   3.839   1.698
 5370SOL    HW117009   3.113   3.879   1.607
 5370SOL    HW217010   3.065   3.750   1.694
 5371SOL     OW17011   6.509   5.236   5.100
 5371SOL    HW117012   6.511   5.186   5.187
 5371SOL    HW217013   6.601   5.240   5.062
 5372SOL     OW17014   0.634   0.152   2.361
 5372SOL    HW117015   0.578   0.194   2.432
 5372SOL    HW217016   0.664   0.223   2.296
 5373SOL     OW17017   3.321   0.586   6.042
 5373SOL    HW117018   3.332   0.516   5.971
 5373SOL    HW217019   3.392   0.656   6.032
 5374SOL     OW17020   3.258   5.202   1.564
 5374SOL    HW117021   3.351   5.230   1.590
 5374SOL    HW217022   3.217   5.273   1.507
 5375SOL     OW17023   0.715   6.099   4.523
 5375SOL    HW117024   0.654   6.069   4.450
 5375SOL    HW217025   0.803   6.127   4.483
 5376SOL     OW17026   0.547   1.767   6.915
 5376SOL    HW117027   0.459   1.741   6.875
 5376SOL    HW217028   0.577   1.695   6.978
 5377SOL     OW17029   2.452   0.358   3.504
 5377SOL    HW117030   2.443   0.359   3.405
 5377SOL    HW217031   2.381   0.415   3.545
 5378SOL     OW17032   5.385   0.912   1.823
 5378SOL    HW117033   5.479   0.940   1.844
 5378SOL    HW217034   5.332   0.907   1.907
 5379SOL     OW17035   1.070   3.138   6.393
 5379SOL    HW117036   0.995   3.077   6.419
 5379SOL    HW217037   1.123   3.161   6.475
 5380SOL     OW17038   4.601   0.075   0.897
 5380SOL    HW117039   4.687   0.109   0.936
 5380SOL    HW217040   4.618   0.037   0.806
 5381SOL     OW17041   4.640   6.081   3.098
 5381SOL    HW117042   4.555   6.028   3.090
 5381SOL    HW217043   4.656   6.131   3.013
 5382SOL     OW17044   3.928   1.743   1.634
 5382SOL    HW117045   3.997   1.786   1.692
 5382SOL    HW217046   3.900   1.656   1.675
 5383SOL     OW17047   2.254   3.003   4.377
 5383SOL    HW117048   2.249   3.077   4.445
 5383SOL    HW217049   2.210   2.921   4.414
 5384SOL     OW17050   4.844   6.184   5.664
 5384SOL    HW117051   4.835   6.282   5.647
 5384SOL    HW217052   4.755   6.140   5.652
 5385SOL     OW17053   5.393   2.653   5.688
 5385SOL    HW117054   5.337   2.643   5.606
 5385SOL    HW217055   5.335   2.673   5.767
 5386SOL     OW17056   6.455   3.718   4.020
 5386SOL    HW117057   6.432   3.753   3.929
 5386SOL    HW217058   6.528   3.775   4.060
 5387SOL     OW17059   1.904   1.686   2.669
 5387SOL    HW117060   1.841   1.655   2.598
 5387SOL    HW217061   1.882   1.641   2.756
 5388SOL     OW17062   0.466   6.846   2.685
 5388SOL    HW117063   0.537   6.883   2.623
 5388SOL    HW217064   0.492   6.754   2.714
 5389SOL     OW17065   4.398   1.992   3.947
 5389SOL    HW117066   4.357   2.083   3.945
 5389SOL    HW217067   4.367   1.939   3.868
 5390SOL     OW17068   6.635   3.132   3.694
 5390SOL    HW117069   6.626   3.033   3.686
 5390SOL    HW217070   6.545   3.171   3.715
 5391SOL     OW17071   2.265   2.571   0.496
 5391SOL    HW117072   2.275   2.604   0.402
 5391SOL    HW217073   2.170   2.581   0.525
 5392SOL     OW17074   5.685   2.067   3.766
 5392SOL    HW117075   5.744   2.021   3.700
 5392SOL    HW217076   5.679   2.164   3.744
 5393SOL     OW17077   3.732   1.985   5.497
 5393SOL    HW117078   3.802   2.027   5.554
 5393SOL    HW217079   3.734   2.025   5.406
 5394SOL     OW17080   1.735   0.448   0.981
 5394SOL    HW117081   1.822   0.404   1.004
 5394SOL    HW217082   1.731   0.465   0.883
 5395SOL     OW17083   5.574   1.940   1.229
 5395SOL    HW117084   5.540   1.971   1.318
 5395SOL    HW217085   5.643   2.004   1.195
 5396SOL     OW17086   5.772   5.192   3.336
 5396SOL    HW117087   5.834   5.125   3.297
 5396SOL    HW217088   5.761   5.176   3.434
 5397SOL     OW17089   6.335   1.166   3.101
 5397SOL    HW117090   6.362   1.119   3.017
 5397SOL    HW217091   6.239   1.194   3.093
 5398SOL     OW17092   4.885   1.987   3.370
 5398SOL    HW117093   4.819   2.060   3.350
 5398SOL    HW217094   4.960   1.992   3.304
 5399SOL     OW17095   2.678   0.176   5.722
 5399SOL    HW117096   2.717   0.102   5.667
 5399SOL    HW217097   2.722   0.178   5.812
 5400SOL     OW17098   3.587   3.313   1.423
 5400SOL    HW117099   3.643   3.294   1.503
 5400SOL    HW217100   3.593   3.410   1.400
 5401SOL     OW17101   6.146   4.362   1.556
 5401SOL    HW117102   6.058   4.316   1.571
 5401SOL    HW217103   6.206   4.302   1.503
 5402SOL     OW17104   1.508   0.086   1.062
 5402SOL    HW117105   1.585   0.054   1.006
 5402SOL    HW217106   1.516   0.185   1.077
 5403SOL     OW17107   5.138   3.119   0.476
 5403SOL    HW117108   5.125   3.210   0.436
 5403SOL    HW217109   5.151   3.052   0.403
 5404SOL     OW17110   6.383   1.122   1.247
 5404SOL    HW117111   6.310   1.129   1.178
 5404SOL    HW217112   6.371   1.195   1.314
 5405SOL     OW17113   4.886   6.168   0.018
 5405SOL    HW117114   4.922   6.228   6.965
 5405SOL    HW217115   4.949   6.092   0.032
 5406SOL     OW17116   2.722   0.402   3.887
 5406SOL    HW117117   2.686   0.323   3.936
 5406SOL    HW217118   2.796   0.373   3.826
 5407SOL     OW17119   1.611   0.380   1.850
 5407SOL    HW117120   1.627   0.444   1.925
 5407SOL    HW217121   1.684   0.390   1.782
 5408SOL     OW17122   2.615   2.466   4.594
 5408SOL    HW117123   2.658   2.489   4.681
 5408SOL    HW217124   2.609   2.367   4.585
 5409SOL     OW17125   1.422   2.427   1.247
 5409SOL    HW117126   1.323   2.425   1.237
 5409SOL    HW217127   1.456   2.519   1.227
 5410SOL     OW17128   0.803   2.368   0.871
 5410SOL    HW117129   0.841   2.369   0.779
 5410SOL    HW217130   0.866   2.320   0.932
 5411SOL     OW17131   3.643   4.858   6.614
 5411SOL    HW117132   3.693   4.943   6.596
 5411SOL    HW217133   3.620   4.814   6.528
 5412SOL     OW17134   0.379   2.499   5.921
 5412SOL    HW117135   0.289   2.498   5.965
 5412SOL    HW217136   0.447   2.461   5.985
 5413SOL     OW17137   6.807   6.979   4.209
 5413SOL    HW117138   6.870   0.032   4.242
 5413SOL    HW217139   6.713   7.005   4.232
 5414SOL     OW17140   6.335   3.949   5.357
 5414SOL    HW117141   6.362   3.879   5.290
 5414SOL    HW217142   6.417   3.990   5.397
 5415SOL     OW17143   3.557   0.341   0.606
 5415SOL    HW117144   3.457   0.349   0.608
 5415SOL    HW217145   3.583   0.245   0.612
 5416SOL     OW17146   3.410   5.024   6.055
 5416SOL    HW117147   3.321   5.048   6.095
 5416SOL    HW217148   3.396   4.962   5.978
 5417SOL     OW17149   4.766   6.089   3.602
 5417SOL    HW117150   4.775   6.168   3.542
 5417SOL    HW217151   4.675   6.090   3.645
 5418SOL     OW17152   6.356   3.946   4.621
 5418SOL    HW117153   6.446   3.987   4.634
 5418SOL    HW217154   6.330   3.952   4.524
 5419SOL     OW17155   4.158   0.330   6.288
 5419SOL    HW117156   4.058   0.332   6.291
 5419SOL    HW217157   4.194   0.417   6.322
 5420SOL     OW17158   0.913   1.135   1.742
 5420SOL    HW117159   0.869   1.132   1.832
 5420SOL    HW217160   0.896   1.050   1.693
 5421SOL     OW17161   3.880   5.327   2.359
 5421SOL    HW117162   3.848   5.397   2.422
 5421SOL    HW217163   3.802   5.278   2.320
 5422SOL     OW17164   2.323   6.317   4.200
 5422SOL    HW117165   2.324   6.400   4.256
 5422SOL    HW217166   2.416   6.284   4.187
 5423SOL     OW17167   6.151   6.322   2.343
 5423SOL    HW117168   6.112   6.357   2.428
 5423SOL    HW217169   6.159   6.398   2.277
 5424SOL     OW17170   4.397   4.237   5.565
 5424SOL    HW117171   4.323   4.197   5.618
 5424SOL    HW217172   4.364   4.259   5.473
 5425SOL     OW17173   0.493   3.625   5.791
 5425SOL    HW117174   0.503   3.568   5.709
 5425SOL    HW217175   0.411   3.598   5.840
 5426SOL     OW17176   5.828   5.287   2.226
 5426SOL    HW117177   5.906   5.304   2.166
 5426SOL    HW217178   5.831   5.193   2.260
 5427SOL     OW17179   4.698   2.414   6.613
 5427SOL    HW117180   4.637   2.382   6.685
 5427SOL    HW217181   4.717   2.340   6.549
 5428SOL     OW17182   0.110   5.181   3.014
 5428SOL    HW117183   0.194   5.235   3.016
 5428SOL    HW217184   0.035   5.238   2.979
 5429SOL     OW17185   2.890   0.110   3.590
 5429SOL    HW117186   2.945   0.038   3.633
 5429SOL    HW217187   2.926   0.200   3.616
 5430SOL     OW17188   2.811   3.859   6.187
 5430SOL    HW117189   2.888   3.850   6.124
 5430SOL    HW217190   2.726   3.837   6.140
 5431SOL     OW17191   3.609   4.941   6.207
 5431SOL    HW117192   3.543   4.984   6.144
 5431SOL    HW217193   3.615   4.995   6.291
 5432SOL     OW17194   5.346   4.925   0.391
 5432SOL    HW117195   5.270   4.976   0.349
 5432SOL    HW217196   5.358   4.956   0.485
 5433SOL     OW17197   1.420   6.855   1.058
 5433SOL    HW117198   1.422   6.954   1.047
 5433SOL    HW217199   1.473   6.829   1.139
 5434SOL     OW17200   5.159   0.577   4.282
 5434SOL    HW117201   5.234   0.587   4.347
 5434SOL    HW217202   5.083   0.530   4.326
 5435SOL     OW17203   6.840   4.036   1.196
 5435SOL    HW117204   6.764   3.973   1.214
 5435SOL    HW217205   6.849   4.051   1.098
 5436SOL     OW17206   1.512   4.341   2.902
 5436SOL    HW117207   1.571   4.334   2.822
 5436SOL    HW217208   1.490   4.437   2.919
 5437SOL     OW17209   3.652   5.858   0.885
 5437SOL    HW117210   3.568   5.839   0.934
 5437SOL    HW217211   3.639   5.936   0.823
 5438SOL     OW17212   4.637   4.978   2.928
 5438SOL    HW117213   4.613   5.008   2.836
 5438SOL    HW217214   4.629   4.878   2.933
 5439SOL     OW17215   1.100   5.203   1.442
 5439SOL    HW117216   1.007   5.220   1.475
 5439SOL    HW217217   1.110   5.240   1.350
 5440SOL     OW17218   5.941   5.740   3.597
 5440SOL    HW117219   5.943   5.643   3.572
 5440SOL    HW217220   5.876   5.788   3.538
 5441SOL     OW17221   4.491   2.469   3.438
 5441SOL    HW117222   4.561   2.432   3.376
 5441SOL    HW217223   4.413   2.406   3.441
 5442SOL     OW17224   5.169   0.050   4.938
 5442SOL    HW117225   5.084   0.085   4.899
 5442SOL    HW217226   5.169   6.968   4.931
 5443SOL     OW17227   4.447   0.585   4.378
 5443SOL    HW117228   4.452   0.524   4.457
 5443SOL    HW217229   4.439   0.530   4.295
 5444SOL     OW17230   6.792   0.717   4.566
 5444SOL    HW117231   6.767   0.683   4.475
 5444SOL    HW217232   6.737   0.670   4.635
 5445SOL     OW17233   5.170   5.421   5.428
 5445SOL    HW117234   5.239   5.493   5.433
 5445SOL    HW217235   5.181   5.370   5.342
 5446SOL     OW17236   0.800   4.429   5.897
 5446SOL    HW117237   0.713   4.418   5.850
 5446SOL    HW217238   0.812   4.357   5.965
 5447SOL     OW17239   1.120   1.332   0.389
 5447SOL    HW117240   1.034   1.285   0.366
 5447SOL    HW217241   1.106   1.386   0.473
 5448SOL     OW17242   4.414   5.534   3.152
 5448SOL    HW117243   4.427   5.503   3.246
 5448SOL    HW217244   4.322   5.510   3.121
 5449SOL     OW17245   2.944   1.737   1.837
 5449SOL    HW117246   2.962   1.664   1.770
 5449SOL    HW217247   3.027   1.790   1.851
 5450SOL     OW17248   4.036   5.784   1.641
 5450SOL    HW117249   4.103   5.825   1.704
 5450SOL    HW217250   4.083   5.754   1.558
 5451SOL     OW17251   0.981   0.230   3.185
 5451SOL    HW117252   0.995   0.311   3.242
 5451SOL    HW217253   1.008   0.251   3.091
 5452SOL     OW17254   2.009   4.889   1.891
 5452SOL    HW117255   1.991   4.979   1.930
 5452SOL    HW217256   2.020   4.822   1.964
 5453SOL     OW17257   5.781   4.513   3.135
 5453SOL    HW117258   5.725   4.580   3.087
 5453SOL    HW217259   5.809   4.441   3.071
 5454SOL     OW17260   5.783   5.114   3.597
 5454SOL    HW117261   5.866   5.169   3.603
 5454SOL    HW217262   5.754   5.087   3.689
 5455SOL     OW17263   0.537   1.844   2.714
 5455SOL    HW117264   0.491   1.758   2.692
 5455SOL    HW217265   0.616   1.855   2.654
 5456SOL     OW17266   5.808   1.094   6.997
 5456SOL    HW117267   5.790   1.148   0.061
 5456SOL    HW217268   5.784   1.147   6.916
 5457SOL     OW17269   6.019   2.494   0.370
 5457SOL    HW117270   6.075   2.412   0.377
 5457SOL    HW217271   5.984   2.519   0.460
 5458SOL     OW17272   6.537   4.765   0.908
 5458SOL    HW117273   6.519   4.863   0.901
 5458SOL    HW217274   6.533   4.737   1.004
 5459SOL     OW17275   2.108   4.097   5.590
 5459SOL    HW117276   2.172   4.108   5.514
 5459SOL    HW217277   2.153   4.048   5.664
 5460SOL     OW17278   2.095   0.387   0.130
 5460SOL    HW117279   2.015   0.345   0.173
 5460SOL    HW217280   2.073   0.480   0.100
 5461SOL     OW17281   6.500   1.232   6.479
 5461SOL    HW117282   6.424   1.231   6.415
 5461SOL    HW217283   6.565   1.161   6.454
 5462SOL     OW17284   5.552   5.616   6.537
 5462SOL    HW117285   5.551   5.715   6.547
 5462SOL    HW217286   5.458   5.582   6.529
 5463SOL     OW17287   0.081   2.982   0.073
 5463SOL    HW117288   7.003   2.985   0.099
 5463SOL    HW217289   0.090   2.969   6.993
 5464SOL     OW17290   0.032   6.428   5.408
 5464SOL    HW117291   0.083   6.346   5.384
 5464SOL    HW217292   0.097   6.503   5.425
 5465SOL     OW17293   6.829   6.519   3.593
 5465SOL    HW117294   6.822   6.426   3.555
 5465SOL    HW217295   6.861   6.582   3.522
 5466SOL     OW17296   5.961   2.834   5.326
 5466SOL    HW117297   5.885   2.872   5.379
 5466SOL    HW217298   5.931   2.752   5.277
 5467SOL     OW17299   5.565   3.880   3.556
 5467SOL    HW117300   5.585   3.789   3.592
 5467SOL    HW217301   5.606   3.949   3.615
 5468SOL     OW17302   0.228   1.432   2.205
 5468SOL    HW117303   0.167   1.391   2.137
 5468SOL    HW217304   0.191   1.520   2.234
 5469SOL     OW17305   2.306   1.262   5.450
 5469SOL    HW117306   2.247   1.295   5.376
 5469SOL    HW217307   2.402   1.279   5.426
 5470SOL     OW17308   3.626   5.468   3.999
 5470SOL    HW117309   3.677   5.551   4.021
 5470SOL    HW217310   3.662   5.391   4.052
 5471SOL     OW17311   4.802   0.298   2.802
 5471SOL    HW117312   4.870   0.279   2.873
 5471SOL    HW217313   4.717   0.251   2.823
 5472SOL     OW17314   2.718   1.584   6.323
 5472SOL    HW117315   2.756   1.658   6.266
 5472SOL    HW217316   2.781   1.506   6.321
 5473SOL     OW17317   2.560   4.232   1.489
 5473SOL    HW117318   2.529   4.187   1.405
 5473SOL    HW217319   2.483   4.279   1.533
 5474SOL     OW17320   0.776   5.137   3.390
 5474SOL    HW117321   0.822   5.107   3.474
 5474SOL    HW217322   0.809   5.228   3.365
 5475SOL     OW17323   7.010   2.062   6.225
 5475SOL    HW117324   7.017   2.161   6.238
 5475SOL    HW217325   6.982   2.019   6.311
 5476SOL     OW17326   2.614   6.320   6.168
 5476SOL    HW117327   2.652   6.289   6.255
 5476SOL    HW217328   2.531   6.269   6.148
 5477SOL     OW17329   2.279   5.643   4.507
 5477SOL    HW117330   2.207   5.585   4.470
 5477SOL    HW217331   2.256   5.670   4.600
 5478SOL     OW17332   5.374   4.602   6.311
 5478SOL    HW117333   5.279   4.631   6.306
 5478SOL    HW217334   5.380   4.504   6.290
 5479SOL     OW17335   3.988   1.988   4.615
 5479SOL    HW117336   3.907   2.042   4.637
 5479SOL    HW217337   4.048   2.041   4.555
 5480SOL     OW17338   6.175   4.415   4.921
 5480SOL    HW117339   6.122   4.457   4.848
 5480SOL    HW217340   6.127   4.426   5.008
 5481SOL     OW17341   4.639   1.212   6.533
 5481SOL    HW117342   4.604   1.182   6.622
 5481SOL    HW217343   4.697   1.141   6.495
 5482SOL     OW17344   4.151   3.098   1.709
 5482SOL    HW117345   4.168   3.142   1.621
 5482SOL    HW217346   4.182   3.158   1.783
 5483SOL     OW17347   6.829   3.726   6.004
 5483SOL    HW117348   6.786   3.792   5.942
 5483SOL    HW217349   6.773   3.717   6.086
 5484SOL     OW17350   6.903   6.709   4.164
 5484SOL    HW117351   6.873   6.802   4.144
 5484SOL    HW217352   6.825   6.656   4.200
 5485SOL     OW17353   3.987   6.830   4.947
 5485SOL    HW117354   4.070   6.819   5.002
 5485SOL    HW217355   3.959   6.741   4.912
 5486SOL     OW17356   1.052   0.767   2.925
 5486SOL    HW117357   1.122   0.752   2.995
 5486SOL    HW217358   0.991   0.840   2.955
 5487SOL     OW17359   6.372   4.428   0.217
 5487SOL    HW117360   6.405   4.359   0.281
 5487SOL    HW217361   6.282   4.402   0.183
 5488SOL     OW17362   5.130   2.219   6.834
 5488SOL    HW117363   5.069   2.242   6.910
 5488SOL    HW217364   5.221   2.256   6.852
 5489SOL     OW17365   1.827   4.756   2.563
 5489SOL    HW117366   1.883   4.676   2.541
 5489SOL    HW217367   1.853   4.791   2.653
 5490SOL     OW17368   3.324   0.867   7.016
 5490SOL    HW117369   3.385   0.874   6.937
 5490SOL    HW217370   3.301   0.959   0.030
 5491SOL     OW17371   1.858   4.719   0.492
 5491SOL    HW117372   1.894   4.677   0.575
 5491SOL    HW217373   1.866   4.818   0.498
 5492SOL     OW17374   0.759   2.432   6.931
 5492SOL    HW117375   0.828   2.504   6.940
 5492SOL    HW217376   0.686   2.446   6.997
 5493SOL     OW17377   3.831   3.175   5.860
 5493SOL    HW117378   3.828   3.251   5.925
 5493SOL    HW217379   3.759   3.109   5.882
 5494SOL     OW17380   6.637   3.747   1.785
 5494SOL    HW117381   6.563   3.707   1.839
 5494SOL    HW217382   6.697   3.800   1.845
 5495SOL     OW17383   4.063   3.937   1.961
 5495SOL    HW117384   4.069   4.013   2.026
 5495SOL    HW217385   4.136   3.946   1.893
 5496SOL     OW17386   3.807   6.119   2.134
 5496SOL    HW117387   3.804   6.149   2.039
 5496SOL    HW217388   3.779   6.194   2.194
 5497SOL     OW17389   0.265   1.465   2.940
 5497SOL    HW117390   0.313   1.378   2.944
 5497SOL    HW217391   0.325   1.539   2.972
 5498SOL     OW17392   4.876   1.458   5.744
 5498SOL    HW117393   4.813   1.392   5.704
 5498SOL    HW217394   4.828   1.512   5.813
 5499SOL     OW17395   6.638   1.566   3.307
 5499SOL    HW117396   6.614   1.520   3.221
 5499SOL    HW217397   6.737   1.559   3.321
 5500SOL     OW17398   2.560   5.230   0.759
 5500SOL    HW117399   2.605   5.145   0.731
 5500SOL    HW217400   2.630   5.296   0.787
 5501SOL     OW17401   2.611   0.197   1.909
 5501SOL    HW117402   2.652   0.190   2.000
 5501SOL    HW217403   2.603   0.293   1.883
 5502SOL     OW17404   6.028   4.138   5.820
 5502SOL    HW117405   6.015   4.065   5.753
 5502SOL    HW217406   6.119   4.177   5.811
 5503SOL     OW17407   1.143   4.756   3.544
 5503SOL    HW117408   1.076   4.682   3.533
 5503SOL    HW217409   1.194   4.742   3.629
 5504SOL     OW17410   3.241   1.543   4.991
 5504SOL    HW117411   3.260   1.482   5.068
 5504SOL    HW217412   3.239   1.637   5.023
 5505SOL     OW17413   2.615   5.591   5.092
 5505SOL    HW117414   2.613   5.674   5.036
 5505SOL    HW217415   2.690   5.532   5.061
 5506SOL     OW17416   6.700   0.840   4.870
 5506SOL    HW117417   6.653   0.753   4.852
 5506SOL    HW217418   6.634   0.914   4.878
 5507SOL     OW17419   2.407   6.915   3.468
 5507SOL    HW117420   2.402   6.988   3.536
 5507SOL    HW217421   2.442   6.832   3.510
 5508SOL     OW17422   2.179   0.584   6.184
 5508SOL    HW117423   2.217   0.660   6.237
 5508SOL    HW217424   2.153   0.617   6.093
 5509SOL     OW17425   5.937   6.274   0.270
 5509SOL    HW117426   5.883   6.349   0.230
 5509SOL    HW217427   5.876   6.198   0.293
 5510SOL     OW17428   4.481   0.351   6.255
 5510SOL    HW117429   4.398   0.314   6.213
 5510SOL    HW217430   4.456   0.420   6.322
 5511SOL     OW17431   0.348   0.704   2.612
 5511SOL    HW117432   0.284   0.703   2.688
 5511SOL    HW217433   0.351   0.796   2.572
 5512SOL     OW17434   6.819   1.771   0.171
 5512SOL    HW117435   6.840   1.776   0.269
 5512SOL    HW217436   6.721   1.761   0.159
 5513SOL     OW17437   4.592   4.372   4.807
 5513SOL    HW117438   4.679   4.411   4.837
 5513SOL    HW217439   4.517   4.420   4.854
 5514SOL     OW17440   5.957   4.922   2.949
 5514SOL    HW117441   6.019   4.844   2.942
 5514SOL    HW217442   5.923   4.930   3.043
 5515SOL     OW17443   6.784   2.533   2.402
 5515SOL    HW117444   6.811   2.628   2.416
 5515SOL    HW217445   6.695   2.516   2.446
 5516SOL     OW17446   1.571   2.584   0.008
 5516SOL    HW117447   1.582   2.588   0.108
 5516SOL    HW217448   1.617   2.662   6.985
 5517SOL     OW17449   3.060   2.130   1.117
 5517SOL    HW117450   2.999   2.207   1.135
 5517SOL    HW217451   3.047   2.061   1.188
 5518SOL     OW17452   5.237   4.936   6.291
 5518SOL    HW117453   5.222   4.973   6.199
 5518SOL    HW217454   5.334   4.913   6.302
 5519SOL     OW17455   5.242   3.895   3.292
 5519SOL    HW117456   5.228   3.985   3.334
 5519SOL    HW217457   5.173   3.831   3.325
 5520SOL     OW17458   1.722   3.627   3.008
 5520SOL    HW117459   1.735   3.534   2.973
 5520SOL    HW217460   1.625   3.643   3.026
 5521SOL     OW17461   4.968   6.482   1.898
 5521SOL    HW117462   5.000   6.514   1.987
 5521SOL    HW217463   5.034   6.508   1.827
 5522SOL     OW17464   2.699   3.367   1.622
 5522SOL    HW117465   2.724   3.395   1.530
 5522SOL    HW217466   2.602   3.385   1.638
 5523SOL     OW17467   3.338   6.933   2.962
 5523SOL    HW117468   3.366   6.848   3.006
 5523SOL    HW217469   3.280   6.912   2.883
 5524SOL     OW17470   0.716   5.472   4.796
 5524SOL    HW117471   0.752   5.425   4.876
 5524SOL    HW217472   0.729   5.414   4.715
 5525SOL     OW17473   6.811   4.995   6.950
 5525SOL    HW117474   6.770   5.025   0.018
 5525SOL    HW217475   6.911   4.991   6.959
 5526SOL     OW17476   6.259   3.391   3.389
 5526SOL    HW117477   6.230   3.351   3.302
 5526SOL    HW217478   6.192   3.459   3.418
 5527SOL     OW17479   0.775   2.671   1.602
 5527SOL    HW117480   0.740   2.593   1.550
 5527SOL    HW217481   0.861   2.646   1.646
 5528SOL     OW17482   6.941   2.623   5.049
 5528SOL    HW117483   0.016   2.591   5.063
 5528SOL    HW217484   6.877   2.548   5.067
 5529SOL     OW17485   2.620   0.514   4.783
 5529SOL    HW117486   2.568   0.560   4.711
 5529SOL    HW217487   2.613   0.567   4.868
 5530SOL     OW17488   0.229   2.738   1.029
 5530SOL    HW117489   0.217   2.738   0.929
 5530SOL    HW217490   0.251   2.646   1.060
 5531SOL     OW17491   3.919   3.090   4.661
 5531SOL    HW117492   4.019   3.083   4.659
 5531SOL    HW217493   3.886   3.068   4.753
 5532SOL     OW17494   1.589   0.699   0.261
 5532SOL    HW117495   1.606   0.609   0.301
 5532SOL    HW217496   1.520   0.691   0.189
 5533SOL     OW17497   2.757   0.972   3.456
 5533SOL    HW117498   2.834   0.910   3.473
 5533SOL    HW217499   2.759   1.001   3.360
 5534SOL     OW17500   1.328   2.955   6.719
 5534SOL    HW117501   1.411   2.998   6.755
 5534SOL    HW217502   1.327   2.859   6.747
 5535SOL     OW17503   6.873   3.005   3.199
 5535SOL    HW117504   6.814   3.015   3.279
 5535SOL    HW217505   6.883   3.094   3.154
 5536SOL     OW17506   2.273   0.539   4.305
 5536SOL    HW117507   2.203   0.545   4.376
 5536SOL    HW217508   2.362   0.566   4.343
 5537SOL     OW17509   3.624   0.151   4.755
 5537SOL    HW117510   3.543   0.208   4.742
 5537SOL    HW217511   3.595   0.056   4.768
 5538SOL     OW17512   4.019   0.605   5.584
 5538SOL    HW117513   3.922   0.626   5.571
 5538SOL    HW217514   4.031   0.507   5.597
 5539SOL     OW17515   0.764   1.432   1.977
 5539SOL    HW117516   0.668   1.440   1.951
 5539SOL    HW217517   0.772   1.371   2.056
 5540SOL     OW17518   5.064   2.808   1.452
 5540SOL    HW117519   4.995   2.815   1.379
 5540SOL    HW217520   5.076   2.896   1.496
 5541SOL     OW17521   5.054   3.437   5.438
 5541SOL    HW117522   4.957   3.439   5.461
 5541SOL    HW217523   5.065   3.426   5.339
 5542SOL     OW17524   5.381   5.203   6.601
 5542SOL    HW117525   5.355   5.295   6.633
 5542SOL    HW217526   5.443   5.161   6.668
 5543SOL     OW17527   2.325   5.496   6.726
 5543SOL    HW117528   2.285   5.587   6.717
 5543SOL    HW217529   2.424   5.504   6.735
 5544SOL     OW17530   5.488   5.318   6.115
 5544SOL    HW117531   5.412   5.378   6.090
 5544SOL    HW217532   5.483   5.234   6.061
 5545SOL     OW17533   3.809   1.348   2.573
 5545SOL    HW117534   3.853   1.402   2.501
 5545SOL    HW217535   3.849   1.371   2.662
 5546SOL     OW17536   0.989   6.637   4.469
 5546SOL    HW117537   1.033   6.568   4.412
 5546SOL    HW217538   1.053   6.670   4.537
 5547SOL     OW17539   4.187   1.644   5.839
 5547SOL    HW117540   4.191   1.697   5.924
 5547SOL    HW217541   4.108   1.672   5.786
 5548SOL     OW17542   6.498   4.323   5.995
 5548SOL    HW117543   6.433   4.343   6.068
 5548SOL    HW217544   6.562   4.399   5.986
 5549SOL     OW17545   4.026   3.014   1.341
 5549SOL    HW117546   3.994   3.085   1.278
 5549SOL    HW217547   3.951   2.987   1.402
 5550SOL     OW17548   2.255   4.088   3.341
 5550SOL    HW117549   2.301   4.078   3.429
 5550SOL    HW217550   2.306   4.153   3.284
 5551SOL     OW17551   1.711   5.989   2.771
 5551SOL    HW117552   1.786   5.991   2.704
 5551SOL    HW217553   1.637   5.931   2.736
 5552SOL     OW17554   6.106   6.956   6.160
 5552SOL    HW117555   6.099   6.984   6.256
 5552SOL    HW217556   6.043   6.880   6.143
 5553SOL     OW17557   4.344   0.143   6.805
 5553SOL    HW117558   4.408   0.133   6.881
 5553SOL    HW217559   4.321   0.239   6.792
 5554SOL     OW17560   4.830   3.208   1.777
 5554SOL    HW117561   4.764   3.270   1.734
 5554SOL    HW217562   4.792   3.116   1.782
 5555SOL     OW17563   1.027   3.707   2.335
 5555SOL    HW117564   1.044   3.704   2.433
 5555SOL    HW217565   1.061   3.794   2.298
 5556SOL     OW17566   6.183   0.842   3.886
 5556SOL    HW117567   6.126   0.881   3.813
 5556SOL    HW217568   6.238   0.767   3.849
 5557SOL     OW17569   4.172   5.380   1.658
 5557SOL    HW117570   4.117   5.335   1.728
 5557SOL    HW217571   4.124   5.378   1.571
 5558SOL     OW17572   3.559   3.626   0.120
 5558SOL    HW117573   3.518   3.551   0.068
 5558SOL    HW217574   3.649   3.598   0.153
 5559SOL     OW17575   1.032   0.488   2.188
 5559SOL    HW117576   0.978   0.411   2.224
 5559SOL    HW217577   1.126   0.457   2.172
 5560SOL     OW17578   0.077   5.637   1.453
 5560SOL    HW117579   0.100   5.544   1.424
 5560SOL    HW217580   7.000   5.656   1.430
 5561SOL     OW17581   2.878   0.452   4.815
 5561SOL    HW117582   2.789   0.497   4.804
 5561SOL    HW217583   2.944   0.518   4.853
 5562SOL     OW17584   4.211   4.105   0.342
 5562SOL    HW117585   4.296   4.130   0.388
 5562SOL    HW217586   4.229   4.033   0.275
 5563SOL     OW17587   3.049   5.326   2.890
 5563SOL    HW117588   2.991   5.399   2.926
 5563SOL    HW217589   3.003   5.238   2.899
 5564SOL     OW17590   4.836   6.871   6.448
 5564SOL    HW117591   4.753   6.925   6.440
 5564SOL    HW217592   4.901   6.899   6.379
 5565SOL     OW17593   4.026   2.536   6.521
 5565SOL    HW117594   3.951   2.497   6.575
 5565SOL    HW217595   4.006   2.632   6.502
 5566SOL     OW17596   2.167   4.420   0.617
 5566SOL    HW117597   2.193   4.373   0.532
 5566SOL    HW217598   2.246   4.469   0.654
 5567SOL     OW17599   0.591   3.987   1.931
 5567SOL    HW117600   0.579   4.066   1.992
 5567SOL    HW217601   0.501   3.958   1.896
 5568SOL     OW17602   4.404   0.823   2.987
 5568SOL    HW117603   4.445   0.754   2.927
 5568SOL    HW217604   4.463   0.903   2.991
 5569SOL     OW17605   1.932   2.112   2.701
 5569SOL    HW117606   2.029   2.119   2.720
 5569SOL    HW217607   1.880   2.168   2.766
 5570SOL     OW17608   6.515   3.136   3.332
 5570SOL    HW117609   6.596   3.184   3.365
 5570SOL    HW217610   6.452   3.121   3.408
 5571SOL     OW17611   6.825   5.329   1.920
 5571SOL    HW117612   6.840   5.338   2.019
 5571SOL    HW217613   6.905   5.364   1.871
 5572SOL     OW17614   1.557   4.228   4.851
 5572SOL    HW117615   1.562   4.170   4.932
 5572SOL    HW217616   1.618   4.306   4.863
 5573SOL     OW17617   1.518   5.620   5.346
 5573SOL    HW117618   1.605   5.589   5.307
 5573SOL    HW217619   1.443   5.588   5.288
 5574SOL     OW17620   0.357   3.161   0.546
 5574SOL    HW117621   0.417   3.232   0.583
 5574SOL    HW217622   0.390   3.071   0.574
 5575SOL     OW17623   0.031   0.278   0.736
 5575SOL    HW117624   7.000   0.242   0.815
 5575SOL    HW217625   6.986   0.293   0.661
 5576SOL     OW17626   1.634   4.383   2.319
 5576SOL    HW117627   1.545   4.344   2.342
 5576SOL    HW217628   1.637   4.403   2.221
 5577SOL     OW17629   2.450   2.931   6.710
 5577SOL    HW117630   2.442   2.881   6.624
 5577SOL    HW217631   2.364   2.977   6.730
 5578SOL     OW17632   3.529   4.169   2.346
 5578SOL    HW117633   3.550   4.153   2.443
 5578SOL    HW217634   3.546   4.265   2.324
 5579SOL     OW17635   0.454   3.495   0.992
 5579SOL    HW117636   0.553   3.488   1.003
 5579SOL    HW217637   0.413   3.517   1.081
 5580SOL     OW17638   4.370   1.983   5.933
 5580SOL    HW117639   4.424   1.951   5.855
 5580SOL    HW217640   4.415   1.956   6.018
 5581SOL     OW17641   1.094   0.783   1.608
 5581SOL    HW117642   1.169   0.846   1.624
 5581SOL    HW217643   1.125   0.689   1.623
 5582SOL     OW17644   2.867   4.230   6.523
 5582SOL    HW117645   2.914   4.274   6.599
 5582SOL    HW217646   2.909   4.141   6.504
 5583SOL     OW17647   4.276   1.012   2.794
 5583SOL    HW117648   4.269   0.913   2.785
 5583SOL    HW217649   4.266   1.037   2.890
 5584SOL     OW17650   6.542   3.970   4.356
 5584SOL    HW117651   6.563   3.921   4.272
 5584SOL    HW217652   6.608   3.944   4.427
 5585SOL     OW17653   5.384   5.559   3.118
 5585SOL    HW117654   5.420   5.514   3.200
 5585SOL    HW217655   5.433   5.526   3.038
 5586SOL     OW17656   0.332   3.929   5.800
 5586SOL    HW117657   0.388   3.878   5.865
 5586SOL    HW217658   0.239   3.938   5.835
 5587SOL     OW17659   4.536   0.107   0.606
 5587SOL    HW117660   4.488   0.195   0.604
 5587SOL    HW217661   4.479   0.037   0.564
 5588SOL     OW17662   2.884   5.918   3.160
 5588SOL    HW117663   2.808   5.975   3.127
 5588SOL    HW217664   2.854   5.823   3.164
 5589SOL     OW17665   6.149   3.866   6.090
 5589SOL    HW117666   6.069   3.846   6.033
 5589SOL    HW217667   6.206   3.784   6.098
 5590SOL     OW17668   6.596   6.537   3.791
 5590SOL    HW117669   6.632   6.538   3.698
 5590SOL    HW217670   6.672   6.539   3.856
 5591SOL     OW17671   6.913   2.183   1.651
 5591SOL    HW117672   7.003   2.148   1.629
 5591SOL    HW217673   6.922   2.273   1.694
 5592SOL     OW17674   2.326   6.045   3.471
 5592SOL    HW117675   2.422   6.028   3.448
 5592SOL    HW217676   2.298   5.983   3.544
 5593SOL     OW17677   0.054   2.911   6.605
 5593SOL    HW117678   0.097   2.839   6.550
 5593SOL    HW217679   6.974   2.909   6.591
 5594SOL     OW17680   5.011   0.722   4.967
 5594SOL    HW117681   5.022   0.804   5.024
 5594SOL    HW217682   5.015   0.747   4.871
 5595SOL     OW17683   0.848   1.440   4.616
 5595SOL    HW117684   0.811   1.488   4.696
 5595SOL    HW217685   0.945   1.463   4.606
 5596SOL     OW17686   4.149   6.414   2.863
 5596SOL    HW117687   4.175   6.506   2.893
 5596SOL    HW217688   4.158   6.408   2.764
 5597SOL     OW17689   4.479   2.492   4.501
 5597SOL    HW117690   4.475   2.467   4.598
 5597SOL    HW217691   4.554   2.556   4.486
 5598SOL     OW17692   5.333   3.619   4.294
 5598SOL    HW117693   5.356   3.541   4.353
 5598SOL    HW217694   5.234   3.627   4.287
 5599SOL     OW17695   0.996   1.277   4.311
 5599SOL    HW117696   1.090   1.245   4.305
 5599SOL    HW217697   0.995   1.377   4.311
 5600SOL     OW17698   0.797   1.106   2.007
 5600SOL    HW117699   0.799   1.170   2.085
 5600SOL    HW217700   0.813   1.014   2.040
 5601SOL     OW17701   2.373   0.967   5.200
 5601SOL    HW117702   2.387   0.868   5.193
 5601SOL    HW217703   2.459   1.015   5.183
 5602SOL     OW17704   6.185   1.766   1.132
 5602SOL    HW117705   6.251   1.696   1.105
 5602SOL    HW217706   6.160   1.820   1.051
 5603SOL     OW17707   5.692   1.981   6.672
 5603SOL    HW117708   5.670   1.904   6.731
 5603SOL    HW217709   5.611   2.039   6.661
 5604SOL     OW17710   6.310   2.018   4.688
 5604SOL    HW117711   6.403   1.992   4.717
 5604SOL    HW217712   6.315   2.086   4.615
 5605SOL     OW17713   0.325   0.565   4.747
 5605SOL    HW117714   0.382   0.636   4.707
 5605SOL    HW217715   0.379   0.511   4.812
 5606SOL     OW17716   4.669   6.766   0.413
 5606SOL    HW117717   4.706   6.737   0.502
 5606SOL    HW217718   4.698   6.702   0.342
 5607SOL     OW17719   5.411   0.147   2.724
 5607SOL    HW117720   5.404   0.247   2.726
 5607SOL    HW217721   5.418   0.113   2.818
 5608SOL     OW17722   4.840   0.216   5.040
 5608SOL    HW117723   4.871   0.166   4.959
 5608SOL    HW217724   4.908   0.285   5.064
 5609SOL     OW17725   2.926   5.571   1.105
 5609SOL    HW117726   2.991   5.593   1.177
 5609SOL    HW217727   2.834   5.560   1.145
 5610SOL     OW17728   4.782   6.548   0.875
 5610SOL    HW117729   4.744   6.481   0.812
 5610SOL    HW217730   4.733   6.544   0.962
 5611SOL     OW17731   1.006   5.498   2.439
 5611SOL    HW117732   1.038   5.502   2.534
 5611SOL    HW217733   0.942   5.422   2.429
 5612SOL     OW17734   3.857   1.603   6.988
 5612SOL    HW117735   3.895   1.593   6.896
 5612SOL    HW217736   3.797   1.682   6.991
 5613SOL     OW17737   5.591   4.030   3.801
 5613SOL    HW117738   5.605   3.972   3.881
 5613SOL    HW217739   5.538   4.110   3.827
 5614SOL     OW17740   4.732   2.645   4.534
 5614SOL    HW117741   4.690   2.712   4.596
 5614SOL    HW217742   4.781   2.693   4.462
 5615SOL     OW17743   0.293   1.068   4.468
 5615SOL    HW117744   0.195   1.083   4.450
 5615SOL    HW217745   0.337   1.156   4.486
 5616SOL     OW17746   2.493   1.753   4.982
 5616SOL    HW117747   2.470   1.793   5.071
 5616SOL    HW217748   2.498   1.653   4.990
 5617SOL     OW17749   2.750   0.241   6.628
 5617SOL    HW117750   2.795   0.269   6.544
 5617SOL    HW217751   2.792   0.156   6.662
 5618SOL     OW17752   0.160   4.163   3.773
 5618SOL    HW117753   0.211   4.249   3.786
 5618SOL    HW217754   0.068   4.184   3.739
 5619SOL     OW17755   3.019   3.836   6.011
 5619SOL    HW117756   3.013   3.746   6.054
 5619SOL    HW217757   3.103   3.881   6.040
 5620SOL     OW17758   3.445   2.906   0.864
 5620SOL    HW117759   3.389   2.989   0.867
 5620SOL    HW217760   3.443   2.861   0.953
 5621SOL     OW17761   0.922   2.734   6.058
 5621SOL    HW117762   0.897   2.668   6.129
 5621SOL    HW217763   0.847   2.743   5.993
 5622SOL     OW17764   4.627   0.269   5.948
 5622SOL    HW117765   4.547   0.323   5.925
 5622SOL    HW217766   4.682   0.253   5.866
 5623SOL     OW17767   2.012   6.040   5.902
 5623SOL    HW117768   1.915   6.016   5.912
 5623SOL    HW217769   2.068   5.957   5.910
 5624SOL     OW17770   0.877   4.487   3.388
 5624SOL    HW117771   0.829   4.560   3.340
 5624SOL    HW217772   0.840   4.398   3.359
 5625SOL     OW17773   6.703   1.438   4.383
 5625SOL    HW117774   6.727   1.532   4.356
 5625SOL    HW217775   6.770   1.404   4.449
 5626SOL     OW17776   2.798   6.375   4.181
 5626SOL    HW117777   2.873   6.377   4.247
 5626SOL    HW217778   2.734   6.448   4.201
 5627SOL     OW17779   1.037   5.967   6.848
 5627SOL    HW117780   1.132   5.991   6.831
 5627SOL    HW217781   1.028   5.868   6.857
 5628SOL     OW17782   1.442   2.550   6.590
 5628SOL    HW117783   1.441   2.458   6.628
 5628SOL    HW217784   1.373   2.606   6.636
 5629SOL     OW17785   2.951   3.870   2.449
 5629SOL    HW117786   2.960   3.842   2.353
 5629SOL    HW217787   2.964   3.968   2.457
 5630SOL     OW17788   2.257   4.835   1.033
 5630SOL    HW117789   2.278   4.743   0.999
 5630SOL    HW217790   2.173   4.868   0.990
 5631SOL     OW17791   4.400   2.052   0.265
 5631SOL    HW117792   4.341   2.046   0.345
 5631SOL    HW217793   4.414   2.148   0.241
 5632SOL     OW17794   3.591   2.799   6.087
 5632SOL    HW117795   3.639   2.862   6.148
 5632SOL    HW217796   3.595   2.706   6.123
 5633SOL     OW17797   6.917   3.068   4.488
 5633SOL    HW117798   6.868   2.981   4.482
 5633SOL    HW217799   6.899   3.122   4.406
 5634SOL     OW17800   2.451   5.890   5.144
 5634SOL    HW117801   2.478   5.834   5.222
 5634SOL    HW217802   2.362   5.931   5.161
 5635SOL     OW17803   2.157   3.809   5.139
 5635SOL    HW117804   2.198   3.883   5.085
 5635SOL    HW217805   2.106   3.848   5.216
 5636SOL     OW17806   3.538   6.847   3.385
 5636SOL    HW117807   3.495   6.933   3.358
 5636SOL    HW217808   3.637   6.854   3.372
 5637SOL     OW17809   5.156   6.650   3.369
 5637SOL    HW117810   5.062   6.656   3.337
 5637SOL    HW217811   5.218   6.644   3.291
 5638SOL     OW17812   5.701   3.844   1.378
 5638SOL    HW117813   5.794   3.881   1.382
 5638SOL    HW217814   5.665   3.855   1.285
 5639SOL     OW17815   0.724   0.469   6.808
 5639SOL    HW117816   0.807   0.421   6.780
 5639SOL    HW217817   0.650   0.403   6.819
 5640SOL     OW17818   2.722   0.690   3.809
 5640SOL    HW117819   2.643   0.716   3.866
 5640SOL    HW217820   2.748   0.596   3.829
 5641SOL     OW17821   0.375   5.060   5.454
 5641SOL    HW117822   0.391   4.962   5.469
 5641SOL    HW217823   0.352   5.104   5.541
 5642SOL     OW17824   2.034   0.006   5.881
 5642SOL    HW117825   2.079   6.977   5.956
 5642SOL    HW217826   1.960   0.063   5.917
 5643SOL     OW17827   4.836   1.056   4.905
 5643SOL    HW117828   4.775   1.010   4.841
 5643SOL    HW217829   4.897   1.117   4.854
 5644SOL     OW17830   3.509   0.200   5.123
 5644SOL    HW117831   3.467   0.128   5.177
 5644SOL    HW217832   3.451   0.221   5.044
 5645SOL     OW17833   6.933   4.187   3.622
 5645SOL    HW117834   6.920   4.224   3.530
 5645SOL    HW217835   6.845   4.186   3.670
 5646SOL     OW17836   1.950   5.401   3.121
 5646SOL    HW117837   1.916   5.313   3.155
 5646SOL    HW217838   1.969   5.392   3.023
 5647SOL     OW17839   5.188   6.355   1.003
 5647SOL    HW117840   5.151   6.325   1.091
 5647SOL    HW217841   5.140   6.438   0.974
 5648SOL     OW17842   2.086   6.118   3.018
 5648SOL    HW117843   2.138   6.034   3.036
 5648SOL    HW217844   2.101   6.183   3.092
 5649SOL     OW17845   1.187   6.989   3.854
 5649SOL    HW117846   1.249   6.973   3.777
 5649SOL    HW217847   1.192   6.911   3.917
 5650SOL     OW17848   1.416   4.445   1.282
 5650SOL    HW117849   1.393   4.511   1.353
 5650SOL    HW217850   1.345   4.446   1.211
 5651SOL     OW17851   1.166   0.790   0.255
 5651SOL    HW117852   1.180   0.838   0.341
 5651SOL    HW217853   1.237   0.818   0.190
 5652SOL     OW17854   6.684   5.950   0.977
 5652SOL    HW117855   6.772   5.971   0.935
 5652SOL    HW217856   6.692   5.866   1.031
 5653SOL     OW17857   0.741   5.934   6.808
 5653SOL    HW117858   0.674   6.006   6.787
 5653SOL    HW217859   0.828   5.977   6.833
 5654SOL     OW17860   1.518   5.425   4.198
 5654SOL    HW117861   1.576   5.352   4.235
 5654SOL    HW217862   1.575   5.498   4.162
 5655SOL     OW17863   0.145   2.856   3.264
 5655SOL    HW117864   0.083   2.797   3.213
 5655SOL    HW217865   0.185   2.924   3.202
 5656SOL     OW17866   6.896   4.263   6.332
 5656SOL    HW117867   6.902   4.322   6.252
 5656SOL    HW217868   6.801   4.252   6.359
 5657SOL     OW17869   4.763   4.290   5.019
 5657SOL    HW117870   4.836   4.319   4.957
 5657SOL    HW217871   4.802   4.241   5.097
 5658SOL     OW17872   3.173   3.125   5.839
 5658SOL    HW117873   3.124   3.192   5.896
 5658SOL    HW217874   3.135   3.126   5.747
 5659SOL     OW17875   3.626   3.645   5.933
 5659SOL    HW117876   3.673   3.578   5.875
 5659SOL    HW217877   3.533   3.659   5.900
 5660SOL     OW17878   4.324   6.998   6.604
 5660SOL    HW117879   4.322   0.043   6.681
 5660SOL    HW217880   4.283   0.023   6.524
 5661SOL     OW17881   1.340   5.457   5.152
 5661SOL    HW117882   1.347   5.359   5.174
 5661SOL    HW217883   1.398   5.477   5.073
 5662SOL     OW17884   2.439   6.947   2.535
 5662SOL    HW117885   2.368   6.895   2.583
 5662SOL    HW217886   2.509   6.885   2.500
 5663SOL     OW17887   1.940   2.054   0.665
 5663SOL    HW117888   1.876   1.981   0.642
 5663SOL    HW217889   1.977   2.094   0.580
 5664SOL     OW17890   6.048   3.273   4.170
 5664SOL    HW117891   6.106   3.235   4.098
 5664SOL    HW217892   6.088   3.254   4.259
 5665SOL     OW17893   1.147   5.681   0.233
 5665SOL    HW117894   1.050   5.699   0.250
 5665SOL    HW217895   1.201   5.719   0.308
 5666SOL     OW17896   5.654   0.735   3.797
 5666SOL    HW117897   5.751   0.742   3.822
 5666SOL    HW217898   5.643   0.749   3.699
 5667SOL     OW17899   1.934   5.298   4.730
 5667SOL    HW117900   2.000   5.370   4.752
 5667SOL    HW217901   1.844   5.338   4.719
 5668SOL     OW17902   5.987   2.673   3.242
 5668SOL    HW117903   5.969   2.624   3.157
 5668SOL    HW217904   5.984   2.608   3.319
 5669SOL     OW17905   6.749   5.002   0.370
 5669SOL    HW117906   6.686   5.066   0.414
 5669SOL    HW217907   6.709   4.911   0.371
 5670SOL     OW17908   1.580   3.466   3.797
 5670SOL    HW117909   1.568   3.478   3.896
 5670SOL    HW217910   1.656   3.404   3.780
 5671SOL     OW17911   6.263   5.301   5.645
 5671SOL    HW117912   6.171   5.308   5.606
 5671SOL    HW217913   6.320   5.247   5.584
 5672SOL     OW17914   4.822   4.174   5.279
 5672SOL    HW117915   4.915   4.143   5.297
 5672SOL    HW217916   4.759   4.097   5.285
 5673SOL     OW17917   0.858   6.281   1.292
 5673SOL    HW117918   0.857   6.314   1.198
 5673SOL    HW217919   0.937   6.222   1.306
 5674SOL     OW17920   2.084   4.925   4.607
 5674SOL    HW117921   1.989   4.913   4.636
 5674SOL    HW217922   2.143   4.871   4.667
 5675SOL     OW17923   3.931   2.091   0.421
 5675SOL    HW117924   4.022   2.130   0.439
 5675SOL    HW217925   3.938   2.022   0.349
 5676SOL     OW17926   3.363   1.575   2.237
 5676SOL    HW117927   3.295   1.522   2.186
 5676SOL    HW217928   3.317   1.648   2.288
 5677SOL     OW17929   0.389   0.538   6.911
 5677SOL    HW117930   0.330   0.610   6.946
 5677SOL    HW217931   0.405   0.553   6.813
 5678SOL     OW17932   3.993   1.087   1.712
 5678SOL    HW117933   4.078   1.037   1.697
 5678SOL    HW217934   4.015   1.184   1.729
 5679SOL     OW17935   5.781   1.987   4.733
 5679SOL    HW117936   5.788   2.036   4.820
 5679SOL    HW217937   5.830   1.901   4.739
 5680SOL     OW17938   1.395   5.056   6.348
 5680SOL    HW117939   1.427   4.971   6.391
 5680SOL    HW217940   1.474   5.114   6.327
 5681SOL     OW17941   0.252   3.911   2.432
 5681SOL    HW117942   0.163   3.869   2.446
 5681SOL    HW217943   0.287   3.947   2.519
 5682SOL     OW17944   2.089   5.467   4.071
 5682SOL    HW117945   2.179   5.435   4.100
 5682SOL    HW217946   2.066   5.552   4.119
 5683SOL     OW17947   3.919   2.353   6.072
 5683SOL    HW117948   3.966   2.431   6.114
 5683SOL    HW217949   3.962   2.268   6.103
 5684SOL     OW17950   1.966   3.493   6.403
 5684SOL    HW117951   1.904   3.525   6.475
 5684SOL    HW217952   1.942   3.537   6.316
 5685SOL     OW17953   2.101   2.326   3.496
 5685SOL    HW117954   2.181   2.289   3.544
 5685SOL    HW217955   2.127   2.353   3.403
 5686SOL     OW17956   3.251   1.101   4.807
 5686SOL    HW117957   3.348   1.101   4.782
 5686SOL    HW217958   3.196   1.082   4.726
 5687SOL     OW17959   0.633   6.028   6.018
 5687SOL    HW117960   0.699   6.099   6.038
 5687SOL    HW217961   0.669   5.967   5.947
 5688SOL     OW17962   2.109   2.945   3.467
 5688SOL    HW117963   2.171   2.962   3.544
 5688SOL    HW217964   2.142   2.865   3.416
 5689SOL     OW17965   2.219   0.396   1.855
 5689SOL    HW117966   2.302   0.382   1.801
 5689SOL    HW217967   2.182   0.487   1.835
 5690SOL     OW17968   1.111   5.026   6.505
 5690SOL    HW117969   1.127   4.934   6.472
 5690SOL    HW217970   1.198   5.074   6.517
 5691SOL     OW17971   4.082   0.973   2.459
 5691SOL    HW117972   4.094   1.009   2.367
 5691SOL    HW217973   4.084   1.048   2.525
 5692SOL     OW17974   5.000   4.641   0.960
 5692SOL    HW117975   4.916   4.632   0.907
 5692SOL    HW217976   5.032   4.736   0.956
 5693SOL     OW17977   4.465   0.210   1.312
 5693SOL    HW117978   4.530   0.281   1.340
 5693SOL    HW217979   4.388   0.207   1.375
 5694SOL     OW17980   0.179   6.840   2.497
 5694SOL    HW117981   0.244   6.889   2.556
 5694SOL    HW217982   0.188   6.873   2.403
 5695SOL     OW17983   0.908   0.838   2.686
 5695SOL    HW117984   0.946   0.770   2.749
 5695SOL    HW217985   0.868   0.791   2.608
 5696SOL     OW17986   1.495   0.535   4.105
 5696SOL    HW117987   1.488   0.444   4.146
 5696SOL    HW217988   1.592   0.562   4.100
 5697SOL     OW17989   6.096   2.199   2.034
 5697SOL    HW117990   6.128   2.158   1.948
 5697SOL    HW217991   6.001   2.172   2.051
 5698SOL     OW17992   1.804   3.914   4.210
 5698SOL    HW117993   1.779   3.882   4.301
 5698SOL    HW217994   1.784   3.844   4.142
 5699SOL     OW17995   1.713   2.598   2.864
 5699SOL    HW117996   1.668   2.624   2.778
 5699SOL    HW217997   1.650   2.612   2.940
 5700SOL     OW17998   6.563   0.477   2.830
 5700SOL    HW117999   6.557   0.379   2.849
 5700SOL    HW218000   6.619   0.521   2.900
 5701SOL     OW18001   6.742   0.817   1.261
 5701SOL    HW118002   6.669   0.807   1.194
 5701SOL    HW218003   6.752   0.913   1.287
 5702SOL     OW18004   1.465   6.572   4.241
 5702SOL    HW118005   1.431   6.490   4.195
 5702SOL    HW218006   1.471   6.647   4.175
 5703SOL     OW18007   0.034   4.425   6.813
 5703SOL    HW118008   0.064   4.408   6.907
 5703SOL    HW218009   0.037   4.523   6.795
 5704SOL     OW18010   4.815   4.150   3.963
 5704SOL    HW118011   4.755   4.104   4.028
 5704SOL    HW218012   4.910   4.120   3.978
 5705SOL     OW18013   6.017   5.702   0.037
 5705SOL    HW118014   5.942   5.661   0.088
 5705SOL    HW218015   6.091   5.636   0.026
 5706SOL     OW18016   5.069   3.043   1.598
 5706SOL    HW118017   4.989   3.103   1.602
 5706SOL    HW218018   5.120   3.050   1.684
 5707SOL     OW18019   5.895   0.079   1.022
 5707SOL    HW118020   5.924   0.051   0.930
 5707SOL    HW218021   5.829   0.154   1.015
 5708SOL     OW18022   5.079   6.242   2.686
 5708SOL    HW118023   5.146   6.228   2.613
 5708SOL    HW218024   5.110   6.198   2.770
 5709SOL     OW18025   7.018   1.000   2.796
 5709SOL    HW118026   0.099   1.004   2.809
 5709SOL    HW218027   6.995   0.922   2.738
 5710SOL     OW18028   2.742   2.040   0.669
 5710SOL    HW118029   2.669   2.108   0.677
 5710SOL    HW218030   2.749   2.010   0.574
 5711SOL     OW18031   4.896   0.797   1.909
 5711SOL    HW118032   4.957   0.742   1.965
 5711SOL    HW218033   4.923   0.893   1.914
 5712SOL     OW18034   6.457   6.846   0.268
 5712SOL    HW118035   6.390   6.810   0.333
 5712SOL    HW218036   6.509   6.920   0.311
 5713SOL     OW18037   3.354   5.103   0.531
 5713SOL    HW118038   3.428   5.045   0.563
 5713SOL    HW218039   3.327   5.166   0.603
 5714SOL     OW18040   6.738   6.537   1.064
 5714SOL    HW118041   6.832   6.519   1.037
 5714SOL    HW218042   6.725   6.636   1.075
 5715SOL     OW18043   0.106   0.038   1.597
 5715SOL    HW118044   0.122   0.114   1.660
 5715SOL    HW218045   0.142   6.972   1.637
 5716SOL     OW18046   0.575   5.582   6.274
 5716SOL    HW118047   0.642   5.656   6.279
 5716SOL    HW218048   0.485   5.618   6.299
 5717SOL     OW18049   2.297   5.011   1.838
 5717SOL    HW118050   2.276   5.095   1.789
 5717SOL    HW218051   2.213   4.975   1.879
 5718SOL     OW18052   0.723   3.410   0.485
 5718SOL    HW118053   0.705   3.491   0.542
 5718SOL    HW218054   0.814   3.374   0.505
 5719SOL     OW18055   2.977   3.639   0.850
 5719SOL    HW118056   3.019   3.666   0.937
 5719SOL    HW218057   3.007   3.547   0.825
 5720SOL     OW18058   1.856   6.370   4.877
 5720SOL    HW118059   1.895   6.326   4.958
 5720SOL    HW218060   1.781   6.429   4.904
 5721SOL     OW18061   6.038   4.254   1.093
 5721SOL    HW118062   6.002   4.179   1.038
 5721SOL    HW218063   5.973   4.330   1.091
 5722SOL     OW18064   7.010   2.179   5.282
 5722SOL    HW118065   6.959   2.101   5.319
 5722SOL    HW218066   6.988   2.261   5.335
 5723SOL     OW18067   3.934   3.507   6.956
 5723SOL    HW118068   3.891   3.515   6.866
 5723SOL    HW218069   4.012   3.444   6.951
 5724SOL     OW18070   6.387   2.539   3.334
 5724SOL    HW118071   6.290   2.514   3.328
 5724SOL    HW218072   6.428   2.536   3.242
 5725SOL     OW18073   6.555   5.296   3.452
 5725SOL    HW118074   6.544   5.384   3.406
 5725SOL    HW218075   6.465   5.257   3.470
 5726SOL     OW18076   6.002   4.838   4.054
 5726SOL    HW118077   6.090   4.801   4.084
 5726SOL    HW218078   5.991   4.822   3.956
 5727SOL     OW18079   0.087   2.288   4.659
 5727SOL    HW118080   0.138   2.371   4.638
 5727SOL    HW218081   0.084   2.274   4.758
 5728SOL     OW18082   5.029   5.742   5.212
 5728SOL    HW118083   4.990   5.796   5.286
 5728SOL    HW218084   5.124   5.769   5.197
 5729SOL     OW18085   1.135   2.676   5.893
 5729SOL    HW118086   1.158   2.578   5.892
 5729SOL    HW218087   1.074   2.694   5.970
 5730SOL     OW18088   6.288   4.368   6.166
 5730SOL    HW118089   6.309   4.450   6.220
 5730SOL    HW218090   6.232   4.306   6.220
 5731SOL     OW18091   6.655   6.812   1.674
 5731SOL    HW118092   6.697   6.878   1.611
 5731SOL    HW218093   6.561   6.842   1.695
 5732SOL     OW18094   1.077   6.825   3.388
 5732SOL    HW118095   1.065   6.749   3.451
 5732SOL    HW218096   0.989   6.870   3.374
 5733SOL     OW18097   4.400   6.489   5.159
 5733SOL    HW118098   4.330   6.528   5.220
 5733SOL    HW218099   4.478   6.458   5.213
 5734SOL     OW18100   1.277   6.734   4.977
 5734SOL    HW118101   1.262   6.831   4.956
 5734SOL    HW218102   1.351   6.699   4.920
 5735SOL     OW18103   2.813   1.170   1.435
 5735SOL    HW118104   2.894   1.156   1.377
 5735SOL    HW218105   2.738   1.203   1.379
 5736SOL     OW18106   0.736   4.372   6.995
 5736SOL    HW118107   0.725   4.454   0.032
 5736SOL    HW218108   0.651   4.318   6.998
 5737SOL     OW18109   5.439   6.196   6.719
 5737SOL    HW118110   5.479   6.204   6.628
 5737SOL    HW218111   5.511   6.179   6.786
 5738SOL     OW18112   1.618   3.540   6.871
 5738SOL    HW118113   1.630   3.457   6.816
 5738SOL    HW218114   1.542   3.526   6.935
 5739SOL     OW18115   1.906   0.958   6.667
 5739SOL    HW118116   1.972   1.026   6.701
 5739SOL    HW218117   1.832   1.005   6.619
 5740SOL     OW18118   4.284   5.946   0.221
 5740SOL    HW118119   4.249   5.894   0.299
 5740SOL    HW218120   4.281   6.043   0.243
 5741SOL     OW18121   6.520   5.868   4.612
 5741SOL    HW118122   6.464   5.918   4.545
 5741SOL    HW218123   6.470   5.862   4.699
 5742SOL     OW18124   5.562   6.458   2.081
 5742SOL    HW118125   5.528   6.382   2.135
 5742SOL    HW218126   5.549   6.544   2.131
 5743SOL     OW18127   2.645   6.774   4.776
 5743SOL    HW118128   2.659   6.676   4.791
 5743SOL    HW218129   2.728   6.823   4.802
 5744SOL     OW18130   4.979   1.049   0.585
 5744SOL    HW118131   4.993   1.139   0.544
 5744SOL    HW218132   4.900   1.052   0.647
 5745SOL     OW18133   1.759   1.840   4.521
 5745SOL    HW118134   1.746   1.785   4.439
 5745SOL    HW218135   1.671   1.879   4.550
 5746SOL     OW18136   5.080   1.098   0.315
 5746SOL    HW118137   5.056   1.019   0.260
 5746SOL    HW218138   5.169   1.134   0.286
 5747SOL     OW18139   0.218   5.260   2.182
 5747SOL    HW118140   0.219   5.176   2.236
 5747SOL    HW218141   0.282   5.326   2.222
 5748SOL     OW18142   2.521   4.860   1.876
 5748SOL    HW118143   2.444   4.923   1.878
 5748SOL    HW218144   2.489   4.767   1.858
 5749SOL     OW18145   2.023   1.693   4.349
 5749SOL    HW118146   1.985   1.769   4.401
 5749SOL    HW218147   1.960   1.667   4.276
 5750SOL     OW18148   6.290   4.909   4.452
 5750SOL    HW118149   6.377   4.952   4.430
 5750SOL    HW218150   6.253   4.951   4.535
 5751SOL     OW18151   2.113   3.093   5.029
 5751SOL    HW118152   2.088   3.149   5.109
 5751SOL    HW218153   2.201   3.049   5.045
 5752SOL     OW18154   6.776   6.868   5.913
 5752SOL    HW118155   6.682   6.839   5.897
 5752SOL    HW218156   6.838   6.792   5.893
 5753SOL     OW18157   3.478   3.208   6.432
 5753SOL    HW118158   3.418   3.195   6.510
 5753SOL    HW218159   3.427   3.192   6.347
 5754SOL     OW18160   6.011   5.147   2.024
 5754SOL    HW118161   6.041   5.060   2.064
 5754SOL    HW218162   5.941   5.129   1.955
 5755SOL     OW18163   3.030   3.753   6.639
 5755SOL    HW118164   2.991   3.788   6.725
 5755SOL    HW218165   3.071   3.664   6.655
 5756SOL     OW18166   6.677   4.960   3.252
 5756SOL    HW118167   6.594   4.979   3.201
 5756SOL    HW218168   6.704   4.865   3.237
 5757SOL     OW18169   6.040   5.887   1.661
 5757SOL    HW118170   6.010   5.884   1.756
 5757SOL    HW218171   6.008   5.804   1.613
 5758SOL     OW18172   2.747   2.394   5.121
 5758SOL    HW118173   2.836   2.377   5.163
 5758SOL    HW218174   2.692   2.310   5.124
 5759SOL     OW18175   5.099   2.264   6.343
 5759SOL    HW118176   5.098   2.288   6.440
 5759SOL    HW218177   5.051   2.334   6.291
 5760SOL     OW18178   1.983   5.592   2.391
 5760SOL    HW118179   1.942   5.527   2.456
 5760SOL    HW218180   1.951   5.571   2.299
 5761SOL     OW18181   5.354   0.250   4.978
 5761SOL    HW118182   5.279   0.187   4.957
 5761SOL    HW218183   5.441   0.208   4.953
 5762SOL     OW18184   5.583   6.713   0.801
 5762SOL    HW118185   5.653   6.695   0.869
 5762SOL    HW218186   5.493   6.707   0.844
 5763SOL     OW18187   1.313   0.276   0.458
 5763SOL    HW118188   1.359   0.279   0.370
 5763SOL    HW218189   1.217   0.253   0.445
 5764SOL     OW18190   5.644   4.436   5.392
 5764SOL    HW118191   5.705   4.385   5.453
 5764SOL    HW218192   5.694   4.461   5.308
 5765SOL     OW18193   6.810   4.390   6.713
 5765SOL    HW118194   6.904   4.403   6.747
 5765SOL    HW218195   6.767   4.314   6.763
 5766SOL     OW18196   3.154   1.470   2.051
 5766SOL    HW118197   3.149   1.383   2.003
 5766SOL    HW218198   3.063   1.512   2.053
 5767SOL     OW18199   0.879   6.299   0.708
 5767SOL    HW118200   0.973   6.334   0.717
 5767SOL    HW218201   0.876   6.230   0.636
 5768SOL     OW18202   6.819   1.079   2.990
 5768SOL    HW118203   6.878   1.051   2.914
 5768SOL    HW218204   6.746   1.012   3.002
 5769SOL     OW18205   2.816   6.307   3.265
 5769SOL    HW118206   2.745   6.375   3.244
 5769SOL    HW218207   2.881   6.303   3.189
 5770SOL     OW18208   6.741   6.804   1.085
 5770SOL    HW118209   6.706   6.843   1.000
 5770SOL    HW218210   6.802   6.870   1.130
 5771SOL     OW18211   1.105   0.709   1.221
 5771SOL    HW118212   1.078   0.613   1.232
 5771SOL    HW218213   1.025   0.767   1.237
 5772SOL     OW18214   5.988   3.045   0.392
 5772SOL    HW118215   5.914   3.097   0.436
 5772SOL    HW218216   5.995   2.955   0.434
 5773SOL     OW18217   5.704   6.472   3.668
 5773SOL    HW118218   5.608   6.454   3.649
 5773SOL    HW218219   5.753   6.385   3.675
 5774SOL     OW18220   2.280   4.616   3.679
 5774SOL    HW118221   2.348   4.543   3.687
 5774SOL    HW218222   2.321   4.694   3.631
 5775SOL     OW18223   6.851   6.640   0.011
 5775SOL    HW118224   6.851   6.542   7.009
 5775SOL    HW218225   6.858   6.691   6.944
 5776SOL     OW18226   5.542   0.637   6.147
 5776SOL    HW118227   5.510   0.689   6.068
 5776SOL    HW218228   5.642   0.634   6.146
 5777SOL     OW18229   6.341   0.940   4.111
 5777SOL    HW118230   6.330   1.033   4.147
 5777SOL    HW218231   6.287   0.930   4.028
 5778SOL     OW18232   1.290   6.471   3.004
 5778SOL    HW118233   1.372   6.435   2.959
 5778SOL    HW218234   1.208   6.432   2.962
 5779SOL     OW18235   3.705   1.195   1.187
 5779SOL    HW118236   3.792   1.227   1.150
 5779SOL    HW218237   3.630   1.227   1.129
 5780SOL     OW18238   6.927   4.418   1.512
 5780SOL    HW118239   6.887   4.326   1.505
 5780SOL    HW218240   6.938   4.442   1.608
 5781SOL     OW18241   1.741   4.418   4.922
 5781SOL    HW118242   1.774   4.454   5.009
 5781SOL    HW218243   1.818   4.406   4.860
 5782SOL     OW18244   2.024   0.978   1.681
 5782SOL    HW118245   2.006   1.063   1.632
 5782SOL    HW218246   2.108   0.988   1.734
 5783SOL     OW18247   1.334   0.201   1.326
 5783SOL    HW118248   1.320   0.298   1.308
 5783SOL    HW218249   1.291   0.147   1.254
 5784SOL     OW18250   0.957   6.001   0.291
 5784SOL    HW118251   0.973   5.909   0.253
 5784SOL    HW218252   0.862   6.027   0.273
 5785SOL     OW18253   1.485   0.818   0.513
 5785SOL    HW118254   1.497   0.775   0.423
 5785SOL    HW218255   1.573   0.821   0.560
 5786SOL     OW18256   1.798   3.150   1.813
 5786SOL    HW118257   1.756   3.060   1.801
 5786SOL    HW218258   1.872   3.162   1.747
 5787SOL     OW18259   6.040   2.645   4.613
 5787SOL    HW118260   5.990   2.710   4.556
 5787SOL    HW218261   6.136   2.642   4.584
 5788SOL     OW18262   3.252   0.983   2.349
 5788SOL    HW118263   3.155   0.992   2.373
 5788SOL    HW218264   3.278   0.886   2.354
 5789SOL     OW18265   4.125   3.732   0.590
 5789SOL    HW118266   4.032   3.759   0.614
 5789SOL    HW218267   4.131   3.716   0.492
 5790SOL     OW18268   5.909   5.301   4.733
 5790SOL    HW118269   5.909   5.281   4.635
 5790SOL    HW218270   5.858   5.231   4.782
 5791SOL     OW18271   3.729   1.066   2.593
 5791SOL    HW118272   3.765   1.015   2.514
 5791SOL    HW218273   3.779   1.152   2.602
 5792SOL     OW18274   4.841   4.028   2.935
 5792SOL    HW118275   4.748   4.058   2.957
 5792SOL    HW218276   4.839   3.935   2.898
 5793SOL     OW18277   5.511   2.084   5.300
 5793SOL    HW118278   5.539   2.052   5.391
 5793SOL    HW218279   5.592   2.116   5.250
 5794SOL     OW18280   3.093   6.661   5.804
 5794SOL    HW118281   3.107   6.745   5.751
 5794SOL    HW218282   3.172   6.601   5.793
 5795SOL     OW18283   1.026   5.114   2.022
 5795SOL    HW118284   1.023   5.070   2.112
 5795SOL    HW218285   1.091   5.191   2.025
 5796SOL     OW18286   4.297   1.564   6.377
 5796SOL    HW118287   4.212   1.581   6.426
 5796SOL    HW218288   4.360   1.641   6.391
 5797SOL     OW18289   5.192   2.490   0.039
 5797SOL    HW118290   5.251   2.426   7.008
 5797SOL    HW218291   5.149   2.443   0.116
 5798SOL     OW18292   1.760   3.859   5.352
 5798SOL    HW118293   1.759   3.779   5.292
 5798SOL    HW218294   1.853   3.895   5.357
 5799SOL     OW18295   1.560   6.276   3.447
 5799SOL    HW118296   1.536   6.207   3.516
 5799SOL    HW218297   1.477   6.306   3.400
 5800SOL     OW18298   0.281   6.855   0.787
 5800SOL    HW118299   0.328   6.767   0.784
 5800SOL    HW218300   0.347   6.929   0.785
 5801SOL     OW18301   2.486   2.531   2.511
 5801SOL    HW118302   2.519   2.526   2.605
 5801SOL    HW218303   2.510   2.620   2.472
 5802SOL     OW18304   0.143   1.683   2.317
 5802SOL    HW118305   0.089   1.620   2.372
 5802SOL    HW218306   0.092   1.768   2.303
 5803SOL     OW18307   1.222   5.197   4.380
 5803SOL    HW118308   1.228   5.290   4.342
 5803SOL    HW218309   1.145   5.149   4.338
 5804SOL     OW18310   5.633   0.039   3.552
 5804SOL    HW118311   5.652   6.990   3.481
 5804SOL    HW218312   5.563   0.004   3.614
 5805SOL     OW18313   2.391   3.149   1.161
 5805SOL    HW118314   2.411   3.077   1.094
 5805SOL    HW218315   2.293   3.169   1.160
 5806SOL     OW18316   0.616   3.439   3.241
 5806SOL    HW118317   0.546   3.475   3.302
 5806SOL    HW218318   0.627   3.340   3.257
 5807SOL     OW18319   1.205   6.549   0.593
 5807SOL    HW118320   1.135   6.527   0.524
 5807SOL    HW218321   1.238   6.642   0.577
 5808SOL     OW18322   5.746   0.969   4.891
 5808SOL    HW118323   5.823   0.941   4.834
 5808SOL    HW218324   5.774   1.043   4.951
 5809SOL     OW18325   0.308   2.791   5.994
 5809SOL    HW118326   0.321   2.741   6.080
 5809SOL    HW218327   0.339   2.735   5.918
 5810SOL     OW18328   4.143   6.825   4.639
 5810SOL    HW118329   4.120   6.905   4.695
 5810SOL    HW218330   4.060   6.787   4.598
 5811SOL     OW18331   2.649   3.676   5.552
 5811SOL    HW118332   2.707   3.726   5.616
 5811SOL    HW218333   2.688   3.586   5.535
 5812SOL     OW18334   5.747   3.182   0.567
 5812SOL    HW118335   5.796   3.176   0.654
 5812SOL    HW218336   5.658   3.138   0.577
 5813SOL     OW18337   4.519   6.473   1.326
 5813SOL    HW118338   4.498   6.426   1.240
 5813SOL    HW218339   4.564   6.560   1.308
 5814SOL     OW18340   4.953   1.968   2.203
 5814SOL    HW118341   4.924   1.926   2.289
 5814SOL    HW218342   5.053   1.974   2.201
 5815SOL     OW18343   6.430   1.065   3.822
 5815SOL    HW118344   6.391   0.975   3.840
 5815SOL    HW218345   6.497   1.088   3.893
 5816SOL     OW18346   6.975   3.753   3.112
 5816SOL    HW118347   7.013   3.664   3.140
 5816SOL    HW218348   6.962   3.810   3.193
 5817SOL     OW18349   5.317   4.636   3.667
 5817SOL    HW118350   5.318   4.719   3.722
 5817SOL    HW218351   5.223   4.610   3.646
 5818SOL     OW18352   1.970   6.985   4.784
 5818SOL    HW118353   1.970   0.050   4.840
 5818SOL    HW218354   2.061   6.945   4.784
 5819SOL     OW18355   4.338   4.986   6.841
 5819SOL    HW118356   4.274   4.914   6.816
 5819SOL    HW218357   4.429   4.964   6.807
 5820SOL     OW18358   6.011   5.063   2.694
 5820SOL    HW118359   5.960   5.000   2.635
 5820SOL    HW218360   6.006   5.032   2.789
 5821SOL     OW18361   6.574   0.780   1.523
 5821SOL    HW118362   6.571   0.871   1.565
 5821SOL    HW218363   6.483   0.755   1.490
 5822SOL     OW18364   1.686   3.000   2.602
 5822SOL    HW118365   1.607   3.052   2.633
 5822SOL    HW218366   1.732   3.050   2.529
 5823SOL     OW18367   2.037   6.559   3.754
 5823SOL    HW118368   2.006   6.651   3.777
 5823SOL    HW218369   2.134   6.550   3.777
 5824SOL     OW18370   0.775   6.981   2.117
 5824SOL    HW118371   0.717   0.024   2.170
 5824SOL    HW218372   0.867   6.978   2.157
 5825SOL     OW18373   6.350   0.071   4.532
 5825SOL    HW118374   6.269   0.129   4.525
 5825SOL    HW218375   6.347   0.019   4.617
 5826SOL     OW18376   0.290   6.736   4.566
 5826SOL    HW118377   0.321   6.760   4.474
 5826SOL    HW218378   0.265   6.639   4.569
 5827SOL     OW18379   2.128   4.311   5.223
 5827SOL    HW118380   2.198   4.374   5.257
 5827SOL    HW218381   2.136   4.304   5.123
 5828SOL     OW18382   4.669   0.032   4.476
 5828SOL    HW118383   4.713   0.112   4.518
 5828SOL    HW218384   4.579   0.057   4.443
 5829SOL     OW18385   2.284   1.218   3.782
 5829SOL    HW118386   2.215   1.224   3.710
 5829SOL    HW218387   2.241   1.232   3.871
 5830SOL     OW18388   3.773   5.764   5.225
 5830SOL    HW118389   3.782   5.747   5.126
 5830SOL    HW218390   3.719   5.846   5.240
 5831SOL     OW18391   1.548   1.343   5.769
 5831SOL    HW118392   1.472   1.350   5.704
 5831SOL    HW218393   1.530   1.404   5.847
 5832SOL     OW18394   3.555   5.015   0.815
 5832SOL    HW118395   3.610   5.083   0.864
 5832SOL    HW218396   3.495   4.968   0.879
 5833SOL     OW18397   3.780   3.457   5.784
 5833SOL    HW118398   3.875   3.467   5.755
 5833SOL    HW218399   3.759   3.360   5.797
 5834SOL     OW18400   5.816   4.014   6.822
 5834SOL    HW118401   5.789   3.931   6.773
 5834SOL    HW218402   5.907   4.043   6.792
 5835SOL     OW18403   5.506   0.755   2.630
 5835SOL    HW118404   5.432   0.768   2.563
 5835SOL    HW218405   5.473   0.779   2.721
 5836SOL     OW18406   3.753   6.878   1.849
 5836SOL    HW118407   3.823   6.944   1.875
 5836SOL    HW218408   3.714   6.903   1.760
 5837SOL     OW18409   3.675   4.355   0.073
 5837SOL    HW118410   3.681   4.428   0.004
 5837SOL    HW218411   3.589   4.364   0.123
 5838SOL     OW18412   2.763   1.896   0.919
 5838SOL    HW118413   2.739   1.812   0.870
 5838SOL    HW218414   2.747   1.974   0.859
 5839SOL     OW18415   1.801   1.756   1.234
 5839SOL    HW118416   1.740   1.736   1.158
 5839SOL    HW218417   1.754   1.814   1.300
 5840SOL     OW18418   0.926   3.357   2.336
 5840SOL    HW118419   0.940   3.456   2.343
 5840SOL    HW218420   0.838   3.339   2.294
 5841SOL     OW18421   5.368   1.451   0.190
 5841SOL    HW118422   5.273   1.476   0.169
 5841SOL    HW218423   5.385   1.464   0.287
 5842SOL     OW18424   3.065   1.632   0.607
 5842SOL    HW118425   3.128   1.575   0.660
 5842SOL    HW218426   2.976   1.634   0.653
 5843SOL     OW18427   1.709   2.869   1.093
 5843SOL    HW118428   1.788   2.817   1.125
 5843SOL    HW218429   1.701   2.953   1.148
 5844SOL     OW18430   0.600   0.672   4.923
 5844SOL    HW118431   0.549   0.740   4.870
 5844SOL    HW218432   0.563   0.581   4.906
 5845SOL     OW18433   0.905   5.836   1.984
 5845SOL    HW118434   0.916   5.897   2.063
 5845SOL    HW218435   0.869   5.748   2.014
 5846SOL     OW18436   6.548   3.539   5.717
 5846SOL    HW118437   6.488   3.582   5.784
 5846SOL    HW218438   6.633   3.510   5.761
 5847SOL     OW18439   2.765   3.000   0.573
 5847SOL    HW118440   2.724   3.014   0.483
 5847SOL    HW218441   2.795   3.088   0.611
 5848SOL     OW18442   2.119   5.953   3.637
 5848SOL    HW118443   2.068   5.997   3.563
 5848SOL    HW218444   2.093   5.992   3.724
 5849SOL     OW18445   2.580   5.709   5.356
 5849SOL    HW118446   2.587   5.653   5.438
 5849SOL    HW218447   2.626   5.664   5.280
 5850SOL     OW18448   0.821   1.880   1.383
 5850SOL    HW118449   0.813   1.830   1.297
 5850SOL    HW218450   0.753   1.954   1.385
 5851SOL     OW18451   5.637   3.201   4.848
 5851SOL    HW118452   5.683   3.239   4.929
 5851SOL    HW218453   5.667   3.107   4.834
 5852SOL     OW18454   5.286   5.255   3.055
 5852SOL    HW118455   5.261   5.176   2.999
 5852SOL    HW218456   5.303   5.333   2.996
 5853SOL     OW18457   3.835   4.896   5.395
 5853SOL    HW118458   3.746   4.924   5.430
 5853SOL    HW218459   3.907   4.927   5.456
 5854SOL     OW18460   2.373   5.207   6.132
 5854SOL    HW118461   2.293   5.164   6.089
 5854SOL    HW218462   2.373   5.305   6.113
 5855SOL     OW18463   2.208   2.347   3.840
 5855SOL    HW118464   2.248   2.431   3.802
 5855SOL    HW218465   2.112   2.363   3.861
 5856SOL     OW18466   1.720   0.430   3.134
 5856SOL    HW118467   1.702   0.405   3.039
 5856SOL    HW218468   1.681   0.361   3.195
 5857SOL     OW18469   0.260   4.452   6.318
 5857SOL    HW118470   0.326   4.465   6.392
 5857SOL    HW218471   0.171   4.488   6.345
 5858SOL     OW18472   1.521   1.680   3.290
 5858SOL    HW118473   1.596   1.685   3.355
 5858SOL    HW218474   1.434   1.695   3.337
 5859SOL     OW18475   6.170   6.964   2.402
 5859SOL    HW118476   6.136   6.893   2.340
 5859SOL    HW218477   6.230   6.923   2.471
 5860SOL     OW18478   0.437   3.132   3.847
 5860SOL    HW118479   0.422   3.041   3.885
 5860SOL    HW218480   0.468   3.194   3.920
 5861SOL     OW18481   5.279   1.213   4.871
 5861SOL    HW118482   5.253   1.117   4.865
 5861SOL    HW218483   5.347   1.225   4.943
 5862SOL     OW18484   0.235   5.202   3.328
 5862SOL    HW118485   0.140   5.202   3.361
 5862SOL    HW218486   0.236   5.181   3.231
 5863SOL     OW18487   3.913   0.126   5.160
 5863SOL    HW118488   3.831   0.165   5.203
 5863SOL    HW218489   3.905   0.135   5.060
 5864SOL     OW18490   3.137   4.051   3.188
 5864SOL    HW118491   3.165   4.144   3.212
 5864SOL    HW218492   3.157   4.033   3.092
 5865SOL     OW18493   5.837   0.935   5.353
 5865SOL    HW118494   5.754   0.955   5.301
 5865SOL    HW218495   5.913   0.988   5.316
 5866SOL     OW18496   3.983   3.312   2.097
 5866SOL    HW118497   4.011   3.372   2.172
 5866SOL    HW218498   3.976   3.218   2.130
 5867SOL     OW18499   2.726   2.355   1.467
 5867SOL    HW118500   2.805   2.380   1.522
 5867SOL    HW218501   2.670   2.289   1.517
 5868SOL     OW18502   0.772   1.799   6.193
 5868SOL    HW118503   0.781   1.765   6.099
 5868SOL    HW218504   0.751   1.897   6.191
 5869SOL     OW18505   0.997   4.647   4.560
 5869SOL    HW118506   1.044   4.576   4.508
 5869SOL    HW218507   1.051   4.731   4.558
 5870SOL     OW18508   4.346   4.786   4.904
 5870SOL    HW118509   4.431   4.760   4.951
 5870SOL    HW218510   4.345   4.744   4.813
 5871SOL     OW18511   3.309   3.498   2.997
 5871SOL    HW118512   3.242   3.435   3.037
 5871SOL    HW218513   3.310   3.583   3.050
 5872SOL     OW18514   4.045   6.444   2.324
 5872SOL    HW118515   3.964   6.472   2.376
 5872SOL    HW218516   4.032   6.352   2.288
 5873SOL     OW18517   3.716   4.894   2.614
 5873SOL    HW118518   3.754   4.987   2.620
 5873SOL    HW218519   3.618   4.897   2.631
 5874SOL     OW18520   2.243   4.144   6.087
 5874SOL    HW118521   2.302   4.220   6.059
 5874SOL    HW218522   2.147   4.172   6.080
 5875SOL     OW18523   3.456   1.414   0.258
 5875SOL    HW118524   3.505   1.389   0.175
 5875SOL    HW218525   3.358   1.421   0.238
 5876SOL     OW18526   3.831   3.274   1.858
 5876SOL    HW118527   3.905   3.282   1.924
 5876SOL    HW218528   3.768   3.201   1.886
 5877SOL     OW18529   6.129   5.239   1.046
 5877SOL    HW118530   6.221   5.206   1.069
 5877SOL    HW218531   6.136   5.310   0.976
 5878SOL     OW18532   2.234   4.753   2.755
 5878SOL    HW118533   2.188   4.807   2.684
 5878SOL    HW218534   2.177   4.675   2.780
 5879SOL     OW18535   6.864   4.236   7.018
 5879SOL    HW118536   6.871   4.161   0.066
 5879SOL    HW218537   6.816   4.203   6.937
 5880SOL     OW18538   2.871   6.478   1.538
 5880SOL    HW118539   2.773   6.463   1.523
 5880SOL    HW218540   2.920   6.392   1.525
 5881SOL     OW18541   0.665   4.684   3.955
 5881SOL    HW118542   0.695   4.779   3.967
 5881SOL    HW218543   0.709   4.627   4.024
 5882SOL     OW18544   4.977   0.190   1.387
 5882SOL    HW118545   4.925   0.274   1.377
 5882SOL    HW218546   5.006   0.180   1.483
 5883SOL     OW18547   6.528   2.781   6.694
 5883SOL    HW118548   6.609   2.729   6.721
 5883SOL    HW218549   6.447   2.740   6.736
 5884SOL     OW18550   0.785   1.158   3.268
 5884SOL    HW118551   0.716   1.110   3.322
 5884SOL    HW218552   0.758   1.157   3.172
 5885SOL     OW18553   6.288   6.764   1.070
 5885SOL    HW118554   6.365   6.809   1.116
 5885SOL    HW218555   6.311   6.668   1.053
 5886SOL     OW18556   0.613   2.561   5.072
 5886SOL    HW118557   0.652   2.473   5.100
 5886SOL    HW218558   0.526   2.545   5.026
 5887SOL     OW18559   3.187   0.834   4.306
 5887SOL    HW118560   3.147   0.924   4.322
 5887SOL    HW218561   3.269   0.843   4.249
 5888SOL     OW18562   1.662   6.228   3.177
 5888SOL    HW118563   1.649   6.235   3.276
 5888SOL    HW218564   1.646   6.318   3.135
 5889SOL     OW18565   2.315   0.408   0.918
 5889SOL    HW118566   2.319   0.479   0.988
 5889SOL    HW218567   2.231   0.419   0.865
 5890SOL     OW18568   1.975   6.355   5.475
 5890SOL    HW118569   2.009   6.280   5.531
 5890SOL    HW218570   2.044   6.427   5.470
 5891SOL     OW18571   3.826   2.960   7.008
 5891SOL    HW118572   3.810   3.058   7.016
 5891SOL    HW218573   3.817   2.932   6.912
 5892SOL     OW18574   0.688   6.506   1.398
 5892SOL    HW118575   0.656   6.495   1.493
 5892SOL    HW218576   0.783   6.475   1.391
 5893SOL     OW18577   1.219   2.277   3.894
 5893SOL    HW118578   1.283   2.323   3.832
 5893SOL    HW218579   1.254   2.282   3.988
 5894SOL     OW18580   1.538   4.121   3.549
 5894SOL    HW118581   1.496   4.033   3.573
 5894SOL    HW218582   1.472   4.194   3.564
 5895SOL     OW18583   5.300   2.970   4.793
 5895SOL    HW118584   5.318   2.958   4.695
 5895SOL    HW218585   5.297   3.068   4.814
 5896SOL     OW18586   3.795   2.312   6.645
 5896SOL    HW118587   3.724   2.265   6.592
 5896SOL    HW218588   3.765   2.405   6.665
 5897SOL     OW18589   3.972   0.856   0.592
 5897SOL    HW118590   3.911   0.900   0.658
 5897SOL    HW218591   4.063   0.846   0.633
 5898SOL     OW18592   1.373   0.339   1.750
 5898SOL    HW118593   1.463   0.361   1.788
 5898SOL    HW218594   1.379   0.254   1.697
 5899SOL     OW18595   5.448   6.849   4.944
 5899SOL    HW118596   5.348   6.846   4.948
 5899SOL    HW218597   5.477   6.848   4.848
 5900SOL     OW18598   4.964   4.955   2.943
 5900SOL    HW118599   4.996   4.861   2.930
 5900SOL    HW218600   4.868   4.962   2.913
 5901SOL     OW18601   2.174   6.715   6.607
 5901SOL    HW118602   2.125   6.733   6.522
 5901SOL    HW218603   2.131   6.638   6.654
 5902SOL     OW18604   6.800   2.505   0.559
 5902SOL    HW118605   6.861   2.462   0.493
 5902SOL    HW218606   6.745   2.576   0.514
 5903SOL     OW18607   6.141   4.456   0.084
 5903SOL    HW118608   6.188   4.538   0.054
 5903SOL    HW218609   6.049   4.480   0.115
 5904SOL     OW18610   0.621   3.463   2.174
 5904SOL    HW118611   0.638   3.365   2.182
 5904SOL    HW218612   0.587   3.498   2.261
 5905SOL     OW18613   6.750   6.175   2.704
 5905SOL    HW118614   6.665   6.228   2.697
 5905SOL    HW218615   6.811   6.200   2.628
 5906SOL     OW18616   5.755   1.171   3.772
 5906SOL    HW118617   5.746   1.093   3.834
 5906SOL    HW218618   5.806   1.244   3.817
 5907SOL     OW18619   0.844   6.359   0.993
 5907SOL    HW118620   0.817   6.312   0.909
 5907SOL    HW218621   0.807   6.452   0.992
 5908SOL     OW18622   0.840   2.628   5.416
 5908SOL    HW118623   0.873   2.722   5.405
 5908SOL    HW218624   0.825   2.609   5.513
 5909SOL     OW18625   1.389   5.996   0.574
 5909SOL    HW118626   1.433   6.060   0.511
 5909SOL    HW218627   1.293   6.021   0.586
 5910SOL     OW18628   1.277   2.613   3.232
 5910SOL    HW118629   1.241   2.531   3.189
 5910SOL    HW218630   1.226   2.631   3.316
 5911SOL     OW18631   6.596   5.756   6.751
 5911SOL    HW118632   6.661   5.693   6.709
 5911SOL    HW218633   6.635   5.848   6.755
 5912SOL     OW18634   6.467   1.520   5.868
 5912SOL    HW118635   6.520   1.541   5.787
 5912SOL    HW218636   6.374   1.554   5.857
 5913SOL     OW18637   5.459   3.398   0.510
 5913SOL    HW118638   5.530   3.442   0.455
 5913SOL    HW218639   5.408   3.333   0.453
 5914SOL     OW18640   1.079   6.685   6.368
 5914SOL    HW118641   1.152   6.748   6.340
 5914SOL    HW218642   1.051   6.630   6.289
 5915SOL     OW18643   3.523   6.915   0.371
 5915SOL    HW118644   3.458   6.841   0.386
 5915SOL    HW218645   3.616   6.878   0.373
 5916SOL     OW18646   1.221   6.560   1.869
 5916SOL    HW118647   1.289   6.628   1.841
 5916SOL    HW218648   1.131   6.604   1.875
 5917SOL     OW18649   3.346   4.385   6.427
 5917SOL    HW118650   3.387   4.378   6.336
 5917SOL    HW218651   3.256   4.428   6.419
 5918SOL     OW18652   2.594   6.113   5.744
 5918SOL    HW118653   2.606   6.087   5.648
 5918SOL    HW218654   2.678   6.094   5.794
 5919SOL     OW18655   3.234   3.381   3.418
 5919SOL    HW118656   3.266   3.465   3.463
 5919SOL    HW218657   3.293   3.360   3.340
 5920SOL     OW18658   5.800   0.995   5.981
 5920SOL    HW118659   5.877   0.932   5.981
 5920SOL    HW218660   5.829   1.084   5.944
 5921SOL     OW18661   3.933   4.753   6.681
 5921SOL    HW118662   3.851   4.808   6.698
 5921SOL    HW218663   3.969   4.774   6.590
 5922SOL     OW18664   6.421   3.857   3.288
 5922SOL    HW118665   6.380   3.845   3.378
 5922SOL    HW218666   6.352   3.891   3.224
 5923SOL     OW18667   6.196   1.024   1.612
 5923SOL    HW118668   6.098   1.040   1.610
 5923SOL    HW218669   6.243   1.106   1.645
 5924SOL     OW18670   5.524   0.115   2.993
 5924SOL    HW118671   5.554   0.190   3.052
 5924SOL    HW218672   5.446   0.068   3.034
 5925SOL     OW18673   4.712   5.427   1.123
 5925SOL    HW118674   4.698   5.432   1.222
 5925SOL    HW218675   4.745   5.336   1.098
 5926SOL     OW18676   3.893   5.068   3.183
 5926SOL    HW118677   3.848   5.030   3.264
 5926SOL    HW218678   3.908   4.996   3.116
 5927SOL     OW18679   1.701   3.728   1.867
 5927SOL    HW118680   1.771   3.795   1.845
 5927SOL    HW218681   1.743   3.650   1.914
 5928SOL     OW18682   4.055   0.501   0.827
 5928SOL    HW118683   4.011   0.466   0.744
 5928SOL    HW218684   4.151   0.472   0.828
 5929SOL     OW18685   6.736   0.341   5.321
 5929SOL    HW118686   6.770   0.434   5.338
 5929SOL    HW218687   6.786   0.301   5.244
 5930SOL     OW18688   1.175   3.063   1.290
 5930SOL    HW118689   1.158   2.968   1.267
 5930SOL    HW218690   1.271   3.086   1.273
 5931SOL     OW18691   5.409   6.241   2.654
 5931SOL    HW118692   5.343   6.215   2.584
 5931SOL    HW218693   5.447   6.330   2.632
 5932SOL     OW18694   3.236   0.151   6.474
 5932SOL    HW118695   3.184   0.233   6.501
 5932SOL    HW218696   3.301   0.175   6.402
 5933SOL     OW18697   0.231   5.513   4.552
 5933SOL    HW118698   0.163   5.470   4.491
 5933SOL    HW218699   0.205   5.608   4.569
 5934SOL     OW18700   3.531   3.866   5.688
 5934SOL    HW118701   3.566   3.789   5.636
 5934SOL    HW218702   3.469   3.834   5.759
 5935SOL     OW18703   0.650   6.353   5.224
 5935SOL    HW118704   0.630   6.291   5.300
 5935SOL    HW218705   0.699   6.304   5.153
 5936SOL     OW18706   3.387   2.916   2.810
 5936SOL    HW118707   3.337   2.901   2.725
 5936SOL    HW218708   3.482   2.940   2.788
 5937SOL     OW18709   0.172   2.633   2.124
 5937SOL    HW118710   0.264   2.669   2.107
 5937SOL    HW218711   0.142   2.659   2.216
 5938SOL     OW18712   5.902   5.300   5.182
 5938SOL    HW118713   5.975   5.281   5.248
 5938SOL    HW218714   5.848   5.378   5.214
 5939SOL     OW18715   3.831   6.726   4.256
 5939SOL    HW118716   3.883   6.712   4.339
 5939SOL    HW218717   3.869   6.804   4.206
 5940SOL     OW18718   4.966   5.511   2.989
 5940SOL    HW118719   4.965   5.420   2.948
 5940SOL    HW218720   5.023   5.572   2.934
 5941SOL     OW18721   6.287   2.371   2.139
 5941SOL    HW118722   6.349   2.293   2.147
 5941SOL    HW218723   6.202   2.343   2.095
 5942SOL     OW18724   6.362   3.140   5.819
 5942SOL    HW118725   6.429   3.127   5.892
 5942SOL    HW218726   6.400   3.199   5.748
 5943SOL     OW18727   4.040   3.167   0.242
 5943SOL    HW118728   4.135   3.193   0.227
 5943SOL    HW218729   4.021   3.079   0.196
 5944SOL     OW18730   0.412   3.178   0.211
 5944SOL    HW118731   0.496   3.175   0.157
 5944SOL    HW218732   0.382   3.273   0.221
 5945SOL     OW18733   0.693   6.051   4.810
 5945SOL    HW118734   0.708   6.072   4.713
 5945SOL    HW218735   0.728   5.960   4.830
 5946SOL     OW18736   3.802   4.415   6.445
 5946SOL    HW118737   3.809   4.316   6.441
 5946SOL    HW218738   3.860   4.449   6.518
 5947SOL     OW18739   3.094   3.062   4.693
 5947SOL    HW118740   3.024   2.991   4.687
 5947SOL    HW218741   3.051   3.152   4.690
 5948SOL     OW18742   4.780   4.168   2.115
 5948SOL    HW118743   4.870   4.189   2.152
 5948SOL    HW218744   4.791   4.128   2.024
 5949SOL     OW18745   5.919   5.371   1.191
 5949SOL    HW118746   5.910   5.468   1.213
 5949SOL    HW218747   5.998   5.357   1.131
 5950SOL     OW18748   5.190   2.216   5.490
 5950SOL    HW118749   5.220   2.124   5.513
 5950SOL    HW218750   5.248   2.283   5.536
 5951SOL     OW18751   0.829   5.309   5.004
 5951SOL    HW118752   0.830   5.219   4.961
 5951SOL    HW218753   0.918   5.353   4.990
 5952SOL     OW18754   4.371   5.156   2.084
 5952SOL    HW118755   4.346   5.213   2.163
 5952SOL    HW218756   4.327   5.067   2.092
 5953SOL     OW18757   6.442   2.705   4.805
 5953SOL    HW118758   6.497   2.770   4.856
 5953SOL    HW218759   6.404   2.750   4.724
 5954SOL     OW18760   0.647   5.571   5.366
 5954SOL    HW118761   0.607   5.534   5.282
 5954SOL    HW218762   0.573   5.599   5.428
 5955SOL     OW18763   4.835   4.853   1.238
 5955SOL    HW118764   4.908   4.786   1.226
 5955SOL    HW218765   4.772   4.847   1.161
 5956SOL     OW18766   5.226   2.663   4.455
 5956SOL    HW118767   5.227   2.600   4.377
 5956SOL    HW218768   5.137   2.708   4.460
 5957SOL     OW18769   1.048   1.129   3.039
 5957SOL    HW118770   1.026   1.109   2.944
 5957SOL    HW218771   1.057   1.043   3.090
 5958SOL     OW18772   3.563   0.117   3.021
 5958SOL    HW118773   3.486   0.062   2.986
 5958SOL    HW218774   3.553   0.129   3.119
 5959SOL     OW18775   5.011   2.297   4.992
 5959SOL    HW118776   5.044   2.241   4.916
 5959SOL    HW218777   4.925   2.342   4.966
 5960SOL     OW18778   3.319   6.706   5.071
 5960SOL    HW118779   3.239   6.744   5.026
 5960SOL    HW218780   3.385   6.676   5.002
 5961SOL     OW18781   3.861   1.799   2.353
 5961SOL    HW118782   3.913   1.857   2.416
 5961SOL    HW218783   3.781   1.849   2.320
 5962SOL     OW18784   5.030   6.203   6.536
 5962SOL    HW118785   5.085   6.133   6.491
 5962SOL    HW218786   5.002   6.171   6.626
 5963SOL     OW18787   3.562   4.553   6.523
 5963SOL    HW118788   3.487   4.492   6.498
 5963SOL    HW218789   3.649   4.514   6.491
 5964SOL     OW18790   2.211   0.245   3.042
 5964SOL    HW118791   2.252   0.255   2.952
 5964SOL    HW218792   2.223   0.151   3.075
 5965SOL     OW18793   1.619   0.270   6.949
 5965SOL    HW118794   1.567   0.252   6.865
 5965SOL    HW218795   1.629   0.369   6.961
 5966SOL     OW18796   1.436   0.127   5.770
 5966SOL    HW118797   1.534   0.108   5.775
 5966SOL    HW218798   1.385   0.041   5.774
 5967SOL     OW18799   2.610   2.159   5.206
 5967SOL    HW118800   2.682   2.120   5.149
 5967SOL    HW218801   2.521   2.135   5.167
 5968SOL     OW18802   5.692   2.318   0.127
 5968SOL    HW118803   5.702   2.397   0.188
 5968SOL    HW218804   5.614   2.333   0.066
 5969SOL     OW18805   5.139   0.481   6.414
 5969SOL    HW118806   5.091   0.568   6.407
 5969SOL    HW218807   5.130   0.445   6.507
 5970SOL     OW18808   0.196   4.027   0.581
 5970SOL    HW118809   0.168   4.044   0.487
 5970SOL    HW218810   0.236   3.935   0.588
 5971SOL     OW18811   5.738   0.243   2.797
 5971SOL    HW118812   5.720   0.219   2.702
 5971SOL    HW218813   5.651   0.261   2.843
 5972SOL     OW18814   4.897   5.378   0.032
 5972SOL    HW118815   4.872   5.411   6.960
 5972SOL    HW218816   4.846   5.295   0.053
 5973SOL     OW18817   1.924   3.405   2.929
 5973SOL    HW118818   1.987   3.474   2.967
 5973SOL    HW218819   1.910   3.333   2.997
 5974SOL     OW18820   4.545   0.801   0.046
 5974SOL    HW118821   4.448   0.775   0.053
 5974SOL    HW218822   4.580   0.775   6.975
 5975SOL     OW18823   5.124   5.170   0.596
 5975SOL    HW118824   5.165   5.086   0.631
 5975SOL    HW218825   5.074   5.216   0.670
 5976SOL     OW18826   3.641   3.630   5.563
 5976SOL    HW118827   3.633   3.551   5.502
 5976SOL    HW218828   3.715   3.614   5.629
 5977SOL     OW18829   0.655   5.414   0.248
 5977SOL    HW118830   0.560   5.445   0.236
 5977SOL    HW218831   0.710   5.489   0.284
 5978SOL     OW18832   3.544   5.291   6.886
 5978SOL    HW118833   3.585   5.211   6.931
 5978SOL    HW218834   3.583   5.301   6.795
 5979SOL     OW18835   6.013   0.536   2.195
 5979SOL    HW118836   5.929   0.482   2.196
 5979SOL    HW218837   6.044   0.546   2.100
 5980SOL     OW18838   3.141   2.810   1.864
 5980SOL    HW118839   3.054   2.759   1.864
 5980SOL    HW218840   3.159   2.843   1.771
 5981SOL     OW18841   4.740   2.648   0.614
 5981SOL    HW118842   4.731   2.570   0.676
 5981SOL    HW218843   4.728   2.617   0.519
 5982SOL     OW18844   5.542   2.175   2.232
 5982SOL    HW118845   5.539   2.241   2.307
 5982SOL    HW218846   5.539   2.223   2.145
 5983SOL     OW18847   0.373   0.250   4.091
 5983SOL    HW118848   0.398   0.321   4.025
 5983SOL    HW218849   0.289   0.276   4.138
 5984SOL     OW18850   6.005   6.101   3.640
 5984SOL    HW118851   6.078   6.165   3.663
 5984SOL    HW218852   5.916   6.144   3.653
 5985SOL     OW18853   6.242   1.896   3.681
 5985SOL    HW118854   6.198   1.961   3.743
 5985SOL    HW218855   6.216   1.916   3.587
 5986SOL     OW18856   4.106   3.852   5.458
 5986SOL    HW118857   4.079   3.837   5.553
 5986SOL    HW218858   4.204   3.871   5.454
 5987SOL     OW18859   6.749   1.021   4.599
 5987SOL    HW118860   6.765   0.924   4.616
 5987SOL    HW218861   6.749   1.038   4.500
 5988SOL     OW18862   2.912   1.233   6.576
 5988SOL    HW118863   2.957   1.180   6.504
 5988SOL    HW218864   2.962   1.222   6.662
 5989SOL     OW18865   1.226   5.726   6.772
 5989SOL    HW118866   1.140   5.678   6.791
 5989SOL    HW218867   1.265   5.760   6.857
 5990SOL     OW18868   4.423   4.168   1.053
 5990SOL    HW118869   4.363   4.212   1.120
 5990SOL    HW218870   4.379   4.085   1.019
 5991SOL     OW18871   4.152   5.746   0.378
 5991SOL    HW118872   4.163   5.785   0.470
 5991SOL    HW218873   4.079   5.795   0.330
 5992SOL     OW18874   3.044   0.278   2.354
 5992SOL    HW118875   3.134   0.313   2.331
 5992SOL    HW218876   2.983   0.355   2.375
 5993SOL     OW18877   6.301   3.607   6.868
 5993SOL    HW118878   6.245   3.631   6.947
 5993SOL    HW218879   6.268   3.521   6.829
 5994SOL     OW18880   0.019   3.328   1.355
 5994SOL    HW118881   0.055   3.271   1.428
 5994SOL    HW218882   7.010   3.270   1.278
 5995SOL     OW18883   4.272   3.046   1.254
 5995SOL    HW118884   4.189   3.036   1.309
 5995SOL    HW218885   4.258   3.004   1.164
 5996SOL     OW18886   2.145   5.851   1.495
 5996SOL    HW118887   2.166   5.759   1.461
 5996SOL    HW218888   2.167   5.857   1.592
 5997SOL     OW18889   6.630   6.949   3.369
 5997SOL    HW118890   6.703   6.932   3.303
 5997SOL    HW218891   6.559   6.879   3.360
 5998SOL     OW18892   5.338   0.678   1.707
 5998SOL    HW118893   5.346   0.759   1.765
 5998SOL    HW218894   5.265   0.619   1.742
 5999SOL     OW18895   3.985   3.215   1.187
 5999SOL    HW118896   4.039   3.297   1.205
 5999SOL    HW218897   3.990   3.192   1.090
 6000SOL     OW18898   0.417   5.539   0.264
 6000SOL    HW118899   0.354   5.537   0.186
 6000SOL    HW218900   0.390   5.611   0.327
 6001SOL     OW18901   5.315   6.160   6.486
 6001SOL    HW118902   5.316   6.082   6.423
 6001SOL    HW218903   5.265   6.135   6.569
 6002SOL     OW18904   6.705   6.957   4.842
 6002SOL    HW118905   6.795   7.000   4.835
 6002SOL    HW218906   6.635   0.004   4.815
 6003SOL     OW18907   6.809   2.443   4.221
 6003SOL    HW118908   6.804   2.364   4.160
 6003SOL    HW218909   6.769   2.522   4.175
 6004SOL     OW18910   5.971   2.463   3.449
 6004SOL    HW118911   6.044   2.498   3.507
 6004SOL    HW218912   5.953   2.367   3.471
 6005SOL     OW18913   5.263   4.298   4.948
 6005SOL    HW118914   5.290   4.391   4.975
 6005SOL    HW218915   5.231   4.249   5.029
 6006SOL     OW18916   3.734   0.317   5.247
 6006SOL    HW118917   3.663   0.293   5.181
 6006SOL    HW218918   3.757   0.414   5.239
 6007SOL     OW18919   0.470   3.887   6.735
 6007SOL    HW118920   0.412   3.929   6.804
 6007SOL    HW218921   0.433   3.905   6.644
 6008SOL     OW18922   1.900   4.264   5.561
 6008SOL    HW118923   1.974   4.199   5.579
 6008SOL    HW218924   1.884   4.269   5.463
 6009SOL     OW18925   5.098   5.961   3.232
 6009SOL    HW118926   5.026   5.968   3.163
 6009SOL    HW218927   5.123   5.865   3.244
 6010SOL     OW18928   0.102   4.190   4.405
 6010SOL    HW118929   0.142   4.118   4.462
 6010SOL    HW218930   0.144   4.188   4.315
 6011SOL     OW18931   4.451   1.862   3.075
 6011SOL    HW118932   4.548   1.854   3.093
 6011SOL    HW218933   4.426   1.959   3.067
 6012SOL     OW18934   5.875   0.262   6.736
 6012SOL    HW118935   5.807   0.261   6.663
 6012SOL    HW218936   5.960   0.302   6.702
 6013SOL     OW18937   5.306   0.814   2.439
 6013SOL    HW118938   5.216   0.839   2.475
 6013SOL    HW218939   5.323   0.864   2.354
 6014SOL     OW18940   3.381   3.417   3.788
 6014SOL    HW118941   3.345   3.470   3.864
 6014SOL    HW218942   3.306   3.367   3.743
 6015SOL     OW18943   6.472   2.423   4.409
 6015SOL    HW118944   6.571   2.433   4.424
 6015SOL    HW218945   6.451   2.443   4.313
 6016SOL     OW18946   4.606   1.778   5.559
 6016SOL    HW118947   4.702   1.790   5.536
 6016SOL    HW218948   4.588   1.683   5.581
 6017SOL     OW18949   6.962   4.049   4.674
 6017SOL    HW118950   0.041   4.036   4.659
 6017SOL    HW218951   6.923   4.097   4.595
 6018SOL     OW18952   3.497   1.499   4.622
 6018SOL    HW118953   3.482   1.415   4.569
 6018SOL    HW218954   3.409   1.545   4.637
 6019SOL     OW18955   1.159   3.726   5.729
 6019SOL    HW118956   1.244   3.692   5.688
 6019SOL    HW218957   1.125   3.660   5.796
 6020SOL     OW18958   1.264   5.294   0.936
 6020SOL    HW118959   1.293   5.200   0.921
 6020SOL    HW218960   1.316   5.333   1.012
 6021SOL     OW18961   4.400   0.507   2.303
 6021SOL    HW118962   4.493   0.489   2.273
 6021SOL    HW218963   4.383   0.464   2.391
 6022SOL     OW18964   6.305   1.705   3.229
 6022SOL    HW118965   6.230   1.658   3.275
 6022SOL    HW218966   6.353   1.640   3.169
 6023SOL     OW18967   4.931   0.204   1.676
 6023SOL    HW118968   4.863   0.132   1.663
 6023SOL    HW218969   4.995   0.177   1.747
 6024SOL     OW18970   0.541   4.959   1.001
 6024SOL    HW118971   0.555   4.918   1.091
 6024SOL    HW218972   0.473   4.907   0.950
 6025SOL     OW18973   2.570   1.314   3.632
 6025SOL    HW118974   2.553   1.363   3.717
 6025SOL    HW218975   2.622   1.230   3.651
 6026SOL     OW18976   6.560   4.573   4.181
 6026SOL    HW118977   6.461   4.574   4.164
 6026SOL    HW218978   6.609   4.567   4.094
 6027SOL     OW18979   6.100   3.476   6.119
 6027SOL    HW118980   6.114   3.378   6.129
 6027SOL    HW218981   6.167   3.525   6.175
 6028SOL     OW18982   5.541   4.824   1.157
 6028SOL    HW118983   5.550   4.915   1.197
 6028SOL    HW218984   5.501   4.831   1.066
 6029SOL     OW18985   2.418   0.117   3.661
 6029SOL    HW118986   2.502   0.095   3.709
 6029SOL    HW218987   2.432   0.198   3.604
 6030SOL     OW18988   4.903   3.564   4.744
 6030SOL    HW118989   4.877   3.620   4.666
 6030SOL    HW218990   4.882   3.612   4.829
 6031SOL     OW18991   1.074   6.088   4.062
 6031SOL    HW118992   1.030   6.172   4.029
 6031SOL    HW218993   1.128   6.109   4.144
 6032SOL     OW18994   3.405   5.950   4.131
 6032SOL    HW118995   3.440   5.944   4.037
 6032SOL    HW218996   3.386   6.046   4.153
 6033SOL     OW18997   2.330   2.687   2.742
 6033SOL    HW118998   2.235   2.654   2.735
 6033SOL    HW218999   2.389   2.611   2.769
 6034SOL     OW19000   1.005   0.202   6.442
 6034SOL    HW119001   1.038   0.191   6.349
 6034SOL    HW219002   1.064   0.152   6.505
 6035SOL     OW19003   0.532   1.268   2.657
 6035SOL    HW119004   0.575   1.352   2.623
 6035SOL    HW219005   0.602   1.198   2.673
 6036SOL     OW19006   5.967   4.860   1.622
 6036SOL    HW119007   5.963   4.831   1.527
 6036SOL    HW219008   6.061   4.885   1.646
 6037SOL     OW19009   3.971   1.232   0.670
 6037SOL    HW119010   3.910   1.306   0.698
 6037SOL    HW219011   3.923   1.144   0.679
 6038SOL     OW19012   0.422   2.348   6.926
 6038SOL    HW119013   0.323   2.355   6.926
 6038SOL    HW219014   0.462   2.420   6.869
 6039SOL     OW19015   4.148   3.542   3.904
 6039SOL    HW119016   4.066   3.511   3.855
 6039SOL    HW219017   4.224   3.547   3.840
 6040SOL     OW19018   1.658   1.490   0.426
 6040SOL    HW119019   1.599   1.423   0.383
 6040SOL    HW219020   1.701   1.547   0.355
 6041SOL     OW19021   3.309   2.845   5.650
 6041SOL    HW119022   3.342   2.905   5.577
 6041SOL    HW219023   3.308   2.750   5.619
 6042SOL     OW19024   3.675   6.267   3.237
 6042SOL    HW119025   3.683   6.273   3.336
 6042SOL    HW219026   3.715   6.180   3.205
 6043SOL     OW19027   1.629   0.824   3.876
 6043SOL    HW119028   1.699   0.798   3.809
 6043SOL    HW219029   1.542   0.782   3.850
 6044SOL     OW19030   1.911   1.849   1.854
 6044SOL    HW119031   1.845   1.910   1.898
 6044SOL    HW219032   1.991   1.839   1.913
 6045SOL     OW19033   5.243   3.457   3.903
 6045SOL    HW119034   5.290   3.412   3.978
 6045SOL    HW219035   5.145   3.438   3.909
 6046SOL     OW19036   3.166   2.728   1.396
 6046SOL    HW119037   3.234   2.776   1.341
 6046SOL    HW219038   3.201   2.637   1.420
 6047SOL     OW19039   5.622   2.292   0.854
 6047SOL    HW119040   5.572   2.206   0.868
 6047SOL    HW219041   5.681   2.310   0.932
 6048SOL     OW19042   5.246   4.850   5.125
 6048SOL    HW119043   5.293   4.918   5.070
 6048SOL    HW219044   5.303   4.769   5.135
 6049SOL     OW19045   5.374   4.322   6.278
 6049SOL    HW119046   5.372   4.252   6.349
 6049SOL    HW219047   5.365   4.279   6.188
 6050SOL     OW19048   3.165   5.385   0.350
 6050SOL    HW119049   3.191   5.301   0.399
 6050SOL    HW219050   3.170   5.463   0.412
 6051SOL     OW19051   0.339   1.220   2.475
 6051SOL    HW119052   0.409   1.263   2.533
 6051SOL    HW219053   0.352   1.121   2.475
 6052SOL     OW19054   5.502   0.284   1.184
 6052SOL    HW119055   5.459   0.370   1.159
 6052SOL    HW219056   5.434   0.225   1.229
 6053SOL     OW19057   4.696   0.958   6.050
 6053SOL    HW119058   4.762   1.008   6.107
 6053SOL    HW219059   4.648   1.022   5.990
 6054SOL     OW19060   3.829   5.175   0.724
 6054SOL    HW119061   3.803   5.158   0.630
 6054SOL    HW219062   3.877   5.263   0.730
 6055SOL     OW19063   3.312   4.980   6.520
 6055SOL    HW119064   3.336   4.883   6.516
 6055SOL    HW219065   3.216   4.992   6.492
 6056SOL     OW19066   6.028   2.942   4.904
 6056SOL    HW119067   5.949   2.952   4.964
 6056SOL    HW219068   6.101   2.893   4.953
 6057SOL     OW19069   5.703   0.247   2.516
 6057SOL    HW119070   5.651   0.330   2.536
 6057SOL    HW219071   5.723   0.243   2.418
 6058SOL     OW19072   6.279   3.577   0.649
 6058SOL    HW119073   6.237   3.529   0.572
 6058SOL    HW219074   6.222   3.566   0.731
 6059SOL     OW19075   5.211   3.987   5.549
 6059SOL    HW119076   5.261   4.010   5.633
 6059SOL    HW219077   5.201   3.887   5.543
 6060SOL     OW19078   3.127   3.106   0.211
 6060SOL    HW119079   3.133   3.041   0.286
 6060SOL    HW219080   3.111   3.058   0.125
 6061SOL     OW19081   4.017   4.694   0.220
 6061SOL    HW119082   4.057   4.653   0.302
 6061SOL    HW219083   4.084   4.691   0.145
 6062SOL     OW19084   2.204   1.856   6.616
 6062SOL    HW119085   2.258   1.937   6.593
 6062SOL    HW219086   2.266   1.780   6.638
 6063SOL     OW19087   3.792   4.505   5.264
 6063SOL    HW119088   3.875   4.560   5.267
 6063SOL    HW219089   3.813   4.414   5.229
 6064SOL     OW19090   0.582   0.332   0.675
 6064SOL    HW119091   0.509   0.340   0.607
 6064SOL    HW219092   0.594   0.235   0.699
 6065SOL     OW19093   1.190   5.345   2.034
 6065SOL    HW119094   1.126   5.418   2.013
 6065SOL    HW219095   1.276   5.385   2.068
 6066SOL     OW19096   4.950   1.189   3.479
 6066SOL    HW119097   4.953   1.234   3.390
 6066SOL    HW219098   4.995   1.099   3.473
 6067SOL     OW19099   5.771   0.272   5.828
 6067SOL    HW119100   5.674   0.298   5.835
 6067SOL    HW219101   5.792   0.247   5.734
 6068SOL     OW19102   5.241   2.257   5.178
 6068SOL    HW119103   5.148   2.266   5.142
 6068SOL    HW219104   5.259   2.162   5.203
 6069SOL     OW19105   0.097   2.979   5.786
 6069SOL    HW119106   0.002   2.951   5.798
 6069SOL    HW219107   0.125   3.035   5.865
 6070SOL     OW19108   3.757   2.171   1.662
 6070SOL    HW119109   3.710   2.240   1.718
 6070SOL    HW219110   3.714   2.165   1.572
 6071SOL     OW19111   0.190   6.198   4.243
 6071SOL    HW119112   0.212   6.172   4.337
 6071SOL    HW219113   0.091   6.209   4.234
 6072SOL     OW19114   0.011   1.861   0.668
 6072SOL    HW119115   6.981   1.889   0.751
 6072SOL    HW219116   0.100   1.823   0.693
 6073SOL     OW19117   4.885   2.837   1.261
 6073SOL    HW119118   4.919   2.909   1.200
 6073SOL    HW219119   4.827   2.877   1.332
 6074SOL     OW19120   1.813   0.019   2.538
 6074SOL    HW119121   1.858   0.074   2.468
 6074SOL    HW219122   1.873   0.011   2.618
 6075SOL     OW19123   4.678   0.104   6.160
 6075SOL    HW119124   4.664   0.161   6.079
 6075SOL    HW219125   4.679   0.161   6.241
 6076SOL     OW19126   2.433   5.357   3.814
 6076SOL    HW119127   2.384   5.277   3.850
 6076SOL    HW219128   2.479   5.405   3.889
 6077SOL     OW19129   5.664   6.388   0.930
 6077SOL    HW119130   5.657   6.487   0.919
 6077SOL    HW219131   5.743   6.355   0.880
 6078SOL     OW19132   4.285   4.403   0.582
 6078SOL    HW119133   4.358   4.341   0.553
 6078SOL    HW219134   4.211   4.351   0.624
 6079SOL     OW19135   4.936   4.474   6.684
 6079SOL    HW119136   4.903   4.561   6.650
 6079SOL    HW219137   5.019   4.448   6.635
 6080SOL     OW19138   0.807   4.947   1.968
 6080SOL    HW119139   0.891   4.997   1.993
 6080SOL    HW219140   0.797   4.867   2.027
 6081SOL     OW19141   0.914   3.527   5.466
 6081SOL    HW119142   0.914   3.619   5.427
 6081SOL    HW219143   0.934   3.532   5.564
 6082SOL     OW19144   3.263   0.147   1.974
 6082SOL    HW119145   3.274   0.215   1.902
 6082SOL    HW219146   3.282   0.056   1.937
 6083SOL     OW19147   5.528   6.801   0.292
 6083SOL    HW119148   5.613   6.816   0.344
 6083SOL    HW219149   5.550   6.753   0.207
 6084SOL     OW19150   0.763   6.173   2.061
 6084SOL    HW119151   0.691   6.146   2.125
 6084SOL    HW219152   0.852   6.142   2.095
 6085SOL     OW19153   6.021   5.977   6.411
 6085SOL    HW119154   6.028   5.990   6.510
 6085SOL    HW219155   5.956   5.903   6.392
 6086SOL     OW19156   3.877   2.745   6.473
 6086SOL    HW119157   3.823   2.685   6.532
 6086SOL    HW219158   3.846   2.735   6.378
 6087SOL     OW19159   5.277   6.155   0.553
 6087SOL    HW119160   5.252   6.168   0.649
 6087SOL    HW219161   5.220   6.083   0.513
 6088SOL     OW19162   5.232   6.559   5.544
 6088SOL    HW119163   5.291   6.484   5.515
 6088SOL    HW219164   5.286   6.642   5.553
 6089SOL     OW19165   6.644   2.240   2.272
 6089SOL    HW119166   6.610   2.282   2.356
 6089SOL    HW219167   6.663   2.311   2.205
 6090SOL     OW19168   2.884   4.998   4.633
 6090SOL    HW119169   2.842   4.973   4.721
 6090SOL    HW219170   2.983   4.982   4.638
 6091SOL     OW19171   2.512   1.337   1.031
 6091SOL    HW119172   2.577   1.292   0.970
 6091SOL    HW219173   2.508   1.434   1.009
 6092SOL     OW19174   4.655   0.656   1.930
 6092SOL    HW119175   4.746   0.698   1.927
 6092SOL    HW219176   4.591   0.719   1.973
 6093SOL     OW19177   2.480   1.682   2.158
 6093SOL    HW119178   2.425   1.766   2.162
 6093SOL    HW219179   2.555   1.695   2.093
 6094SOL     OW19180   1.261   6.742   3.932
 6094SOL    HW119181   1.341   6.691   3.901
 6094SOL    HW219182   1.206   6.684   3.992
 6095SOL     OW19183   4.392   5.516   6.843
 6095SOL    HW119184   4.427   5.564   6.923
 6095SOL    HW219185   4.362   5.424   6.870
 6096SOL     OW19186   5.438   6.268   2.236
 6096SOL    HW119187   5.517   6.229   2.284
 6096SOL    HW219188   5.354   6.238   2.281
 6097SOL     OW19189   1.059   5.576   1.971
 6097SOL    HW119190   1.059   5.569   1.871
 6097SOL    HW219191   1.142   5.622   2.001
 6098SOL     OW19192   6.302   0.704   5.589
 6098SOL    HW119193   6.218   0.650   5.580
 6098SOL    HW219194   6.279   0.801   5.582
 6099SOL     OW19195   4.572   6.393   5.854
 6099SOL    HW119196   4.658   6.445   5.850
 6099SOL    HW219197   4.531   6.389   5.763
 6100SOL     OW19198   0.332   5.742   1.767
 6100SOL    HW119199   0.249   5.685   1.762
 6100SOL    HW219200   0.409   5.691   1.730
 6101SOL     OW19201   6.112   2.506   2.352
 6101SOL    HW119202   6.044   2.468   2.414
 6101SOL    HW219203   6.190   2.443   2.345
 6102SOL     OW19204   4.156   5.436   3.070
 6102SOL    HW119205   4.126   5.507   3.134
 6102SOL    HW219206   4.119   5.456   2.979
 6103SOL     OW19207   6.360   1.543   1.130
 6103SOL    HW119208   6.377   1.485   1.050
 6103SOL    HW219209   6.304   1.493   1.195
 6104SOL     OW19210   5.580   1.220   5.151
 6104SOL    HW119211   5.677   1.238   5.137
 6104SOL    HW219212   5.536   1.302   5.186
 6105SOL     OW19213   2.477   5.350   5.610
 6105SOL    HW119214   2.485   5.418   5.538
 6105SOL    HW219215   2.381   5.323   5.621
 6106SOL     OW19216   1.229   4.755   0.811
 6106SOL    HW119217   1.251   4.817   0.735
 6106SOL    HW219218   1.136   4.774   0.843
 6107SOL     OW19219   4.888   5.564   4.056
 6107SOL    HW119220   4.986   5.542   4.053
 6107SOL    HW219221   4.877   5.662   4.075
 6108SOL     OW19222   1.264   2.002   2.777
 6108SOL    HW119223   1.251   2.060   2.857
 6108SOL    HW219224   1.353   2.021   2.736
 6109SOL     OW19225   5.282   0.932   4.222
 6109SOL    HW119226   5.324   0.993   4.291
 6109SOL    HW219227   5.193   0.901   4.255
 6110SOL     OW19228   1.080   2.606   6.394
 6110SOL    HW119229   1.086   2.578   6.490
 6110SOL    HW219230   1.106   2.703   6.386
 6111SOL     OW19231   1.288   3.315   1.977
 6111SOL    HW119232   1.198   3.347   1.948
 6111SOL    HW219233   1.335   3.388   2.028
 6112SOL     OW19234   4.006   0.262   2.108
 6112SOL    HW119235   4.101   0.285   2.130
 6112SOL    HW219236   3.953   0.346   2.099
 6113SOL     OW19237   2.625   4.171   6.686
 6113SOL    HW119238   2.698   4.187   6.620
 6113SOL    HW219239   2.575   4.257   6.702
 6114SOL     OW19240   4.961   2.632   2.385
 6114SOL    HW119241   4.938   2.726   2.362
 6114SOL    HW219242   4.878   2.581   2.405
 6115SOL     OW19243   0.400   1.667   5.215
 6115SOL    HW119244   0.382   1.641   5.121
 6115SOL    HW219245   0.359   1.757   5.234
 6116SOL     OW19246   3.872   2.361   5.348
 6116SOL    HW119247   3.772   2.361   5.346
 6116SOL    HW219248   3.903   2.323   5.435
 6117SOL     OW19249   1.090   1.382   3.094
 6117SOL    HW119250   1.059   1.428   3.010
 6117SOL    HW219251   1.095   1.284   3.077
 6118SOL     OW19252   5.795   1.530   1.663
 6118SOL    HW119253   5.847   1.561   1.742
 6118SOL    HW219254   5.732   1.457   1.691
 6119SOL     OW19255   0.145   3.150   0.281
 6119SOL    HW119256   0.244   3.151   0.276
 6119SOL    HW219257   0.108   3.096   0.205
 6120SOL     OW19258   1.760   6.679   5.383
 6120SOL    HW119259   1.735   6.583   5.401
 6120SOL    HW219260   1.720   6.737   5.453
 6121SOL     OW19261   0.474   4.013   5.341
 6121SOL    HW119262   0.533   4.079   5.293
 6121SOL    HW219263   0.385   4.055   5.359
 6122SOL     OW19264   5.237   5.871   6.327
 6122SOL    HW119265   5.183   5.924   6.261
 6122SOL    HW219266   5.228   5.774   6.306
 6123SOL     OW19267   5.262   0.934   5.449
 6123SOL    HW119268   5.266   0.939   5.349
 6123SOL    HW219269   5.353   0.918   5.486
 6124SOL     OW19270   1.710   6.813   5.142
 6124SOL    HW119271   1.688   6.762   5.226
 6124SOL    HW219272   1.697   6.911   5.158
 6125SOL     OW19273   2.513   3.681   0.082
 6125SOL    HW119274   2.538   3.687   7.003
 6125SOL    HW219275   2.423   3.722   0.096
 6126SOL     OW19276   0.969   1.920   5.308
 6126SOL    HW119277   0.917   1.836   5.300
 6126SOL    HW219278   0.919   1.985   5.365
 6127SOL     OW19279   3.898   0.943   1.181
 6127SOL    HW119280   3.953   0.985   1.109
 6127SOL    HW219281   3.803   0.973   1.173
 6128SOL     OW19282   5.688   5.482   0.735
 6128SOL    HW119283   5.786   5.461   0.737
 6128SOL    HW219284   5.664   5.534   0.817
 6129SOL     OW19285   1.969   4.759   3.192
 6129SOL    HW119286   2.047   4.713   3.236
 6129SOL    HW219287   1.992   4.781   3.098
 6130SOL     OW19288   6.003   2.221   2.938
 6130SOL    HW119289   6.041   2.138   2.897
 6130SOL    HW219290   5.917   2.245   2.893
 6131SOL     OW19291   0.709   2.301   1.991
 6131SOL    HW119292   0.708   2.342   2.083
 6131SOL    HW219293   0.696   2.373   1.923
 6132SOL     OW19294   3.316   1.629   6.517
 6132SOL    HW119295   3.340   1.685   6.438
 6132SOL    HW219296   3.345   1.535   6.502
 6133SOL     OW19297   1.122   2.296   3.179
 6133SOL    HW119298   1.161   2.252   3.260
 6133SOL    HW219299   1.194   2.340   3.126
 6134SOL     OW19300   4.583   6.935   6.741
 6134SOL    HW119301   4.642   6.950   6.662
 6134SOL    HW219302   4.529   7.018   6.759
 6135SOL     OW19303   5.827   6.586   0.240
 6135SOL    HW119304   5.816   6.578   0.339
 6135SOL    HW219305   5.874   6.671   0.219
 6136SOL     OW19306   1.600   2.228   1.341
 6136SOL    HW119307   1.573   2.145   1.292
 6136SOL    HW219308   1.543   2.304   1.313
 6137SOL     OW19309   0.777   4.087   2.538
 6137SOL    HW119310   0.765   4.057   2.444
 6137SOL    HW219311   0.855   4.149   2.544
 6138SOL     OW19312   3.416   0.428   2.107
 6138SOL    HW119313   3.423   0.525   2.129
 6138SOL    HW219314   3.419   0.416   2.008
 6139SOL     OW19315   0.666   0.078   5.391
 6139SOL    HW119316   0.636   0.007   5.454
 6139SOL    HW219317   0.636   0.055   5.298
 6140SOL     OW19318   0.595   1.000   3.445
 6140SOL    HW119319   0.620   0.912   3.486
 6140SOL    HW219320   0.504   0.992   3.403
 6141SOL     OW19321   0.841   0.332   6.078
 6141SOL    HW119322   0.881   0.365   6.163
 6141SOL    HW219323   0.873   0.240   6.059
 6142SOL     OW19324   0.421   0.462   5.753
 6142SOL    HW119325   0.477   0.383   5.778
 6142SOL    HW219326   0.388   0.506   5.837
 6143SOL     OW19327   0.215   4.112   0.844
 6143SOL    HW119328   0.138   4.169   0.874
 6143SOL    HW219329   0.219   4.111   0.744
 6144SOL     OW19330   4.825   4.575   3.176
 6144SOL    HW119331   4.761   4.540   3.107
 6144SOL    HW219332   4.786   4.657   3.219
 6145SOL     OW19333   5.679   4.711   3.628
 6145SOL    HW119334   5.663   4.799   3.583
 6145SOL    HW219335   5.707   4.643   3.560
 6146SOL     OW19336   3.857   6.950   4.084
 6146SOL    HW119337   3.925   6.919   4.017
 6146SOL    HW219338   3.895   0.007   4.138
 6147SOL     OW19339   1.874   2.810   4.687
 6147SOL    HW119340   1.912   2.890   4.733
 6147SOL    HW219341   1.910   2.727   4.729
 6148SOL     OW19342   3.876   5.009   6.522
 6148SOL    HW119343   3.939   5.086   6.529
 6148SOL    HW219344   3.919   4.937   6.467
 6149SOL     OW19345   2.201   0.056   2.270
 6149SOL    HW119346   2.205   0.120   2.193
 6149SOL    HW219347   2.112   0.062   2.314
 6150SOL     OW19348   6.721   3.848   6.485
 6150SOL    HW119349   6.787   3.842   6.560
 6150SOL    HW219350   6.741   3.928   6.429
 6151SOL     OW19351   5.393   5.309   4.084
 6151SOL    HW119352   5.434   5.265   4.004
 6151SOL    HW219353   5.374   5.240   4.154
 6152SOL     OW19354   1.033   5.629   4.549
 6152SOL    HW119355   1.028   5.529   4.548
 6152SOL    HW219356   1.016   5.662   4.642
 6153SOL     OW19357   4.823   5.028   0.776
 6153SOL    HW119358   4.872   5.114   0.763
 6153SOL    HW219359   4.727   5.048   0.796
 6154SOL     OW19360   5.450   3.527   3.160
 6154SOL    HW119361   5.466   3.608   3.217
 6154SOL    HW219362   5.533   3.472   3.158
 6155SOL     OW19363   2.832   1.089   3.222
 6155SOL    HW119364   2.838   1.109   3.125
 6155SOL    HW219365   2.922   1.097   3.264
 6156SOL     OW19366   5.262   3.721   1.757
 6156SOL    HW119367   5.225   3.812   1.737
 6156SOL    HW219368   5.337   3.700   1.695
 6157SOL     OW19369   0.716   1.997   3.440
 6157SOL    HW119370   0.658   1.954   3.372
 6157SOL    HW219371   0.794   1.938   3.460
 6158SOL     OW19372   3.069   2.385   6.697
 6158SOL    HW119373   3.132   2.395   6.620
 6158SOL    HW219374   3.010   2.306   6.682
 6159SOL     OW19375   5.405   3.895   0.952
 6159SOL    HW119376   5.358   3.831   1.013
 6159SOL    HW219377   5.500   3.907   0.984
 6160SOL     OW19378   6.870   6.806   6.817
 6160SOL    HW119379   6.877   6.905   6.830
 6160SOL    HW219380   6.857   6.785   6.720
 6161SOL     OW19381   5.356   1.885   6.619
 6161SOL    HW119382   5.344   1.789   6.642
 6161SOL    HW219383   5.284   1.940   6.663
 6162SOL     OW19384   5.964   6.612   3.528
 6162SOL    HW119385   5.955   6.557   3.446
 6162SOL    HW219386   5.873   6.638   3.561
 6163SOL     OW19387   5.273   5.466   2.160
 6163SOL    HW119388   5.361   5.423   2.178
 6163SOL    HW219389   5.278   5.517   2.074
 6164SOL     OW19390   3.316   4.055   4.545
 6164SOL    HW119391   3.270   4.028   4.630
 6164SOL    HW219392   3.378   4.131   4.563
 6165SOL     OW19393   4.169   2.264   6.391
 6165SOL    HW119394   4.174   2.250   6.292
 6165SOL    HW219395   4.172   2.362   6.412
 6166SOL     OW19396   6.556   1.731   6.947
 6166SOL    HW119397   6.539   1.780   6.861
 6166SOL    HW219398   6.638   1.674   6.936
 6167SOL     OW19399   1.194   4.502   2.803
 6167SOL    HW119400   1.152   4.576   2.857
 6167SOL    HW219401   1.284   4.481   2.840
 6168SOL     OW19402   0.012   2.366   2.957
 6168SOL    HW119403   0.064   2.322   3.030
 6168SOL    HW219404   6.965   2.430   2.996
 6169SOL     OW19405   0.620   1.119   6.217
 6169SOL    HW119406   0.687   1.192   6.200
 6169SOL    HW219407   0.668   1.038   6.251
 6170SOL     OW19408   3.506   4.334   6.199
 6170SOL    HW119409   3.503   4.402   6.126
 6170SOL    HW219410   3.545   4.249   6.163
 6171SOL     OW19411   1.467   3.373   2.527
 6171SOL    HW119412   1.381   3.335   2.496
 6171SOL    HW219413   1.519   3.406   2.448
 6172SOL     OW19414   6.980   0.519   2.460
 6172SOL    HW119415   0.015   0.545   2.379
 6172SOL    HW219416   6.926   0.437   2.440
 6173SOL     OW19417   0.475   5.178   2.519
 6173SOL    HW119418   0.477   5.184   2.619
 6173SOL    HW219419   0.551   5.122   2.487
 6174SOL     OW19420   6.202   4.676   2.890
 6174SOL    HW119421   6.288   4.625   2.904
 6174SOL    HW219422   6.182   4.729   2.973
 6175SOL     OW19423   5.444   6.735   2.618
 6175SOL    HW119424   5.492   6.716   2.703
 6175SOL    HW219425   5.490   6.809   2.569
 6176SOL     OW19426   6.462   3.742   6.484
 6176SOL    HW119427   6.553   3.781   6.472
 6176SOL    HW219428   6.452   3.663   6.423
 6177SOL     OW19429   5.557   1.678   1.250
 6177SOL    HW119430   5.571   1.776   1.259
 6177SOL    HW219431   5.559   1.635   1.341
 6178SOL     OW19432   5.018   5.361   1.770
 6178SOL    HW119433   4.979   5.290   1.711
 6178SOL    HW219434   5.048   5.438   1.714
 6179SOL     OW19435   0.279   3.557   5.040
 6179SOL    HW119436   0.323   3.516   5.120
 6179SOL    HW219437   0.255   3.652   5.060
 6180SOL     OW19438   3.111   6.770   6.297
 6180SOL    HW119439   3.136   6.673   6.304
 6180SOL    HW219440   3.166   6.813   6.225
 6181SOL     OW19441   4.638   6.372   0.712
 6181SOL    HW119442   4.612   6.449   0.654
 6181SOL    HW219443   4.645   6.289   0.657
 6182SOL     OW19444   5.121   5.356   5.854
 6182SOL    HW119445   5.157   5.332   5.764
 6182SOL    HW219446   5.085   5.274   5.899
 6183SOL     OW19447   2.075   0.416   3.193
 6183SOL    HW119448   2.015   0.353   3.243
 6183SOL    HW219449   2.121   0.367   3.119
 6184SOL     OW19450   1.886   6.784   6.079
 6184SOL    HW119451   1.821   6.834   6.136
 6184SOL    HW219452   1.979   6.803   6.110
 6185SOL     OW19453   1.412   3.870   0.469
 6185SOL    HW119454   1.431   3.938   0.539
 6185SOL    HW219455   1.424   3.911   0.379
 6186SOL     OW19456   5.683   6.884   3.810
 6186SOL    HW119457   5.754   6.954   3.805
 6186SOL    HW219458   5.599   6.918   3.769
 6187SOL     OW19459   5.123   4.752   3.935
 6187SOL    HW119460   5.057   4.795   3.997
 6187SOL    HW219461   5.082   4.670   3.895
 6188SOL     OW19462   2.653   5.794   1.505
 6188SOL    HW119463   2.748   5.774   1.481
 6188SOL    HW219464   2.611   5.712   1.544
 6189SOL     OW19465   4.791   4.856   3.767
 6189SOL    HW119466   4.859   4.870   3.839
 6189SOL    HW219467   4.755   4.763   3.773
 6190SOL     OW19468   5.541   3.506   5.780
 6190SOL    HW119469   5.484   3.553   5.713
 6190SOL    HW219470   5.558   3.567   5.857
 6191SOL     OW19471   5.134   2.828   1.039
 6191SOL    HW119472   5.140   2.928   1.035
 6191SOL    HW219473   5.139   2.797   1.134
 6192SOL     OW19474   3.799   3.820   0.551
 6192SOL    HW119475   3.780   3.910   0.589
 6192SOL    HW219476   3.737   3.752   0.591
 6193SOL     OW19477   3.692   0.785   2.407
 6193SOL    HW119478   3.638   0.767   2.489
 6193SOL    HW219479   3.759   0.712   2.394
 6194SOL     OW19480   1.963   6.743   0.239
 6194SOL    HW119481   1.990   6.692   0.158
 6194SOL    HW219482   1.904   6.820   0.213
 6195SOL     OW19483   3.488   5.956   5.624
 6195SOL    HW119484   3.413   5.906   5.582
 6195SOL    HW219485   3.518   5.910   5.707
 6196SOL     OW19486   6.627   2.236   0.459
 6196SOL    HW119487   6.569   2.180   0.518
 6196SOL    HW219488   6.697   2.282   0.515
 6197SOL     OW19489   4.612   3.483   0.405
 6197SOL    HW119490   4.676   3.434   0.346
 6197SOL    HW219491   4.646   3.483   0.499
 6198SOL     OW19492   3.581   5.949   3.100
 6198SOL    HW119493   3.674   5.982   3.116
 6198SOL    HW219494   3.517   6.026   3.103
 6199SOL     OW19495   0.127   0.239   1.426
 6199SOL    HW119496   0.102   0.158   1.479
 6199SOL    HW219497   0.054   0.260   1.361
 6200SOL     OW19498   2.504   1.294   6.416
 6200SOL    HW119499   2.547   1.266   6.330
 6200SOL    HW219500   2.571   1.345   6.471
 6201SOL     OW19501   2.052   4.506   5.550
 6201SOL    HW119502   2.047   4.570   5.627
 6201SOL    HW219503   2.006   4.421   5.574
 6202SOL     OW19504   3.437   1.825   1.221
 6202SOL    HW119505   3.531   1.855   1.238
 6202SOL    HW219506   3.393   1.806   1.309
 6203SOL     OW19507   5.207   0.266   3.746
 6203SOL    HW119508   5.159   0.304   3.667
 6203SOL    HW219509   5.200   0.166   3.745
 6204SOL     OW19510   0.886   5.303   5.447
 6204SOL    HW119511   0.906   5.398   5.419
 6204SOL    HW219512   0.789   5.284   5.433
 6205SOL     OW19513   5.663   6.590   6.853
 6205SOL    HW119514   5.738   6.629   6.800
 6205SOL    HW219515   5.595   6.551   6.790
 6206SOL     OW19516   6.541   0.508   2.566
 6206SOL    HW119517   6.472   0.451   2.521
 6206SOL    HW219518   6.560   0.472   2.657
 6207SOL     OW19519   1.486   3.697   4.860
 6207SOL    HW119520   1.540   3.616   4.836
 6207SOL    HW219521   1.522   3.736   4.945
 6208SOL     OW19522   6.102   6.651   6.337
 6208SOL    HW119523   6.171   6.607   6.280
 6208SOL    HW219524   6.022   6.675   6.280
 6209SOL     OW19525   4.143   5.811   6.945
 6209SOL    HW119526   4.080   5.889   6.944
 6209SOL    HW219527   4.133   5.759   6.860
 6210SOL     OW19528   5.209   4.793   3.312
 6210SOL    HW119529   5.218   4.893   3.305
 6210SOL    HW219530   5.297   4.754   3.338
 6211SOL     OW19531   3.150   6.751   5.418
 6211SOL    HW119532   3.188   6.796   5.499
 6211SOL    HW219533   3.065   6.796   5.391
 6212SOL     OW19534   0.928   5.070   2.713
 6212SOL    HW119535   0.836   5.087   2.748
 6212SOL    HW219536   0.991   5.060   2.790
 6213SOL     OW19537   5.392   0.015   6.524
 6213SOL    HW119538   5.420   6.969   6.595
 6213SOL    HW219539   5.293   0.022   6.522
 6214SOL     OW19540   6.234   5.264   3.249
 6214SOL    HW119541   6.205   5.177   3.209
 6214SOL    HW219542   6.186   5.339   3.204
 6215SOL     OW19543   3.283   1.420   6.750
 6215SOL    HW119544   3.218   1.347   6.772
 6215SOL    HW219545   3.332   1.397   6.665
 6216SOL     OW19546   6.425   2.158   2.106
 6216SOL    HW119547   6.514   2.165   2.150
 6216SOL    HW219548   6.382   2.071   2.130
 6217SOL     OW19549   5.884   2.878   2.100
 6217SOL    HW119550   5.937   2.820   2.038
 6217SOL    HW219551   5.906   2.855   2.194
 6218SOL     OW19552   3.422   4.953   4.175
 6218SOL    HW119553   3.324   4.936   4.162
 6218SOL    HW219554   3.436   5.050   4.195
 6219SOL     OW19555   0.423   1.296   4.558
 6219SOL    HW119556   0.502   1.297   4.497
 6219SOL    HW219557   0.452   1.325   4.650
 6220SOL     OW19558   1.617   4.420   5.630
 6220SOL    HW119559   1.659   4.344   5.580
 6220SOL    HW219560   1.585   4.489   5.566
 6221SOL     OW19561   5.512   5.167   5.883
 6221SOL    HW119562   5.464   5.124   5.807
 6221SOL    HW219563   5.611   5.155   5.871
 6222SOL     OW19564   0.956   6.543   1.518
 6222SOL    HW119565   1.030   6.483   1.488
 6222SOL    HW219566   0.897   6.494   1.583
 6223SOL     OW19567   7.014   3.295   4.746
 6223SOL    HW119568   6.926   3.327   4.782
 6223SOL    HW219569   6.997   3.228   4.674
 6224SOL     OW19570   1.630   1.861   6.272
 6224SOL    HW119571   1.606   1.831   6.179
 6224SOL    HW219572   1.621   1.961   6.277
 6225SOL     OW19573   3.020   3.228   1.595
 6225SOL    HW119574   3.000   3.311   1.646
 6225SOL    HW219575   3.119   3.224   1.576
 6226SOL     OW19576   5.289   1.792   4.111
 6226SOL    HW119577   5.370   1.770   4.057
 6226SOL    HW219578   5.315   1.802   4.207
 6227SOL     OW19579   3.411   4.755   6.325
 6227SOL    HW119580   3.443   4.690   6.395
 6227SOL    HW219581   3.478   4.828   6.314
 6228SOL     OW19582   0.209   2.184   2.476
 6228SOL    HW119583   0.130   2.206   2.419
 6228SOL    HW219584   0.237   2.089   2.461
 6229SOL     OW19585   1.180   2.809   2.736
 6229SOL    HW119586   1.171   2.905   2.711
 6229SOL    HW219587   1.221   2.802   2.827
 6230SOL     OW19588   1.425   1.511   4.586
 6230SOL    HW119589   1.425   1.611   4.577
 6230SOL    HW219590   1.333   1.476   4.566
 6231SOL     OW19591   6.819   4.750   1.691
 6231SOL    HW119592   6.850   4.834   1.734
 6231SOL    HW219593   6.888   4.717   1.627
 6232SOL     OW19594   6.526   1.587   0.569
 6232SOL    HW119595   6.456   1.526   0.531
 6232SOL    HW219596   6.482   1.669   0.606
 6233SOL     OW19597   5.571   1.226   0.268
 6233SOL    HW119598   5.669   1.242   0.263
 6233SOL    HW219599   5.529   1.295   0.328
 6234SOL     OW19600   0.501   1.140   5.579
 6234SOL    HW119601   0.467   1.234   5.586
 6234SOL    HW219602   0.439   1.078   5.627
 6235SOL     OW19603   1.502   0.346   2.377
 6235SOL    HW119604   1.424   0.353   2.315
 6235SOL    HW219605   1.524   0.437   2.413
 6236SOL     OW19606   0.959   5.363   0.581
 6236SOL    HW119607   0.983   5.457   0.559
 6236SOL    HW219608   0.873   5.362   0.633
 6237SOL     OW19609   3.984   6.440   0.225
 6237SOL    HW119610   3.951   6.346   0.236
 6237SOL    HW219611   3.906   6.501   0.210
 6238SOL     OW19612   4.279   5.006   3.342
 6238SOL    HW119613   4.240   4.928   3.390
 6238SOL    HW219614   4.209   5.049   3.284
 6239SOL     OW19615   2.827   6.823   1.556
 6239SOL    HW119616   2.735   6.825   1.595
 6239SOL    HW219617   2.880   6.750   1.598
 6240SOL     OW19618   2.743   2.485   0.261
 6240SOL    HW119619   2.726   2.403   0.317
 6240SOL    HW219620   2.698   2.563   0.304
 6241SOL     OW19621   2.707   1.213   2.570
 6241SOL    HW119622   2.696   1.124   2.524
 6241SOL    HW219623   2.804   1.229   2.587
 6242SOL     OW19624   5.465   1.171   3.442
 6242SOL    HW119625   5.380   1.224   3.444
 6242SOL    HW219626   5.539   1.225   3.481
 6243SOL     OW19627   5.686   6.915   2.922
 6243SOL    HW119628   5.775   6.940   2.884
 6243SOL    HW219629   5.625   6.994   2.918
 6244SOL     OW19630   1.604   2.397   1.568
 6244SOL    HW119631   1.538   2.353   1.628
 6244SOL    HW219632   1.619   2.341   1.487
 6245SOL     OW19633   2.898   4.560   1.383
 6245SOL    HW119634   2.900   4.463   1.357
 6245SOL    HW219635   2.926   4.569   1.479
 6246SOL     OW19636   2.595   2.814   6.248
 6246SOL    HW119637   2.619   2.742   6.183
 6246SOL    HW219638   2.641   2.797   6.335
 6247SOL     OW19639   0.502   6.245   3.252
 6247SOL    HW119640   0.424   6.232   3.313
 6247SOL    HW219641   0.531   6.341   3.255
 6248SOL     OW19642   1.912   3.783   1.465
 6248SOL    HW119643   1.860   3.868   1.469
 6248SOL    HW219644   1.938   3.765   1.370
 6249SOL     OW19645   0.827   4.605   0.418
 6249SOL    HW119646   0.880   4.688   0.400
 6249SOL    HW219647   0.877   4.546   0.481
 6250SOL     OW19648   6.447   5.978   0.499
 6250SOL    HW119649   6.518   6.000   0.431
 6250SOL    HW219650   6.484   5.991   0.591
 6251SOL     OW19651   3.539   6.753   0.677
 6251SOL    HW119652   3.440   6.764   0.662
 6251SOL    HW219653   3.587   6.769   0.591
 6252SOL     OW19654   1.860   6.649   4.415
 6252SOL    HW119655   1.925   6.606   4.352
 6252SOL    HW219656   1.879   6.618   4.508
 6253SOL     OW19657   2.201   3.923   2.439
 6253SOL    HW119658   2.193   3.840   2.382
 6253SOL    HW219659   2.237   3.998   2.383
 6254SOL     OW19660   5.435   0.718   0.326
 6254SOL    HW119661   5.466   0.792   0.268
 6254SOL    HW219662   5.336   0.725   0.340
 6255SOL     OW19663   1.695   0.935   1.371
 6255SOL    HW119664   1.634   0.909   1.446
 6255SOL    HW219665   1.664   1.021   1.331
 6256SOL     OW19666   3.968   5.187   2.929
 6256SOL    HW119667   3.900   5.215   2.997
 6256SOL    HW219668   4.045   5.143   2.974
 6257SOL     OW19669   5.681   2.191   1.110
 6257SOL    HW119670   5.734   2.244   1.177
 6257SOL    HW219671   5.734   2.112   1.080
 6258SOL     OW19672   4.638   0.279   3.569
 6258SOL    HW119673   4.692   0.269   3.652
 6258SOL    HW219674   4.667   0.360   3.520
 6259SOL     OW19675   2.814   1.385   0.965
 6259SOL    HW119676   2.789   1.450   1.037
 6259SOL    HW219677   2.906   1.350   0.983
 6260SOL     OW19678   3.363   4.042   0.042
 6260SOL    HW119679   3.290   3.975   0.054
 6260SOL    HW219680   3.452   3.996   0.044
 6261SOL     OW19681   2.830   6.695   6.498
 6261SOL    HW119682   2.877   6.609   6.518
 6261SOL    HW219683   2.883   6.771   6.535
 6262SOL     OW19684   2.150   3.926   0.995
 6262SOL    HW119685   2.095   3.947   0.914
 6262SOL    HW219686   2.095   3.941   1.077
 6263SOL     OW19687   0.306   0.178   5.777
 6263SOL    HW119688   0.252   0.224   5.847
 6263SOL    HW219689   0.264   0.192   5.687
 6264SOL     OW19690   1.427   6.701   0.838
 6264SOL    HW119691   1.437   6.744   0.927
 6264SOL    HW219692   1.513   6.657   0.812
 6265SOL     OW19693   3.360   3.990   1.095
 6265SOL    HW119694   3.399   4.054   1.029
 6265SOL    HW219695   3.426   3.973   1.168
 6266SOL     OW19696   4.271   1.015   4.658
 6266SOL    HW119697   4.355   0.999   4.607
 6266SOL    HW219698   4.293   1.023   4.756
 6267SOL     OW19699   3.344   0.511   0.224
 6267SOL    HW119700   3.281   0.589   0.222
 6267SOL    HW219701   3.408   0.522   0.300
 6268SOL     OW19702   2.808   6.101   2.579
 6268SOL    HW119703   2.747   6.058   2.512
 6268SOL    HW219704   2.761   6.178   2.621
 6269SOL     OW19705   6.794   5.914   2.305
 6269SOL    HW119706   6.742   5.995   2.332
 6269SOL    HW219707   6.885   5.918   2.346
 6270SOL     OW19708   2.001   0.181   5.189
 6270SOL    HW119709   2.058   0.103   5.215
 6270SOL    HW219710   1.910   0.170   5.228
 6271SOL     OW19711   6.482   2.440   5.654
 6271SOL    HW119712   6.531   2.432   5.741
 6271SOL    HW219713   6.390   2.403   5.665
 6272SOL     OW19714   0.717   2.950   5.286
 6272SOL    HW119715   0.765   2.915   5.366
 6272SOL    HW219716   0.623   2.974   5.310
 6273SOL     OW19717   1.032   0.706   2.365
 6273SOL    HW119718   1.010   0.656   2.281
 6273SOL    HW219719   1.110   0.767   2.348
 6274SOL     OW19720   2.257   5.873   5.942
 6274SOL    HW119721   2.292   5.850   6.033
 6274SOL    HW219722   2.319   5.939   5.899
 6275SOL     OW19723   2.980   6.554   5.010
 6275SOL    HW119724   2.906   6.509   4.960
 6275SOL    HW219725   2.968   6.538   5.108
 6276SOL     OW19726   1.509   4.828   3.852
 6276SOL    HW119727   1.486   4.915   3.808
 6276SOL    HW219728   1.443   4.809   3.925
 6277SOL     OW19729   5.265   3.111   2.135
 6277SOL    HW119730   5.206   3.185   2.102
 6277SOL    HW219731   5.208   3.039   2.176
 6278SOL     OW19732   4.636   0.481   4.706
 6278SOL    HW119733   4.644   0.483   4.806
 6278SOL    HW219734   4.667   0.568   4.669
 6279SOL     OW19735   3.815   0.893   6.519
 6279SOL    HW119736   3.895   0.848   6.557
 6279SOL    HW219737   3.841   0.941   6.435
 6280SOL     OW19738   0.628   2.785   5.646
 6280SOL    HW119739   0.627   2.875   5.602
 6280SOL    HW219740   0.543   2.737   5.626
 6281SOL     OW19741   2.477   6.272   5.020
 6281SOL    HW119742   2.490   6.239   4.926
 6281SOL    HW219743   2.537   6.220   5.082
 6282SOL     OW19744   1.666   0.279   4.879
 6282SOL    HW119745   1.660   0.360   4.936
 6282SOL    HW219746   1.750   0.229   4.901
 6283SOL     OW19747   6.313   2.657   4.473
 6283SOL    HW119748   6.371   2.735   4.498
 6283SOL    HW219749   6.370   2.575   4.462
 6284SOL     OW19750   2.236   5.622   4.810
 6284SOL    HW119751   2.280   5.711   4.795
 6284SOL    HW219752   2.298   5.563   4.863
 6285SOL     OW19753   1.523   2.911   3.909
 6285SOL    HW119754   1.596   2.845   3.896
 6285SOL    HW219755   1.539   2.962   3.994
 6286SOL     OW19756   6.058   1.936   4.054
 6286SOL    HW119757   6.051   1.999   3.976
 6286SOL    HW219758   6.111   1.856   4.026
 6287SOL     OW19759   4.405   4.734   2.465
 6287SOL    HW119760   4.329   4.745   2.400
 6287SOL    HW219761   4.469   4.665   2.429
 6288SOL     OW19762   5.760   4.077   1.916
 6288SOL    HW119763   5.842   4.125   1.948
 6288SOL    HW219764   5.689   4.144   1.894
 6289SOL     OW19765   1.585   3.541   2.703
 6289SOL    HW119766   1.552   3.463   2.651
 6289SOL    HW219767   1.508   3.600   2.729
 6290SOL     OW19768   5.634   3.861   4.019
 6290SOL    HW119769   5.696   3.821   3.952
 6290SOL    HW219770   5.573   3.790   4.054
 6291SOL     OW19771   3.962   3.021   3.489
 6291SOL    HW119772   4.011   3.057   3.410
 6291SOL    HW219773   3.888   2.961   3.457
 6292SOL     OW19774   0.430   2.889   3.358
 6292SOL    HW119775   0.357   2.917   3.296
 6292SOL    HW219776   0.486   2.819   3.313
 6293SOL     OW19777   4.112   6.878   6.905
 6293SOL    HW119778   4.057   6.829   6.972
 6293SOL    HW219779   4.195   6.912   6.948
 6294SOL     OW19780   3.700   4.926   3.893
 6294SOL    HW119781   3.667   4.943   3.986
 6294SOL    HW219782   3.800   4.916   3.894
 6295SOL     OW19783   5.127   5.203   5.581
 6295SOL    HW119784   5.039   5.155   5.572
 6295SOL    HW219785   5.128   5.280   5.517
 6296SOL     OW19786   6.820   6.517   4.461
 6296SOL    HW119787   6.747   6.537   4.396
 6296SOL    HW219788   6.795   6.555   4.551
 6297SOL     OW19789   4.771   6.993   5.204
 6297SOL    HW119790   4.746   0.042   5.135
 6297SOL    HW219791   4.855   0.004   5.250
 6298SOL     OW19792   1.549   2.846   6.189
 6298SOL    HW119793   1.571   2.881   6.280
 6298SOL    HW219794   1.594   2.758   6.175
 6299SOL     OW19795   5.614   2.070   0.268
 6299SOL    HW119796   5.623   2.168   0.252
 6299SOL    HW219797   5.674   2.043   0.343
 6300SOL     OW19798   5.229   0.952   4.794
 6300SOL    HW119799   5.137   0.964   4.758
 6300SOL    HW219800   5.261   0.859   4.774
 6301SOL     OW19801   2.581   7.017   0.857
 6301SOL    HW119802   2.494   6.970   0.843
 6301SOL    HW219803   2.564   0.096   0.874
 6302SOL     OW19804   1.488   1.975   4.478
 6302SOL    HW119805   1.546   2.031   4.538
 6302SOL    HW219806   1.509   1.996   4.383
 6303SOL     OW19807   2.617   0.937   4.613
 6303SOL    HW119808   2.583   0.921   4.705
 6303SOL    HW219809   2.608   1.034   4.590
 6304SOL     OW19810   2.161   0.972   0.875
 6304SOL    HW119811   2.232   1.027   0.919
 6304SOL    HW219812   2.157   0.994   0.778
 6305SOL     OW19813   6.448   6.837   0.706
 6305SOL    HW119814   6.355   6.822   0.741
 6305SOL    HW219815   6.456   6.930   0.672
 6306SOL     OW19816   0.364   3.989   4.371
 6306SOL    HW119817   0.401   3.903   4.337
 6306SOL    HW219818   0.385   4.063   4.306
 6307SOL     OW19819   4.090   4.140   5.911
 6307SOL    HW119820   4.188   4.157   5.896
 6307SOL    HW219821   4.049   4.220   5.953
 6308SOL     OW19822   1.571   1.809   4.951
 6308SOL    HW119823   1.503   1.749   4.908
 6308SOL    HW219824   1.661   1.791   4.911
 6309SOL     OW19825   5.097   3.834   4.516
 6309SOL    HW119826   5.111   3.833   4.615
 6309SOL    HW219827   5.000   3.852   4.496
 6310SOL     OW19828   2.099   5.119   4.206
 6310SOL    HW119829   2.028   5.102   4.275
 6310SOL    HW219830   2.058   5.163   4.127
 6311SOL     OW19831   5.734   0.851   5.663
 6311SOL    HW119832   5.834   0.842   5.655
 6311SOL    HW219833   5.703   0.803   5.745
 6312SOL     OW19834   5.342   5.060   5.660
 6312SOL    HW119835   5.331   4.961   5.650
 6312SOL    HW219836   5.254   5.105   5.643
 6313SOL     OW19837   1.651   5.959   3.062
 6313SOL    HW119838   1.649   5.967   2.962
 6313SOL    HW219839   1.655   6.050   3.103
 6314SOL     OW19840   3.662   6.612   1.906
 6314SOL    HW119841   3.699   6.704   1.897
 6314SOL    HW219842   3.567   6.617   1.937
 6315SOL     OW19843   3.859   2.909   6.734
 6315SOL    HW119844   3.771   2.891   6.690
 6315SOL    HW219845   3.919   2.957   6.670
 6316SOL     OW19846   4.519   2.568   6.124
 6316SOL    HW119847   4.524   2.468   6.114
 6316SOL    HW219848   4.594   2.599   6.181
 6317SOL     OW19849   5.280   5.613   3.628
 6317SOL    HW119850   5.263   5.711   3.616
 6317SOL    HW219851   5.377   5.594   3.615
 6318SOL     OW19852   3.027   2.021   5.211
 6318SOL    HW119853   3.104   2.041   5.150
 6318SOL    HW219854   3.011   1.922   5.214
 6319SOL     OW19855   7.000   2.788   3.458
 6319SOL    HW119856   0.050   2.815   3.390
 6319SOL    HW219857   6.921   2.848   3.451
 6320SOL     OW19858   6.060   4.611   4.249
 6320SOL    HW119859   6.157   4.620   4.272
 6320SOL    HW219860   6.015   4.699   4.262
 6321SOL     OW19861   3.459   5.128   1.334
 6321SOL    HW119862   3.396   5.182   1.278
 6321SOL    HW219863   3.539   5.184   1.359
 6322SOL     OW19864   1.354   2.253   6.529
 6322SOL    HW119865   1.264   2.268   6.569
 6322SOL    HW219866   1.344   2.220   6.435
 6323SOL     OW19867   3.337   2.538   1.017
 6323SOL    HW119868   3.409   2.607   1.022
 6323SOL    HW219869   3.377   2.446   1.018
 6324SOL     OW19870   4.675   0.674   6.120
 6324SOL    HW119871   4.690   0.769   6.097
 6324SOL    HW219872   4.605   0.635   6.060
 6325SOL     OW19873   1.252   1.870   1.969
 6325SOL    HW119874   1.162   1.857   1.927
 6325SOL    HW219875   1.316   1.804   1.930
 6326SOL     OW19876   5.549   5.881   1.368
 6326SOL    HW119877   5.555   5.843   1.275
 6326SOL    HW219878   5.641   5.900   1.402
 6327SOL     OW19879   6.932   0.295   5.143
 6327SOL    HW119880   6.960   0.215   5.091
 6327SOL    HW219881   6.977   0.376   5.107
 6328SOL     OW19882   1.811   3.726   0.396
 6328SOL    HW119883   1.732   3.782   0.420
 6328SOL    HW219884   1.783   3.655   0.331
 6329SOL     OW19885   1.750   2.466   3.193
 6329SOL    HW119886   1.670   2.516   3.226
 6329SOL    HW219887   1.721   2.377   3.158
 6330SOL     OW19888   4.636   0.759   1.251
 6330SOL    HW119889   4.715   0.728   1.305
 6330SOL    HW219890   4.594   0.680   1.205
 6331SOL     OW19891   6.090   2.400   0.668
 6331SOL    HW119892   6.106   2.442   0.757
 6331SOL    HW219893   6.177   2.385   0.622
 6332SOL     OW19894   6.626   4.588   2.065
 6332SOL    HW119895   6.549   4.527   2.086
 6332SOL    HW219896   6.697   4.578   2.135
 6333SOL     OW19897   3.709   4.969   4.208
 6333SOL    HW119898   3.633   4.905   4.202
 6333SOL    HW219899   3.765   4.947   4.289
 6334SOL     OW19900   2.017   0.318   2.545
 6334SOL    HW119901   2.020   0.294   2.642
 6334SOL    HW219902   2.028   0.416   2.534
 6335SOL     OW19903   5.300   1.565   0.921
 6335SOL    HW119904   5.292   1.478   0.871
 6335SOL    HW219905   5.211   1.591   0.958
 6336SOL     OW19906   7.002   2.357   5.859
 6336SOL    HW119907   7.013   2.276   5.916
 6336SOL    HW219908   0.032   2.344   5.772
 6337SOL     OW19909   4.888   3.621   6.554
 6337SOL    HW119910   4.958   3.560   6.517
 6337SOL    HW219911   4.912   3.716   6.532
 6338SOL     OW19912   2.704   2.213   2.365
 6338SOL    HW119913   2.788   2.220   2.311
 6338SOL    HW219914   2.648   2.137   2.330
 6339SOL     OW19915   0.648   2.484   3.824
 6339SOL    HW119916   0.657   2.556   3.754
 6339SOL    HW219917   0.733   2.478   3.876
 6340SOL     OW19918   2.582   5.352   3.234
 6340SOL    HW119919   2.495   5.302   3.231
 6340SOL    HW219920   2.584   5.410   3.315
 6341SOL     OW19921   0.502   5.056   3.313
 6341SOL    HW119922   0.597   5.064   3.345
 6341SOL    HW219923   0.440   5.096   3.381
 6342SOL     OW19924   2.603   1.413   1.827
 6342SOL    HW119925   2.634   1.492   1.774
 6342SOL    HW219926   2.545   1.444   1.902
 6343SOL     OW19927   4.801   2.453   6.854
 6343SOL    HW119928   4.767   2.431   6.763
 6343SOL    HW219929   4.739   2.518   6.898
 6344SOL     OW19930   6.168   3.469   5.852
 6344SOL    HW119931   6.257   3.516   5.851
 6344SOL    HW219932   6.130   3.474   5.945
 6345SOL     OW19933   4.432   1.219   1.895
 6345SOL    HW119934   4.525   1.196   1.922
 6345SOL    HW219935   4.426   1.317   1.875
 6346SOL     OW19936   6.676   3.742   3.522
 6346SOL    HW119937   6.704   3.693   3.605
 6346SOL    HW219938   6.576   3.749   3.519
 6347SOL     OW19939   2.470   0.480   1.746
 6347SOL    HW119940   2.551   0.463   1.691
 6347SOL    HW219941   2.434   0.572   1.726
 6348SOL     OW19942   1.249   3.757   5.375
 6348SOL    HW119943   1.161   3.714   5.351
 6348SOL    HW219944   1.279   3.814   5.299
 6349SOL     OW19945   2.695   0.586   1.305
 6349SOL    HW119946   2.655   0.496   1.291
 6349SOL    HW219947   2.751   0.611   1.226
 6350SOL     OW19948   2.381   4.907   3.865
 6350SOL    HW119949   2.349   4.995   3.899
 6350SOL    HW219950   2.321   4.834   3.898
 6351SOL     OW19951   6.566   2.776   2.356
 6351SOL    HW119952   6.538   2.736   2.269
 6351SOL    HW219953   6.664   2.762   2.370
 6352SOL     OW19954   1.917   5.075   4.442
 6352SOL    HW119955   1.888   5.149   4.503
 6352SOL    HW219956   1.977   5.013   4.491
 6353SOL     OW19957   6.479   0.788   6.316
 6353SOL    HW119958   6.395   0.748   6.351
 6353SOL    HW219959   6.557   0.754   6.368
 6354SOL     OW19960   1.006   0.288   2.569
 6354SOL    HW119961   0.917   0.246   2.589
 6354SOL    HW219962   1.079   0.230   2.603
 6355SOL     OW19963   0.861   5.061   5.228
 6355SOL    HW119964   0.881   5.147   5.183
 6355SOL    HW219965   0.796   5.009   5.173
 6356SOL     OW19966   4.790   4.884   1.794
 6356SOL    HW119967   4.815   4.893   1.890
 6356SOL    HW219968   4.864   4.839   1.743
 6357SOL     OW19969   4.961   2.708   1.678
 6357SOL    HW119970   4.872   2.751   1.689
 6357SOL    HW219971   5.007   2.744   1.597
 6358SOL     OW19972   0.704   2.313   5.155
 6358SOL    HW119973   0.797   2.279   5.140
 6358SOL    HW219974   0.670   2.278   5.242
 6359SOL     OW19975   5.852   0.225   6.164
 6359SOL    HW119976   5.927   0.287   6.140
 6359SOL    HW219977   5.886   0.156   6.227
 6360SOL     OW19978   2.202   4.274   4.155
 6360SOL    HW119979   2.186   4.326   4.071
 6360SOL    HW219980   2.156   4.185   4.148
 6361SOL     OW19981   5.584   6.993   0.027
 6361SOL    HW119982   5.546   6.901   0.024
 6361SOL    HW219983   5.684   6.987   0.027
 6362SOL     OW19984   5.781   5.384   6.816
 6362SOL    HW119985   5.803   5.482   6.819
 6362SOL    HW219986   5.735   5.363   6.730
 6363SOL     OW19987   2.419   4.863   3.234
 6363SOL    HW119988   2.510   4.866   3.276
 6363SOL    HW219989   2.427   4.835   3.139
 6364SOL     OW19990   2.904   1.210   5.758
 6364SOL    HW119991   2.995   1.246   5.738
 6364SOL    HW219992   2.845   1.283   5.792
 6365SOL     OW19993   4.854   6.638   4.230
 6365SOL    HW119994   4.797   6.703   4.280
 6365SOL    HW219995   4.941   6.627   4.279
 6366SOL     OW19996   0.293   6.301   5.992
 6366SOL    HW119997   0.227   6.376   5.999
 6366SOL    HW219998   0.277   6.236   6.066
 6367SOL     OW19999   4.304   0.613   4.124
 6367SOL    HW120000   4.379   0.618   4.059
 6367SOL    HW220001   4.290   0.702   4.167
 6368SOL     OW20002   3.080   6.907   3.639
 6368SOL    HW120003   3.167   6.950   3.663
 6368SOL    HW220004   3.097   6.817   3.598
 6369SOL     OW20005   2.748   5.004   4.868
 6369SOL    HW120006   2.786   4.935   4.930
 6369SOL    HW220007   2.652   4.985   4.851
 6370SOL     OW20008   1.559   3.107   3.075
 6370SOL    HW120009   1.538   3.200   3.046
 6370SOL    HW220010   1.654   3.102   3.106
 6371SOL     OW20011   4.955   3.366   3.868
 6371SOL    HW120012   4.969   3.268   3.853
 6371SOL    HW220013   4.890   3.379   3.943
 6372SOL     OW20014   2.881   7.013   1.847
 6372SOL    HW120015   2.938   0.072   1.872
 6372SOL    HW220016   2.812   0.023   1.780
 6373SOL     OW20017   6.303   4.333   3.897
 6373SOL    HW120018   6.274   4.322   3.993
 6373SOL    HW220019   6.324   4.429   3.879
 6374SOL     OW20020   3.440   3.862   3.973
 6374SOL    HW120021   3.437   3.794   4.046
 6374SOL    HW220022   3.464   3.951   4.011
 6375SOL     OW20023   0.847   1.436   3.989
 6375SOL    HW120024   0.777   1.399   3.927
 6375SOL    HW220025   0.910   1.362   4.014
 6376SOL     OW20026   6.235   2.106   5.342
 6376SOL    HW120027   6.145   2.149   5.336
 6376SOL    HW220028   6.305   2.173   5.317
 6377SOL     OW20029   6.659   1.824   6.163
 6377SOL    HW120030   6.713   1.803   6.245
 6377SOL    HW220031   6.686   1.763   6.088
 6378SOL     OW20032   5.777   4.905   3.415
 6378SOL    HW120033   5.856   4.844   3.402
 6378SOL    HW220034   5.796   4.969   3.490
 6379SOL     OW20035   2.268   4.687   4.685
 6379SOL    HW120036   2.325   4.606   4.700
 6379SOL    HW220037   2.236   4.722   4.773
 6380SOL     OW20038   1.228   1.403   5.288
 6380SOL    HW120039   1.178   1.329   5.331
 6380SOL    HW220040   1.317   1.370   5.255
 6381SOL     OW20041   3.530   3.214   2.979
 6381SOL    HW120042   3.602   3.204   2.910
 6381SOL    HW220043   3.463   3.281   2.946
 6382SOL     OW20044   1.366   2.835   0.610
 6382SOL    HW120045   1.428   2.770   0.568
 6382SOL    HW220046   1.329   2.896   0.539
 6383SOL     OW20047   2.184   2.433   3.270
 6383SOL    HW120048   2.128   2.407   3.191
 6383SOL    HW220049   2.281   2.419   3.248
 6384SOL     OW20050   5.159   4.470   1.573
 6384SOL    HW120051   5.187   4.560   1.539
 6384SOL    HW220052   5.074   4.479   1.624
 6385SOL     OW20053   6.656   5.108   3.975
 6385SOL    HW120054   6.722   5.143   4.042
 6385SOL    HW220055   6.705   5.072   3.896
 6386SOL     OW20056   2.153   4.201   0.009
 6386SOL    HW120057   2.109   4.111   0.003
 6386SOL    HW220058   2.252   4.190   0.002
 6387SOL     OW20059   0.603   1.897   6.507
 6387SOL    HW120060   0.697   1.925   6.489
 6387SOL    HW220061   0.541   1.975   6.495
 6388SOL     OW20062   4.467   4.343   1.616
 6388SOL    HW120063   4.435   4.263   1.669
 6388SOL    HW220064   4.533   4.394   1.670
 6389SOL     OW20065   0.722   5.611   2.121
 6389SOL    HW120066   0.653   5.672   2.082
 6389SOL    HW220067   0.722   5.619   2.221
 6390SOL     OW20068   0.860   2.403   3.988
 6390SOL    HW120069   0.785   2.367   4.044
 6390SOL    HW220070   0.932   2.335   3.979
 6391SOL     OW20071   2.880   0.323   6.396
 6391SOL    HW120072   2.885   0.406   6.452
 6391SOL    HW220073   2.966   0.314   6.345
 6392SOL     OW20074   2.453   6.625   3.525
 6392SOL    HW120075   2.474   6.530   3.551
 6392SOL    HW220076   2.367   6.626   3.473
 6393SOL     OW20077   6.032   6.556   1.406
 6393SOL    HW120078   6.052   6.577   1.311
 6393SOL    HW220079   6.075   6.469   1.431
 6394SOL     OW20080   2.433   4.261   0.899
 6394SOL    HW120081   2.340   4.279   0.868
 6394SOL    HW220082   2.495   4.329   0.860
 6395SOL     OW20083   5.552   2.301   2.007
 6395SOL    HW120084   5.616   2.368   1.968
 6395SOL    HW220085   5.554   2.218   1.951
 6396SOL     OW20086   5.552   2.668   6.381
 6396SOL    HW120087   5.511   2.621   6.459
 6396SOL    HW220088   5.644   2.700   6.405
 6397SOL     OW20089   6.008   1.738   6.910
 6397SOL    HW120090   5.972   1.651   6.945
 6397SOL    HW220091   6.091   1.720   6.857
 6398SOL     OW20092   3.422   0.722   0.757
 6398SOL    HW120093   3.499   0.663   0.733
 6398SOL    HW220094   3.389   0.768   0.675
 6399SOL     OW20095   1.871   5.226   6.394
 6399SOL    HW120096   1.917   5.147   6.433
 6399SOL    HW220097   1.923   5.259   6.315
 6400SOL     OW20098   2.197   5.619   3.302
 6400SOL    HW120099   2.161   5.709   3.276
 6400SOL    HW220100   2.274   5.631   3.364
 6401SOL     OW20101   6.991   4.484   3.492
 6401SOL    HW120102   0.072   4.483   3.482
 6401SOL    HW220103   6.949   4.453   3.406
 6402SOL     OW20104   2.828   0.764   2.983
 6402SOL    HW120105   2.818   0.828   2.907
 6402SOL    HW220106   2.744   0.763   3.037
 6403SOL     OW20107   0.812   6.196   6.715
 6403SOL    HW120108   0.729   6.197   6.771
 6403SOL    HW220109   0.866   6.278   6.735
 6404SOL     OW20110   4.124   1.303   2.885
 6404SOL    HW120111   4.191   1.248   2.935
 6404SOL    HW220112   4.050   1.329   2.947
 6405SOL     OW20113   1.834   1.675   3.286
 6405SOL    HW120114   1.850   1.751   3.222
 6405SOL    HW220115   1.906   1.674   3.354
 6406SOL     OW20116   1.635   2.621   3.776
 6406SOL    HW120117   1.627   2.577   3.687
 6406SOL    HW220118   1.726   2.661   3.786
 6407SOL     OW20119   3.022   6.342   3.066
 6407SOL    HW120120   3.068   6.256   3.044
 6407SOL    HW220121   3.044   6.411   2.997
 6408SOL     OW20122   6.406   2.489   0.007
 6408SOL    HW120123   6.457   2.451   0.085
 6408SOL    HW220124   6.452   2.571   6.992
 6409SOL     OW20125   0.039   4.333   3.258
 6409SOL    HW120126   0.117   4.270   3.257
 6409SOL    HW220127   0.067   4.421   3.221
 6410SOL     OW20128   1.497   1.728   0.469
 6410SOL    HW120129   1.526   1.633   0.465
 6410SOL    HW220130   1.438   1.742   0.548
 6411SOL     OW20131   1.127   2.592   3.456
 6411SOL    HW120132   1.029   2.609   3.457
 6411SOL    HW220133   1.160   2.577   3.549
 6412SOL     OW20134   6.932   2.685   5.345
 6412SOL    HW120135   6.917   2.696   5.247
 6412SOL    HW220136   6.890   2.761   5.394
 6413SOL     OW20137   5.472   4.671   2.554
 6413SOL    HW120138   5.486   4.595   2.617
 6413SOL    HW220139   5.379   4.707   2.564
 6414SOL     OW20140   5.949   0.782   1.927
 6414SOL    HW120141   6.020   0.788   1.997
 6414SOL    HW220142   5.970   0.707   1.865
 6415SOL     OW20143   3.183   2.082   2.525
 6415SOL    HW120144   3.227   2.086   2.436
 6415SOL    HW220145   3.212   2.000   2.574
 6416SOL     OW20146   0.765   0.597   6.061
 6416SOL    HW120147   0.678   0.616   6.015
 6416SOL    HW220148   0.784   0.499   6.057
 6417SOL     OW20149   0.447   5.057   2.794
 6417SOL    HW120150   0.445   5.014   2.884
 6417SOL    HW220151   0.366   5.031   2.742
 6418SOL     OW20152   6.683   4.874   2.373
 6418SOL    HW120153   6.642   4.790   2.337
 6418SOL    HW220154   6.782   4.861   2.385
 6419SOL     OW20155   3.060   5.151   2.191
 6419SOL    HW120156   3.042   5.226   2.255
 6419SOL    HW220157   2.989   5.081   2.201
 6420SOL     OW20158   2.909   3.580   5.706
 6420SOL    HW120159   2.875   3.528   5.784
 6420SOL    HW220160   2.891   3.677   5.720
 6421SOL     OW20161   5.916   1.607   1.893
 6421SOL    HW120162   5.913   1.509   1.911
 6421SOL    HW220163   5.859   1.655   1.960
 6422SOL     OW20164   6.381   0.368   3.849
 6422SOL    HW120165   6.393   0.274   3.880
 6422SOL    HW220166   6.398   0.373   3.751
 6423SOL     OW20167   4.617   4.398   2.118
 6423SOL    HW120168   4.688   4.328   2.125
 6423SOL    HW220169   4.545   4.366   2.057
 6424SOL     OW20170   6.643   5.014   5.712
 6424SOL    HW120171   6.684   5.087   5.657
 6424SOL    HW220172   6.634   4.931   5.657
 6425SOL     OW20173   6.943   5.565   4.399
 6425SOL    HW120174   6.912   5.474   4.370
 6425SOL    HW220175   6.946   5.569   4.499
 6426SOL     OW20176   0.787   3.778   3.915
 6426SOL    HW120177   0.844   3.730   3.849
 6426SOL    HW220178   0.692   3.775   3.885
 6427SOL     OW20179   1.615   2.997   0.084
 6427SOL    HW120180   1.675   3.068   0.121
 6427SOL    HW220181   1.669   2.931   0.032
 6428SOL     OW20182   6.151   3.500   0.906
 6428SOL    HW120183   6.154   3.408   0.867
 6428SOL    HW220184   6.240   3.521   0.949
 6429SOL     OW20185   0.980   1.102   4.923
 6429SOL    HW120186   0.925   1.105   4.840
 6429SOL    HW220187   0.932   1.049   4.993
 6430SOL     OW20188   4.741   1.584   1.722
 6430SOL    HW120189   4.772   1.619   1.634
 6430SOL    HW220190   4.734   1.484   1.718
 6431SOL     OW20191   5.819   0.070   3.260
 6431SOL    HW120192   5.766   7.009   3.289
 6431SOL    HW220193   5.917   0.047   3.261
 6432SOL     OW20194   4.682   4.257   0.440
 6432SOL    HW120195   4.734   4.332   0.398
 6432SOL    HW220196   4.745   4.185   0.469
 6433SOL     OW20197   3.295   4.602   1.220
 6433SOL    HW120198   3.291   4.507   1.251
 6433SOL    HW220199   3.224   4.655   1.266
 6434SOL     OW20200   1.154   3.303   1.163
 6434SOL    HW120201   1.160   3.204   1.169
 6434SOL    HW220202   1.101   3.339   1.240
 6435SOL     OW20203   3.958   5.255   6.699
 6435SOL    HW120204   3.989   5.336   6.748
 6435SOL    HW220205   3.977   5.174   6.753
 6436SOL     OW20206   2.192   3.177   4.143
 6436SOL    HW120207   2.163   3.271   4.163
 6436SOL    HW220208   2.209   3.129   4.228
 6437SOL     OW20209   1.399   1.040   0.862
 6437SOL    HW120210   1.380   0.953   0.816
 6437SOL    HW220211   1.490   1.038   0.902
 6438SOL     OW20212   6.722   4.511   5.579
 6438SOL    HW120213   6.653   4.520   5.508
 6438SOL    HW220214   6.723   4.417   5.612
 6439SOL     OW20215   0.298   6.556   1.316
 6439SOL    HW120216   0.220   6.494   1.310
 6439SOL    HW220217   0.334   6.555   1.409
 6440SOL     OW20218   2.074   1.500   2.076
 6440SOL    HW120219   2.098   1.411   2.039
 6440SOL    HW220220   2.022   1.552   2.009
 6441SOL     OW20221   0.687   6.937   2.515
 6441SOL    HW120222   0.677   0.008   2.471
 6441SOL    HW220223   0.736   6.876   2.454
 6442SOL     OW20224   1.435   1.415   3.721
 6442SOL    HW120225   1.338   1.440   3.715
 6442SOL    HW220226   1.444   1.320   3.750
 6443SOL     OW20227   3.140   2.861   0.786
 6443SOL    HW120228   3.089   2.815   0.713
 6443SOL    HW220229   3.110   2.825   0.874
 6444SOL     OW20230   0.806   2.654   3.564
 6444SOL    HW120231   0.821   2.726   3.496
 6444SOL    HW220232   0.821   2.565   3.521
 6445SOL     OW20233   4.806   2.567   5.617
 6445SOL    HW120234   4.859   2.483   5.626
 6445SOL    HW220235   4.750   2.580   5.699
 6446SOL     OW20236   0.575   2.394   6.093
 6446SOL    HW120237   0.494   2.383   6.150
 6446SOL    HW220238   0.653   2.346   6.134
 6447SOL     OW20239   0.486   6.227   2.444
 6447SOL    HW120240   0.400   6.186   2.474
 6447SOL    HW220241   0.556   6.212   2.513
 6448SOL     OW20242   6.243   4.675   2.458
 6448SOL    HW120243   6.251   4.592   2.403
 6448SOL    HW220244   6.162   4.669   2.516
 6449SOL     OW20245   3.803   4.462   1.402
 6449SOL    HW120246   3.843   4.497   1.317
 6449SOL    HW220247   3.774   4.368   1.389
 6450SOL     OW20248   6.972   2.945   1.475
 6450SOL    HW120249   6.898   2.996   1.431
 6450SOL    HW220250   0.042   2.985   1.450
 6451SOL     OW20251   2.974   6.213   5.364
 6451SOL    HW120252   2.908   6.138   5.365
 6451SOL    HW220253   2.974   6.259   5.453
 6452SOL     OW20254   3.556   6.290   5.165
 6452SOL    HW120255   3.611   6.312   5.246
 6452SOL    HW220256   3.459   6.286   5.190
 6453SOL     OW20257   2.042   6.513   6.763
 6453SOL    HW120258   1.958   6.460   6.773
 6453SOL    HW220259   2.101   6.499   6.842
 6454SOL     OW20260   3.135   0.866   3.720
 6454SOL    HW120261   3.164   0.832   3.810
 6454SOL    HW220262   3.197   0.833   3.650
 6455SOL     OW20263   0.809   2.142   4.341
 6455SOL    HW120264   0.811   2.191   4.428
 6455SOL    HW220265   0.826   2.206   4.266
 6456SOL     OW20266   1.162   0.268   3.467
 6456SOL    HW120267   1.111   0.188   3.435
 6456SOL    HW220268   1.259   0.257   3.445
 6457SOL     OW20269   5.278   1.244   1.203
 6457SOL    HW120270   5.271   1.153   1.163
 6457SOL    HW220271   5.355   1.293   1.163
 6458SOL     OW20272   1.321   6.054   2.866
 6458SOL    HW120273   1.377   6.135   2.883
 6458SOL    HW220274   1.359   5.977   2.917
 6459SOL     OW20275   5.740   5.843   0.848
 6459SOL    HW120276   5.706   5.928   0.808
 6459SOL    HW220277   5.837   5.831   0.824
 6460SOL     OW20278   4.213   5.517   6.137
 6460SOL    HW120279   4.286   5.514   6.069
 6460SOL    HW220280   4.246   5.475   6.222
 6461SOL     OW20281   2.977   5.202   4.822
 6461SOL    HW120282   3.003   5.222   4.917
 6461SOL    HW220283   2.920   5.120   4.819
 6462SOL     OW20284   2.462   2.808   5.347
 6462SOL    HW120285   2.444   2.882   5.282
 6462SOL    HW220286   2.554   2.772   5.331
 6463SOL     OW20287   1.496   4.320   6.141
 6463SOL    HW120288   1.412   4.268   6.159
 6463SOL    HW220289   1.564   4.259   6.099
 6464SOL     OW20290   0.673   5.063   4.787
 6464SOL    HW120291   0.772   5.055   4.785
 6464SOL    HW220292   0.644   5.139   4.729
 6465SOL     OW20293   6.314   2.569   3.870
 6465SOL    HW120294   6.352   2.509   3.941
 6465SOL    HW220295   6.226   2.605   3.900
 6466SOL     OW20296   0.293   2.235   6.068
 6466SOL    HW120297   0.214   2.190   6.027
 6466SOL    HW220298   0.377   2.190   6.039
 6467SOL     OW20299   2.912   0.879   6.648
 6467SOL    HW120300   2.941   0.849   6.739
 6467SOL    HW220301   2.848   0.955   6.656
 6468SOL     OW20302   4.145   6.267   1.376
 6468SOL    HW120303   4.119   6.288   1.282
 6468SOL    HW220304   4.163   6.169   1.385
 6469SOL     OW20305   4.984   0.952   5.120
 6469SOL    HW120306   4.914   0.894   5.161
 6469SOL    HW220307   4.946   1.000   5.041
 6470SOL     OW20308   6.308   4.896   6.396
 6470SOL    HW120309   6.360   4.980   6.376
 6470SOL    HW220310   6.212   4.910   6.369
 6471SOL     OW20311   6.324   5.554   5.982
 6471SOL    HW120312   6.250   5.584   6.042
 6471SOL    HW220313   6.322   5.606   5.897
 6472SOL     OW20314   0.383   4.822   0.738
 6472SOL    HW120315   0.482   4.805   0.744
 6472SOL    HW220316   0.367   4.911   0.696
 6473SOL     OW20317   2.163   1.749   5.305
 6473SOL    HW120318   2.161   1.764   5.206
 6473SOL    HW220319   2.087   1.797   5.348
 6474SOL     OW20320   1.635   3.748   5.861
 6474SOL    HW120321   1.666   3.815   5.928
 6474SOL    HW220322   1.535   3.745   5.860
 6475SOL     OW20323   6.354   5.762   4.806
 6475SOL    HW120324   6.308   5.722   4.886
 6475SOL    HW220325   6.296   5.833   4.766
 6476SOL     OW20326   4.709   3.611   1.544
 6476SOL    HW120327   4.634   3.678   1.538
 6476SOL    HW220328   4.737   3.585   1.452
 6477SOL     OW20329   0.216   5.088   0.947
 6477SOL    HW120330   0.171   4.999   0.957
 6477SOL    HW220331   0.159   5.159   0.988
 6478SOL     OW20332   3.372   6.141   2.245
 6478SOL    HW120333   3.384   6.081   2.166
 6478SOL    HW220334   3.390   6.236   2.217
 6479SOL     OW20335   4.156   5.217   2.681
 6479SOL    HW120336   4.169   5.190   2.777
 6479SOL    HW220337   4.076   5.276   2.674
 6480SOL     OW20338   3.852   3.086   5.506
 6480SOL    HW120339   3.930   3.052   5.558
 6480SOL    HW220340   3.852   3.186   5.506
 6481SOL     OW20341   3.418   2.340   1.657
 6481SOL    HW120342   3.388   2.431   1.629
 6481SOL    HW220343   3.501   2.347   1.712
 6482SOL     OW20344   0.134   0.700   6.143
 6482SOL    HW120345   0.069   0.717   6.217
 6482SOL    HW220346   0.097   0.629   6.083
 6483SOL     OW20347   2.564   5.781   1.873
 6483SOL    HW120348   2.532   5.699   1.920
 6483SOL    HW220349   2.497   5.855   1.885
 6484SOL     OW20350   3.779   0.579   3.102
 6484SOL    HW120351   3.747   0.659   3.052
 6484SOL    HW220352   3.732   0.498   3.068
 6485SOL     OW20353   1.421   3.828   3.526
 6485SOL    HW120354   1.361   3.902   3.556
 6485SOL    HW220355   1.408   3.748   3.586
 6486SOL     OW20356   0.850   4.753   3.690
 6486SOL    HW120357   0.765   4.780   3.645
 6486SOL    HW220358   0.873   4.659   3.664
 6487SOL     OW20359   5.769   5.778   5.375
 6487SOL    HW120360   5.767   5.795   5.473
 6487SOL    HW220361   5.717   5.848   5.327
 6488SOL     OW20362   3.163   5.921   5.027
 6488SOL    HW120363   3.243   5.862   5.035
 6488SOL    HW220364   3.080   5.865   5.019
 6489SOL     OW20365   2.004   3.298   6.762
 6489SOL    HW120366   2.069   3.319   6.689
 6489SOL    HW220367   2.049   3.310   6.850
 6490SOL     OW20368   4.046   2.174   6.625
 6490SOL    HW120369   4.079   2.201   6.534
 6490SOL    HW220370   3.949   2.199   6.633
 6491SOL     OW20371   4.229   1.217   6.412
 6491SOL    HW120372   4.311   1.238   6.359
 6491SOL    HW220373   4.222   1.118   6.426
 6492SOL     OW20374   6.144   6.195   6.743
 6492SOL    HW120375   6.104   6.278   6.781
 6492SOL    HW220376   6.076   6.121   6.747
 6493SOL     OW20377   1.400   5.994   5.192
 6493SOL    HW120378   1.307   6.027   5.207
 6493SOL    HW220379   1.399   5.894   5.185
 6494SOL     OW20380   0.658   0.765   3.542
 6494SOL    HW120381   0.690   0.689   3.486
 6494SOL    HW220382   0.609   0.730   3.622
 6495SOL     OW20383   5.282   6.249   3.889
 6495SOL    HW120384   5.302   6.160   3.848
 6495SOL    HW220385   5.183   6.258   3.900
 6496SOL     OW20386   6.882   6.613   2.195
 6496SOL    HW120387   6.862   6.627   2.098
 6496SOL    HW220388   6.853   6.521   2.221
 6497SOL     OW20389   2.179   3.165   0.201
 6497SOL    HW120390   2.263   3.193   0.249
 6497SOL    HW220391   2.194   3.076   0.158
 6498SOL     OW20392   2.638   4.653   4.385
 6498SOL    HW120393   2.638   4.674   4.288
 6498SOL    HW220394   2.598   4.563   4.401
 6499SOL     OW20395   5.780   1.467   5.171
 6499SOL    HW120396   5.860   1.441   5.118
 6499SOL    HW220397   5.701   1.477   5.109
 6500SOL     OW20398   6.974   4.726   3.867
 6500SOL    HW120399   7.013   4.799   3.923
 6500SOL    HW220400   6.982   4.751   3.771
 6501SOL     OW20401   6.390   2.870   1.017
 6501SOL    HW120402   6.348   2.782   1.042
 6501SOL    HW220403   6.443   2.859   0.933
 6502SOL     OW20404   6.912   3.671   3.456
 6502SOL    HW120405   6.813   3.683   3.467
 6502SOL    HW220406   6.959   3.754   3.484
 6503SOL     OW20407   5.405   0.093   3.356
 6503SOL    HW120408   5.480   0.118   3.417
 6503SOL    HW220409   5.386   7.014   3.366
 6504SOL     OW20410   4.457   6.762   6.359
 6504SOL    HW120411   4.465   6.857   6.389
 6504SOL    HW220412   4.444   6.703   6.439
 6505SOL     OW20413   6.273   4.659   1.393
 6505SOL    HW120414   6.309   4.666   1.486
 6505SOL    HW220415   6.297   4.742   1.341
 6506SOL     OW20416   0.693   3.121   0.697
 6506SOL    HW120417   0.738   3.208   0.714
 6506SOL    HW220418   0.632   3.131   0.618
 6507SOL     OW20419   1.455   5.851   6.655
 6507SOL    HW120420   1.542   5.810   6.681
 6507SOL    HW220421   1.380   5.803   6.702
 6508SOL     OW20422   1.962   2.078   3.576
 6508SOL    HW120423   2.002   2.158   3.532
 6508SOL    HW220424   2.013   1.996   3.548
 6509SOL     OW20425   1.947   2.507   4.677
 6509SOL    HW120426   1.881   2.458   4.735
 6509SOL    HW220427   1.944   2.470   4.584
 6510SOL     OW20428   0.697   5.491   6.955
 6510SOL    HW120429   0.741   5.426   6.893
 6510SOL    HW220430   0.702   5.458   0.030
 6511SOL     OW20431   5.744   0.580   4.748
 6511SOL    HW120432   5.703   0.625   4.668
 6511SOL    HW220433   5.828   0.535   4.720
 6512SOL     OW20434   4.437   0.355   2.863
 6512SOL    HW120435   4.511   0.296   2.894
 6512SOL    HW220436   4.368   0.362   2.935
 6513SOL     OW20437   3.596   6.213   4.092
 6513SOL    HW120438   3.571   6.257   4.006
 6513SOL    HW220439   3.683   6.251   4.125
 6514SOL     OW20440   5.631   0.365   3.091
 6514SOL    HW120441   5.652   0.446   3.036
 6514SOL    HW220442   5.570   0.391   3.166
 6515SOL     OW20443   0.221   5.565   4.194
 6515SOL    HW120444   0.165   5.647   4.205
 6515SOL    HW220445   0.224   5.540   4.097
 6516SOL     OW20446   0.274   1.875   0.533
 6516SOL    HW120447   0.265   1.975   0.536
 6516SOL    HW220448   0.276   1.839   0.626
 6517SOL     OW20449   6.311   1.466   0.861
 6517SOL    HW120450   6.334   1.434   0.770
 6517SOL    HW220451   6.212   1.477   0.869
 6518SOL     OW20452   0.457   6.231   0.055
 6518SOL    HW120453   0.455   6.136   0.085
 6518SOL    HW220454   0.459   6.291   0.135
 6519SOL     OW20455   2.139   1.839   3.356
 6519SOL    HW120456   2.190   1.925   3.346
 6519SOL    HW220457   2.181   1.769   3.298
 6520SOL     OW20458   6.570   5.660   3.555
 6520SOL    HW120459   6.546   5.632   3.462
 6520SOL    HW220460   6.491   5.704   3.598
 6521SOL     OW20461   0.719   0.852   4.545
 6521SOL    HW120462   0.750   0.946   4.536
 6521SOL    HW220463   0.764   0.794   4.477
 6522SOL     OW20464   3.139   4.574   6.815
 6522SOL    HW120465   3.204   4.569   6.738
 6522SOL    HW220466   3.153   4.659   6.865
 6523SOL     OW20467   2.588   1.702   6.537
 6523SOL    HW120468   2.505   1.757   6.541
 6523SOL    HW220469   2.608   1.677   6.442
 6524SOL     OW20470   3.493   3.123   3.386
 6524SOL    HW120471   3.553   3.202   3.372
 6524SOL    HW220472   3.401   3.146   3.356
 6525SOL     OW20473   2.276   2.876   2.954
 6525SOL    HW120474   2.182   2.866   2.986
 6525SOL    HW220475   2.290   2.820   2.873
 6526SOL     OW20476   1.035   6.221   4.522
 6526SOL    HW120477   1.077   6.246   4.609
 6526SOL    HW220478   1.034   6.121   4.513
 6527SOL     OW20479   0.493   1.415   4.828
 6527SOL    HW120480   0.523   1.346   4.894
 6527SOL    HW220481   0.431   1.479   4.872
 6528SOL     OW20482   0.004   0.940   3.912
 6528SOL    HW120483   0.056   1.012   3.958
 6528SOL    HW220484   7.007   0.864   3.976
 6529SOL     OW20485   5.372   1.986   3.722
 6529SOL    HW120486   5.449   2.001   3.660
 6529SOL    HW220487   5.294   2.042   3.691
 6530SOL     OW20488   6.742   3.274   0.902
 6530SOL    HW120489   6.793   3.251   0.985
 6530SOL    HW220490   6.770   3.364   0.869
 6531SOL     OW20491   5.157   3.063   4.051
 6531SOL    HW120492   5.211   2.997   4.104
 6531SOL    HW220493   5.215   3.107   3.983
 6532SOL     OW20494   5.529   1.406   1.138
 6532SOL    HW120495   5.519   1.495   1.183
 6532SOL    HW220496   5.552   1.420   1.041
 6533SOL     OW20497   5.506   5.800   1.807
 6533SOL    HW120498   5.435   5.760   1.749
 6533SOL    HW220499   5.515   5.897   1.786
 6534SOL     OW20500   2.673   4.475   1.683
 6534SOL    HW120501   2.652   4.400   1.621
 6534SOL    HW220502   2.746   4.448   1.746
 6535SOL     OW20503   0.449   2.823   4.813
 6535SOL    HW120504   0.468   2.838   4.910
 6535SOL    HW220505   0.515   2.757   4.776
 6536SOL     OW20506   6.875   2.842   5.775
 6536SOL    HW120507   6.795   2.854   5.834
 6536SOL    HW220508   6.890   2.744   5.761
 6537SOL     OW20509   6.573   5.668   7.009
 6537SOL    HW120510   6.648   5.602   7.000
 6537SOL    HW220511   6.566   5.722   6.925
 6538SOL     OW20512   3.737   4.086   0.195
 6538SOL    HW120513   3.816   4.070   0.254
 6538SOL    HW220514   3.749   4.173   0.147
 6539SOL     OW20515   2.374   1.817   6.376
 6539SOL    HW120516   2.286   1.770   6.386
 6539SOL    HW220517   2.360   1.905   6.332
 6540SOL     OW20518   4.345   1.854   4.997
 6540SOL    HW120519   4.391   1.851   4.908
 6540SOL    HW220520   4.356   1.766   5.043
 6541SOL     OW20521   2.985   2.217   4.676
 6541SOL    HW120522   2.891   2.203   4.708
 6541SOL    HW220523   3.035   2.274   4.741
 6542SOL     OW20524   6.798   4.193   3.259
 6542SOL    HW120525   6.889   4.233   3.271
 6542SOL    HW220526   6.802   4.096   3.280
 6543SOL     OW20527   6.445   5.056   0.129
 6543SOL    HW120528   6.545   5.052   0.128
 6543SOL    HW220529   6.409   4.968   0.160
 6544SOL     OW20530   0.834   6.311   3.638
 6544SOL    HW120531   0.801   6.218   3.619
 6544SOL    HW220532   0.766   6.377   3.607
 6545SOL     OW20533   4.754   1.737   6.165
 6545SOL    HW120534   4.841   1.784   6.175
 6545SOL    HW220535   4.751   1.690   6.076
 6546SOL     OW20536   4.524   4.140   6.307
 6546SOL    HW120537   4.599   4.196   6.272
 6546SOL    HW220538   4.438   4.190   6.299
 6547SOL     OW20539   4.241   1.475   5.573
 6547SOL    HW120540   4.221   1.532   5.653
 6547SOL    HW220541   4.190   1.390   5.579
 6548SOL     OW20542   0.774   3.995   6.656
 6548SOL    HW120543   0.795   4.086   6.694
 6548SOL    HW220544   0.675   3.983   6.650
 6549SOL     OW20545   3.212   1.216   0.765
 6549SOL    HW120546   3.294   1.162   0.786
 6549SOL    HW220547   3.150   1.214   0.844
 6550SOL     OW20548   0.228   6.082   3.136
 6550SOL    HW120549   0.238   6.121   3.044
 6550SOL    HW220550   0.310   6.031   3.160
 6551SOL     OW20551   2.108   4.076   2.666
 6551SOL    HW120552   2.155   4.027   2.593
 6551SOL    HW220553   2.009   4.071   2.651
 6552SOL     OW20554   2.606   6.217   4.402
 6552SOL    HW120555   2.609   6.195   4.305
 6552SOL    HW220556   2.512   6.212   4.435
 6553SOL     OW20557   0.259   2.490   1.224
 6553SOL    HW120558   0.306   2.544   1.295
 6553SOL    HW220559   0.161   2.507   1.229
 6554SOL     OW20560   5.836   1.719   5.821
 6554SOL    HW120561   5.816   1.811   5.787
 6554SOL    HW220562   5.896   1.672   5.756
 6555SOL     OW20563   1.933   1.017   2.575
 6555SOL    HW120564   2.006   0.971   2.625
 6555SOL    HW220565   1.917   1.108   2.614
 6556SOL     OW20566   4.627   4.684   5.100
 6556SOL    HW120567   4.608   4.715   5.192
 6556SOL    HW220568   4.656   4.761   5.043
 6557SOL     OW20569   5.243   5.630   1.098
 6557SOL    HW120570   5.271   5.607   1.191
 6557SOL    HW220571   5.318   5.679   1.052
 6558SOL     OW20572   6.826   5.406   1.099
 6558SOL    HW120573   6.919   5.384   1.068
 6558SOL    HW220574   6.761   5.385   1.026
 6559SOL     OW20575   6.130   3.793   0.954
 6559SOL    HW120576   6.226   3.802   0.984
 6559SOL    HW220577   6.093   3.708   0.989
 6560SOL     OW20578   3.861   2.701   1.701
 6560SOL    HW120579   3.898   2.608   1.693
 6560SOL    HW220580   3.762   2.697   1.715
 6561SOL     OW20581   3.760   3.931   2.644
 6561SOL    HW120582   3.797   3.840   2.660
 6561SOL    HW220583   3.753   3.980   2.731
 6562SOL     OW20584   6.014   4.667   6.444
 6562SOL    HW120585   6.111   4.668   6.419
 6562SOL    HW220586   5.963   4.611   6.378
 6563SOL     OW20587   0.862   6.280   0.095
 6563SOL    HW120588   0.819   6.205   0.145
 6563SOL    HW220589   0.793   6.331   0.045
 6564SOL     OW20590   1.431   3.583   1.995
 6564SOL    HW120591   1.370   3.603   1.919
 6564SOL    HW220592   1.520   3.626   1.979
 6565SOL     OW20593   6.449   2.011   5.004
 6565SOL    HW120594   6.480   1.959   4.924
 6565SOL    HW220595   6.431   1.948   5.080
 6566SOL     OW20596   3.072   6.811   1.747
 6566SOL    HW120597   3.004   6.872   1.788
 6566SOL    HW220598   3.163   6.836   1.779
 6567SOL     OW20599   4.195   2.575   1.454
 6567SOL    HW120600   4.109   2.592   1.406
 6567SOL    HW220601   4.270   2.618   1.404
 6568SOL     OW20602   4.802   4.988   2.113
 6568SOL    HW120603   4.728   4.935   2.154
 6568SOL    HW220604   4.766   5.072   2.073
 6569SOL     OW20605   3.191   4.843   1.070
 6569SOL    HW120606   3.208   4.844   0.971
 6569SOL    HW220607   3.218   4.755   1.108
 6570SOL     OW20608   4.885   6.868   1.163
 6570SOL    HW120609   4.858   6.863   1.259
 6570SOL    HW220610   4.839   6.794   1.112
 6571SOL     OW20611   1.914   6.488   2.597
 6571SOL    HW120612   1.860   6.405   2.582
 6571SOL    HW220613   2.011   6.465   2.588
 6572SOL     OW20614   6.021   4.833   4.844
 6572SOL    HW120615   6.109   4.794   4.817
 6572SOL    HW220616   5.952   4.761   4.847
 6573SOL     OW20617   3.351   0.912   3.161
 6573SOL    HW120618   3.299   0.827   3.166
 6573SOL    HW220619   3.301   0.979   3.105
 6574SOL     OW20620   2.403   6.231   2.056
 6574SOL    HW120621   2.449   6.320   2.066
 6574SOL    HW220622   2.375   6.219   1.961
 6575SOL     OW20623   0.585   1.448   1.592
 6575SOL    HW120624   0.565   1.363   1.543
 6575SOL    HW220625   0.683   1.453   1.611
 6576SOL     OW20626   1.474   6.240   6.314
 6576SOL    HW120627   1.528   6.233   6.398
 6576SOL    HW220628   1.390   6.187   6.324
 6577SOL     OW20629   6.975   1.070   3.661
 6577SOL    HW120630   6.998   1.022   3.576
 6577SOL    HW220631   6.997   1.011   3.739
 6578SOL     OW20632   6.840   5.266   3.020
 6578SOL    HW120633   6.809   5.358   2.998
 6578SOL    HW220634   6.821   5.246   3.116
 6579SOL     OW20635   0.041   4.399   4.597
 6579SOL    HW120636   0.059   4.320   4.538
 6579SOL    HW220637   0.019   4.478   4.540
 6580SOL     OW20638   5.998   1.252   1.289
 6580SOL    HW120639   5.911   1.255   1.338
 6580SOL    HW220640   6.065   1.308   1.337
 6581SOL     OW20641   3.796   0.874   5.621
 6581SOL    HW120642   3.830   0.839   5.534
 6581SOL    HW220643   3.718   0.934   5.604
 6582SOL     OW20644   1.595   6.936   2.231
 6582SOL    HW120645   1.583   6.898   2.140
 6582SOL    HW220646   1.628   6.865   2.293
 6583SOL     OW20647   4.485   1.200   6.296
 6583SOL    HW120648   4.533   1.189   6.383
 6583SOL    HW220649   4.493   1.296   6.266
 6584SOL     OW20650   5.241   1.249   6.931
 6584SOL    HW120651   5.214   1.300   7.012
 6584SOL    HW220652   5.169   1.254   6.862
 6585SOL     OW20653   6.707   0.962   0.593
 6585SOL    HW120654   6.790   0.969   0.538
 6585SOL    HW220655   6.638   0.910   0.542
 6586SOL     OW20656   6.263   2.272   5.674
 6586SOL    HW120657   6.178   2.220   5.663
 6586SOL    HW220658   6.335   2.211   5.709
 6587SOL     OW20659   3.208   5.873   4.675
 6587SOL    HW120660   3.185   5.939   4.746
 6587SOL    HW220661   3.143   5.797   4.677
 6588SOL     OW20662   1.732   3.972   1.480
 6588SOL    HW120663   1.731   4.069   1.456
 6588SOL    HW220664   1.711   3.961   1.577
 6589SOL     OW20665   4.652   0.498   6.833
 6589SOL    HW120666   4.646   0.483   6.932
 6589SOL    HW220667   4.663   0.596   6.815
 6590SOL     OW20668   0.575   1.915   5.396
 6590SOL    HW120669   0.622   1.915   5.308
 6590SOL    HW220670   0.490   1.967   5.388
 6591SOL     OW20671   5.731   6.147   2.285
 6591SOL    HW120672   5.829   6.148   2.267
 6591SOL    HW220673   5.681   6.150   2.198
 6592SOL     OW20674   4.815   6.636   3.801
 6592SOL    HW120675   4.879   6.613   3.874
 6592SOL    HW220676   4.758   6.714   3.830
 6593SOL     OW20677   2.094   2.653   3.695
 6593SOL    HW120678   2.022   2.585   3.683
 6593SOL    HW220679   2.058   2.743   3.672
 6594SOL     OW20680   3.939   1.148   0.213
 6594SOL    HW120681   3.847   1.111   0.206
 6594SOL    HW220682   3.977   1.163   0.121
 6595SOL     OW20683   0.495   3.963   1.534
 6595SOL    HW120684   0.539   4.053   1.533
 6595SOL    HW220685   0.430   3.956   1.459
 6596SOL     OW20686   4.150   7.011   5.175
 6596SOL    HW120687   4.211   0.040   5.110
 6596SOL    HW220688   4.065   0.045   5.185
 6597SOL     OW20689   1.096   6.470   3.650
 6597SOL    HW120690   1.124   6.566   3.656
 6597SOL    HW220691   0.998   6.465   3.629
 6598SOL     OW20692   1.967   6.028   5.286
 6598SOL    HW120693   1.898   6.038   5.214
 6598SOL    HW220694   1.923   6.032   5.376
 6599SOL     OW20695   4.050   5.296   5.729
 6599SOL    HW120696   3.954   5.303   5.701
 6599SOL    HW220697   4.106   5.271   5.650
 6600SOL     OW20698   4.997   4.929   4.849
 6600SOL    HW120699   4.981   5.003   4.784
 6600SOL    HW220700   5.002   4.966   4.941
 6601SOL     OW20701   0.888   0.190   0.672
 6601SOL    HW120702   0.928   0.259   0.732
 6601SOL    HW220703   0.821   0.136   0.724
 6602SOL     OW20704   6.984   1.722   1.490
 6602SOL    HW120705   7.014   1.762   1.577
 6602SOL    HW220706   6.893   1.683   1.501
 6603SOL     OW20707   1.543   2.989   4.257
 6603SOL    HW120708   1.635   3.028   4.264
 6603SOL    HW220709   1.548   2.890   4.274
 6604SOL     OW20710   2.610   6.036   1.368
 6604SOL    HW120711   2.641   5.960   1.425
 6604SOL    HW220712   2.688   6.092   1.341
 6605SOL     OW20713   4.763   4.601   0.783
 6605SOL    HW120714   4.772   4.570   0.689
 6605SOL    HW220715   4.692   4.547   0.829
 6606SOL     OW20716   4.756   6.695   2.055
 6606SOL    HW120717   4.670   6.734   2.025
 6606SOL    HW220718   4.778   6.727   2.147
 6607SOL     OW20719   2.077   1.253   1.921
 6607SOL    HW120720   2.090   1.249   1.821
 6607SOL    HW220721   1.989   1.213   1.945
 6608SOL     OW20722   5.152   4.258   2.487
 6608SOL    HW120723   5.240   4.249   2.439
 6608SOL    HW220724   5.078   4.260   2.419
 6609SOL     OW20725   5.020   1.045   6.531
 6609SOL    HW120726   4.960   0.982   6.481
 6609SOL    HW220727   5.087   0.993   6.583
 6610SOL     OW20728   2.207   0.365   6.834
 6610SOL    HW120729   2.245   0.307   6.906
 6610SOL    HW220730   2.278   0.428   6.801
 6611SOL     OW20731   0.009   2.435   2.705
 6611SOL    HW120732   7.017   2.404   2.800
 6611SOL    HW220733   0.106   2.441   2.683
 6612SOL     OW20734   0.772   4.041   6.975
 6612SOL    HW120735   0.683   4.037   0.001
 6612SOL    HW220736   0.765   4.096   6.892
 6613SOL     OW20737   6.026   5.960   3.385
 6613SOL    HW120738   5.956   6.004   3.329
 6613SOL    HW220739   6.010   5.981   3.482
 6614SOL     OW20740   4.809   6.591   6.543
 6614SOL    HW120741   4.820   6.688   6.520
 6614SOL    HW220742   4.888   6.539   6.510
 6615SOL     OW20743   0.901   3.765   4.526
 6615SOL    HW120744   0.872   3.816   4.445
 6615SOL    HW220745   0.828   3.703   4.554
 6616SOL     OW20746   3.957   1.626   5.651
 6616SOL    HW120747   3.929   1.713   5.692
 6616SOL    HW220748   3.885   1.593   5.591
 6617SOL     OW20749   3.412   6.667   3.549
 6617SOL    HW120750   3.468   6.658   3.632
 6617SOL    HW220751   3.455   6.734   3.488
 6618SOL     OW20752   1.220   3.070   2.633
 6618SOL    HW120753   1.191   3.111   2.547
 6618SOL    HW220754   1.319   3.060   2.634
 6619SOL     OW20755   5.302   6.764   4.423
 6619SOL    HW120756   5.328   6.763   4.520
 6619SOL    HW220757   5.331   6.851   4.382
 6620SOL     OW20758   1.812   2.831   5.495
 6620SOL    HW120759   1.811   2.866   5.401
 6620SOL    HW220760   1.724   2.850   5.538
 6621SOL     OW20761   3.494   4.094   0.343
 6621SOL    HW120762   3.422   4.076   0.276
 6621SOL    HW220763   3.581   4.106   0.295
 6622SOL     OW20764   6.209   5.629   1.430
 6622SOL    HW120765   6.112   5.646   1.449
 6622SOL    HW220766   6.217   5.576   1.345
 6623SOL     OW20767   3.656   3.135   2.026
 6623SOL    HW120768   3.626   3.211   2.084
 6623SOL    HW220769   3.639   3.049   2.074
 6624SOL     OW20770   2.523   6.541   4.176
 6624SOL    HW120771   2.436   6.588   4.161
 6624SOL    HW220772   2.546   6.545   4.274
 6625SOL     OW20773   5.959   1.997   5.953
 6625SOL    HW120774   5.863   2.000   5.982
 6625SOL    HW220775   6.017   2.028   6.029
 6626SOL     OW20776   3.638   4.919   3.103
 6626SOL    HW120777   3.717   4.865   3.074
 6626SOL    HW220778   3.660   4.971   3.185
 6627SOL     OW20779   2.157   0.890   5.680
 6627SOL    HW120780   2.156   0.933   5.590
 6627SOL    HW220781   2.091   0.937   5.739
 6628SOL     OW20782   4.993   5.439   3.249
 6628SOL    HW120783   4.939   5.354   3.253
 6628SOL    HW220784   4.972   5.488   3.165
 6629SOL     OW20785   3.434   6.486   0.794
 6629SOL    HW120786   3.334   6.484   0.790
 6629SOL    HW220787   3.465   6.580   0.806
 6630SOL     OW20788   3.687   2.001   0.578
 6630SOL    HW120789   3.769   2.054   0.559
 6630SOL    HW220790   3.709   1.903   0.576
 6631SOL     OW20791   4.482   6.947   2.518
 6631SOL    HW120792   4.431   6.866   2.489
 6631SOL    HW220793   4.419   7.017   2.550
 6632SOL     OW20794   6.793   1.021   1.762
 6632SOL    HW120795   6.776   0.946   1.825
 6632SOL    HW220796   6.835   1.098   1.811
 6633SOL     OW20797   1.380   5.633   6.088
 6633SOL    HW120798   1.342   5.591   6.171
 6633SOL    HW220799   1.309   5.635   6.017
 6634SOL     OW20800   5.968   3.293   5.713
 6634SOL    HW120801   6.008   3.202   5.705
 6634SOL    HW220802   6.034   3.355   5.755
 6635SOL     OW20803   4.521   4.863   3.444
 6635SOL    HW120804   4.455   4.923   3.399
 6635SOL    HW220805   4.531   4.890   3.540
 6636SOL     OW20806   2.185   2.705   5.402
 6636SOL    HW120807   2.133   2.744   5.477
 6636SOL    HW220808   2.280   2.735   5.408
 6637SOL     OW20809   1.044   0.564   6.825
 6637SOL    HW120810   1.037   0.567   6.924
 6637SOL    HW220811   1.028   0.471   6.792
 6638SOL     OW20812   4.197   4.877   5.117
 6638SOL    HW120813   4.258   4.831   5.052
 6638SOL    HW220814   4.247   4.896   5.202
 6639SOL     OW20815   5.708   6.156   5.887
 6639SOL    HW120816   5.795   6.110   5.868
 6639SOL    HW220817   5.659   6.173   5.802
 6640SOL     OW20818   6.913   1.958   4.913
 6640SOL    HW120819   7.011   1.976   4.917
 6640SOL    HW220820   6.863   2.034   4.955
 6641SOL     OW20821   2.793   3.451   6.432
 6641SOL    HW120822   2.833   3.532   6.390
 6641SOL    HW220823   2.706   3.429   6.388
 6642SOL     OW20824   2.788   5.077   0.187
 6642SOL    HW120825   2.694   5.106   0.167
 6642SOL    HW220826   2.839   5.155   0.224
 6643SOL     OW20827   6.910   4.697   7.006
 6643SOL    HW120828   6.935   4.691   6.909
 6643SOL    HW220829   6.856   4.779   0.003
 6644SOL     OW20830   3.056   4.808   2.003
 6644SOL    HW120831   2.978   4.749   1.984
 6644SOL    HW220832   3.141   4.760   1.979
 6645SOL     OW20833   6.604   5.006   0.719
 6645SOL    HW120834   6.573   5.039   0.630
 6645SOL    HW220835   6.694   4.962   0.708
 6646SOL     OW20836   4.559   5.632   4.360
 6646SOL    HW120837   4.593   5.708   4.416
 6646SOL    HW220838   4.625   5.556   4.364
 6647SOL     OW20839   3.266   1.465   2.883
 6647SOL    HW120840   3.193   1.459   2.952
 6647SOL    HW220841   3.310   1.555   2.890
 6648SOL     OW20842   3.663   6.363   2.266
 6648SOL    HW120843   3.712   6.409   2.192
 6648SOL    HW220844   3.588   6.422   2.298
 6649SOL     OW20845   5.723   1.887   6.418
 6649SOL    HW120846   5.735   1.932   6.506
 6649SOL    HW220847   5.633   1.845   6.414
 6650SOL     OW20848   3.950   1.210   3.587
 6650SOL    HW120849   3.978   1.294   3.634
 6650SOL    HW220850   3.855   1.190   3.610
 6651SOL     OW20851   1.439   1.671   0.208
 6651SOL    HW120852   1.424   1.572   0.208
 6651SOL    HW220853   1.478   1.699   0.296
 6652SOL     OW20854   6.465   4.238   6.906
 6652SOL    HW120855   6.559   4.224   6.874
 6652SOL    HW220856   6.446   4.336   6.911
 6653SOL     OW20857   4.111   3.276   3.025
 6653SOL    HW120858   4.071   3.229   3.104
 6653SOL    HW220859   4.113   3.214   2.947
 6654SOL     OW20860   1.891   2.703   1.227
 6654SOL    HW120861   1.989   2.726   1.222
 6654SOL    HW220862   1.881   2.604   1.228
 6655SOL     OW20863   2.473   6.985   1.869
 6655SOL    HW120864   2.491   6.943   1.781
 6655SOL    HW220865   2.522   0.053   1.876
 6656SOL     OW20866   6.372   1.327   2.822
 6656SOL    HW120867   6.321   1.313   2.737
 6656SOL    HW220868   6.464   1.360   2.800
 6657SOL     OW20869   4.322   6.749   6.006
 6657SOL    HW120870   4.373   6.818   6.057
 6657SOL    HW220871   4.377   6.665   6.001
 6658SOL     OW20872   6.004   1.658   5.296
 6658SOL    HW120873   5.960   1.723   5.358
 6658SOL    HW220874   5.942   1.633   5.222
 6659SOL     OW20875   2.268   2.304   6.855
 6659SOL    HW120876   2.340   2.236   6.868
 6659SOL    HW220877   2.264   2.364   6.935
 6660SOL     OW20878   0.073   6.074   1.311
 6660SOL    HW120879   0.152   6.051   1.368
 6660SOL    HW220880   0.093   6.050   1.216
 6661SOL     OW20881   0.406   4.841   3.965
 6661SOL    HW120882   0.445   4.867   3.876
 6661SOL    HW220883   0.479   4.825   4.031
 6662SOL     OW20884   1.353   0.810   0.004
 6662SOL    HW120885   1.394   0.814   6.931
 6662SOL    HW220886   1.280   0.878   0.011
 6663SOL     OW20887   0.088   5.742   3.212
 6663SOL    HW120888   0.076   5.829   3.260
 6663SOL    HW220889   0.058   5.668   3.271
 6664SOL     OW20890   1.270   0.105   1.596
 6664SOL    HW120891   1.278   0.162   1.515
 6664SOL    HW220892   1.284   0.009   1.572
 6665SOL     OW20893   1.495   0.604   3.160
 6665SOL    HW120894   1.567   0.535   3.150
 6665SOL    HW220895   1.474   0.616   3.257
 6666SOL     OW20896   5.942   2.135   5.389
 6666SOL    HW120897   5.868   2.131   5.322
 6666SOL    HW220898   5.968   2.042   5.416
 6667SOL     OW20899   6.134   5.075   4.625
 6667SOL    HW120900   6.217   5.111   4.669
 6667SOL    HW220901   6.068   5.049   4.695
 6668SOL     OW20902   6.988   6.240   1.949
 6668SOL    HW120903   6.985   6.140   1.945
 6668SOL    HW220904   0.008   6.268   2.037
 6669SOL     OW20905   2.115   3.436   3.798
 6669SOL    HW120906   2.077   3.475   3.714
 6669SOL    HW220907   2.116   3.506   3.869
 6670SOL     OW20908   3.359   3.757   6.682
 6670SOL    HW120909   3.347   3.779   6.585
 6670SOL    HW220910   3.314   3.827   6.738
 6671SOL     OW20911   6.231   5.129   0.613
 6671SOL    HW120912   6.262   5.060   0.548
 6671SOL    HW220913   6.189   5.205   0.564
 6672SOL     OW20914   0.639   1.261   5.195
 6672SOL    HW120915   0.632   1.357   5.221
 6672SOL    HW220916   0.555   1.213   5.223
 6673SOL     OW20917   4.817   5.797   2.846
 6673SOL    HW120918   4.808   5.816   2.944
 6673SOL    HW220919   4.912   5.772   2.826
 6674SOL     OW20920   0.739   5.464   6.025
 6674SOL    HW120921   0.676   5.505   6.091
 6674SOL    HW220922   0.736   5.365   6.034
 6675SOL     OW20923   5.441   4.025   1.684
 6675SOL    HW120924   5.469   4.044   1.590
 6675SOL    HW220925   5.342   4.024   1.691
 6676SOL     OW20926   0.693   3.820   5.738
 6676SOL    HW120927   0.738   3.854   5.821
 6676SOL    HW220928   0.612   3.768   5.763
 6677SOL     OW20929   6.894   3.103   6.927
 6677SOL    HW120930   6.975   3.145   6.886
 6677SOL    HW220931   6.821   3.171   6.932
 6678SOL     OW20932   1.309   2.308   0.148
 6678SOL    HW120933   1.399   2.274   0.174
 6678SOL    HW220934   1.253   2.232   0.114
 6679SOL     OW20935   1.732   1.590   4.884
 6679SOL    HW120936   1.685   1.524   4.825
 6679SOL    HW220937   1.698   1.580   4.977
 6680SOL     OW20938   4.119   6.051   5.990
 6680SOL    HW120939   4.124   6.110   5.909
 6680SOL    HW220940   4.089   5.959   5.963
 6681SOL     OW20941   4.926   5.799   6.914
 6681SOL    HW120942   4.958   5.725   6.973
 6681SOL    HW220943   4.992   5.875   6.917
 6682SOL     OW20944   0.740   4.554   2.320
 6682SOL    HW120945   0.774   4.560   2.414
 6682SOL    HW220946   0.752   4.460   2.287
 6683SOL     OW20947   4.685   2.190   5.661
 6683SOL    HW120948   4.726   2.215   5.573
 6683SOL    HW220949   4.713   2.256   5.730
 6684SOL     OW20950   1.849   6.839   1.231
 6684SOL    HW120951   1.761   6.796   1.250
 6684SOL    HW220952   1.885   6.879   1.315
 6685SOL     OW20953   5.301   2.101   6.301
 6685SOL    HW120954   5.221   2.158   6.320
 6685SOL    HW220955   5.384   2.151   6.322
 6686SOL     OW20956   6.196   4.726   3.605
 6686SOL    HW120957   6.271   4.721   3.539
 6686SOL    HW220958   6.172   4.822   3.621
 6687SOL     OW20959   0.678   1.520   0.719
 6687SOL    HW120960   0.751   1.520   0.787
 6687SOL    HW220961   0.590   1.531   0.764
 6688SOL     OW20962   0.561   4.314   1.992
 6688SOL    HW120963   0.497   4.270   1.929
 6688SOL    HW220964   0.589   4.403   1.955
 6689SOL     OW20965   4.113   2.636   0.774
 6689SOL    HW120966   4.153   2.721   0.739
 6689SOL    HW220967   4.186   2.573   0.798
 6690SOL     OW20968   2.520   0.925   1.750
 6690SOL    HW120969   2.591   0.980   1.706
 6690SOL    HW220970   2.452   0.985   1.792
 6691SOL     OW20971   2.882   5.706   0.888
 6691SOL    HW120972   2.899   5.658   0.802
 6691SOL    HW220973   2.906   5.647   0.965
 6692SOL     OW20974   2.744   4.685   5.291
 6692SOL    HW120975   2.774   4.617   5.359
 6692SOL    HW220976   2.772   4.655   5.200
 6693SOL     OW20977   5.085   3.508   6.386
 6693SOL    HW120978   5.150   3.450   6.336
 6693SOL    HW220979   5.097   3.603   6.359
 6694SOL     OW20980   4.435   5.624   0.099
 6694SOL    HW120981   4.387   5.551   0.148
 6694SOL    HW220982   4.517   5.650   0.150
 6695SOL     OW20983   0.733   1.958   6.848
 6695SOL    HW120984   0.673   1.883   6.873
 6695SOL    HW220985   0.825   1.923   6.831
 6696SOL     OW20986   1.843   2.440   1.154
 6696SOL    HW120987   1.776   2.397   1.094
 6696SOL    HW220988   1.853   2.385   1.237
 6697SOL     OW20989   4.507   2.453   3.078
 6697SOL    HW120990   4.495   2.517   3.155
 6697SOL    HW220991   4.575   2.490   3.015
 6698SOL     OW20992   3.491   2.424   0.519
 6698SOL    HW120993   3.489   2.513   0.473
 6698SOL    HW220994   3.445   2.431   0.607
 6699SOL     OW20995   3.887   4.148   6.456
 6699SOL    HW120996   3.924   4.142   6.363
 6699SOL    HW220997   3.830   4.068   6.475
 6700SOL     OW20998   0.760   5.600   0.428
 6700SOL    HW120999   0.695   5.628   0.498
 6700SOL    HW221000   0.853   5.614   0.462
 6701SOL     OW21001   6.053   2.849   1.557
 6701SOL    HW121002   5.968   2.882   1.597
 6701SOL    HW221003   6.099   2.787   1.621
 6702SOL     OW21004   2.762   2.164   0.098
 6702SOL    HW121005   2.745   2.227   0.022
 6702SOL    HW221006   2.721   2.075   0.079
 6703SOL     OW21007   6.293   2.029   6.850
 6703SOL    HW121008   6.251   2.116   6.822
 6703SOL    HW221009   6.389   2.044   6.871
 6704SOL     OW21010   4.435   2.429   2.535
 6704SOL    HW121011   4.447   2.500   2.604
 6704SOL    HW221012   4.363   2.365   2.564
 6705SOL     OW21013   0.148   2.109   1.591
 6705SOL    HW121014   0.212   2.167   1.540
 6705SOL    HW221015   0.200   2.051   1.653
 6706SOL     OW21016   1.382   4.331   0.525
 6706SOL    HW121017   1.462   4.389   0.543
 6706SOL    HW221018   1.298   4.384   0.542
 6707SOL     OW21019   6.048   5.968   4.898
 6707SOL    HW121020   6.107   5.965   4.817
 6707SOL    HW221021   5.952   5.965   4.868
 6708SOL     OW21022   1.724   5.773   2.489
 6708SOL    HW121023   1.635   5.775   2.534
 6708SOL    HW221024   1.791   5.731   2.551
 6709SOL     OW21025   3.655   6.335   1.522
 6709SOL    HW121026   3.662   6.428   1.556
 6709SOL    HW221027   3.617   6.336   1.430
 6710SOL     OW21028   2.072   1.934   5.748
 6710SOL    HW121029   2.138   1.991   5.699
 6710SOL    HW221030   2.118   1.886   5.823
 6711SOL     OW21031   5.723   4.204   6.517
 6711SOL    HW121032   5.717   4.261   6.435
 6711SOL    HW221033   5.752   4.112   6.492
 6712SOL     OW21034   3.987   5.347   0.373
 6712SOL    HW121035   3.902   5.400   0.381
 6712SOL    HW221036   4.024   5.330   0.465
 6713SOL     OW21037   2.666   1.667   1.751
 6713SOL    HW121038   2.584   1.723   1.742
 6713SOL    HW221039   2.726   1.706   1.821
 6714SOL     OW21040   5.437   0.090   5.322
 6714SOL    HW121041   5.478   0.181   5.319
 6714SOL    HW221042   5.346   0.094   5.279
 6715SOL     OW21043   0.213   0.790   6.972
 6715SOL    HW121044   0.260   0.851   0.018
 6715SOL    HW221045   0.218   0.828   6.880
 6716SOL     OW21046   1.430   6.560   1.271
 6716SOL    HW121047   1.454   6.488   1.206
 6716SOL    HW221048   1.330   6.567   1.277
 6717SOL     OW21049   4.105   2.993   0.475
 6717SOL    HW121050   4.027   3.039   0.517
 6717SOL    HW221051   4.078   2.956   0.386
 6718SOL     OW21052   4.035   5.900   6.566
 6718SOL    HW121053   3.990   5.853   6.489
 6718SOL    HW221054   3.995   5.992   6.576
 6719SOL     OW21055   0.207   6.936   6.019
 6719SOL    HW121056   0.291   6.979   6.052
 6719SOL    HW221057   0.213   6.923   5.920
 6720SOL     OW21058   2.362   6.151   1.799
 6720SOL    HW121059   2.315   6.200   1.726
 6720SOL    HW221060   2.334   6.055   1.799
 6721SOL     OW21061   5.440   6.435   4.389
 6721SOL    HW121062   5.364   6.499   4.394
 6721SOL    HW221063   5.442   6.390   4.300
 6722SOL     OW21064   4.723   3.351   0.818
 6722SOL    HW121065   4.791   3.407   0.770
 6722SOL    HW221066   4.747   3.254   0.807
 6723SOL     OW21067   2.001   6.810   3.043
 6723SOL    HW121068   2.079   6.872   3.051
 6723SOL    HW221069   2.013   6.750   2.964
 6724SOL     OW21070   2.011   4.277   6.028
 6724SOL    HW121071   1.954   4.284   5.946
 6724SOL    HW221072   1.952   4.265   6.108
 6725SOL     OW21073   1.217   4.398   2.539
 6725SOL    HW121074   1.158   4.454   2.481
 6725SOL    HW221075   1.222   4.438   2.631
 6726SOL     OW21076   1.571   2.694   4.942
 6726SOL    HW121077   1.526   2.661   5.024
 6726SOL    HW221078   1.597   2.790   4.955
 6727SOL     OW21079   5.607   3.744   6.444
 6727SOL    HW121080   5.564   3.667   6.490
 6727SOL    HW221081   5.537   3.806   6.409
 6728SOL     OW21082   3.850   1.736   4.580
 6728SOL    HW121083   3.911   1.797   4.631
 6728SOL    HW221084   3.837   1.773   4.488
 6729SOL     OW21085   6.420   1.328   2.449
 6729SOL    HW121086   6.494   1.267   2.422
 6729SOL    HW221087   6.439   1.420   2.415
 6730SOL     OW21088   2.510   0.049   6.980
 6730SOL    HW121089   2.517   0.081   6.885
 6730SOL    HW221090   2.450   0.109   0.013
 6731SOL     OW21091   2.905   4.252   1.321
 6731SOL    HW121092   2.899   4.198   1.405
 6731SOL    HW221093   2.932   4.193   1.246
 6732SOL     OW21094   2.756   5.912   0.341
 6732SOL    HW121095   2.832   5.877   0.287
 6732SOL    HW221096   2.685   5.842   0.349
 6733SOL     OW21097   4.585   5.630   6.236
 6733SOL    HW121098   4.652   5.666   6.172
 6733SOL    HW221099   4.503   5.688   6.235
 6734SOL     OW21100   0.972   3.439   5.758
 6734SOL    HW121101   0.977   3.494   5.841
 6734SOL    HW221102   1.063   3.404   5.735
 6735SOL     OW21103   0.295   5.055   5.177
 6735SOL    HW121104   0.319   5.041   5.274
 6735SOL    HW221105   0.265   4.968   5.138
 6736SOL     OW21106   2.176   3.416   0.968
 6736SOL    HW121107   2.195   3.496   1.025
 6736SOL    HW221108   2.253   3.399   0.907
 6737SOL     OW21109   2.347   1.270   1.912
 6737SOL    HW121110   2.250   1.260   1.936
 6737SOL    HW221111   2.355   1.295   1.816
 6738SOL     OW21112   2.528   2.013   2.382
 6738SOL    HW121113   2.496   2.088   2.325
 6738SOL    HW221114   2.487   1.927   2.352
 6739SOL     OW21115   3.330   5.313   5.388
 6739SOL    HW121116   3.334   5.273   5.296
 6739SOL    HW221117   3.257   5.382   5.390
 6740SOL     OW21118   1.668   1.160   4.217
 6740SOL    HW121119   1.626   1.251   4.216
 6740SOL    HW221120   1.702   1.140   4.309
 6741SOL     OW21121   5.031   1.725   6.099
 6741SOL    HW121122   5.121   1.768   6.093
 6741SOL    HW221123   5.036   1.645   6.158
 6742SOL     OW21124   0.607   5.798   4.586
 6742SOL    HW121125   0.532   5.844   4.538
 6742SOL    HW221126   0.675   5.866   4.614
 6743SOL     OW21127   4.152   3.316   6.907
 6743SOL    HW121128   4.122   3.278   6.820
 6743SOL    HW221129   4.245   3.351   6.898
 6744SOL     OW21130   3.847   4.798   6.182
 6744SOL    HW121131   3.776   4.863   6.209
 6744SOL    HW221132   3.821   4.706   6.212
 6745SOL     OW21133   1.137   5.070   2.898
 6745SOL    HW121134   1.228   5.065   2.857
 6745SOL    HW221135   1.135   5.146   2.963
 6746SOL     OW21136   0.594   0.932   1.438
 6746SOL    HW121137   0.593   1.029   1.460
 6746SOL    HW221138   0.641   0.918   1.351
 6747SOL     OW21139   5.530   6.620   4.034
 6747SOL    HW121140   5.573   6.704   4.001
 6747SOL    HW221141   5.598   6.565   4.083
 6748SOL     OW21142   0.619   0.997   2.478
 6748SOL    HW121143   0.608   0.937   2.557
 6748SOL    HW221144   0.717   1.017   2.465
 6749SOL     OW21145   3.592   0.385   0.086
 6749SOL    HW121146   3.635   0.437   0.012
 6749SOL    HW221147   3.554   0.448   0.153
 6750SOL     OW21148   2.392   1.995   4.126
 6750SOL    HW121149   2.453   1.916   4.116
 6750SOL    HW221150   2.340   1.987   4.211
 6751SOL     OW21151   2.786   2.258   3.609
 6751SOL    HW121152   2.848   2.196   3.657
 6751SOL    HW221153   2.720   2.296   3.674
 6752SOL     OW21154   6.015   2.621   1.164
 6752SOL    HW121155   6.024   2.562   1.244
 6752SOL    HW221156   6.054   2.711   1.184
 6753SOL     OW21157   4.164   1.770   6.120
 6753SOL    HW121158   4.074   1.733   6.097
 6753SOL    HW221159   4.154   1.840   6.190
 6754SOL     OW21160   6.408   2.018   6.020
 6754SOL    HW121161   6.456   2.046   6.103
 6754SOL    HW221162   6.373   1.926   6.031
 6755SOL     OW21163   5.663   1.765   3.205
 6755SOL    HW121164   5.680   1.853   3.161
 6755SOL    HW221165   5.682   1.691   3.140
 6756SOL     OW21166   4.623   4.446   4.510
 6756SOL    HW121167   4.610   4.419   4.605
 6756SOL    HW221168   4.721   4.462   4.493
 6757SOL     OW21169   4.708   5.938   0.791
 6757SOL    HW121170   4.761   6.003   0.845
 6757SOL    HW221171   4.616   5.929   0.829
 6758SOL     OW21172   5.098   3.424   2.088
 6758SOL    HW121173   5.028   3.363   2.050
 6758SOL    HW221174   5.062   3.468   2.171
 6759SOL     OW21175   1.762   4.600   3.078
 6759SOL    HW121176   1.686   4.662   3.058
 6759SOL    HW221177   1.824   4.643   3.143
 6760SOL     OW21178   0.503   4.858   4.669
 6760SOL    HW121179   0.416   4.907   4.669
 6760SOL    HW221180   0.576   4.919   4.701
 6761SOL     OW21181   5.223   3.148   5.746
 6761SOL    HW121182   5.225   3.054   5.713
 6761SOL    HW221183   5.307   3.166   5.799
 6762SOL     OW21184   6.694   5.308   3.670
 6762SOL    HW121185   6.655   5.311   3.578
 6762SOL    HW221186   6.629   5.346   3.735
 6763SOL     OW21187   5.815   6.546   5.303
 6763SOL    HW121188   5.915   6.551   5.307
 6763SOL    HW221189   5.787   6.527   5.209
 6764SOL     OW21190   3.016   4.003   6.494
 6764SOL    HW121191   3.042   3.931   6.559
 6764SOL    HW221192   3.086   4.009   6.422
 6765SOL     OW21193   6.726   4.679   3.258
 6765SOL    HW121194   6.823   4.666   3.279
 6765SOL    HW221195   6.708   4.649   3.164
 6766SOL     OW21196   1.720   0.896   5.868
 6766SOL    HW121197   1.741   0.845   5.952
 6766SOL    HW221198   1.686   0.833   5.799
 6767SOL     OW21199   0.160   2.762   0.204
 6767SOL    HW121200   0.248   2.790   0.241
 6767SOL    HW221201   0.116   2.839   0.159
 6768SOL     OW21202   0.738   0.503   3.609
 6768SOL    HW121203   0.678   0.479   3.533
 6768SOL    HW221204   0.814   0.438   3.614
 6769SOL     OW21205   2.586   2.224   5.468
 6769SOL    HW121206   2.603   2.184   5.378
 6769SOL    HW221207   2.657   2.291   5.490
 6770SOL     OW21208   0.090   2.237   3.182
 6770SOL    HW121209   0.110   2.280   3.270
 6770SOL    HW221210   0.011   2.176   3.192
 6771SOL     OW21211   3.577   2.115   3.365
 6771SOL    HW121212   3.640   2.069   3.427
 6771SOL    HW221213   3.616   2.118   3.273
 6772SOL     OW21214   6.375   1.752   2.767
 6772SOL    HW121215   6.403   1.846   2.787
 6772SOL    HW221216   6.411   1.690   2.836
 6773SOL     OW21217   6.996   6.272   1.620
 6773SOL    HW121218   6.907   6.246   1.583
 6773SOL    HW221219   0.023   6.336   1.558
 6774SOL     OW21220   1.933   1.996   5.178
 6774SOL    HW121221   1.881   1.950   5.251
 6774SOL    HW221222   1.944   2.093   5.202
 6775SOL     OW21223   0.655   1.618   4.754
 6775SOL    HW121224   0.626   1.698   4.807
 6775SOL    HW221225   0.601   1.539   4.783
 6776SOL     OW21226   3.964   4.243   1.666
 6776SOL    HW121227   3.930   4.337   1.671
 6776SOL    HW221228   3.906   4.183   1.721
 6777SOL     OW21229   4.771   5.860   1.474
 6777SOL    HW121230   4.751   5.803   1.554
 6777SOL    HW221231   4.813   5.804   1.404
 6778SOL     OW21232   6.470   3.993   2.480
 6778SOL    HW121233   6.482   3.896   2.458
 6778SOL    HW221234   6.505   4.010   2.572
 6779SOL     OW21235   5.844   4.252   5.988
 6779SOL    HW121236   5.788   4.205   6.057
 6779SOL    HW221237   5.895   4.184   5.935
 6780SOL     OW21238   2.806   2.296   2.856
 6780SOL    HW121239   2.761   2.309   2.768
 6780SOL    HW221240   2.897   2.338   2.854
 6781SOL     OW21241   6.658   1.046   4.309
 6781SOL    HW121242   6.627   0.952   4.297
 6781SOL    HW221243   6.585   1.101   4.350
 6782SOL     OW21244   6.397   1.641   3.718
 6782SOL    HW121245   6.328   1.701   3.678
 6782SOL    HW221246   6.436   1.582   3.647
 6783SOL     OW21247   1.155   5.151   5.044
 6783SOL    HW121248   1.228   5.172   4.979
 6783SOL    HW221249   1.114   5.062   5.021
 6784SOL     OW21250   1.588   3.100   1.478
 6784SOL    HW121251   1.618   3.047   1.558
 6784SOL    HW221252   1.489   3.094   1.470
 6785SOL     OW21253   5.667   4.860   4.670
 6785SOL    HW121254   5.727   4.799   4.618
 6785SOL    HW221255   5.618   4.921   4.608
 6786SOL     OW21256   6.748   2.117   0.233
 6786SOL    HW121257   6.710   2.167   0.311
 6786SOL    HW221258   6.846   2.134   0.228
 6787SOL     OW21259   3.481   2.069   6.981
 6787SOL    HW121260   3.519   2.102   6.894
 6787SOL    HW221261   3.393   2.025   6.963
 6788SOL     OW21262   0.343   4.023   3.889
 6788SOL    HW121263   0.253   4.065   3.872
 6788SOL    HW221264   0.410   4.060   3.825
 6789SOL     OW21265   6.497   3.812   3.763
 6789SOL    HW121266   6.484   3.912   3.761
 6789SOL    HW221267   6.591   3.791   3.789
 6790SOL     OW21268   0.699   4.859   5.773
 6790SOL    HW121269   0.637   4.792   5.732
 6790SOL    HW221270   0.788   4.818   5.788
 6791SOL     OW21271   4.106   0.861   3.880
 6791SOL    HW121272   4.102   0.889   3.784
 6791SOL    HW221273   4.180   0.796   3.893
 6792SOL     OW21274   4.225   0.271   5.341
 6792SOL    HW121275   4.172   0.238   5.418
 6792SOL    HW221276   4.216   0.207   5.264
 6793SOL     OW21277   2.571   3.420   0.607
 6793SOL    HW121278   2.556   3.466   0.519
 6793SOL    HW221279   2.633   3.476   0.663
 6794SOL     OW21280   4.692   1.465   6.012
 6794SOL    HW121281   4.768   1.410   6.048
 6794SOL    HW221282   4.609   1.444   6.063
 6795SOL     OW21283   0.858   0.857   1.254
 6795SOL    HW121284   0.851   0.942   1.201
 6795SOL    HW221285   0.894   0.877   1.345
 6796SOL     OW21286   5.853   1.318   2.670
 6796SOL    HW121287   5.882   1.238   2.723
 6796SOL    HW221288   5.911   1.396   2.692
 6797SOL     OW21289   0.299   2.417   1.779
 6797SOL    HW121290   0.348   2.339   1.739
 6797SOL    HW221291   0.281   2.400   1.876
 6798SOL     OW21292   5.324   0.377   1.956
 6798SOL    HW121293   5.287   0.396   2.047
 6798SOL    HW221294   5.341   0.279   1.946
 6799SOL     OW21295   5.048   0.679   3.517
 6799SOL    HW121296   4.995   0.627   3.585
 6799SOL    HW221297   5.139   0.699   3.553
 6800SOL     OW21298   0.091   1.611   1.290
 6800SOL    HW121299   0.041   1.663   1.360
 6800SOL    HW221300   0.065   1.515   1.295
 6801SOL     OW21301   1.092   5.790   5.738
 6801SOL    HW121302   1.186   5.805   5.708
 6801SOL    HW221303   1.050   5.718   5.682
 6802SOL     OW21304   3.302   5.344   1.221
 6802SOL    HW121305   3.204   5.324   1.219
 6802SOL    HW221306   3.317   5.442   1.208
 6803SOL     OW21307   5.091   4.436   6.025
 6803SOL    HW121308   5.057   4.530   6.022
 6803SOL    HW221309   5.038   4.379   5.962
 6804SOL     OW21310   3.156   4.977   2.884
 6804SOL    HW121311   3.062   4.960   2.913
 6804SOL    HW221312   3.156   5.032   2.801
 6805SOL     OW21313   6.910   4.080   5.769
 6805SOL    HW121314   6.957   4.011   5.715
 6805SOL    HW221315   6.827   4.042   5.808
 6806SOL     OW21316   6.742   1.215   3.249
 6806SOL    HW121317   6.821   1.213   3.310
 6806SOL    HW221318   6.766   1.173   3.162
 6807SOL     OW21319   3.880   3.752   1.810
 6807SOL    HW121320   3.945   3.707   1.749
 6807SOL    HW221321   3.882   3.708   1.900
 6808SOL     OW21322   3.908   1.272   4.439
 6808SOL    HW121323   3.964   1.306   4.363
 6808SOL    HW221324   3.861   1.349   4.482
 6809SOL     OW21325   5.399   3.762   2.276
 6809SOL    HW121326   5.425   3.671   2.243
 6809SOL    HW221327   5.326   3.798   2.218
 6810SOL     OW21328   2.552   1.202   4.293
 6810SOL    HW121329   2.468   1.147   4.292
 6810SOL    HW221330   2.575   1.226   4.387
 6811SOL     OW21331   6.297   1.535   2.072
 6811SOL    HW121332   6.358   1.601   2.027
 6811SOL    HW221333   6.270   1.570   2.162
 6812SOL     OW21334   3.006   4.059   5.097
 6812SOL    HW121335   2.978   4.068   5.002
 6812SOL    HW221336   3.042   4.147   5.129
 6813SOL     OW21337   5.822   3.753   2.062
 6813SOL    HW121338   5.724   3.766   2.051
 6813SOL    HW221339   5.861   3.829   2.113
 6814SOL     OW21340   5.100   1.245   6.333
 6814SOL    HW121341   5.181   1.188   6.314
 6814SOL    HW221342   5.039   1.196   6.396
 6815SOL     OW21343   2.184   4.774   6.423
 6815SOL    HW121344   2.141   4.684   6.417
 6815SOL    HW221345   2.258   4.771   6.490
 6816SOL     OW21346   0.425   1.666   3.630
 6816SOL    HW121347   0.509   1.616   3.609
 6816SOL    HW221348   0.448   1.750   3.680
 6817SOL     OW21349   3.602   1.990   1.928
 6817SOL    HW121350   3.544   1.972   2.007
 6817SOL    HW221351   3.661   2.068   1.947
 6818SOL     OW21352   1.920   6.511   6.091
 6818SOL    HW121353   1.877   6.600   6.108
 6818SOL    HW221354   1.855   6.438   6.112
 6819SOL     OW21355   4.429   4.534   2.270
 6819SOL    HW121356   4.345   4.560   2.222
 6819SOL    HW221357   4.487   4.482   2.208
 6820SOL     OW21358   3.073   5.911   1.283
 6820SOL    HW121359   2.982   5.951   1.284
 6820SOL    HW221360   3.122   5.942   1.201
 6821SOL     OW21361   4.176   3.001   5.481
 6821SOL    HW121362   4.134   3.020   5.570
 6821SOL    HW221363   4.198   3.087   5.436
 6822SOL     OW21364   0.336   2.399   6.293
 6822SOL    HW121365   0.287   2.334   6.235
 6822SOL    HW221366   0.293   2.402   6.383
 6823SOL     OW21367   5.934   3.381   6.817
 6823SOL    HW121368   5.982   3.309   6.868
 6823SOL    HW221369   5.844   3.347   6.789
 6824SOL     OW21370   0.635   2.675   6.313
 6824SOL    HW121371   0.632   2.698   6.410
 6824SOL    HW221372   0.720   2.626   6.293
 6825SOL     OW21373   6.038   5.731   1.912
 6825SOL    HW121374   6.112   5.724   1.845
 6825SOL    HW221375   5.968   5.663   1.892
 6826SOL     OW21376   0.310   3.836   3.362
 6826SOL    HW121377   0.297   3.849   3.264
 6826SOL    HW221378   0.401   3.797   3.379
 6827SOL     OW21379   4.734   5.883   4.972
 6827SOL    HW121380   4.771   5.934   5.050
 6827SOL    HW221381   4.785   5.799   4.960
 6828SOL     OW21382   3.299   1.386   2.423
 6828SOL    HW121383   3.329   1.466   2.371
 6828SOL    HW221384   3.363   1.311   2.409
 6829SOL     OW21385   5.095   6.653   4.689
 6829SOL    HW121386   5.144   6.610   4.612
 6829SOL    HW221387   5.000   6.667   4.664
 6830SOL     OW21388   5.236   0.194   3.186
 6830SOL    HW121389   5.316   0.176   3.245
 6830SOL    HW221390   5.248   0.282   3.141
 6831SOL     OW21391   1.074   1.311   6.690
 6831SOL    HW121392   1.005   1.384   6.684
 6831SOL    HW221393   1.151   1.333   6.630
 6832SOL     OW21394   2.961   2.296   0.477
 6832SOL    HW121395   2.869   2.300   0.517
 6832SOL    HW221396   3.017   2.231   0.528
 6833SOL     OW21397   2.916   5.259   5.856
 6833SOL    HW121398   2.859   5.244   5.775
 6833SOL    HW221399   2.998   5.203   5.849
 6834SOL     OW21400   5.467   0.404   0.609
 6834SOL    HW121401   5.395   0.365   0.666
 6834SOL    HW221402   5.504   0.486   0.654
 6835SOL     OW21403   2.619   1.979   4.541
 6835SOL    HW121404   2.522   1.994   4.561
 6835SOL    HW221405   2.639   1.881   4.549
 6836SOL     OW21406   1.804   4.824   6.367
 6836SOL    HW121407   1.866   4.899   6.344
 6836SOL    HW221408   1.814   4.750   6.301
 6837SOL     OW21409   0.651   0.314   1.887
 6837SOL    HW121410   0.584   0.272   1.949
 6837SOL    HW221411   0.681   0.401   1.924
 6838SOL     OW21412   2.778   4.419   5.392
 6838SOL    HW121413   2.706   4.355   5.365
 6838SOL    HW221414   2.835   4.439   5.312
 6839SOL     OW21415   5.757   2.516   4.019
 6839SOL    HW121416   5.783   2.544   3.926
 6839SOL    HW221417   5.667   2.473   4.016
 6840SOL     OW21418   2.840   6.936   4.869
 6840SOL    HW121419   2.900   6.974   4.798
 6840SOL    HW221420   2.857   6.984   4.955
 6841SOL     OW21421   4.213   6.007   1.394
 6841SOL    HW121422   4.186   5.911   1.404
 6841SOL    HW221423   4.286   6.028   1.459
 6842SOL     OW21424   0.481   4.252   6.714
 6842SOL    HW121425   0.428   4.191   6.656
 6842SOL    HW221426   0.427   4.332   6.737
 6843SOL     OW21427   3.583   1.671   1.842
 6843SOL    HW121428   3.606   1.641   1.749
 6843SOL    HW221429   3.599   1.769   1.851
 6844SOL     OW21430   5.127   5.262   4.064
 6844SOL    HW121431   5.089   5.208   3.990
 6844SOL    HW221432   5.218   5.295   4.038
 6845SOL     OW21433   4.554   4.769   1.863
 6845SOL    HW121434   4.557   4.784   1.962
 6845SOL    HW221435   4.638   4.802   1.821
 6846SOL     OW21436   3.823   3.070   2.588
 6846SOL    HW121437   3.745   3.131   2.573
 6846SOL    HW221438   3.899   3.097   2.528
 6847SOL     OW21439   5.283   3.563   1.982
 6847SOL    HW121440   5.269   3.611   1.895
 6847SOL    HW221441   5.196   3.523   2.011
 6848SOL     OW21442   0.880   5.908   3.685
 6848SOL    HW121443   0.943   5.923   3.609
 6848SOL    HW221444   0.927   5.922   3.771
 6849SOL     OW21445   3.764   6.016   3.835
 6849SOL    HW121446   3.810   5.959   3.767
 6849SOL    HW221447   3.754   6.109   3.800
 6850SOL     OW21448   5.569   2.964   2.842
 6850SOL    HW121449   5.557   3.047   2.787
 6850SOL    HW221450   5.567   2.884   2.781
 6851SOL     OW21451   1.696   4.948   5.600
 6851SOL    HW121452   1.705   4.849   5.608
 6851SOL    HW221453   1.782   4.986   5.568
 6852SOL     OW21454   1.486   4.565   1.807
 6852SOL    HW121455   1.508   4.615   1.723
 6852SOL    HW221456   1.422   4.619   1.863
 6853SOL     OW21457   0.552   4.299   5.491
 6853SOL    HW121458   0.589   4.219   5.443
 6853SOL    HW221459   0.537   4.373   5.426
 6854SOL     OW21460   0.024   2.593   6.325
 6854SOL    HW121461   0.002   2.495   6.329
 6854SOL    HW221462   7.000   2.639   6.402
 6855SOL     OW21463   3.200   6.835   2.284
 6855SOL    HW121464   3.239   6.927   2.288
 6855SOL    HW221465   3.115   6.838   2.231
 6856SOL     OW21466   6.418   3.766   4.833
 6856SOL    HW121467   6.391   3.828   4.760
 6856SOL    HW221468   6.390   3.673   4.811
 6857SOL     OW21469   2.531   2.430   6.464
 6857SOL    HW121470   2.520   2.487   6.545
 6857SOL    HW221471   2.510   2.335   6.487
 6858SOL     OW21472   4.152   3.395   4.780
 6858SOL    HW121473   4.105   3.350   4.855
 6858SOL    HW221474   4.172   3.328   4.708
 6859SOL     OW21475   3.059   6.818   0.851
 6859SOL    HW121476   3.119   6.893   0.821
 6859SOL    HW221477   2.976   6.857   0.890
 6860SOL     OW21478   5.823   4.672   0.843
 6860SOL    HW121479   5.812   4.708   0.935
 6860SOL    HW221480   5.919   4.674   0.818
 6861SOL     OW21481   5.576   5.684   6.903
 6861SOL    HW121482   5.546   5.594   6.934
 6861SOL    HW221483   5.671   5.678   6.872
 6862SOL     OW21484   3.420   5.455   4.660
 6862SOL    HW121485   3.340   5.397   4.676
 6862SOL    HW221486   3.435   5.465   4.562
 6863SOL     OW21487   5.672   1.640   3.719
 6863SOL    HW121488   5.684   1.588   3.635
 6863SOL    HW221489   5.761   1.672   3.752
 6864SOL     OW21490   2.729   6.172   3.793
 6864SOL    HW121491   2.731   6.160   3.694
 6864SOL    HW221492   2.823   6.179   3.827
 6865SOL     OW21493   6.731   4.479   4.387
 6865SOL    HW121494   6.688   4.526   4.310
 6865SOL    HW221495   6.793   4.408   4.353
 6866SOL     OW21496   6.620   3.736   2.114
 6866SOL    HW121497   6.630   3.640   2.088
 6866SOL    HW221498   6.527   3.767   2.092
 6867SOL     OW21499   2.228   4.147   2.290
 6867SOL    HW121500   2.143   4.172   2.245
 6867SOL    HW221501   2.305   4.166   2.230
 6868SOL     OW21502   2.189   6.059   4.773
 6868SOL    HW121503   2.216   6.152   4.796
 6868SOL    HW221504   2.095   6.058   4.740
 6869SOL     OW21505   4.974   2.067   6.076
 6869SOL    HW121506   5.059   2.017   6.097
 6869SOL    HW221507   4.909   2.006   6.032
 6870SOL     OW21508   5.458   4.020   3.185
 6870SOL    HW121509   5.471   3.982   3.093
 6870SOL    HW221510   5.384   3.971   3.231
 6871SOL     OW21511   5.682   5.272   1.293
 6871SOL    HW121512   5.768   5.286   1.244
 6871SOL    HW221513   5.690   5.308   1.386
 6872SOL     OW21514   2.069   3.027   0.590
 6872SOL    HW121515   2.032   2.955   0.531
 6872SOL    HW221516   2.103   3.102   0.533
 6873SOL     OW21517   6.205   3.208   6.077
 6873SOL    HW121518   6.185   3.110   6.090
 6873SOL    HW221519   6.266   3.219   5.999
 6874SOL     OW21520   0.363   2.847   3.905
 6874SOL    HW121521   0.422   2.770   3.931
 6874SOL    HW221522   0.303   2.819   3.830
 6875SOL     OW21523   1.389   1.233   2.847
 6875SOL    HW121524   1.393   1.149   2.902
 6875SOL    HW221525   1.320   1.223   2.776
 6876SOL     OW21526   3.571   5.567   0.262
 6876SOL    HW121527   3.536   5.485   0.215
 6876SOL    HW221528   3.645   5.540   0.323
 6877SOL     OW21529   2.265   3.750   0.382
 6877SOL    HW121530   2.229   3.661   0.354
 6877SOL    HW221531   2.364   3.743   0.396
 6878SOL     OW21532   2.161   1.585   4.698
 6878SOL    HW121533   2.192   1.507   4.751
 6878SOL    HW221534   2.061   1.588   4.698
 6879SOL     OW21535   0.488   2.213   0.225
 6879SOL    HW121536   0.577   2.256   0.208
 6879SOL    HW221537   0.419   2.284   0.239
 6880SOL     OW21538   1.954   4.008   4.997
 6880SOL    HW121539   2.020   3.950   4.948
 6880SOL    HW221540   1.861   3.975   4.978
 6881SOL     OW21541   0.561   4.556   1.340
 6881SOL    HW121542   0.654   4.572   1.375
 6881SOL    HW221543   0.566   4.532   1.243
 6882SOL     OW21544   2.179   0.992   5.426
 6882SOL    HW121545   2.159   1.088   5.444
 6882SOL    HW221546   2.259   0.986   5.365
 6883SOL     OW21547   4.167   0.338   1.395
 6883SOL    HW121548   4.085   0.378   1.435
 6883SOL    HW221549   4.244   0.401   1.407
 6884SOL     OW21550   2.443   4.459   4.725
 6884SOL    HW121551   2.486   4.494   4.808
 6884SOL    HW221552   2.371   4.393   4.750
 6885SOL     OW21553   3.263   6.195   3.991
 6885SOL    HW121554   3.171   6.198   3.954
 6885SOL    HW221555   3.329   6.214   3.918
 6886SOL     OW21556   5.273   1.351   2.452
 6886SOL    HW121557   5.206   1.345   2.527
 6886SOL    HW221558   5.357   1.305   2.479
 6887SOL     OW21559   5.754   0.502   5.021
 6887SOL    HW121560   5.717   0.506   4.928
 6887SOL    HW221561   5.847   0.538   5.022
 6888SOL     OW21562   6.302   0.297   4.857
 6888SOL    HW121563   6.335   0.366   4.921
 6888SOL    HW221564   6.372   0.228   4.842
 6889SOL     OW21565   1.411   3.651   6.337
 6889SOL    HW121566   1.364   3.660   6.424
 6889SOL    HW221567   1.462   3.735   6.318
 6890SOL     OW21568   2.141   6.955   1.204
 6890SOL    HW121569   2.232   6.989   1.180
 6890SOL    HW221570   2.140   6.856   1.196
 6891SOL     OW21571   2.074   3.666   3.949
 6891SOL    HW121572   1.981   3.695   3.973
 6891SOL    HW221573   2.134   3.746   3.946
 6892SOL     OW21574   3.616   0.286   4.093
 6892SOL    HW121575   3.606   0.276   3.994
 6892SOL    HW221576   3.539   0.338   4.129
 6893SOL     OW21577   5.276   5.887   3.606
 6893SOL    HW121578   5.202   5.952   3.590
 6893SOL    HW221579   5.346   5.929   3.664
 6894SOL     OW21580   5.905   5.615   0.576
 6894SOL    HW121581   5.813   5.604   0.539
 6894SOL    HW221582   5.937   5.708   0.558
 6895SOL     OW21583   2.904   3.641   0.193
 6895SOL    HW121584   2.843   3.583   0.140
 6895SOL    HW221585   2.999   3.612   0.178
 6896SOL     OW21586   3.757   0.579   3.362
 6896SOL    HW121587   3.849   0.600   3.393
 6896SOL    HW221588   3.755   0.576   3.262
 6897SOL     OW21589   3.186   3.564   0.154
 6897SOL    HW121590   3.175   3.487   0.218
 6897SOL    HW221591   3.266   3.548   0.097
 6898SOL     OW21592   3.963   1.374   1.438
 6898SOL    HW121593   3.916   1.440   1.379
 6898SOL    HW221594   4.037   1.330   1.387
 6899SOL     OW21595   4.970   6.788   6.107
 6899SOL    HW121596   4.968   6.877   6.153
 6899SOL    HW221597   4.876   6.759   6.088
 6900SOL     OW21598   5.811   0.633   6.141
 6900SOL    HW121599   5.853   0.652   6.052
 6900SOL    HW221600   5.868   0.672   6.213
 6901SOL     OW21601   1.617   0.586   6.345
 6901SOL    HW121602   1.673   0.548   6.419
 6901SOL    HW221603   1.603   0.516   6.275
 6902SOL     OW21604   0.725   6.463   6.970
 6902SOL    HW121605   0.689   6.552   6.998
 6902SOL    HW221606   0.770   6.471   6.881
 6903SOL     OW21607   3.862   4.363   0.554
 6903SOL    HW121608   3.765   4.374   0.532
 6903SOL    HW221609   3.915   4.355   0.469
 6904SOL     OW21610   5.905   0.490   4.067
 6904SOL    HW121611   5.932   0.573   4.019
 6904SOL    HW221612   5.971   0.417   4.047
 6905SOL     OW21613   5.898   6.466   0.822
 6905SOL    HW121614   5.884   6.509   0.733
 6905SOL    HW221615   5.996   6.456   0.839
 6906SOL     OW21616   3.582   0.530   3.601
 6906SOL    HW121617   3.648   0.580   3.657
 6906SOL    HW221618   3.606   0.540   3.504
 6907SOL     OW21619   3.647   0.875   1.548
 6907SOL    HW121620   3.680   0.951   1.604
 6907SOL    HW221621   3.552   0.893   1.521
 6908SOL     OW21622   1.486   6.318   5.572
 6908SOL    HW121623   1.390   6.342   5.560
 6908SOL    HW221624   1.493   6.224   5.607
 6909SOL     OW21625   5.281   4.608   0.639
 6909SOL    HW121626   5.215   4.538   0.666
 6909SOL    HW221627   5.373   4.579   0.663
 6910SOL     OW21628   6.391   1.775   1.926
 6910SOL    HW121629   6.477   1.818   1.952
 6910SOL    HW221630   6.403   1.724   1.841
 6911SOL     OW21631   4.245   6.953   4.164
 6911SOL    HW121632   4.258   0.033   4.149
 6911SOL    HW221633   4.288   6.927   4.251
 6912SOL     OW21634   5.042   4.899   0.892
 6912SOL    HW121635   5.112   4.909   0.821
 6912SOL    HW221636   4.960   4.949   0.865
 6913SOL     OW21637   5.105   4.758   4.607
 6913SOL    HW121638   5.101   4.792   4.701
 6913SOL    HW221639   5.018   4.716   4.583
 6914SOL     OW21640   6.028   5.230   6.852
 6914SOL    HW121641   5.944   5.282   6.845
 6914SOL    HW221642   6.101   5.277   6.802
 6915SOL     OW21643   0.437   4.597   2.597
 6915SOL    HW121644   0.381   4.567   2.674
 6915SOL    HW221645   0.492   4.675   2.625
 6916SOL     OW21646   6.367   4.086   6.695
 6916SOL    HW121647   6.363   4.142   6.779
 6916SOL    HW221648   6.346   3.991   6.718
 6917SOL     OW21649   4.347   6.430   6.001
 6917SOL    HW121650   4.405   6.412   5.922
 6917SOL    HW221651   4.403   6.427   6.084
 6918SOL     OW21652   0.249   3.792   4.048
 6918SOL    HW121653   0.156   3.811   4.077
 6918SOL    HW221654   0.280   3.864   3.986
 6919SOL     OW21655   2.046   6.320   2.354
 6919SOL    HW121656   2.097   6.315   2.441
 6919SOL    HW221657   2.083   6.395   2.299
 6920SOL     OW21658   5.495   5.377   4.426
 6920SOL    HW121659   5.552   5.371   4.344
 6920SOL    HW221660   5.406   5.336   4.408
 6921SOL     OW21661   6.351   6.639   3.710
 6921SOL    HW121662   6.442   6.615   3.743
 6921SOL    HW221663   6.350   6.734   3.679
 6922SOL     OW21664   2.601   6.279   0.501
 6922SOL    HW121665   2.691   6.240   0.522
 6922SOL    HW221666   2.561   6.230   0.424
 6923SOL     OW21667   4.329   0.093   3.745
 6923SOL    HW121668   4.385   0.140   3.813
 6923SOL    HW221669   4.332   0.144   3.658
 6924SOL     OW21670   0.668   5.017   0.550
 6924SOL    HW121671   0.638   4.922   0.540
 6924SOL    HW221672   0.618   5.075   0.487
 6925SOL     OW21673   4.291   6.303   3.355
 6925SOL    HW121674   4.246   6.226   3.310
 6925SOL    HW221675   4.390   6.286   3.360
 6926SOL     OW21676   3.903   3.856   3.741
 6926SOL    HW121677   3.804   3.866   3.748
 6926SOL    HW221678   3.932   3.872   3.646
 6927SOL     OW21679   5.332   3.447   6.835
 6927SOL    HW121680   5.250   3.496   6.863
 6927SOL    HW221681   5.351   3.374   6.900
 6928SOL     OW21682   4.824   0.490   6.463
 6928SOL    HW121683   4.883   0.534   6.395
 6928SOL    HW221684   4.849   0.522   6.554
 6929SOL     OW21685   4.125   6.110   6.823
 6929SOL    HW121686   4.138   6.125   6.725
 6929SOL    HW221687   4.038   6.063   6.838
 6930SOL     OW21688   0.952   6.695   1.938
 6930SOL    HW121689   0.945   6.634   2.017
 6930SOL    HW221690   0.882   6.766   1.945
 6931SOL     OW21691   0.960   6.826   1.624
 6931SOL    HW121692   0.970   6.730   1.598
 6931SOL    HW221693   0.873   6.862   1.588
 6932SOL     OW21694   2.591   0.918   0.095
 6932SOL    HW121695   2.617   0.837   0.043
 6932SOL    HW221696   2.606   1.000   0.039
 6933SOL     OW21697   3.685   5.653   5.659
 6933SOL    HW121698   3.668   5.605   5.744
 6933SOL    HW221699   3.601   5.658   5.605
 6934SOL     OW21700   4.965   2.708   0.211
 6934SOL    HW121701   4.889   2.698   0.275
 6934SOL    HW221702   4.930   2.703   0.117
 6935SOL     OW21703   4.089   6.176   3.693
 6935SOL    HW121704   4.185   6.204   3.698
 6935SOL    HW221705   4.068   6.112   3.767
 6936SOL     OW21706   0.581   2.891   1.527
 6936SOL    HW121707   0.606   2.969   1.470
 6936SOL    HW221708   0.663   2.848   1.563
 6937SOL     OW21709   4.435   6.443   5.631
 6937SOL    HW121710   4.478   6.412   5.545
 6937SOL    HW221711   4.428   6.542   5.630
 6938SOL     OW21712   4.759   3.339   5.554
 6938SOL    HW121713   4.810   3.275   5.610
 6938SOL    HW221714   4.781   3.433   5.581
 6939SOL     OW21715   0.170   4.584   1.961
 6939SOL    HW121716   0.212   4.527   2.031
 6939SOL    HW221717   0.210   4.676   1.964
 6940SOL     OW21718   4.853   0.440   6.100
 6940SOL    HW121719   4.791   0.370   6.063
 6940SOL    HW221720   4.801   0.523   6.120
 6941SOL     OW21721   3.310   3.012   2.551
 6941SOL    HW121722   3.306   3.093   2.492
 6941SOL    HW221723   3.356   2.938   2.503
 6942SOL     OW21724   6.883   2.994   0.537
 6942SOL    HW121725   6.982   2.984   0.538
 6942SOL    HW221726   6.845   2.974   0.627
 6943SOL     OW21727   5.453   6.370   6.356
 6943SOL    HW121728   5.496   6.306   6.292
 6943SOL    HW221729   5.395   6.320   6.420
 6944SOL     OW21730   1.028   5.415   5.969
 6944SOL    HW121731   0.945   5.405   5.914
 6944SOL    HW221732   1.038   5.510   5.996
 6945SOL     OW21733   6.488   3.090   6.064
 6945SOL    HW121734   6.439   3.055   6.145
 6945SOL    HW221735   6.561   3.027   6.039
 6946SOL     OW21736   5.734   4.486   2.801
 6946SOL    HW121737   5.702   4.574   2.836
 6946SOL    HW221738   5.831   4.475   2.821
 6947SOL     OW21739   3.632   0.016   2.667
 6947SOL    HW121740   3.594   6.989   2.587
 6947SOL    HW221741   3.732   0.022   2.658
 6948SOL     OW21742   4.863   0.300   0.545
 6948SOL    HW121743   4.930   0.289   0.472
 6948SOL    HW221744   4.827   0.211   0.573
 6949SOL     OW21745   5.016   6.739   3.019
 6949SOL    HW121746   5.092   6.681   3.047
 6949SOL    HW221747   5.052   6.820   2.972
 6950SOL     OW21748   2.247   0.592   3.341
 6950SOL    HW121749   2.259   0.680   3.295
 6950SOL    HW221750   2.193   0.531   3.283
 6951SOL     OW21751   6.526   6.408   5.790
 6951SOL    HW121752   6.506   6.386   5.694
 6951SOL    HW221753   6.570   6.330   5.834
 6952SOL     OW21754   0.242   5.508   3.931
 6952SOL    HW121755   0.249   5.453   3.848
 6952SOL    HW221756   0.248   5.605   3.908
 6953SOL     OW21757   4.834   1.157   6.263
 6953SOL    HW121758   4.851   1.176   6.166
 6953SOL    HW221759   4.829   1.242   6.314
 6954SOL     OW21760   0.161   3.006   4.332
 6954SOL    HW121761   0.171   2.929   4.270
 6954SOL    HW221762   0.073   3.052   4.316
 6955SOL     OW21763   0.316   6.006   1.451
 6955SOL    HW121764   0.380   6.056   1.392
 6955SOL    HW221765   0.368   5.948   1.514
 6956SOL     OW21766   4.718   5.643   1.975
 6956SOL    HW121767   4.807   5.600   1.986
 6956SOL    HW221768   4.650   5.594   2.030
 6957SOL     OW21769   6.594   4.574   1.560
 6957SOL    HW121770   6.539   4.531   1.632
 6957SOL    HW221771   6.684   4.530   1.555
 6958SOL     OW21772   2.156   2.266   6.297
 6958SOL    HW121773   2.222   2.198   6.264
 6958SOL    HW221774   2.123   2.239   6.388
 6959SOL     OW21775   3.268   1.628   4.702
 6959SOL    HW121776   3.239   1.576   4.782
 6959SOL    HW221777   3.235   1.722   4.709
 6960SOL     OW21778   0.071   4.979   0.304
 6960SOL    HW121779   0.052   4.882   0.318
 6960SOL    HW221780   0.052   5.003   0.208
 6961SOL     OW21781   0.938   1.820   3.541
 6961SOL    HW121782   1.019   1.792   3.593
 6961SOL    HW221783   0.959   1.816   3.443
 6962SOL     OW21784   5.277   5.432   2.659
 6962SOL    HW121785   5.328   5.503   2.610
 6962SOL    HW221786   5.179   5.449   2.649
 6963SOL     OW21787   0.433   5.004   1.681
 6963SOL    HW121788   0.461   4.908   1.672
 6963SOL    HW221789   0.411   5.041   1.591
 6964SOL     OW21790   4.818   5.231   5.324
 6964SOL    HW121791   4.801   5.311   5.266
 6964SOL    HW221792   4.732   5.184   5.341
 6965SOL     OW21793   6.481   3.459   6.202
 6965SOL    HW121794   6.437   3.392   6.262
 6965SOL    HW221795   6.566   3.421   6.166
 6966SOL     OW21796   5.171   2.937   2.833
 6966SOL    HW121797   5.198   2.987   2.750
 6966SOL    HW221798   5.105   2.867   2.809
 6967SOL     OW21799   1.032   2.189   6.326
 6967SOL    HW121800   1.027   2.222   6.420
 6967SOL    HW221801   1.128   2.180   6.299
 6968SOL     OW21802   4.744   5.580   0.901
 6968SOL    HW121803   4.838   5.613   0.895
 6968SOL    HW221804   4.735   5.522   0.982
 6969SOL     OW21805   3.524   1.113   1.365
 6969SOL    HW121806   3.605   1.121   1.308
 6969SOL    HW221807   3.490   1.018   1.363
 6970SOL     OW21808   3.795   4.661   0.503
 6970SOL    HW121809   3.864   4.589   0.503
 6970SOL    HW221810   3.731   4.646   0.428
 6971SOL     OW21811   6.163   2.657   1.719
 6971SOL    HW121812   6.261   2.674   1.724
 6971SOL    HW221813   6.148   2.568   1.676
 6972SOL     OW21814   5.491   4.414   3.718
 6972SOL    HW121815   5.418   4.479   3.698
 6972SOL    HW221816   5.577   4.463   3.733
 6973SOL     OW21817   1.651   5.113   4.724
 6973SOL    HW121818   1.658   5.187   4.791
 6973SOL    HW221819   1.621   5.150   4.636
 6974SOL     OW21820   3.922   3.905   3.475
 6974SOL    HW121821   3.995   3.858   3.424
 6974SOL    HW221822   3.854   3.940   3.411
 6975SOL     OW21823   3.350   0.403   5.840
 6975SOL    HW121824   3.332   0.402   5.742
 6975SOL    HW221825   3.361   0.309   5.873
 6976SOL     OW21826   2.828   4.704   6.497
 6976SOL    HW121827   2.759   4.762   6.455
 6976SOL    HW221828   2.829   4.615   6.452
 6977SOL     OW21829   4.060   1.673   2.209
 6977SOL    HW121830   3.973   1.687   2.255
 6977SOL    HW221831   4.076   1.575   2.197
 6978SOL     OW21832   6.854   0.803   1.946
 6978SOL    HW121833   6.937   0.828   1.997
 6978SOL    HW221834   6.872   0.721   1.893
 6979SOL     OW21835   1.306   4.900   2.629
 6979SOL    HW121836   1.344   4.946   2.549
 6979SOL    HW221837   1.371   4.904   2.705
 6980SOL     OW21838   2.373   0.993   3.386
 6980SOL    HW121839   2.375   0.984   3.485
 6980SOL    HW221840   2.464   1.014   3.351
 6981SOL     OW21841   2.493   3.952   7.005
 6981SOL    HW121842   2.550   3.977   0.065
 6981SOL    HW221843   2.412   3.902   0.018
 6982SOL     OW21844   1.474   0.971   4.471
 6982SOL    HW121845   1.574   0.977   4.471
 6982SOL    HW221846   1.436   1.051   4.517
 6983SOL     OW21847   6.835   0.304   4.324
 6983SOL    HW121848   6.911   0.246   4.352
 6983SOL    HW221849   6.814   0.288   4.228
 6984SOL     OW21850   2.063   1.559   5.073
 6984SOL    HW121851   2.028   1.496   5.003
 6984SOL    HW221852   2.051   1.654   5.042
 6985SOL     OW21853   3.977   5.824   2.372
 6985SOL    HW121854   3.978   5.776   2.460
 6985SOL    HW221855   3.905   5.893   2.372
 6986SOL     OW21856   1.790   6.248   5.672
 6986SOL    HW121857   1.750   6.216   5.758
 6986SOL    HW221858   1.818   6.343   5.681
 6987SOL     OW21859   0.392   2.636   6.195
 6987SOL    HW121860   0.354   2.544   6.203
 6987SOL    HW221861   0.487   2.636   6.227
 6988SOL     OW21862   5.071   1.550   4.498
 6988SOL    HW121863   5.160   1.553   4.543
 6988SOL    HW221864   5.076   1.489   4.419
 6989SOL     OW21865   0.942   1.388   3.301
 6989SOL    HW121866   0.880   1.313   3.277
 6989SOL    HW221867   1.020   1.387   3.240
 6990SOL     OW21868   4.856   2.377   0.290
 6990SOL    HW121869   4.837   2.359   0.387
 6990SOL    HW221870   4.947   2.342   0.267
 6991SOL     OW21871   2.416   4.384   5.149
 6991SOL    HW121872   2.353   4.356   5.077
 6991SOL    HW221873   2.469   4.305   5.180
 6992SOL     OW21874   6.324   6.539   4.688
 6992SOL    HW121875   6.328   6.461   4.626
 6992SOL    HW221876   6.341   6.508   4.782
 6993SOL     OW21877   6.336   0.122   3.494
 6993SOL    HW121878   6.411   0.154   3.552
 6993SOL    HW221879   6.320   0.025   3.512
 6994SOL     OW21880   1.244   3.416   5.729
 6994SOL    HW121881   1.294   3.477   5.667
 6994SOL    HW221882   1.287   3.418   5.819
 6995SOL     OW21883   5.609   5.472   4.717
 6995SOL    HW121884   5.692   5.426   4.750
 6995SOL    HW221885   5.601   5.460   4.618
 6996SOL     OW21886   2.694   0.861   5.142
 6996SOL    HW121887   2.667   0.954   5.117
 6996SOL    HW221888   2.736   0.862   5.233
 6997SOL     OW21889   4.794   6.002   4.739
 6997SOL    HW121890   4.816   6.094   4.772
 6997SOL    HW221891   4.767   5.945   4.817
 6998SOL     OW21892   1.556   2.858   1.756
 6998SOL    HW121893   1.644   2.828   1.794
 6998SOL    HW221894   1.530   2.945   1.798
 6999SOL     OW21895   2.032   1.956   6.091
 6999SOL    HW121896   2.082   1.886   6.040
 6999SOL    HW221897   1.955   1.989   6.036
 7000SOL     OW21898   0.580   5.754   2.657
 7000SOL    HW121899   0.545   5.669   2.619
 7000SOL    HW221900   0.651   5.734   2.724
 7001SOL     OW21901   2.385   2.332   5.713
 7001SOL    HW121902   2.296   2.375   5.697
 7001SOL    HW221903   2.457   2.401   5.705
 7002SOL     OW21904   2.693   5.112   3.925
 7002SOL    HW121905   2.663   5.052   3.999
 7002SOL    HW221906   2.677   5.207   3.951
 7003SOL     OW21907   2.764   0.063   0.086
 7003SOL    HW121908   2.792   0.124   0.012
 7003SOL    HW221909   2.671   0.030   0.069
 7004SOL     OW21910   2.019   4.055   1.686
 7004SOL    HW121911   2.083   4.095   1.621
 7004SOL    HW221912   1.931   4.103   1.682
 7005SOL     OW21913   6.365   6.123   5.999
 7005SOL    HW121914   6.441   6.085   5.946
 7005SOL    HW221915   6.354   6.073   6.084
 7006SOL     OW21916   4.978   4.110   4.865
 7006SOL    HW121917   4.995   4.206   4.889
 7006SOL    HW221918   4.922   4.106   4.782
 7007SOL     OW21919   4.752   6.680   2.918
 7007SOL    HW121920   4.847   6.703   2.939
 7007SOL    HW221921   4.692   6.750   2.956
 7008SOL     OW21922   2.174   5.183   4.543
 7008SOL    HW121923   2.152   5.086   4.555
 7008SOL    HW221924   2.090   5.237   4.541
 7009SOL     OW21925   6.261   5.883   2.579
 7009SOL    HW121926   6.308   5.959   2.535
 7009SOL    HW221927   6.323   5.839   2.645
 7010SOL     OW21928   3.187   4.715   6.202
 7010SOL    HW121929   3.276   4.735   6.243
 7010SOL    HW221930   3.129   4.670   6.270
 7011SOL     OW21931   2.025   6.720   5.260
 7011SOL    HW121932   2.009   6.670   5.175
 7011SOL    HW221933   1.938   6.732   5.308
 7012SOL     OW21934   1.008   6.943   2.270
 7012SOL    HW121935   1.098   6.921   2.233
 7012SOL    HW221936   0.980   6.873   2.335
 7013SOL     OW21937   0.958   6.724   1.270
 7013SOL    HW121938   1.053   6.694   1.268
 7013SOL    HW221939   0.909   6.677   1.342
 7014SOL     OW21940   3.498   4.316   1.004
 7014SOL    HW121941   3.568   4.345   1.070
 7014SOL    HW221942   3.442   4.394   0.979
 7015SOL     OW21943   5.261   3.068   2.573
 7015SOL    HW121944   5.180   3.095   2.520
 7015SOL    HW221945   5.301   3.148   2.616
 7016SOL     OW21946   4.660   5.203   2.051
 7016SOL    HW121947   4.561   5.188   2.055
 7016SOL    HW221948   4.688   5.263   2.127
 7017SOL     OW21949   2.838   1.395   3.281
 7017SOL    HW121950   2.923   1.433   3.318
 7017SOL    HW221951   2.858   1.345   3.197
 7018SOL     OW21952   0.122   4.285   4.850
 7018SOL    HW121953   0.072   4.254   4.931
 7018SOL    HW221954   0.057   4.311   4.779
 7019SOL     OW21955   2.088   4.464   6.919
 7019SOL    HW121956   2.092   4.367   6.941
 7019SOL    HW221957   1.999   4.501   6.946
 7020SOL     OW21958   6.097   0.319   0.328
 7020SOL    HW121959   5.999   0.321   0.343
 7020SOL    HW221960   6.116   0.304   0.230
 7021SOL     OW21961   2.680   1.236   4.528
 7021SOL    HW121962   2.768   1.232   4.481
 7021SOL    HW221963   2.691   1.287   4.613
 7022SOL     OW21964   5.330   3.313   1.089
 7022SOL    HW121965   5.298   3.220   1.074
 7022SOL    HW221966   5.367   3.321   1.182
 7023SOL     OW21967   6.154   2.405   2.668
 7023SOL    HW121968   6.171   2.496   2.705
 7023SOL    HW221969   6.082   2.360   2.721
 7024SOL     OW21970   1.790   5.644   6.541
 7024SOL    HW121971   1.804   5.723   6.482
 7024SOL    HW221972   1.787   5.561   6.486
 7025SOL     OW21973   2.850   1.776   6.598
 7025SOL    HW121974   2.927   1.713   6.600
 7025SOL    HW221975   2.765   1.726   6.582
 7026SOL     OW21976   3.040   1.290   2.419
 7026SOL    HW121977   2.991   1.296   2.506
 7026SOL    HW221978   3.130   1.332   2.427
 7027SOL     OW21979   4.204   5.540   3.429
 7027SOL    HW121980   4.148   5.528   3.347
 7027SOL    HW221981   4.221   5.637   3.444
 7028SOL     OW21982   4.703   6.656   3.476
 7028SOL    HW121983   4.753   6.693   3.398
 7028SOL    HW221984   4.722   6.711   3.557
 7029SOL     OW21985   3.235   6.510   6.347
 7029SOL    HW121986   3.330   6.541   6.347
 7029SOL    HW221987   3.229   6.422   6.395
 7030SOL     OW21988   0.362   3.841   5.542
 7030SOL    HW121989   0.360   3.885   5.632
 7030SOL    HW221990   0.363   3.910   5.470
 7031SOL     OW21991   2.354   5.971   3.926
 7031SOL    HW121992   2.373   5.895   3.988
 7031SOL    HW221993   2.282   6.028   3.964
 7032SOL     OW21994   4.590   0.121   2.938
 7032SOL    HW121995   4.589   0.064   2.856
 7032SOL    HW221996   4.513   0.097   2.997
 7033SOL     OW21997   6.929   1.040   4.365
 7033SOL    HW121998   6.839   1.061   4.326
 7033SOL    HW221999   6.979   1.126   4.379
 7034SOL     OW22000   4.963   0.259   3.000
 7034SOL    HW122001   5.055   0.290   3.025
 7034SOL    HW222002   4.899   0.285   3.072
 7035SOL     OW22003   1.050   6.436   2.870
 7035SOL    HW122004   1.127   6.430   2.806
 7035SOL    HW222005   0.983   6.503   2.836
 7036SOL     OW22006   6.726   5.608   1.700
 7036SOL    HW122007   6.673   5.525   1.720
 7036SOL    HW222008   6.685   5.686   1.747
 7037SOL     OW22009   0.428   6.496   5.547
 7037SOL    HW122010   0.402   6.496   5.643
 7037SOL    HW222011   0.521   6.531   5.538
 7038SOL     OW22012   1.127   4.362   3.769
 7038SOL    HW122013   1.046   4.414   3.744
 7038SOL    HW222014   1.100   4.274   3.808
 7039SOL     OW22015   3.685   6.951   6.958
 7039SOL    HW122016   3.684   7.014   0.016
 7039SOL    HW222017   3.724   6.997   6.878
 7040SOL     OW22018   4.496   2.859   6.146
 7040SOL    HW122019   4.507   2.760   6.132
 7040SOL    HW222020   4.493   2.879   6.244
 7041SOL     OW22021   1.338   1.039   3.097
 7041SOL    HW122022   1.388   1.001   3.019
 7041SOL    HW222023   1.279   0.968   3.136
 7042SOL     OW22024   4.941   5.216   6.249
 7042SOL    HW122025   4.965   5.309   6.221
 7042SOL    HW222026   4.861   5.218   6.308
 7043SOL     OW22027   1.818   3.018   3.525
 7043SOL    HW122028   1.818   3.107   3.479
 7043SOL    HW222029   1.874   2.954   3.471
 7044SOL     OW22030   4.611   5.087   2.695
 7044SOL    HW122031   4.607   5.171   2.748
 7044SOL    HW222032   4.532   5.081   2.634
 7045SOL     OW22033   5.054   6.575   0.901
 7045SOL    HW122034   5.073   6.632   0.821
 7045SOL    HW222035   4.956   6.571   0.917
 7046SOL     OW22036   3.787   0.954   4.634
 7046SOL    HW122037   3.751   0.944   4.541
 7046SOL    HW222038   3.879   0.994   4.630
 7047SOL     OW22039   0.533   1.913   3.245
 7047SOL    HW122040   0.450   1.966   3.260
 7047SOL    HW222041   0.529   1.869   3.155
 7048SOL     OW22042   1.352   5.975   1.137
 7048SOL    HW122043   1.273   6.017   1.182
 7048SOL    HW222044   1.435   6.027   1.159
 7049SOL     OW22045   1.893   0.663   0.958
 7049SOL    HW122046   1.819   0.600   0.982
 7049SOL    HW222047   1.956   0.617   0.896
 7050SOL     OW22048   3.803   3.944   4.265
 7050SOL    HW122049   3.794   4.017   4.333
 7050SOL    HW222050   3.770   3.975   4.177
 7051SOL     OW22051   6.992   0.707   1.319
 7051SOL    HW122052   6.990   0.659   1.407
 7051SOL    HW222053   6.912   0.767   1.312
 7052SOL     OW22054   6.763   1.913   4.640
 7052SOL    HW122055   6.808   1.958   4.563
 7052SOL    HW222056   6.810   1.939   4.725
 7053SOL     OW22057   0.429   3.946   6.304
 7053SOL    HW122058   0.513   3.896   6.286
 7053SOL    HW222059   0.381   3.963   6.218
 7054SOL     OW22060   6.966   6.283   1.077
 7054SOL    HW122061   0.009   6.352   1.115
 7054SOL    HW222062   6.892   6.265   1.141
 7055SOL     OW22063   4.366   0.385   5.850
 7055SOL    HW122064   4.286   0.344   5.894
 7055SOL    HW222065   4.362   0.370   5.751
 7056SOL     OW22066   5.430   4.648   3.409
 7056SOL    HW122067   5.529   4.644   3.395
 7056SOL    HW222068   5.409   4.635   3.506
 7057SOL     OW22069   0.201   3.977   4.593
 7057SOL    HW122070   0.273   3.974   4.523
 7057SOL    HW222071   0.240   3.962   4.683
 7058SOL     OW22072   0.320   5.646   4.989
 7058SOL    HW122073   0.367   5.689   5.066
 7058SOL    HW222074   0.384   5.634   4.913
 7059SOL     OW22075   0.276   6.671   1.816
 7059SOL    HW122076   0.218   6.710   1.888
 7059SOL    HW222077   0.242   6.581   1.792
 7060SOL     OW22078   3.088   0.304   1.677
 7060SOL    HW122079   3.033   0.388   1.674
 7060SOL    HW222080   3.079   0.255   1.591
 7061SOL     OW22081   0.245   2.001   3.042
 7061SOL    HW122082   0.215   1.949   3.123
 7061SOL    HW222083   0.184   2.078   3.028
 7062SOL     OW22084   5.806   2.184   5.691
 7062SOL    HW122085   5.750   2.234   5.625
 7062SOL    HW222086   5.769   2.093   5.704
 7063SOL     OW22087   1.701   6.150   0.890
 7063SOL    HW122088   1.744   6.217   0.830
 7063SOL    HW222089   1.656   6.080   0.834
 7064SOL     OW22090   4.197   2.232   1.590
 7064SOL    HW122091   4.132   2.157   1.602
 7064SOL    HW222092   4.205   2.282   1.676
 7065SOL     OW22093   4.719   4.009   1.409
 7065SOL    HW122094   4.682   4.031   1.499
 7065SOL    HW222095   4.765   4.089   1.371
 7066SOL     OW22096   3.569   0.946   0.547
 7066SOL    HW122097   3.636   0.964   0.619
 7066SOL    HW222098   3.529   1.033   0.516
 7067SOL     OW22099   1.028   3.910   5.106
 7067SOL    HW122100   1.020   3.812   5.094
 7067SOL    HW222101   1.116   3.942   5.071
 7068SOL     OW22102   1.241   3.070   3.517
 7068SOL    HW122103   1.286   3.003   3.576
 7068SOL    HW222104   1.154   3.098   3.559
 7069SOL     OW22105   6.249   3.883   5.018
 7069SOL    HW122106   6.320   3.853   4.954
 7069SOL    HW222107   6.238   3.982   5.012
 7070SOL     OW22108   6.247   5.172   5.177
 7070SOL    HW122109   6.190   5.202   5.101
 7070SOL    HW222110   6.335   5.217   5.173
 7071SOL     OW22111   1.161   6.125   5.271
 7071SOL    HW122112   1.204   6.110   5.360
 7071SOL    HW222113   1.061   6.121   5.281
 7072SOL     OW22114   6.754   6.423   6.124
 7072SOL    HW122115   6.781   6.495   6.060
 7072SOL    HW222116   6.798   6.438   6.212
 7073SOL     OW22117   6.659   1.051   5.182
 7073SOL    HW122118   6.627   1.137   5.221
 7073SOL    HW222119   6.618   1.038   5.092
 7074SOL     OW22120   3.150   3.075   1.981
 7074SOL    HW122121   3.132   3.005   1.912
 7074SOL    HW222122   3.233   3.051   2.032
 7075SOL     OW22123   1.818   6.132   4.485
 7075SOL    HW122124   1.782   6.224   4.473
 7075SOL    HW222125   1.750   6.065   4.455
 7076SOL     OW22126   3.479   1.568   6.829
 7076SOL    HW122127   3.409   1.515   6.781
 7076SOL    HW222128   3.536   1.507   6.884
 7077SOL     OW22129   2.210   5.227   5.554
 7077SOL    HW122130   2.117   5.192   5.558
 7077SOL    HW222131   2.209   5.320   5.518
 7078SOL     OW22132   6.177   6.877   2.866
 7078SOL    HW122133   6.216   6.946   2.927
 7078SOL    HW222134   6.248   6.843   2.804
 7079SOL     OW22135   6.751   5.957   5.583
 7079SOL    HW122136   6.782   5.908   5.501
 7079SOL    HW222137   6.724   6.050   5.557
 7080SOL     OW22138   4.156   2.060   3.711
 7080SOL    HW122139   4.108   2.088   3.628
 7080SOL    HW222140   4.176   1.962   3.707
 7081SOL     OW22141   3.363   1.421   5.255
 7081SOL    HW122142   3.426   1.498   5.267
 7081SOL    HW222143   3.413   1.341   5.224
 7082SOL     OW22144   5.359   0.184   0.279
 7082SOL    HW122145   5.295   0.244   0.232
 7082SOL    HW222146   5.449   0.228   0.281
 7083SOL     OW22147   2.716   1.033   6.362
 7083SOL    HW122148   2.722   1.004   6.458
 7083SOL    HW222149   2.718   0.952   6.303
 7084SOL     OW22150   0.179   6.617   5.508
 7084SOL    HW122151   0.271   6.600   5.543
 7084SOL    HW222152   0.131   6.680   5.570
 7085SOL     OW22153   2.282   2.052   2.933
 7085SOL    HW122154   2.344   1.973   2.935
 7085SOL    HW222155   2.255   2.070   2.839
 7086SOL     OW22156   5.696   1.015   6.262
 7086SOL    HW122157   5.692   0.949   6.187
 7086SOL    HW222158   5.783   1.007   6.309
 7087SOL     OW22159   0.826   2.853   4.496
 7087SOL    HW122160   0.915   2.886   4.527
 7087SOL    HW222161   0.778   2.810   4.572
 7088SOL     OW22162   4.610   2.588   4.195
 7088SOL    HW122163   4.596   2.572   4.097
 7088SOL    HW222164   4.552   2.525   4.247
 7089SOL     OW22165   3.205   2.599   6.140
 7089SOL    HW122166   3.160   2.571   6.055
 7089SOL    HW222167   3.136   2.631   6.205
 7090SOL     OW22168   2.057   1.360   5.788
 7090SOL    HW122169   1.977   1.303   5.809
 7090SOL    HW222170   2.046   1.402   5.698
 7091SOL     OW22171   0.147   1.178   6.466
 7091SOL    HW122172   0.148   1.167   6.366
 7091SOL    HW222173   0.060   1.218   6.494
 7092SOL     OW22174   4.202   3.777   0.306
 7092SOL    HW122175   4.103   3.770   0.308
 7092SOL    HW222176   4.243   3.686   0.306
 7093SOL     OW22177   3.141   4.016   4.323
 7093SOL    HW122178   3.209   4.013   4.397
 7093SOL    HW222179   3.187   4.025   4.235
 7094SOL     OW22180   0.535   6.944   5.547
 7094SOL    HW122181   0.534   6.987   5.638
 7094SOL    HW222182   0.443   6.945   5.509
 7095SOL     OW22183   2.230   2.909   0.077
 7095SOL    HW122184   2.318   2.947   0.050
 7095SOL    HW222185   2.180   2.878   7.014
 7096SOL     OW22186   5.409   2.359   3.541
 7096SOL    HW122187   5.372   2.321   3.456
 7096SOL    HW222188   5.505   2.334   3.549
 7097SOL     OW22189   0.026   0.579   1.913
 7097SOL    HW122190   0.035   0.574   2.013
 7097SOL    HW222191   0.108   0.542   1.870
 7098SOL     OW22192   1.619   6.138   4.860
 7098SOL    HW122193   1.664   6.049   4.844
 7098SOL    HW222194   1.654   6.178   4.944
 7099SOL     OW22195   1.455   1.294   5.149
 7099SOL    HW122196   1.486   1.258   5.237
 7099SOL    HW222197   1.378   1.239   5.115
 7100SOL     OW22198   5.004   3.715   0.970
 7100SOL    HW122199   4.933   3.786   0.978
 7100SOL    HW222200   4.965   3.626   0.995
 7101SOL     OW22201   3.055   0.391   4.590
 7101SOL    HW122202   2.996   0.383   4.670
 7101SOL    HW222203   3.014   0.453   4.524
 7102SOL     OW22204   4.340   1.023   0.982
 7102SOL    HW122205   4.269   1.067   0.926
 7102SOL    HW222206   4.427   1.070   0.970
 7103SOL     OW22207   3.749   5.733   6.803
 7103SOL    HW122208   3.795   5.663   6.748
 7103SOL    HW222209   3.749   5.705   6.899
 7104SOL     OW22210   1.366   3.600   3.655
 7104SOL    HW122211   1.326   3.539   3.587
 7104SOL    HW222212   1.440   3.553   3.702
 7105SOL     OW22213   3.512   2.928   4.985
 7105SOL    HW122214   3.433   2.977   4.947
 7105SOL    HW222215   3.481   2.859   5.050
 7106SOL     OW22216   3.886   3.039   3.807
 7106SOL    HW122217   3.790   3.011   3.808
 7106SOL    HW222218   3.915   3.056   3.713
 7107SOL     OW22219   2.504   0.926   0.382
 7107SOL    HW122220   2.416   0.895   0.418
 7107SOL    HW222221   2.518   0.888   0.291
 7108SOL     OW22222   4.443   6.306   1.118
 7108SOL    HW122223   4.348   6.338   1.116
 7108SOL    HW222224   4.479   6.299   1.025
 7109SOL     OW22225   3.678   6.935   5.990
 7109SOL    HW122226   3.754   6.999   6.004
 7109SOL    HW222227   3.630   6.958   5.906
 7110SOL     OW22228   5.335   5.235   3.803
 7110SOL    HW122229   5.307   5.331   3.792
 7110SOL    HW222230   5.341   5.192   3.713
 7111SOL     OW22231   1.099   2.911   4.564
 7111SOL    HW122232   1.126   2.994   4.614
 7111SOL    HW222233   1.165   2.892   4.492
 7112SOL     OW22234   1.858   5.367   4.435
 7112SOL    HW122235   1.847   5.306   4.358
 7112SOL    HW222236   1.877   5.460   4.402
 7113SOL     OW22237   3.457   4.114   4.217
 7113SOL    HW122238   3.452   4.195   4.276
 7113SOL    HW222239   3.449   4.031   4.273
 7114SOL     OW22240   4.273   6.936   1.727
 7114SOL    HW122241   4.348   6.908   1.667
 7114SOL    HW222242   4.242   0.009   1.702
 7115SOL     OW22243   5.129   2.236   1.663
 7115SOL    HW122244   5.032   2.221   1.686
 7115SOL    HW222245   5.137   2.320   1.610
 7116SOL     OW22246   5.802   4.113   3.649
 7116SOL    HW122247   5.725   4.085   3.705
 7116SOL    HW222248   5.770   4.139   3.558
 7117SOL     OW22249   0.084   6.679   3.972
 7117SOL    HW122250   0.003   6.689   4.029
 7117SOL    HW222251   0.162   6.653   4.030
 7118SOL     OW22252   5.250   3.686   1.066
 7118SOL    HW122253   5.279   3.594   1.092
 7118SOL    HW222254   5.154   3.683   1.036
 7119SOL     OW22255   4.958   1.085   2.899
 7119SOL    HW122256   4.898   1.124   2.829
 7119SOL    HW222257   5.006   1.159   2.946
 7120SOL     OW22258   4.163   1.898   2.360
 7120SOL    HW122259   4.254   1.937   2.343
 7120SOL    HW222260   4.129   1.856   2.276
 7121SOL     OW22261   2.072   0.039   3.623
 7121SOL    HW122262   1.977   0.059   3.645
 7121SOL    HW222263   2.105   0.102   3.553
 7122SOL     OW22264   0.162   0.517   0.104
 7122SOL    HW122265   0.152   0.477   0.013
 7122SOL    HW222266   0.150   0.616   0.098
 7123SOL     OW22267   3.389   5.701   1.263
 7123SOL    HW122268   3.432   5.730   1.178
 7123SOL    HW222269   3.427   5.754   1.339
 7124SOL     OW22270   1.413   4.442   0.837
 7124SOL    HW122271   1.484   4.512   0.830
 7124SOL    HW222272   1.448   4.355   0.800
 7125SOL     OW22273   6.407   6.314   1.194
 7125SOL    HW122274   6.472   6.337   1.122
 7125SOL    HW222275   6.345   6.390   1.210
 7126SOL     OW22276   2.583   3.689   0.723
 7126SOL    HW122277   2.638   3.712   0.803
 7126SOL    HW222278   2.490   3.667   0.752
 7127SOL     OW22279   3.103   5.238   4.402
 7127SOL    HW122280   3.144   5.147   4.400
 7127SOL    HW222281   3.004   5.230   4.413
 7128SOL     OW22282   3.034   4.652   0.158
 7128SOL    HW122283   2.975   4.575   0.183
 7128SOL    HW222284   3.126   4.618   0.139
 7129SOL     OW22285   2.784   0.557   0.919
 7129SOL    HW122286   2.801   0.620   0.995
 7129SOL    HW222287   2.812   0.465   0.946
 7130SOL     OW22288   3.247   5.013   4.415
 7130SOL    HW122289   3.346   4.998   4.403
 7130SOL    HW222290   3.197   4.951   4.354
 7131SOL     OW22291   2.503   1.598   0.993
 7131SOL    HW122292   2.500   1.666   1.066
 7131SOL    HW222293   2.543   1.638   0.911
 7132SOL     OW22294   4.057   3.429   2.355
 7132SOL    HW122295   4.086   3.522   2.329
 7132SOL    HW222296   4.066   3.418   2.454
 7133SOL     OW22297   5.192   5.061   3.291
 7133SOL    HW122298   5.260   5.125   3.256
 7133SOL    HW222299   5.102   5.082   3.251
 7134SOL     OW22300   6.427   5.905   4.200
 7134SOL    HW122301   6.389   5.941   4.115
 7134SOL    HW222302   6.405   5.808   4.209
 7135SOL     OW22303   1.254   1.192   4.360
 7135SOL    HW122304   1.292   1.160   4.273
 7135SOL    HW222305   1.329   1.220   4.421
 7136SOL     OW22306   1.731   1.445   0.878
 7136SOL    HW122307   1.660   1.385   0.841
 7136SOL    HW222308   1.764   1.506   0.806
 7137SOL     OW22309   4.121   1.559   4.665
 7137SOL    HW122310   4.091   1.578   4.758
 7137SOL    HW222311   4.074   1.478   4.630
 7138SOL     OW22312   2.878   2.812   1.355
 7138SOL    HW122313   2.961   2.848   1.397
 7138SOL    HW222314   2.892   2.805   1.256
 7139SOL     OW22315   4.917   3.161   2.103
 7139SOL    HW122316   4.856   3.081   2.103
 7139SOL    HW222317   4.990   3.147   2.036
 7140SOL     OW22318   6.239   3.087   5.207
 7140SOL    HW122319   6.220   2.989   5.212
 7140SOL    HW222320   6.212   3.130   5.293
 7141SOL     OW22321   3.401   6.988   0.967
 7141SOL    HW122322   3.364   0.029   1.038
 7141SOL    HW222323   3.351   7.002   0.882
 7142SOL     OW22324   4.480   6.913   3.602
 7142SOL    HW122325   4.468   7.006   3.635
 7142SOL    HW222326   4.403   6.888   3.544
 7143SOL     OW22327   1.648   3.136   6.010
 7143SOL    HW122328   1.551   3.111   6.016
 7143SOL    HW222329   1.703   3.053   6.005
 7144SOL     OW22330   0.837   0.915   3.001
 7144SOL    HW122331   0.789   0.831   2.975
 7144SOL    HW222332   0.777   0.994   2.988
 7145SOL     OW22333   4.069   6.368   6.025
 7145SOL    HW122334   4.167   6.347   6.016
 7145SOL    HW222335   4.016   6.300   5.976
 7146SOL     OW22336   1.948   7.005   0.768
 7146SOL    HW122337   2.015   6.956   0.713
 7146SOL    HW222338   1.994   0.036   0.842
 7147SOL     OW22339   6.166   6.976   3.682
 7147SOL    HW122340   6.261   6.949   3.664
 7147SOL    HW222341   6.144   0.039   3.629
 7148SOL     OW22342   1.061   5.917   1.782
 7148SOL    HW122343   1.008   5.879   1.858
 7148SOL    HW222344   1.002   5.929   1.702
 7149SOL     OW22345   6.473   0.366   3.606
 7149SOL    HW122346   6.567   0.356   3.637
 7149SOL    HW222347   6.472   0.405   3.514
 7150SOL     OW22348   4.718   2.989   1.411
 7150SOL    HW122349   4.690   2.969   1.504
 7150SOL    HW222350   4.733   3.088   1.401
 7151SOL     OW22351   1.634   5.482   0.948
 7151SOL    HW122352   1.636   5.489   0.848
 7151SOL    HW222353   1.701   5.546   0.986
 7152SOL     OW22354   0.492   3.450   5.547
 7152SOL    HW122355   0.468   3.359   5.512
 7152SOL    HW222356   0.454   3.519   5.485
 7153SOL     OW22357   3.872   6.415   5.066
 7153SOL    HW122358   3.838   6.473   5.140
 7153SOL    HW222359   3.795   6.366   5.024
 7154SOL     OW22360   4.344   5.768   4.855
 7154SOL    HW122361   4.358   5.693   4.920
 7154SOL    HW222362   4.391   5.747   4.769
 7155SOL     OW22363   1.826   5.959   1.621
 7155SOL    HW122364   1.842   6.029   1.552
 7155SOL    HW222365   1.739   5.913   1.602
 7156SOL     OW22366   0.133   5.195   4.447
 7156SOL    HW122367   0.223   5.150   4.443
 7156SOL    HW222368   0.064   5.129   4.478
 7157SOL     OW22369   6.355   5.285   0.808
 7157SOL    HW122370   6.276   5.343   0.828
 7157SOL    HW222371   6.327   5.210   0.748
 7158SOL     OW22372   6.938   6.965   3.546
 7158SOL    HW122373   6.931   0.046   3.540
 7158SOL    HW222374   6.930   6.936   3.641
 7159SOL     OW22375   0.472   4.391   1.534
 7159SOL    HW122376   0.476   4.449   1.452
 7159SOL    HW222377   0.557   4.399   1.585
 7160SOL     OW22378   6.741   0.943   2.283
 7160SOL    HW122379   6.734   0.845   2.301
 7160SOL    HW222380   6.689   0.966   2.201
 7161SOL     OW22381   3.182   3.991   4.057
 7161SOL    HW122382   3.228   3.912   4.016
 7161SOL    HW222383   3.161   4.057   3.986
 7162SOL     OW22384   3.063   5.446   5.336
 7162SOL    HW122385   3.013   5.396   5.407
 7162SOL    HW222386   3.023   5.425   5.246
 7163SOL     OW22387   3.622   0.003   4.229
 7163SOL    HW122388   3.591   6.971   4.148
 7163SOL    HW222389   3.601   0.100   4.219
 7164SOL     OW22390   1.584   1.730   2.821
 7164SOL    HW122391   1.542   1.772   2.902
 7164SOL    HW222392   1.629   1.800   2.766
 7165SOL     OW22393   5.912   0.615   0.475
 7165SOL    HW122394   6.008   0.631   0.453
 7165SOL    HW222395   5.881   0.531   0.430
 7166SOL     OW22396   4.848   4.261   1.601
 7166SOL    HW122397   4.934   4.227   1.639
 7166SOL    HW222398   4.801   4.317   1.670
 7167SOL     OW22399   5.165   3.688   4.889
 7167SOL    HW122400   5.260   3.660   4.894
 7167SOL    HW222401   5.158   3.773   4.836
 7168SOL     OW22402   1.196   1.977   4.172
 7168SOL    HW122403   1.292   1.954   4.158
 7168SOL    HW222404   1.181   2.002   4.268
 7169SOL     OW22405   1.611   2.943   5.640
 7169SOL    HW122406   1.513   2.962   5.633
 7169SOL    HW222407   1.659   3.028   5.663
 7170SOL     OW22408   4.453   5.213   3.484
 7170SOL    HW122409   4.400   5.160   3.417
 7170SOL    HW222410   4.398   5.232   3.564
 7171SOL     OW22411   5.352   3.406   6.176
 7171SOL    HW122412   5.443   3.407   6.134
 7171SOL    HW222413   5.359   3.371   6.270
 7172SOL     OW22414   1.533   6.853   6.601
 7172SOL    HW122415   1.619   6.809   6.573
 7172SOL    HW222416   1.471   6.783   6.638
 7173SOL     OW22417   6.757   5.260   4.951
 7173SOL    HW122418   6.843   5.209   4.953
 7173SOL    HW222419   6.769   5.343   4.897
 7174SOL     OW22420   1.117   5.295   6.927
 7174SOL    HW122421   1.077   5.353   6.998
 7174SOL    HW222422   1.209   5.267   6.955
 7175SOL     OW22423   5.013   3.067   1.167
 7175SOL    HW122424   4.951   3.138   1.201
 7175SOL    HW222425   5.088   3.055   1.232
 7176SOL     OW22426   0.427   5.434   2.309
 7176SOL    HW122427   0.480   5.462   2.389
 7176SOL    HW222428   0.388   5.515   2.265
 7177SOL     OW22429   1.699   6.051   4.090
 7177SOL    HW122430   1.732   6.009   4.006
 7177SOL    HW222431   1.730   6.145   4.095
 7178SOL     OW22432   2.220   2.606   6.059
 7178SOL    HW122433   2.266   2.563   6.136
 7178SOL    HW222434   2.288   2.629   5.989
 7179SOL     OW22435   2.134   3.319   5.811
 7179SOL    HW122436   2.116   3.353   5.904
 7179SOL    HW222437   2.083   3.234   5.796
 7180SOL     OW22438   0.937   5.391   6.432
 7180SOL    HW122439   1.002   5.384   6.508
 7180SOL    HW222440   0.960   5.323   6.362
 7181SOL     OW22441   3.906   0.115   0.560
 7181SOL    HW122442   3.964   0.035   0.578
 7181SOL    HW222443   3.810   0.090   0.572
 7182SOL     OW22444   1.916   3.935   5.981
 7182SOL    HW122445   1.905   3.983   5.894
 7182SOL    HW222446   1.952   3.843   5.964
 7183SOL     OW22447   1.874   4.820   2.815
 7183SOL    HW122448   1.959   4.823   2.867
 7183SOL    HW222449   1.803   4.869   2.864
 7184SOL     OW22450   0.496   6.932   3.244
 7184SOL    HW122451   0.402   6.917   3.212
 7184SOL    HW222452   0.498   7.010   3.306
 7185SOL     OW22453   5.014   2.601   6.857
 7185SOL    HW122454   5.091   2.567   6.911
 7185SOL    HW222455   4.949   2.528   6.842
 7186SOL     OW22456   0.012   6.948   5.327
 7186SOL    HW122457   0.087   6.988   5.379
 7186SOL    HW222458   6.962   6.911   5.390
 7187SOL     OW22459   1.862   4.332   1.751
 7187SOL    HW122460   1.831   4.417   1.708
 7187SOL    HW222461   1.791   4.300   1.815
 7188SOL     OW22462   5.782   6.981   1.473
 7188SOL    HW122463   5.686   6.952   1.480
 7188SOL    HW222464   5.790   0.058   1.503
 7189SOL     OW22465   6.357   1.695   6.332
 7189SOL    HW122466   6.267   1.673   6.370
 7189SOL    HW222467   6.347   1.718   6.235
 7190SOL     OW22468   5.318   3.995   3.594
 7190SOL    HW122469   5.405   3.951   3.574
 7190SOL    HW222470   5.325   4.094   3.581
 7191SOL     OW22471   1.020   4.192   2.535
 7191SOL    HW122472   1.087   4.118   2.522
 7191SOL    HW222473   1.068   4.275   2.564
 7192SOL     OW22474   2.293   6.252   5.557
 7192SOL    HW122475   2.220   6.252   5.625
 7192SOL    HW222476   2.363   6.319   5.583
 7193SOL     OW22477   3.108   2.113   4.046
 7193SOL    HW122478   3.190   2.108   4.102
 7193SOL    HW222479   3.134   2.123   3.950
 7194SOL     OW22480   2.117   1.585   1.126
 7194SOL    HW122481   2.065   1.557   1.046
 7194SOL    HW222482   2.115   1.685   1.133
 7195SOL     OW22483   0.463   4.718   0.267
 7195SOL    HW122484   0.454   4.793   0.201
 7195SOL    HW222485   0.507   4.752   0.350
 7196SOL     OW22486   3.232   3.107   2.949
 7196SOL    HW122487   3.306   3.057   2.903
 7196SOL    HW222488   3.151   3.109   2.891
 7197SOL     OW22489   6.743   2.136   5.836
 7197SOL    HW122490   6.785   2.141   5.927
 7197SOL    HW222491   6.811   2.160   5.767
 7198SOL     OW22492   1.117   0.176   6.203
 7198SOL    HW122493   1.212   0.162   6.179
 7198SOL    HW222494   1.058   0.130   6.137
 7199SOL     OW22495   0.805   0.863   2.204
 7199SOL    HW122496   0.709   0.843   2.224
 7199SOL    HW222497   0.847   0.907   2.284
 7200SOL     OW22498   2.535   0.516   0.254
 7200SOL    HW122499   2.574   0.572   0.328
 7200SOL    HW222500   2.496   0.433   0.293
 7201SOL     OW22501   2.076   5.170   3.287
 7201SOL    HW122502   2.037   5.095   3.341
 7201SOL    HW222503   2.046   5.161   3.192
 7202SOL     OW22504   3.908   0.384   6.365
 7202SOL    HW122505   3.822   0.340   6.339
 7202SOL    HW222506   3.926   0.365   6.462
 7203SOL     OW22507   6.170   0.624   0.722
 7203SOL    HW122508   6.131   0.683   0.651
 7203SOL    HW222509   6.123   0.535   0.721
 7204SOL     OW22510   6.137   6.727   4.395
 7204SOL    HW122511   6.102   6.760   4.482
 7204SOL    HW222512   6.210   6.788   4.363
 7205SOL     OW22513   1.381   5.805   2.977
 7205SOL    HW122514   1.396   5.718   2.930
 7205SOL    HW222515   1.408   5.797   3.073
 7206SOL     OW22516   0.313   1.253   1.288
 7206SOL    HW122517   0.297   1.270   1.385
 7206SOL    HW222518   0.328   1.155   1.273
 7207SOL     OW22519   3.783   0.425   1.298
 7207SOL    HW122520   3.751   0.514   1.330
 7207SOL    HW222521   3.784   0.423   1.198
 7208SOL     OW22522   4.110   6.571   4.293
 7208SOL    HW122523   4.063   6.637   4.351
 7208SOL    HW222524   4.174   6.619   4.233
 7209SOL     OW22525   3.194   3.270   3.676
 7209SOL    HW122526   3.219   3.175   3.653
 7209SOL    HW222527   3.179   3.321   3.592
 7210SOL     OW22528   4.405   1.399   3.238
 7210SOL    HW122529   4.492   1.434   3.272
 7210SOL    HW222530   4.340   1.475   3.227
 7211SOL     OW22531   1.016   6.220   3.461
 7211SOL    HW122532   0.957   6.259   3.532
 7211SOL    HW222533   0.960   6.192   3.383
 7212SOL     OW22534   0.769   6.204   4.247
 7212SOL    HW122535   0.678   6.169   4.273
 7212SOL    HW222536   0.785   6.291   4.294
 7213SOL     OW22537   5.263   6.541   5.032
 7213SOL    HW122538   5.229   6.457   5.074
 7213SOL    HW222539   5.324   6.518   4.956
 7214SOL     OW22540   2.414   5.844   4.373
 7214SOL    HW122541   2.372   5.772   4.428
 7214SOL    HW222542   2.507   5.816   4.347
 7215SOL     OW22543   0.598   2.941   4.376
 7215SOL    HW122544   0.683   2.899   4.408
 7215SOL    HW222545   0.616   2.992   4.292
 7216SOL     OW22546   2.733   4.707   6.916
 7216SOL    HW122547   2.772   4.660   6.836
 7216SOL    HW222548   2.800   4.771   6.953
 7217SOL     OW22549   1.639   4.477   2.037
 7217SOL    HW122550   1.560   4.518   1.992
 7217SOL    HW222551   1.711   4.546   2.046
 7218SOL     OW22552   4.798   2.624   5.330
 7218SOL    HW122553   4.714   2.613   5.277
 7218SOL    HW222554   4.778   2.614   5.427
 7219SOL     OW22555   4.490   6.666   3.277
 7219SOL    HW122556   4.496   6.589   3.213
 7219SOL    HW222557   4.546   6.646   3.357
 7220SOL     OW22558   6.467   0.435   3.265
 7220SOL    HW122559   6.411   0.460   3.187
 7220SOL    HW222560   6.534   0.365   3.238
 7221SOL     OW22561   5.330   4.814   5.563
 7221SOL    HW122562   5.373   4.789   5.476
 7221SOL    HW222563   5.230   4.806   5.554
 7222SOL     OW22564   6.638   6.626   0.718
 7222SOL    HW122565   6.580   6.704   0.696
 7222SOL    HW222566   6.674   6.635   0.810
 7223SOL     OW22567   3.194   2.072   0.898
 7223SOL    HW122568   3.279   2.124   0.892
 7223SOL    HW222569   3.152   2.086   0.987
 7224SOL     OW22570   5.651   1.497   4.557
 7224SOL    HW122571   5.682   1.452   4.473
 7224SOL    HW222572   5.561   1.538   4.541
 7225SOL     OW22573   1.764   5.660   0.184
 7225SOL    HW122574   1.745   5.562   0.192
 7225SOL    HW222575   1.712   5.710   0.253
 7226SOL     OW22576   0.308   0.104   0.312
 7226SOL    HW122577   0.334   0.172   0.380
 7226SOL    HW222578   0.386   0.083   0.253
 7227SOL     OW22579   0.446   1.951   0.159
 7227SOL    HW122580   0.408   1.920   0.072
 7227SOL    HW222581   0.490   2.040   0.146
 7228SOL     OW22582   0.417   6.844   2.047
 7228SOL    HW122583   0.493   6.797   2.094
 7228SOL    HW222584   0.345   6.778   2.027
 7229SOL     OW22585   1.138   0.590   4.340
 7229SOL    HW122586   1.199   0.669   4.335
 7229SOL    HW222587   1.170   0.518   4.279
 7230SOL     OW22588   4.298   5.206   4.595
 7230SOL    HW122589   4.328   5.130   4.539
 7230SOL    HW222590   4.199   5.202   4.608
 7231SOL     OW22591   5.455   1.785   6.351
 7231SOL    HW122592   5.407   1.801   6.437
 7231SOL    HW222593   5.388   1.763   6.279
 7232SOL     OW22594   3.856   5.354   3.241
 7232SOL    HW122595   3.815   5.335   3.330
 7232SOL    HW222596   3.892   5.270   3.202
 7233SOL     OW22597   0.506   2.816   5.089
 7233SOL    HW122598   0.543   2.729   5.122
 7233SOL    HW222599   0.529   2.889   5.154
 7234SOL     OW22600   5.766   2.482   1.931
 7234SOL    HW122601   5.823   2.454   1.855
 7234SOL    HW222602   5.821   2.491   2.014
 7235SOL     OW22603   5.968   3.903   4.276
 7235SOL    HW122604   6.025   3.884   4.195
 7235SOL    HW222605   5.896   3.969   4.251
 7236SOL     OW22606   3.420   1.716   2.938
 7236SOL    HW122607   3.339   1.764   2.904
 7236SOL    HW222608   3.471   1.678   2.860
 7237SOL     OW22609   6.817   6.258   5.307
 7237SOL    HW122610   6.788   6.337   5.254
 7237SOL    HW222611   6.917   6.257   5.315
 7238SOL     OW22612   2.492   1.029   2.254
 7238SOL    HW122613   2.500   1.125   2.228
 7238SOL    HW222614   2.411   0.989   2.213
 7239SOL     OW22615   1.952   1.741   3.021
 7239SOL    HW122616   1.901   1.673   2.968
 7239SOL    HW222617   1.888   1.807   3.060
 7240SOL     OW22618   3.011   4.181   0.602
 7240SOL    HW122619   3.004   4.124   0.520
 7240SOL    HW222620   2.949   4.146   0.672
 7241SOL     OW22621   3.538   0.731   5.676
 7241SOL    HW122622   3.581   0.658   5.623
 7241SOL    HW222623   3.608   0.787   5.719
 7242SOL     OW22624   5.859   4.241   0.268
 7242SOL    HW122625   5.921   4.209   0.197
 7242SOL    HW222626   5.772   4.191   0.261
 7243SOL     OW22627   1.377   4.649   6.480
 7243SOL    HW122628   1.429   4.730   6.507
 7243SOL    HW222629   1.339   4.663   6.388
 7244SOL     OW22630   5.258   1.340   0.768
 7244SOL    HW122631   5.297   1.248   0.760
 7244SOL    HW222632   5.239   1.376   0.676
 7245SOL     OW22633   0.067   2.240   4.947
 7245SOL    HW122634   0.043   2.274   5.038
 7245SOL    HW222635   0.120   2.156   4.956
 7246SOL     OW22636   6.050   6.901   4.957
 7246SOL    HW122637   6.040   7.001   4.957
 7246SOL    HW222638   6.131   6.876   4.904
 7247SOL     OW22639   2.511   6.377   1.723
 7247SOL    HW122640   2.472   6.288   1.749
 7247SOL    HW222641   2.548   6.370   1.631
 7248SOL     OW22642   3.754   1.017   4.159
 7248SOL    HW122643   3.743   1.100   4.105
 7248SOL    HW222644   3.844   0.977   4.142
 7249SOL     OW22645   5.254   4.540   1.038
 7249SOL    HW122646   5.171   4.587   1.010
 7249SOL    HW222647   5.230   4.450   1.076
 7250SOL     OW22648   2.089   4.905   6.759
 7250SOL    HW122649   2.126   4.977   6.701
 7250SOL    HW222650   2.069   4.824   6.703
 7251SOL     OW22651   6.727   6.482   5.141
 7251SOL    HW122652   6.752   6.579   5.146
 7251SOL    HW222653   6.788   6.435   5.077
 7252SOL     OW22654   3.308   3.311   4.744
 7252SOL    HW122655   3.238   3.375   4.713
 7252SOL    HW222656   3.397   3.356   4.745
 7253SOL     OW22657   2.750   6.184   0.955
 7253SOL    HW122658   2.665   6.236   0.969
 7253SOL    HW222659   2.741   6.094   0.998
 7254SOL     OW22660   3.734   5.259   4.143
 7254SOL    HW122661   3.742   5.312   4.228
 7254SOL    HW222662   3.715   5.163   4.165
 7255SOL     OW22663   2.907   3.177   1.987
 7255SOL    HW122664   2.999   3.137   1.987
 7255SOL    HW222665   2.839   3.104   1.987
 7256SOL     OW22666   4.453   5.004   4.469
 7256SOL    HW122667   4.543   4.966   4.493
 7256SOL    HW222668   4.383   4.934   4.484
 7257SOL     OW22669   5.895   2.186   3.213
 7257SOL    HW122670   5.860   2.126   3.142
 7257SOL    HW222671   5.995   2.185   3.211
 7258SOL     OW22672   4.066   0.478   4.487
 7258SOL    HW122673   3.998   0.479   4.414
 7258SOL    HW222674   4.081   0.571   4.521
 7259SOL     OW22675   2.505   3.774   6.805
 7259SOL    HW122676   2.524   3.819   6.892
 7259SOL    HW222677   2.483   3.843   6.736
 7260SOL     OW22678   3.626   2.078   2.686
 7260SOL    HW122679   3.553   2.094   2.752
 7260SOL    HW222680   3.599   2.004   2.624
 7261SOL     OW22681   2.398   3.330   1.630
 7261SOL    HW122682   2.451   3.249   1.657
 7261SOL    HW222683   2.397   3.395   1.706
 7262SOL     OW22684   5.356   2.101   4.766
 7262SOL    HW122685   5.388   2.155   4.689
 7262SOL    HW222686   5.256   2.098   4.766
 7263SOL     OW22687   1.193   5.646   1.439
 7263SOL    HW122688   1.270   5.602   1.392
 7263SOL    HW222689   1.123   5.670   1.373
 7264SOL     OW22690   6.864   1.029   6.768
 7264SOL    HW122691   6.842   1.069   6.679
 7264SOL    HW222692   6.947   1.071   6.803
 7265SOL     OW22693   5.289   4.961   6.006
 7265SOL    HW122694   5.292   4.866   5.974
 7265SOL    HW222695   5.317   5.022   5.933
 7266SOL     OW22696   4.842   0.464   1.723
 7266SOL    HW122697   4.853   0.375   1.679
 7266SOL    HW222698   4.932   0.506   1.737
 7267SOL     OW22699   0.322   3.921   4.861
 7267SOL    HW122700   0.292   3.924   4.957
 7267SOL    HW222701   0.404   3.864   4.854
 7268SOL     OW22702   3.974   6.078   1.635
 7268SOL    HW122703   3.983   5.980   1.617
 7268SOL    HW222704   4.063   6.117   1.657
 7269SOL     OW22705   0.855   5.349   1.681
 7269SOL    HW122706   0.893   5.257   1.690
 7269SOL    HW222707   0.833   5.385   1.772
 7270SOL     OW22708   2.432   1.778   2.974
 7270SOL    HW122709   2.377   1.701   2.940
 7270SOL    HW222710   2.471   1.754   3.063
 7271SOL     OW22711   0.327   3.821   2.776
 7271SOL    HW122712   0.247   3.880   2.766
 7271SOL    HW222713   0.297   3.730   2.806
 7272SOL     OW22714   4.887   2.918   2.788
 7272SOL    HW122715   4.839   2.834   2.814
 7272SOL    HW222716   4.867   2.990   2.855
 7273SOL     OW22717   5.593   4.258   1.783
 7273SOL    HW122718   5.560   4.331   1.724
 7273SOL    HW222719   5.540   4.175   1.767
 7274SOL     OW22720   6.786   5.226   5.614
 7274SOL    HW122721   6.884   5.227   5.597
 7274SOL    HW222722   6.765   5.279   5.696
 7275SOL     OW22723   0.090   0.472   6.829
 7275SOL    HW122724   0.177   0.471   6.780
 7275SOL    HW222725   0.033   0.547   6.794
 7276SOL     OW22726   1.937   2.395   3.895
 7276SOL    HW122727   1.925   2.437   3.984
 7276SOL    HW222728   1.911   2.299   3.899
 7277SOL     OW22729   4.961   1.463   5.098
 7277SOL    HW122730   4.933   1.500   5.009
 7277SOL    HW222731   4.991   1.538   5.157
 7278SOL     OW22732   3.726   1.099   3.696
 7278SOL    HW122733   3.647   1.102   3.757
 7278SOL    HW222734   3.739   1.006   3.663
 7279SOL     OW22735   4.405   4.552   0.174
 7279SOL    HW122736   4.348   4.482   0.215
 7279SOL    HW222737   4.493   4.513   0.147
 7280SOL     OW22738   5.253   1.705   5.408
 7280SOL    HW122739   5.338   1.675   5.365
 7280SOL    HW222740   5.176   1.683   5.349
 7281SOL     OW22741   3.686   6.619   1.633
 7281SOL    HW122742   3.660   6.600   1.728
 7281SOL    HW222743   3.765   6.680   1.632
 7282SOL     OW22744   6.618   5.582   2.097
 7282SOL    HW122745   6.539   5.522   2.105
 7282SOL    HW222746   6.701   5.531   2.120
 7283SOL     OW22747   3.277   5.618   2.679
 7283SOL    HW122748   3.294   5.520   2.672
 7283SOL    HW222749   3.238   5.639   2.769
 7284SOL     OW22750   6.639   2.362   3.877
 7284SOL    HW122751   6.720   2.346   3.933
 7284SOL    HW222752   6.654   2.442   3.819
 7285SOL     OW22753   4.946   2.935   1.914
 7285SOL    HW122754   4.991   2.847   1.929
 7285SOL    HW222755   4.857   2.934   1.959
 7286SOL     OW22756   0.560   1.042   0.754
 7286SOL    HW122757   0.518   0.985   0.683
 7286SOL    HW222758   0.543   1.138   0.733
 7287SOL     OW22759   1.113   2.005   3.668
 7287SOL    HW122760   1.023   1.971   3.642
 7287SOL    HW222761   1.115   2.021   3.767
 7288SOL     OW22762   3.130   2.116   3.042
 7288SOL    HW122763   3.083   2.179   3.105
 7288SOL    HW222764   3.105   2.138   2.948
 7289SOL     OW22765   6.270   2.471   1.487
 7289SOL    HW122766   6.311   2.434   1.404
 7289SOL    HW222767   6.341   2.514   1.543
 7290SOL     OW22768   4.082   1.870   4.849
 7290SOL    HW122769   4.173   1.884   4.887
 7290SOL    HW222770   4.076   1.916   4.760
 7291SOL     OW22771   3.724   0.516   6.914
 7291SOL    HW122772   3.816   0.482   6.933
 7291SOL    HW222773   3.700   0.495   6.819
 7292SOL     OW22774   1.905   0.207   3.293
 7292SOL    HW122775   1.811   0.209   3.259
 7292SOL    HW222776   1.935   0.112   3.300
 7293SOL     OW22777   1.268   0.646   5.268
 7293SOL    HW122778   1.231   0.690   5.350
 7293SOL    HW222779   1.325   0.569   5.295
 7294SOL     OW22780   3.144   4.902   1.569
 7294SOL    HW122781   3.182   4.987   1.534
 7294SOL    HW222782   3.194   4.876   1.652
 7295SOL     OW22783   6.370   5.462   2.524
 7295SOL    HW122784   6.432   5.528   2.566
 7295SOL    HW222785   6.327   5.505   2.444
 7296SOL     OW22786   4.158   4.793   2.351
 7296SOL    HW122787   4.133   4.876   2.401
 7296SOL    HW222788   4.082   4.729   2.351
 7297SOL     OW22789   3.235   6.094   1.734
 7297SOL    HW122790   3.251   6.171   1.672
 7297SOL    HW222791   3.306   6.092   1.803
 7298SOL     OW22792   4.960   5.639   6.610
 7298SOL    HW122793   4.984   5.585   6.529
 7298SOL    HW222794   4.990   5.733   6.597
 7299SOL     OW22795   1.266   3.003   0.417
 7299SOL    HW122796   1.287   3.100   0.430
 7299SOL    HW222797   1.286   2.977   0.322
 7300SOL     OW22798   0.707   5.022   1.473
 7300SOL    HW122799   0.626   5.081   1.474
 7300SOL    HW222800   0.737   5.007   1.567
 7301SOL     OW22801   5.529   6.837   5.369
 7301SOL    HW122802   5.524   6.934   5.392
 7301SOL    HW222803   5.551   6.784   5.451
 7302SOL     OW22804   5.019   2.777   6.005
 7302SOL    HW122805   4.939   2.800   6.060
 7302SOL    HW222806   5.012   2.822   5.916
 7303SOL     OW22807   2.362   1.097   0.995
 7303SOL    HW122808   2.408   1.186   1.002
 7303SOL    HW222809   2.376   1.046   1.080
 7304SOL     OW22810   3.079   5.274   1.915
 7304SOL    HW122811   3.078   5.256   2.013
 7304SOL    HW222812   3.050   5.191   1.866
 7305SOL     OW22813   5.821   2.257   0.420
 7305SOL    HW122814   5.896   2.246   0.355
 7305SOL    HW222815   5.847   2.217   0.508
 7306SOL     OW22816   2.448   1.397   1.477
 7306SOL    HW122817   2.524   1.351   1.431
 7306SOL    HW222818   2.387   1.437   1.407
 7307SOL     OW22819   1.676   6.425   1.466
 7307SOL    HW122820   1.599   6.432   1.529
 7307SOL    HW222821   1.748   6.489   1.493
 7308SOL     OW22822   4.765   0.736   1.620
 7308SOL    HW122823   4.803   0.772   1.706
 7308SOL    HW222824   4.769   0.636   1.622
 7309SOL     OW22825   2.429   5.240   2.516
 7309SOL    HW122826   2.424   5.148   2.554
 7309SOL    HW222827   2.510   5.248   2.458
 7310SOL     OW22828   1.653   2.554   0.282
 7310SOL    HW122829   1.595   2.564   0.362
 7310SOL    HW222830   1.678   2.458   0.271
 7311SOL     OW22831   0.429   7.012   6.860
 7311SOL    HW122832   0.459   0.087   6.879
 7311SOL    HW222833   0.476   6.978   6.779
 7312SOL     OW22834   0.415   2.614   5.674
 7312SOL    HW122835   0.347   2.688   5.676
 7312SOL    HW222836   0.411   2.562   5.759
 7313SOL     OW22837   2.331   0.863   2.099
 7313SOL    HW122838   2.426   0.854   2.068
 7313SOL    HW222839   2.315   0.798   2.174
 7314SOL     OW22840   0.086   4.363   0.051
 7314SOL    HW122841   7.015   4.319   0.039
 7314SOL    HW222842   0.132   4.323   0.131
 7315SOL     OW22843   0.670   5.072   2.326
 7315SOL    HW122844   0.620   5.133   2.264
 7315SOL    HW222845   0.647   4.977   2.304
 7316SOL     OW22846   2.995   2.007   6.809
 7316SOL    HW122847   3.075   1.948   6.803
 7316SOL    HW222848   2.915   1.952   6.836
 7317SOL     OW22849   3.392   1.228   1.743
 7317SOL    HW122850   3.372   1.167   1.820
 7317SOL    HW222851   3.472   1.284   1.766
 7318SOL     OW22852   3.633   0.174   1.812
 7318SOL    HW122853   3.633   0.085   1.767
 7318SOL    HW222854   3.593   0.242   1.751
 7319SOL     OW22855   6.430   4.791   0.251
 7319SOL    HW122856   6.521   4.751   0.263
 7319SOL    HW222857   6.392   4.761   0.163
 7320SOL     OW22858   6.860   3.523   1.350
 7320SOL    HW122859   6.941   3.465   1.355
 7320SOL    HW222860   6.791   3.490   1.414
 7321SOL     OW22861   2.428   6.131   6.483
 7321SOL    HW122862   2.336   6.093   6.483
 7321SOL    HW222863   2.441   6.187   6.565
 7322SOL     OW22864   0.307   2.381   2.045
 7322SOL    HW122865   0.384   2.369   2.108
 7322SOL    HW222866   0.246   2.452   2.080
 7323SOL     OW22867   1.114   1.739   0.908
 7323SOL    HW122868   1.018   1.768   0.900
 7323SOL    HW222869   1.172   1.819   0.922
 7324SOL     OW22870   6.019   4.630   3.223
 7324SOL    HW122871   5.927   4.598   3.201
 7324SOL    HW222872   6.030   4.637   3.322
 7325SOL     OW22873   3.897   1.102   5.951
 7325SOL    HW122874   3.882   1.200   5.963
 7325SOL    HW222875   3.817   1.052   5.985
 7326SOL     OW22876   2.526   0.777   6.779
 7326SOL    HW122877   2.523   0.721   6.861
 7326SOL    HW222878   2.464   0.739   6.710
 7327SOL     OW22879   5.910   3.894   3.038
 7327SOL    HW122880   5.879   3.939   3.122
 7327SOL    HW222881   6.009   3.879   3.044
 7328SOL     OW22882   4.294   4.921   5.390
 7328SOL    HW122883   4.335   4.945   5.478
 7328SOL    HW222884   4.292   4.822   5.379
 7329SOL     OW22885   2.475   3.022   0.944
 7329SOL    HW122886   2.432   3.040   0.855
 7329SOL    HW222887   2.554   2.963   0.931
 7330SOL     OW22888   3.475   2.829   1.609
 7330SOL    HW122889   3.522   2.750   1.649
 7330SOL    HW222890   3.490   2.829   1.510
 7331SOL     OW22891   4.235   0.184   1.631
 7331SOL    HW122892   4.217   0.228   1.543
 7331SOL    HW222893   4.158   0.202   1.693
 7332SOL     OW22894   2.992   4.196   6.990
 7332SOL    HW122895   3.073   4.146   6.962
 7332SOL    HW222896   2.912   4.137   6.984
 7333SOL     OW22897   6.578   2.576   1.935
 7333SOL    HW122898   6.625   2.511   1.994
 7333SOL    HW222899   6.521   2.637   1.991
 7334SOL     OW22900   2.832   6.682   5.819
 7334SOL    HW122901   2.930   6.670   5.835
 7334SOL    HW222902   2.788   6.710   5.905
 7335SOL     OW22903   6.618   3.184   2.566
 7335SOL    HW122904   6.560   3.122   2.513
 7335SOL    HW222905   6.566   3.266   2.589
 7336SOL     OW22906   1.675   5.907   1.093
 7336SOL    HW122907   1.612   5.830   1.104
 7336SOL    HW222908   1.663   5.947   1.002
 7337SOL     OW22909   2.204   2.380   2.294
 7337SOL    HW122910   2.233   2.475   2.296
 7337SOL    HW222911   2.119   2.370   2.346
 7338SOL     OW22912   5.656   3.105   1.702
 7338SOL    HW122913   5.615   3.123   1.792
 7338SOL    HW222914   5.698   3.015   1.702
 7339SOL     OW22915   6.327   5.703   5.329
 7339SOL    HW122916   6.386   5.632   5.368
 7339SOL    HW222917   6.347   5.713   5.232
 7340SOL     OW22918   2.488   0.645   0.003
 7340SOL    HW122919   2.391   0.636   6.999
 7340SOL    HW222920   2.507   0.596   0.089
 7341SOL     OW22921   0.404   5.125   4.370
 7341SOL    HW122922   0.364   5.046   4.325
 7341SOL    HW222923   0.404   5.203   4.307
 7342SOL     OW22924   6.816   0.346   0.558
 7342SOL    HW122925   6.808   0.415   0.486
 7342SOL    HW222926   6.727   0.333   0.602
 7343SOL     OW22927   5.824   3.931   2.763
 7343SOL    HW122928   5.839   3.837   2.734
 7343SOL    HW222929   5.866   3.947   2.852
 7344SOL     OW22930   1.896   6.649   6.963
 7344SOL    HW122931   1.909   6.605   6.874
 7344SOL    HW222932   1.960   6.725   6.971
 7345SOL     OW22933   4.390   5.454   5.937
 7345SOL    HW122934   4.361   5.359   5.924
 7345SOL    HW222935   4.420   5.492   5.850
 7346SOL     OW22936   3.760   4.807   1.334
 7346SOL    HW122937   3.765   4.809   1.434
 7346SOL    HW222938   3.666   4.824   1.305
 7347SOL     OW22939   6.258   1.933   2.080
 7347SOL    HW122940   6.173   1.898   2.120
 7347SOL    HW222941   6.290   1.869   2.009
 7348SOL     OW22942   1.338   2.657   4.008
 7348SOL    HW122943   1.240   2.637   4.013
 7348SOL    HW222944   1.352   2.756   4.008
 7349SOL     OW22945   3.573   1.982   0.854
 7349SOL    HW122946   3.510   2.059   0.842
 7349SOL    HW222947   3.546   1.907   0.795
 7350SOL     OW22948   0.645   2.497   2.859
 7350SOL    HW122949   0.676   2.587   2.889
 7350SOL    HW222950   0.681   2.427   2.921
 7351SOL     OW22951   4.308   4.893   6.460
 7351SOL    HW122952   4.310   4.982   6.505
 7351SOL    HW222953   4.349   4.900   6.369
 7352SOL     OW22954   1.487   2.247   2.263
 7352SOL    HW122955   1.516   2.255   2.359
 7352SOL    HW222956   1.492   2.151   2.235
 7353SOL     OW22957   6.261   1.752   4.659
 7353SOL    HW122958   6.211   1.743   4.573
 7353SOL    HW222959   6.266   1.849   4.684
 7354SOL     OW22960   6.263   6.510   5.878
 7354SOL    HW122961   6.354   6.477   5.855
 7354SOL    HW222962   6.269   6.601   5.920
 7355SOL     OW22963   1.058   5.636   1.683
 7355SOL    HW122964   1.088   5.719   1.729
 7355SOL    HW222965   1.109   5.624   1.598
 7356SOL     OW22966   6.259   1.759   6.768
 7356SOL    HW122967   6.268   1.854   6.798
 7356SOL    HW222968   6.234   1.757   6.671
 7357SOL     OW22969   5.116   1.588   6.914
 7357SOL    HW122970   5.107   1.657   6.842
 7357SOL    HW222971   5.202   1.602   6.962
 7358SOL     OW22972   3.446   1.831   3.805
 7358SOL    HW122973   3.473   1.927   3.800
 7358SOL    HW222974   3.452   1.800   3.900
 7359SOL     OW22975   4.109   3.351   2.630
 7359SOL    HW122976   4.144   3.261   2.656
 7359SOL    HW222977   4.034   3.376   2.692
 7360SOL     OW22978   1.287   2.484   5.221
 7360SOL    HW122979   1.205   2.450   5.267
 7360SOL    HW222980   1.360   2.416   5.228
 7361SOL     OW22981   5.448   6.356   1.094
 7361SOL    HW122982   5.518   6.380   1.027
 7361SOL    HW222983   5.359   6.346   1.048
 7362SOL     OW22984   1.692   6.274   5.088
 7362SOL    HW122985   1.767   6.324   5.131
 7362SOL    HW222986   1.611   6.279   5.147
 7363SOL     OW22987   5.385   2.694   0.109
 7363SOL    HW122988   5.451   2.691   0.184
 7363SOL    HW222989   5.328   2.612   0.112
 7364SOL     OW22990   4.554   6.556   1.021
 7364SOL    HW122991   4.459   6.531   1.034
 7364SOL    HW222992   4.562   6.656   1.015
 7365SOL     OW22993   2.869   0.182   2.614
 7365SOL    HW122994   2.856   0.281   2.611
 7365SOL    HW222995   2.789   0.136   2.576
 7366SOL     OW22996   0.780   5.315   6.754
 7366SOL    HW122997   0.844   5.243   6.728
 7366SOL    HW222998   0.687   5.278   6.758
 7367SOL     OW22999   5.086   3.756   1.483
 7367SOL    HW123000   5.092   3.843   1.433
 7367SOL    HW223001   5.165   3.698   1.459
 7368SOL     OW23002   2.940   3.315   4.376
 7368SOL    HW123003   2.918   3.411   4.393
 7368SOL    HW223004   2.875   3.277   4.311
 7369SOL     OW23005   5.098   4.315   1.232
 7369SOL    HW123006   5.077   4.234   1.177
 7369SOL    HW223007   5.145   4.287   1.316
 7370SOL     OW23008   2.480   6.761   0.639
 7370SOL    HW123009   2.461   6.849   0.593
 7370SOL    HW223010   2.577   6.739   0.630
 7371SOL     OW23011   3.020   5.079   4.009
 7371SOL    HW123012   2.970   5.158   4.046
 7371SOL    HW223013   3.068   5.106   3.926
 7372SOL     OW23014   3.724   0.308   5.675
 7372SOL    HW123015   3.766   0.219   5.690
 7372SOL    HW223016   3.734   0.364   5.757
 7373SOL     OW23017   3.792   0.672   4.015
 7373SOL    HW123018   3.838   0.585   4.031
 7373SOL    HW223019   3.856   0.747   4.033
 7374SOL     OW23020   1.927   2.964   5.964
 7374SOL    HW123021   1.939   2.865   5.971
 7374SOL    HW223022   1.991   3.010   6.024
 7375SOL     OW23023   1.396   1.179   4.609
 7375SOL    HW123024   1.306   1.207   4.640
 7375SOL    HW223025   1.458   1.174   4.687
 7376SOL     OW23026   2.728   3.235   6.960
 7376SOL    HW123027   2.714   3.208   6.865
 7376SOL    HW223028   2.826   3.236   6.981
 7377SOL     OW23029   4.624   4.476   1.802
 7377SOL    HW123030   4.560   4.423   1.857
 7377SOL    HW223031   4.591   4.570   1.792
 7378SOL     OW23032   0.551   1.880   4.895
 7378SOL    HW123033   0.569   1.916   4.987
 7378SOL    HW223034   0.455   1.894   4.872
 7379SOL     OW23035   3.717   1.060   1.736
 7379SOL    HW123036   3.666   1.141   1.708
 7379SOL    HW223037   3.815   1.076   1.724
 7380SOL     OW23038   6.846   2.910   5.498
 7380SOL    HW123039   6.884   3.002   5.489
 7380SOL    HW223040   6.860   2.877   5.591
 7381SOL     OW23041   4.818   2.875   2.317
 7381SOL    HW123042   4.779   2.939   2.250
 7381SOL    HW223043   4.829   2.922   2.405
 7382SOL     OW23044   0.339   4.491   4.675
 7382SOL    HW123045   0.275   4.418   4.650
 7382SOL    HW223046   0.426   4.451   4.704
 7383SOL     OW23047   0.365   6.445   2.355
 7383SOL    HW123048   0.414   6.362   2.384
 7383SOL    HW223049   0.338   6.497   2.436
 7384SOL     OW23050   4.831   6.709   2.361
 7384SOL    HW123051   4.768   6.637   2.333
 7384SOL    HW223052   4.798   6.752   2.445
 7385SOL     OW23053   4.596   6.074   1.921
 7385SOL    HW123054   4.637   6.051   2.009
 7385SOL    HW223055   4.661   6.055   1.848
 7386SOL     OW23056   1.212   2.932   5.852
 7386SOL    HW123057   1.126   2.979   5.835
 7386SOL    HW223058   1.197   2.833   5.852
 7387SOL     OW23059   4.438   5.451   4.158
 7387SOL    HW123060   4.518   5.420   4.107
 7387SOL    HW223061   4.467   5.511   4.232
 7388SOL     OW23062   6.860   5.262   4.081
 7388SOL    HW123063   6.915   5.280   4.163
 7388SOL    HW223064   6.870   5.339   4.017
 7389SOL     OW23065   1.323   3.805   6.784
 7389SOL    HW123066   1.264   3.885   6.780
 7389SOL    HW223067   1.407   3.828   6.834
 7390SOL     OW23068   7.000   1.647   6.701
 7390SOL    HW123069   6.915   1.611   6.740
 7390SOL    HW223070   7.006   1.620   6.605
 7391SOL     OW23071   5.869   3.668   6.108
 7391SOL    HW123072   5.910   3.737   6.049
 7391SOL    HW223073   5.925   3.584   6.104
 7392SOL     OW23074   1.399   5.210   4.899
 7392SOL    HW123075   1.437   5.189   4.990
 7392SOL    HW223076   1.460   5.273   4.852
 7393SOL     OW23077   5.954   5.578   2.331
 7393SOL    HW123078   6.042   5.625   2.339
 7393SOL    HW223079   5.968   5.479   2.343
 7394SOL     OW23080   3.904   3.352   6.230
 7394SOL    HW123081   3.828   3.291   6.253
 7394SOL    HW223082   3.988   3.299   6.222
 7395SOL     OW23083   0.564   0.309   6.156
 7395SOL    HW123084   0.566   0.306   6.256
 7395SOL    HW223085   0.657   0.320   6.121
 7396SOL     OW23086   1.122   0.744   5.740
 7396SOL    HW123087   1.057   0.768   5.811
 7396SOL    HW223088   1.152   0.649   5.752
 7397SOL     OW23089   6.290   4.410   4.461
 7397SOL    HW123090   6.210   4.350   4.451
 7397SOL    HW223091   6.323   4.407   4.555
 7398SOL     OW23092   4.684   5.364   4.067
 7398SOL    HW123093   4.740   5.446   4.061
 7398SOL    HW223094   4.713   5.298   3.997
 7399SOL     OW23095   6.391   3.684   5.882
 7399SOL    HW123096   6.394   3.706   5.980
 7399SOL    HW223097   6.363   3.766   5.831
 7400SOL     OW23098   2.913   4.401   0.141
 7400SOL    HW123099   2.830   4.451   0.115
 7400SOL    HW223100   2.942   4.343   0.064
 7401SOL     OW23101   6.981   1.551   4.088
 7401SOL    HW123102   0.016   1.510   4.162
 7401SOL    HW223103   6.921   1.482   4.048
 7402SOL     OW23104   2.143   0.168   3.919
 7402SOL    HW123105   2.210   0.206   3.984
 7402SOL    HW223106   2.117   0.239   3.854
 7403SOL     OW23107   1.904   3.137   3.915
 7403SOL    HW123108   1.888   3.039   3.899
 7403SOL    HW223109   2.002   3.154   3.921
 7404SOL     OW23110   1.524   0.352   1.093
 7404SOL    HW123111   1.613   0.396   1.080
 7404SOL    HW223112   1.454   0.406   1.046
 7405SOL     OW23113   2.154   5.330   5.177
 7405SOL    HW123114   2.181   5.426   5.170
 7405SOL    HW223115   2.223   5.272   5.133
 7406SOL     OW23116   1.763   3.672   2.493
 7406SOL    HW123117   1.795   3.580   2.471
 7406SOL    HW223118   1.710   3.670   2.577
 7407SOL     OW23119   0.549   6.077   5.048
 7407SOL    HW123120   0.469   6.130   5.020
 7407SOL    HW223121   0.604   6.053   4.968
 7408SOL     OW23122   1.820   4.073   5.774
 7408SOL    HW123123   1.756   4.026   5.712
 7408SOL    HW223124   1.823   4.170   5.750
 7409SOL     OW23125   0.800   0.926   5.073
 7409SOL    HW123126   0.862   0.848   5.072
 7409SOL    HW223127   0.717   0.902   5.123
 7410SOL     OW23128   0.639   4.491   1.094
 7410SOL    HW123129   0.563   4.495   1.028
 7410SOL    HW223130   0.665   4.395   1.107
 7411SOL     OW23131   2.819   6.327   4.558
 7411SOL    HW123132   2.752   6.277   4.502
 7411SOL    HW223133   2.907   6.328   4.512
 7412SOL     OW23134   2.185   0.670   0.685
 7412SOL    HW123135   2.225   0.741   0.743
 7412SOL    HW223136   2.226   0.674   0.594
 7413SOL     OW23137   0.280   3.254   4.356
 7413SOL    HW123138   0.262   3.156   4.347
 7413SOL    HW223139   0.268   3.282   4.452
 7414SOL     OW23140   6.657   0.183   2.483
 7414SOL    HW123141   6.562   0.211   2.482
 7414SOL    HW223142   6.709   0.238   2.418
 7415SOL     OW23143   1.809   3.228   3.127
 7415SOL    HW123144   1.764   3.299   3.182
 7415SOL    HW223145   1.886   3.190   3.178
 7416SOL     OW23146   3.798   1.461   4.598
 7416SOL    HW123147   3.824   1.557   4.586
 7416SOL    HW223148   3.700   1.455   4.614
 7417SOL     OW23149   1.714   0.224   5.836
 7417SOL    HW123150   1.698   0.154   5.905
 7417SOL    HW223151   1.812   0.238   5.823
 7418SOL     OW23152   2.406   4.168   1.293
 7418SOL    HW123153   2.356   4.252   1.272
 7418SOL    HW223154   2.406   4.108   1.213
 7419SOL     OW23155   5.649   1.773   4.917
 7419SOL    HW123156   5.595   1.856   4.902
 7419SOL    HW223157   5.741   1.786   4.878
 7420SOL     OW23158   6.499   6.568   1.948
 7420SOL    HW123159   6.443   6.558   1.866
 7420SOL    HW223160   6.555   6.486   1.960
 7421SOL     OW23161   3.790   3.959   1.655
 7421SOL    HW123162   3.815   3.881   1.713
 7421SOL    HW223163   3.732   3.928   1.580
 7422SOL     OW23164   0.078   3.545   1.035
 7422SOL    HW123165   0.167   3.565   1.075
 7422SOL    HW223166   0.007   3.555   1.104
 7423SOL     OW23167   2.224   4.754   6.138
 7423SOL    HW123168   2.207   4.814   6.216
 7423SOL    HW223169   2.178   4.792   6.057
 7424SOL     OW23170   5.879   1.613   4.608
 7424SOL    HW123171   5.787   1.573   4.609
 7424SOL    HW223172   5.878   1.698   4.554
 7425SOL     OW23173   3.453   4.540   5.907
 7425SOL    HW123174   3.354   4.540   5.901
 7425SOL    HW223175   3.490   4.474   5.841
 7426SOL     OW23176   0.263   1.896   6.661
 7426SOL    HW123177   0.323   1.822   6.691
 7426SOL    HW223178   0.180   1.897   6.716
 7427SOL     OW23179   3.377   6.162   4.764
 7427SOL    HW123180   3.419   6.198   4.681
 7427SOL    HW223181   3.352   6.238   4.824
 7428SOL     OW23182   3.695   2.380   5.661
 7428SOL    HW123183   3.602   2.367   5.626
 7428SOL    HW223184   3.724   2.474   5.644
 7429SOL     OW23185   6.946   0.073   2.919
 7429SOL    HW123186   6.898   0.103   2.836
 7429SOL    HW223187   0.013   0.030   2.894
 7430SOL     OW23188   6.529   4.103   5.026
 7430SOL    HW123189   6.463   4.107   4.952
 7430SOL    HW223190   6.590   4.025   5.013
 7431SOL     OW23191   0.735   3.730   1.781
 7431SOL    HW123192   0.702   3.669   1.708
 7431SOL    HW223193   0.659   3.787   1.813
 7432SOL     OW23194   0.630   6.511   3.560
 7432SOL    HW123195   0.575   6.434   3.592
 7432SOL    HW223196   0.593   6.596   3.598
 7433SOL     OW23197   6.656   5.292   0.872
 7433SOL    HW123198   6.564   5.260   0.850
 7433SOL    HW223199   6.722   5.218   0.859
 7434SOL     OW23200   2.450   1.899   6.961
 7434SOL    HW123201   2.476   1.985   6.918
 7434SOL    HW223202   2.483   1.823   6.904
 7435SOL     OW23203   3.476   6.930   6.192
 7435SOL    HW123204   3.566   6.936   6.147
 7435SOL    HW223205   3.413   6.880   6.133
 7436SOL     OW23206   5.566   3.032   0.065
 7436SOL    HW123207   5.604   3.120   0.094
 7436SOL    HW223208   5.568   2.969   0.143
 7437SOL     OW23209   0.522   4.939   6.381
 7437SOL    HW123210   0.512   5.038   6.368
 7437SOL    HW223211   0.442   4.904   6.429
 7438SOL     OW23212   0.779   4.301   2.247
 7438SOL    HW123213   0.854   4.237   2.233
 7438SOL    HW223214   0.723   4.306   2.165
 7439SOL     OW23215   2.374   0.114   4.246
 7439SOL    HW123216   2.433   0.152   4.317
 7439SOL    HW223217   2.340   0.189   4.188
 7440SOL     OW23218   1.680   3.200   4.708
 7440SOL    HW123219   1.623   3.147   4.646
 7440SOL    HW223220   1.640   3.198   4.800
 7441SOL     OW23221   4.918   1.019   4.114
 7441SOL    HW123222   4.849   1.059   4.175
 7441SOL    HW223223   4.940   1.085   4.042
 7442SOL     OW23224   0.919   1.544   6.691
 7442SOL    HW123225   0.909   1.644   6.691
 7442SOL    HW223226   0.852   1.504   6.628
 7443SOL     OW23227   6.980   1.944   0.038
 7443SOL    HW123228   6.897   1.899   0.070
 7443SOL    HW223229   0.035   1.930   0.104
 7444SOL     OW23230   6.801   3.089   6.445
 7444SOL    HW123231   6.772   3.027   6.517
 7444SOL    HW223232   6.832   3.036   6.366
 7445SOL     OW23233   5.319   1.382   1.639
 7445SOL    HW123234   5.265   1.414   1.561
 7445SOL    HW223235   5.262   1.324   1.697
 7446SOL     OW23236   6.577   3.902   6.974
 7446SOL    HW123237   6.512   3.903   0.030
 7446SOL    HW223238   6.670   3.892   7.010
 7447SOL     OW23239   1.919   4.564   0.722
 7447SOL    HW123240   1.989   4.553   0.792
 7447SOL    HW223241   1.908   4.478   0.673
 7448SOL     OW23242   5.354   0.153   5.687
 7448SOL    HW123243   5.302   0.094   5.625
 7448SOL    HW223244   5.331   0.248   5.670
 7449SOL     OW23245   4.577   2.300   2.097
 7449SOL    HW123246   4.665   2.298   2.144
 7449SOL    HW223247   4.504   2.279   2.162
 7450SOL     OW23248   4.761   2.787   3.021
 7450SOL    HW123249   4.776   2.881   3.050
 7450SOL    HW223250   4.740   2.730   3.101
 7451SOL     OW23251   1.535   1.164   4.856
 7451SOL    HW123252   1.536   1.065   4.867
 7451SOL    HW223253   1.591   1.206   4.927
 7452SOL     OW23254   1.568   0.859   5.287
 7452SOL    HW123255   1.632   0.930   5.314
 7452SOL    HW223256   1.513   0.832   5.367
 7453SOL     OW23257   5.777   6.486   4.833
 7453SOL    HW123258   5.788   6.581   4.859
 7453SOL    HW223259   5.792   6.476   4.734
 7454SOL     OW23260   0.720   3.538   1.013
 7454SOL    HW123261   0.743   3.627   0.972
 7454SOL    HW223262   0.753   3.535   1.107
 7455SOL     OW23263   5.564   2.027   0.869
 7455SOL    HW123264   5.510   1.976   0.936
 7455SOL    HW223265   5.658   1.994   0.871
 7456SOL     OW23266   1.855   3.382   4.637
 7456SOL    HW123267   1.930   3.387   4.703
 7456SOL    HW223268   1.789   3.313   4.666
 7457SOL     OW23269   5.575   1.060   5.561
 7457SOL    HW123270   5.576   1.051   5.462
 7457SOL    HW223271   5.653   1.009   5.600
 7458SOL     OW23272   2.932   6.816   0.099
 7458SOL    HW123273   2.849   6.862   0.132
 7458SOL    HW223274   2.972   6.763   0.174
 7459SOL     OW23275   4.765   0.202   5.698
 7459SOL    HW123276   4.864   0.197   5.685
 7459SOL    HW223277   4.720   0.136   5.638
 7460SOL     OW23278   2.334   4.569   0.985
 7460SOL    HW123279   2.234   4.563   0.986
 7460SOL    HW223280   2.369   4.554   1.077
 7461SOL     OW23281   5.582   1.308   6.213
 7461SOL    HW123282   5.612   1.214   6.196
 7461SOL    HW223283   5.660   1.370   6.204
 7462SOL     OW23284   2.018   2.208   1.775
 7462SOL    HW123285   1.928   2.218   1.817
 7462SOL    HW223286   2.077   2.284   1.803
 7463SOL     OW23287   3.451   3.183   1.235
 7463SOL    HW123288   3.370   3.239   1.216
 7463SOL    HW223289   3.497   3.217   1.317
 7464SOL     OW23290   3.623   6.039   0.683
 7464SOL    HW123291   3.551   5.996   0.629
 7464SOL    HW223292   3.699   6.064   0.623
 7465SOL     OW23293   1.798   0.149   1.234
 7465SOL    HW123294   1.750   0.100   1.161
 7465SOL    HW223295   1.731   0.192   1.294
 7466SOL     OW23296   0.359   0.631   6.417
 7466SOL    HW123297   0.385   0.598   6.508
 7466SOL    HW223298   0.350   0.554   6.355
 7467SOL     OW23299   6.890   2.266   1.304
 7467SOL    HW123300   6.930   2.331   1.369
 7467SOL    HW223301   6.964   2.224   1.251
 7468SOL     OW23302   4.986   2.319   2.370
 7468SOL    HW123303   5.019   2.405   2.332
 7468SOL    HW223304   4.921   2.277   2.307
 7469SOL     OW23305   1.315   6.813   6.267
 7469SOL    HW123306   1.385   6.750   6.300
 7469SOL    HW223307   1.320   6.899   6.319
 7470SOL     OW23308   0.614   2.095   2.525
 7470SOL    HW123309   0.642   2.065   2.434
 7470SOL    HW223310   0.644   2.189   2.540
 7471SOL     OW23311   6.287   6.863   4.838
 7471SOL    HW123312   6.317   6.791   4.776
 7471SOL    HW223313   6.360   6.884   4.903
 7472SOL     OW23314   4.264   0.227   4.667
 7472SOL    HW123315   4.169   0.195   4.663
 7472SOL    HW223316   4.319   0.160   4.717
 7473SOL     OW23317   0.262   3.341   4.636
 7473SOL    HW123318   0.275   3.440   4.648
 7473SOL    HW223319   0.191   3.309   4.698
 7474SOL     OW23320   3.150   0.790   3.998
 7474SOL    HW123321   3.064   0.751   4.031
 7474SOL    HW223322   3.218   0.789   4.071
 7475SOL     OW23323   4.831   0.570   2.408
 7475SOL    HW123324   4.922   0.589   2.373
 7475SOL    HW223325   4.773   0.536   2.334
 7476SOL     OW23326   4.665   6.321   4.637
 7476SOL    HW123327   4.634   6.229   4.609
 7476SOL    HW223328   4.764   6.319   4.652
 7477SOL     OW23329   4.110   1.000   4.308
 7477SOL    HW123330   4.167   1.078   4.282
 7477SOL    HW223331   4.063   1.021   4.394
 7478SOL     OW23332   3.068   3.581   6.125
 7478SOL    HW123333   3.166   3.597   6.139
 7478SOL    HW223334   3.017   3.623   6.200
 7479SOL     OW23335   4.136   1.724   0.397
 7479SOL    HW123336   4.220   1.758   0.438
 7479SOL    HW223337   4.088   1.665   0.462
 7480SOL     OW23338   5.817   5.485   1.660
 7480SOL    HW123339   5.748   5.432   1.611
 7480SOL    HW223340   5.773   5.559   1.711
 7481SOL     OW23341   5.400   5.161   0.890
 7481SOL    HW123342   5.334   5.237   0.888
 7481SOL    HW223343   5.473   5.179   0.824
 7482SOL     OW23344   3.927   0.687   1.695
 7482SOL    HW123345   3.956   0.735   1.612
 7482SOL    HW223346   3.951   0.742   1.775
 7483SOL     OW23347   3.560   1.750   4.297
 7483SOL    HW123348   3.558   1.740   4.197
 7483SOL    HW223349   3.475   1.715   4.336
 7484SOL     OW23350   1.436   6.637   1.528
 7484SOL    HW123351   1.429   6.560   1.590
 7484SOL    HW223352   1.424   6.606   1.434
 7485SOL     OW23353   3.159   6.098   5.962
 7485SOL    HW123354   3.147   6.013   6.013
 7485SOL    HW223355   3.093   6.101   5.887
 7486SOL     OW23356   3.079   0.029   5.129
 7486SOL    HW123357   3.146   6.985   5.089
 7486SOL    HW223358   3.042   0.089   5.058
 7487SOL     OW23359   2.511   6.505   3.061
 7487SOL    HW123360   2.567   6.532   3.139
 7487SOL    HW223361   2.559   6.528   2.976
 7488SOL     OW23362   2.743   6.832   5.625
 7488SOL    HW123363   2.818   6.898   5.617
 7488SOL    HW223364   2.761   6.769   5.700
 7489SOL     OW23365   4.532   2.095   4.496
 7489SOL    HW123366   4.486   2.055   4.417
 7489SOL    HW223367   4.618   2.136   4.467
 7490SOL     OW23368   0.169   0.779   0.978
 7490SOL    HW123369   0.225   0.744   0.903
 7490SOL    HW223370   0.125   0.703   1.025
 7491SOL     OW23371   0.420   5.412   6.110
 7491SOL    HW123372   0.355   5.359   6.164
 7491SOL    HW223373   0.461   5.484   6.167
 7492SOL     OW23374   1.802   2.192   5.476
 7492SOL    HW123375   1.849   2.278   5.460
 7492SOL    HW223376   1.712   2.195   5.433
 7493SOL     OW23377   6.043   4.453   5.921
 7493SOL    HW123378   5.970   4.394   5.957
 7493SOL    HW223379   6.061   4.527   5.986
 7494SOL     OW23380   5.480   1.065   2.273
 7494SOL    HW123381   5.488   1.098   2.367
 7494SOL    HW223382   5.412   1.121   2.225
 7495SOL     OW23383   1.854   1.419   1.159
 7495SOL    HW123384   1.915   1.341   1.143
 7495SOL    HW223385   1.830   1.461   1.071
 7496SOL     OW23386   1.462   4.917   5.985
 7496SOL    HW123387   1.412   4.892   6.068
 7496SOL    HW223388   1.400   4.921   5.907
 7497SOL     OW23389   2.806   5.313   2.169
 7497SOL    HW123390   2.802   5.242   2.099
 7497SOL    HW223391   2.746   5.388   2.143
 7498SOL     OW23392   2.766   0.791   4.429
 7498SOL    HW123393   2.712   0.840   4.498
 7498SOL    HW223394   2.777   0.849   4.348
 7499SOL     OW23395   5.724   6.730   3.585
 7499SOL    HW123396   5.685   6.638   3.597
 7499SOL    HW223397   5.720   6.779   3.671
 7500SOL     OW23398   3.922   5.665   2.604
 7500SOL    HW123399   3.907   5.706   2.694
 7500SOL    HW223400   3.835   5.638   2.564
 7501SOL     OW23401   0.645   2.899   4.077
 7501SOL    HW123402   0.554   2.941   4.078
 7501SOL    HW223403   0.663   2.860   3.987
 7502SOL     OW23404   1.930   1.221   5.515
 7502SOL    HW123405   1.987   1.302   5.519
 7502SOL    HW223406   1.881   1.210   5.602
 7503SOL     OW23407   2.606   0.880   6.109
 7503SOL    HW123408   2.604   0.852   6.013
 7503SOL    HW223409   2.683   0.836   6.155
 7504SOL     OW23410   4.148   6.571   3.907
 7504SOL    HW123411   4.186   6.530   3.824
 7504SOL    HW223412   4.061   6.527   3.928
 7505SOL     OW23413   2.578   1.114   5.138
 7505SOL    HW123414   2.616   1.156   5.220
 7505SOL    HW223415   2.587   1.178   5.061
 7506SOL     OW23416   3.513   0.752   2.616
 7506SOL    HW123417   3.488   0.657   2.633
 7506SOL    HW223418   3.472   0.811   2.686
 7507SOL     OW23419   0.655   6.468   6.438
 7507SOL    HW123420   0.633   6.553   6.391
 7507SOL    HW223421   0.663   6.394   6.371
 7508SOL     OW23422   5.354   6.555   2.425
 7508SOL    HW123423   5.426   6.576   2.360
 7508SOL    HW223424   5.347   6.628   2.493
 7509SOL     OW23425   5.488   4.454   0.680
 7509SOL    HW123426   5.396   4.421   0.701
 7509SOL    HW223427   5.548   4.376   0.663
 7510SOL     OW23428   3.009   3.972   4.569
 7510SOL    HW123429   2.935   4.035   4.591
 7510SOL    HW223430   3.052   3.998   4.483
 7511SOL     OW23431   1.326   0.710   2.544
 7511SOL    HW123432   1.241   0.659   2.549
 7511SOL    HW223433   1.403   0.648   2.556
 7512SOL     OW23434   2.736   3.822   1.519
 7512SOL    HW123435   2.767   3.780   1.433
 7512SOL    HW223436   2.641   3.798   1.535
 7513SOL     OW23437   1.756   2.859   6.652
 7513SOL    HW123438   1.687   2.906   6.597
 7513SOL    HW223439   1.778   2.771   6.610
 7514SOL     OW23440   2.902   6.171   1.706
 7514SOL    HW123441   2.943   6.083   1.729
 7514SOL    HW223442   2.819   6.184   1.759
 7515SOL     OW23443   0.688   0.473   2.814
 7515SOL    HW123444   0.676   0.553   2.872
 7515SOL    HW223445   0.635   0.484   2.730
 7516SOL     OW23446   6.941   6.262   4.254
 7516SOL    HW123447   6.906   6.203   4.327
 7516SOL    HW223448   6.975   6.347   4.294
 7517SOL     OW23449   6.661   3.809   1.529
 7517SOL    HW123450   6.665   3.810   1.629
 7517SOL    HW223451   6.609   3.730   1.499
 7518SOL     OW23452   3.799   5.741   3.507
 7518SOL    HW123453   3.799   5.837   3.480
 7518SOL    HW223454   3.884   5.719   3.555
 7519SOL     OW23455   1.197   6.871   4.228
 7519SOL    HW123456   1.281   6.910   4.189
 7519SOL    HW223457   1.193   6.773   4.208
 7520SOL     OW23458   1.603   0.581   2.468
 7520SOL    HW123459   1.622   0.592   2.566
 7520SOL    HW223460   1.670   0.634   2.416
 7521SOL     OW23461   4.635   4.386   5.326
 7521SOL    HW123462   4.704   4.314   5.320
 7521SOL    HW223463   4.641   4.431   5.416
 7522SOL     OW23464   2.503   1.383   6.808
 7522SOL    HW123465   2.515   1.304   6.868
 7522SOL    HW223466   2.553   1.369   6.723
 7523SOL     OW23467   6.271   0.150   5.329
 7523SOL    HW123468   6.195   0.087   5.346
 7523SOL    HW223469   6.321   0.166   5.414
 7524SOL     OW23470   0.051   2.121   5.953
 7524SOL    HW123471   0.055   2.042   5.892
 7524SOL    HW223472   0.032   2.089   6.046
 7525SOL     OW23473   2.153   7.007   0.317
 7525SOL    HW123474   2.102   6.930   0.279
 7525SOL    HW223475   2.243   7.012   0.273
 7526SOL     OW23476   3.315   3.094   3.949
 7526SOL    HW123477   3.296   3.187   3.918
 7526SOL    HW223478   3.317   3.092   4.049
 7527SOL     OW23479   4.981   4.347   2.247
 7527SOL    HW123480   4.949   4.441   2.239
 7527SOL    HW223481   5.063   4.335   2.192
 7528SOL     OW23482   4.359   2.580   0.580
 7528SOL    HW123483   4.402   2.666   0.553
 7528SOL    HW223484   4.272   2.569   0.532
 7529SOL     OW23485   4.767   0.884   3.750
 7529SOL    HW123486   4.836   0.838   3.806
 7529SOL    HW223487   4.797   0.885   3.655
 7530SOL     OW23488   0.068   3.583   2.329
 7530SOL    HW123489   0.142   3.615   2.271
 7530SOL    HW223490   7.011   3.550   2.272
 7531SOL     OW23491   4.330   1.828   3.722
 7531SOL    HW123492   4.303   1.762   3.792
 7531SOL    HW223493   4.358   1.779   3.639
 7532SOL     OW23494   5.308   5.344   1.817
 7532SOL    HW123495   5.211   5.361   1.833
 7532SOL    HW223496   5.361   5.426   1.841
 7533SOL     OW23497   2.464   1.880   3.251
 7533SOL    HW123498   2.409   1.799   3.272
 7533SOL    HW223499   2.412   1.963   3.275
 7534SOL     OW23500   3.996   6.088   5.107
 7534SOL    HW123501   3.912   6.072   5.055
 7534SOL    HW223502   4.048   6.003   5.112
 7535SOL     OW23503   2.337   1.658   5.544
 7535SOL    HW123504   2.344   1.716   5.625
 7535SOL    HW223505   2.264   1.692   5.485
 7536SOL     OW23506   4.928   5.020   5.115
 7536SOL    HW123507   4.926   5.093   5.183
 7536SOL    HW223508   4.935   4.931   5.161
 7537SOL     OW23509   1.955   4.395   4.670
 7537SOL    HW123510   1.879   4.459   4.654
 7537SOL    HW223511   1.947   4.317   4.608
 7538SOL     OW23512   3.358   3.369   2.753
 7538SOL    HW123513   3.358   3.437   2.826
 7538SOL    HW223514   3.303   3.290   2.781
 7539SOL     OW23515   2.260   2.696   5.083
 7539SOL    HW123516   2.317   2.779   5.080
 7539SOL    HW223517   2.229   2.681   5.177
 7540SOL     OW23518   3.247   0.502   6.938
 7540SOL    HW123519   3.236   0.491   0.018
 7540SOL    HW223520   3.325   0.447   6.907
 7541SOL     OW23521   6.440   3.288   5.394
 7541SOL    HW123522   6.454   3.373   5.342
 7541SOL    HW223523   6.510   3.222   5.367
 7542SOL     OW23524   1.318   6.850   5.729
 7542SOL    HW123525   1.295   6.753   5.737
 7542SOL    HW223526   1.323   6.874   5.632
 7543SOL     OW23527   4.181   2.129   0.460
 7543SOL    HW123528   4.212   2.159   0.551
 7543SOL    HW223529   4.195   2.030   0.451
 7544SOL     OW23530   0.364   2.406   2.908
 7544SOL    HW123531   0.463   2.413   2.894
 7544SOL    HW223532   0.345   2.332   2.973
 7545SOL     OW23533   4.599   6.858   3.034
 7545SOL    HW123534   4.584   6.930   3.101
 7545SOL    HW223535   4.532   6.866   2.960
 7546SOL     OW23536   4.890   0.876   6.912
 7546SOL    HW123537   4.922   0.964   6.945
 7546SOL    HW223538   4.920   0.804   6.975
 7547SOL     OW23539   4.207   0.323   0.471
 7547SOL    HW123540   4.231   0.226   0.471
 7547SOL    HW223541   4.121   0.337   0.519
 7548SOL     OW23542   1.952   1.756   0.800
 7548SOL    HW123543   2.051   1.761   0.793
 7548SOL    HW223544   1.918   1.679   0.745
 7549SOL     OW23545   5.840   1.563   2.220
 7549SOL    HW123546   5.825   1.618   2.302
 7549SOL    HW223547   5.791   1.476   2.228
 7550SOL     OW23548   2.100   5.844   2.444
 7550SOL    HW123549   2.059   5.757   2.418
 7550SOL    HW223550   2.126   5.894   2.361
 7551SOL     OW23551   4.555   3.686   0.058
 7551SOL    HW123552   4.626   3.740   0.102
 7551SOL    HW223553   4.552   3.594   0.098
 7552SOL     OW23554   2.711   5.924   4.140
 7552SOL    HW123555   2.802   5.964   4.137
 7552SOL    HW223556   2.717   5.829   4.170
 7553SOL     OW23557   3.929   4.546   5.820
 7553SOL    HW123558   3.917   4.488   5.740
 7553SOL    HW223559   3.889   4.636   5.803
 7554SOL     OW23560   4.906   2.124   0.657
 7554SOL    HW123561   4.944   2.049   0.603
 7554SOL    HW223562   4.892   2.093   0.751
 7555SOL     OW23563   0.853   5.892   5.318
 7555SOL    HW123564   0.913   5.869   5.242
 7555SOL    HW223565   0.879   5.838   5.398
 7556SOL     OW23566   0.765   3.230   5.189
 7556SOL    HW123567   0.715   3.148   5.213
 7556SOL    HW223568   0.851   3.234   5.241
 7557SOL     OW23569   5.442   3.931   6.216
 7557SOL    HW123570   5.430   3.835   6.192
 7557SOL    HW223571   5.375   3.986   6.166
 7558SOL     OW23572   2.300   2.236   4.075
 7558SOL    HW123573   2.276   2.276   3.987
 7558SOL    HW223574   2.357   2.155   4.062
 7559SOL     OW23575   6.404   5.194   1.065
 7559SOL    HW123576   6.471   5.120   1.053
 7559SOL    HW223577   6.381   5.233   0.975
 7560SOL     OW23578   4.907   6.800   0.210
 7560SOL    HW123579   4.861   6.752   0.136
 7560SOL    HW223580   4.946   6.733   0.274
 7561SOL     OW23581   0.727   3.858   0.913
 7561SOL    HW123582   0.733   3.904   0.824
 7561SOL    HW223583   0.791   3.901   0.977
 7562SOL     OW23584   5.901   5.988   4.565
 7562SOL    HW123585   5.942   6.026   4.483
 7562SOL    HW223586   5.889   6.060   4.634
 7563SOL     OW23587   2.695   0.425   1.638
 7563SOL    HW123588   2.767   0.490   1.612
 7563SOL    HW223589   2.718   0.334   1.602
 7564SOL     OW23590   5.239   0.394   3.027
 7564SOL    HW123591   5.314   0.459   3.017
 7564SOL    HW223592   5.154   0.437   2.997
 7565SOL     OW23593   4.631   4.759   6.663
 7565SOL    HW123594   4.719   4.768   6.617
 7565SOL    HW223595   4.563   4.724   6.599
 7566SOL     OW23596   0.531   4.954   3.745
 7566SOL    HW123597   0.570   4.888   3.680
 7566SOL    HW223598   0.605   4.997   3.797
 7567SOL     OW23599   2.408   3.985   5.948
 7567SOL    HW123600   2.336   4.043   5.988
 7567SOL    HW223601   2.437   4.025   5.861
 7568SOL     OW23602   5.793   5.700   4.129
 7568SOL    HW123603   5.888   5.717   4.102
 7568SOL    HW223604   5.732   5.754   4.071
 7569SOL     OW23605   4.361   6.268   6.561
 7569SOL    HW123606   4.311   6.275   6.476
 7569SOL    HW223607   4.407   6.179   6.566
 7570SOL     OW23608   5.588   4.256   4.841
 7570SOL    HW123609   5.546   4.335   4.886
 7570SOL    HW223610   5.644   4.287   4.765
 7571SOL     OW23611   5.160   3.839   2.136
 7571SOL    HW123612   5.123   3.810   2.224
 7571SOL    HW223613   5.121   3.783   2.063
 7572SOL     OW23614   4.896   0.333   4.161
 7572SOL    HW123615   4.979   0.328   4.105
 7572SOL    HW223616   4.917   0.377   4.248
 7573SOL     OW23617   6.722   5.914   4.202
 7573SOL    HW123618   6.622   5.905   4.204
 7573SOL    HW223619   6.763   5.823   4.200
 7574SOL     OW23620   5.896   1.401   3.875
 7574SOL    HW123621   5.946   1.454   3.943
 7574SOL    HW223622   5.957   1.378   3.799
 7575SOL     OW23623   4.255   0.811   5.962
 7575SOL    HW123624   4.163   0.819   5.922
 7575SOL    HW223625   4.268   0.884   6.029
 7576SOL     OW23626   5.765   5.219   0.257
 7576SOL    HW123627   5.791   5.192   0.350
 7576SOL    HW223628   5.742   5.137   0.204
 7577SOL     OW23629   6.532   0.128   4.757
 7577SOL    HW123630   6.582   0.201   4.802
 7577SOL    HW223631   6.538   0.140   4.658
 7578SOL     OW23632   2.077   6.377   4.038
 7578SOL    HW123633   2.143   6.377   4.112
 7578SOL    HW223634   2.115   6.427   3.959
 7579SOL     OW23635   4.432   2.137   1.931
 7579SOL    HW123636   4.340   2.175   1.932
 7579SOL    HW223637   4.495   2.200   1.977
 7580SOL     OW23638   1.138   3.742   2.924
 7580SOL    HW123639   1.141   3.841   2.935
 7580SOL    HW223640   1.051   3.707   2.959
 7581SOL     OW23641   4.863   1.722   0.470
 7581SOL    HW123642   4.906   1.804   0.431
 7581SOL    HW223643   4.786   1.750   0.529
 7582SOL     OW23644   3.752   1.742   0.577
 7582SOL    HW123645   3.675   1.704   0.526
 7582SOL    HW223646   3.838   1.709   0.537
 7583SOL     OW23647   5.887   4.096   2.238
 7583SOL    HW123648   5.801   4.045   2.245
 7583SOL    HW223649   5.880   4.163   2.164
 7584SOL     OW23650   2.559   6.635   1.225
 7584SOL    HW123651   2.503   6.558   1.259
 7584SOL    HW223652   2.653   6.604   1.211
 7585SOL     OW23653   1.117   4.352   6.133
 7585SOL    HW123654   1.038   4.304   6.095
 7585SOL    HW223655   1.087   4.417   6.202
 7586SOL     OW23656   2.480   0.498   2.577
 7586SOL    HW123657   2.422   0.419   2.559
 7586SOL    HW223658   2.529   0.524   2.494
 7587SOL     OW23659   2.102   1.685   6.877
 7587SOL    HW123660   2.195   1.647   6.883
 7587SOL    HW223661   2.059   1.654   6.792
 7588SOL     OW23662   0.591   4.593   1.935
 7588SOL    HW123663   0.511   4.616   1.990
 7588SOL    HW223664   0.674   4.628   1.979
 7589SOL     OW23665   6.045   5.842   0.504
 7589SOL    HW123666   6.138   5.828   0.469
 7589SOL    HW223667   6.018   5.937   0.491
 7590SOL     OW23668   2.707   1.479   5.489
 7590SOL    HW123669   2.806   1.461   5.484
 7590SOL    HW223670   2.677   1.472   5.584
 7591SOL     OW23671   0.300   5.186   0.225
 7591SOL    HW123672   0.269   5.204   0.132
 7591SOL    HW223673   0.221   5.180   0.286
 7592SOL     OW23674   0.043   4.946   0.023
 7592SOL    HW123675   0.110   4.994   6.985
 7592SOL    HW223676   0.061   4.848   0.022
 7593SOL     OW23677   5.539   2.526   6.971
 7593SOL    HW123678   5.487   2.606   7.000
 7593SOL    HW223679   5.635   2.552   6.959
 7594SOL     OW23680   0.627   4.764   2.704
 7594SOL    HW123681   0.654   4.861   2.700
 7594SOL    HW223682   0.607   4.740   2.799
 7595SOL     OW23683   0.259   2.749   6.431
 7595SOL    HW123684   0.274   2.688   6.353
 7595SOL    HW223685   0.234   2.840   6.398
 7596SOL     OW23686   5.231   5.050   2.600
 7596SOL    HW123687   5.314   5.106   2.602
 7596SOL    HW223688   5.156   5.103   2.561
 7597SOL     OW23689   3.397   5.744   1.911
 7597SOL    HW123690   3.383   5.797   1.995
 7597SOL    HW223691   3.465   5.789   1.854
 7598SOL     OW23692   6.148   0.782   3.087
 7598SOL    HW123693   6.214   0.716   3.123
 7598SOL    HW223694   6.071   0.790   3.150
 7599SOL     OW23695   5.241   1.332   3.482
 7599SOL    HW123696   5.218   1.427   3.463
 7599SOL    HW223697   5.160   1.274   3.465
 7600SOL     OW23698   1.297   1.138   2.121
 7600SOL    HW123699   1.378   1.182   2.084
 7600SOL    HW223700   1.233   1.118   2.047
 7601SOL     OW23701   1.604   5.594   3.636
 7601SOL    HW123702   1.567   5.640   3.556
 7601SOL    HW223703   1.701   5.572   3.621
 7602SOL     OW23704   2.235   4.311   4.653
 7602SOL    HW123705   2.155   4.370   4.651
 7602SOL    HW223706   2.255   4.278   4.561
 7603SOL     OW23707   1.385   6.508   6.369
 7603SOL    HW123708   1.425   6.418   6.356
 7603SOL    HW223709   1.297   6.499   6.416
 7604SOL     OW23710   3.459   6.287   3.762
 7604SOL    HW123711   3.419   6.301   3.671
 7604SOL    HW223712   3.504   6.371   3.792
 7605SOL     OW23713   1.298   5.808   0.006
 7605SOL    HW123714   1.249   5.769   0.084
 7605SOL    HW223715   1.278   5.906   7.018
 7606SOL     OW23716   0.122   2.917   2.028
 7606SOL    HW123717   0.217   2.948   2.040
 7606SOL    HW223718   0.115   2.820   2.054
 7607SOL     OW23719   4.297   0.052   0.126
 7607SOL    HW123720   4.387   0.095   0.118
 7607SOL    HW223721   4.307   6.971   0.129
 7608SOL     OW23722   3.435   4.164   3.742
 7608SOL    HW123723   3.506   4.163   3.671
 7608SOL    HW223724   3.478   4.157   3.832
 7609SOL     OW23725   6.835   3.439   3.292
 7609SOL    HW123726   6.739   3.465   3.279
 7609SOL    HW223727   6.881   3.507   3.348
 7610SOL     OW23728   6.084   0.601   1.075
 7610SOL    HW123729   6.126   0.667   1.137
 7610SOL    HW223730   6.017   0.648   1.017
 7611SOL     OW23731   0.961   2.211   0.227
 7611SOL    HW123732   1.055   2.181   0.208
 7611SOL    HW223733   0.905   2.196   0.146
 7612SOL     OW23734   3.826   1.787   4.327
 7612SOL    HW123735   3.727   1.774   4.329
 7612SOL    HW223736   3.865   1.736   4.250
 7613SOL     OW23737   4.817   1.965   1.510
 7613SOL    HW123738   4.805   1.985   1.413
 7613SOL    HW223739   4.825   2.050   1.562
 7614SOL     OW23740   3.999   2.444   1.692
 7614SOL    HW123741   4.095   2.471   1.701
 7614SOL    HW223742   3.977   2.377   1.762
 7615SOL     OW23743   5.221   4.670   6.749
 7615SOL    HW123744   5.172   4.619   6.819
 7615SOL    HW223745   5.243   4.609   6.673
 7616SOL     OW23746   0.804   4.214   4.240
 7616SOL    HW123747   0.732   4.203   4.309
 7616SOL    HW223748   0.890   4.177   4.274
 7617SOL     OW23749   2.841   5.850   3.704
 7617SOL    HW123750   2.922   5.903   3.679
 7617SOL    HW223751   2.814   5.793   3.627
 7618SOL     OW23752   1.033   2.292   6.581
 7618SOL    HW123753   1.033   2.225   6.655
 7618SOL    HW223754   1.009   2.382   6.618
 7619SOL     OW23755   5.792   3.239   5.498
 7619SOL    HW123756   5.740   3.323   5.480
 7619SOL    HW223757   5.855   3.255   5.574
 7620SOL     OW23758   3.718   6.903   1.152
 7620SOL    HW123759   3.757   6.840   1.219
 7620SOL    HW223760   3.678   6.850   1.077
 7621SOL     OW23761   0.886   0.909   0.471
 7621SOL    HW123762   0.868   0.960   0.555
 7621SOL    HW223763   0.849   0.816   0.479
 7622SOL     OW23764   5.649   2.918   1.933
 7622SOL    HW123765   5.553   2.915   1.963
 7622SOL    HW223766   5.708   2.899   2.012
 7623SOL     OW23767   4.697   5.209   6.385
 7623SOL    HW123768   4.679   5.237   6.480
 7623SOL    HW223769   4.630   5.252   6.324
 7624SOL     OW23770   0.461   1.953   4.157
 7624SOL    HW123771   0.459   1.884   4.085
 7624SOL    HW223772   0.537   1.934   4.219
 7625SOL     OW23773   5.207   0.817   0.673
 7625SOL    HW123774   5.206   0.815   0.773
 7625SOL    HW223775   5.115   0.840   0.640
 7626SOL     OW23776   0.200   6.466   4.844
 7626SOL    HW123777   0.158   6.548   4.882
 7626SOL    HW223778   0.256   6.491   4.765
 7627SOL     OW23779   6.061   3.430   0.516
 7627SOL    HW123780   6.090   3.390   0.603
 7627SOL    HW223781   5.961   3.426   0.509
 7628SOL     OW23782   3.030   1.049   1.117
 7628SOL    HW123783   3.009   1.028   1.212
 7628SOL    HW223784   2.946   1.052   1.064
 7629SOL     OW23785   6.166   6.450   2.693
 7629SOL    HW123786   6.262   6.467   2.719
 7629SOL    HW223787   6.134   6.523   2.633
 7630SOL     OW23788   5.897   6.440   2.306
 7630SOL    HW123789   5.894   6.344   2.278
 7630SOL    HW223790   5.865   6.448   2.401
 7631SOL     OW23791   1.187   1.944   5.595
 7631SOL    HW123792   1.169   1.917   5.501
 7631SOL    HW223793   1.270   1.898   5.627
 7632SOL     OW23794   3.695   2.096   1.094
 7632SOL    HW123795   3.653   2.097   1.003
 7632SOL    HW223796   3.785   2.139   1.089
 7633SOL     OW23797   5.469   2.654   0.395
 7633SOL    HW123798   5.520   2.572   0.421
 7633SOL    HW223799   5.371   2.637   0.405
 7634SOL     OW23800   0.985   1.329   2.349
 7634SOL    HW123801   1.079   1.300   2.369
 7634SOL    HW223802   0.959   1.402   2.412
 7635SOL     OW23803   2.418   5.451   5.243
 7635SOL    HW123804   2.443   5.542   5.209
 7635SOL    HW223805   2.495   5.414   5.296
 7636SOL     OW23806   1.173   1.405   3.792
 7636SOL    HW123807   1.142   1.372   3.703
 7636SOL    HW223808   1.108   1.375   3.863
 7637SOL     OW23809   2.019   6.681   3.280
 7637SOL    HW123810   2.014   6.718   3.187
 7637SOL    HW223811   1.927   6.677   3.319
 7638SOL     OW23812   5.622   5.326   1.558
 7638SOL    HW123813   5.620   5.246   1.618
 7638SOL    HW223814   5.540   5.381   1.573
 7639SOL     OW23815   1.400   2.012   6.904
 7639SOL    HW123816   1.346   1.940   6.860
 7639SOL    HW223817   1.450   2.063   6.834
 7640SOL     OW23818   2.252   1.959   0.142
 7640SOL    HW123819   2.311   1.934   0.066
 7640SOL    HW223820   2.198   2.040   0.117
 7641SOL     OW23821   0.921   4.654   1.681
 7641SOL    HW123822   0.989   4.648   1.754
 7641SOL    HW223823   0.958   4.612   1.598
 7642SOL     OW23824   2.613   1.960   2.803
 7642SOL    HW123825   2.645   2.017   2.879
 7642SOL    HW223826   2.546   1.894   2.838
 7643SOL     OW23827   4.995   2.374   3.444
 7643SOL    HW123828   4.983   2.356   3.541
 7643SOL    HW223829   5.025   2.468   3.431
 7644SOL     OW23830   6.370   2.198   2.726
 7644SOL    HW123831   6.383   2.283   2.776
 7644SOL    HW223832   6.363   2.218   2.628
 7645SOL     OW23833   5.061   5.137   6.015
 7645SOL    HW123834   5.025   5.135   6.108
 7645SOL    HW223835   5.126   5.062   6.003
 7646SOL     OW23836   1.783   2.093   2.445
 7646SOL    HW123837   1.855   2.083   2.513
 7646SOL    HW223838   1.817   2.063   2.355
 7647SOL     OW23839   0.932   3.446   1.301
 7647SOL    HW123840   0.898   3.387   1.228
 7647SOL    HW223841   0.951   3.537   1.264
 7648SOL     OW23842   4.241   2.325   3.373
 7648SOL    HW123843   4.291   2.259   3.430
 7648SOL    HW223844   4.152   2.344   3.414
 7649SOL     OW23845   0.623   0.538   2.300
 7649SOL    HW123846   0.583   0.606   2.239
 7649SOL    HW223847   0.651   0.458   2.247
 7650SOL     OW23848   6.039   3.351   2.058
 7650SOL    HW123849   6.021   3.280   1.990
 7650SOL    HW223850   5.980   3.429   2.040
 7651SOL     OW23851   1.954   0.099   6.363
 7651SOL    HW123852   1.902   0.139   6.287
 7651SOL    HW223853   1.916   0.131   6.450
 7652SOL     OW23854   6.662   3.843   4.141
 7652SOL    HW123855   6.720   3.780   4.192
 7652SOL    HW223856   6.719   3.905   4.088
 7653SOL     OW23857   1.888   0.963   0.882
 7653SOL    HW123858   1.872   0.866   0.901
 7653SOL    HW223859   1.984   0.977   0.858
 7654SOL     OW23860   5.024   2.701   2.988
 7654SOL    HW123861   4.930   2.724   3.015
 7654SOL    HW223862   5.088   2.754   3.043
 7655SOL     OW23863   3.598   0.347   3.814
 7655SOL    HW123864   3.564   0.415   3.750
 7655SOL    HW223865   3.620   0.263   3.765
 7656SOL     OW23866   0.929   6.068   6.000
 7656SOL    HW123867   0.961   6.032   6.087
 7656SOL    HW223868   0.889   5.995   5.945
 7657SOL     OW23869   3.049   2.159   2.766
 7657SOL    HW123870   2.953   2.134   2.750
 7657SOL    HW223871   3.105   2.124   2.692
 7658SOL     OW23872   4.430   0.041   5.889
 7658SOL    HW123873   4.476   0.124   5.919
 7658SOL    HW223874   4.450   6.985   5.952
 7659SOL     OW23875   5.530   6.703   0.036
 7659SOL    HW123876   5.437   6.679   0.008
 7659SOL    HW223877   5.596   6.657   6.995
 7660SOL     OW23878   6.016   5.717   4.535
 7660SOL    HW123879   5.966   5.802   4.548
 7660SOL    HW223880   6.044   5.681   4.624
 7661SOL     OW23881   5.890   1.841   4.409
 7661SOL    HW123882   5.907   1.925   4.357
 7661SOL    HW223883   5.798   1.808   4.390
 7662SOL     OW23884   1.682   2.593   1.998
 7662SOL    HW123885   1.630   2.509   2.017
 7662SOL    HW223886   1.777   2.580   2.025
 7663SOL     OW23887   6.603   5.972   6.344
 7663SOL    HW123888   6.603   6.059   6.394
 7663SOL    HW223889   6.666   5.978   6.267
 7664SOL     OW23890   2.969   6.808   2.505
 7664SOL    HW123891   3.021   6.747   2.445
 7664SOL    HW223892   3.031   6.869   2.553
 7665SOL     OW23893   3.531   0.280   3.299
 7665SOL    HW123894   3.619   0.313   3.336
 7665SOL    HW223895   3.464   0.276   3.373
 7666SOL     OW23896   6.824   6.993   1.533
 7666SOL    HW123897   6.784   0.054   1.488
 7666SOL    HW223898   6.920   7.012   1.556
 7667SOL     OW23899   5.569   5.858   0.377
 7667SOL    HW123900   5.600   5.768   0.406
 7667SOL    HW223901   5.546   5.855   0.279
 7668SOL     OW23902   3.073   3.923   1.391
 7668SOL    HW123903   2.988   3.870   1.395
 7668SOL    HW223904   3.086   3.959   1.299
 7669SOL     OW23905   5.331   1.517   4.618
 7669SOL    HW123906   5.398   1.584   4.584
 7669SOL    HW223907   5.341   1.508   4.717
 7670SOL     OW23908   1.620   6.231   6.523
 7670SOL    HW123909   1.545   6.227   6.589
 7670SOL    HW223910   1.706   6.205   6.568
 7671SOL     OW23911   4.297   1.188   4.271
 7671SOL    HW123912   4.343   1.161   4.356
 7671SOL    HW223913   4.363   1.189   4.196
 7672SOL     OW23914   5.700   6.876   3.367
 7672SOL    HW123915   5.717   6.818   3.287
 7672SOL    HW223916   5.691   6.819   3.449
 7673SOL     OW23917   2.212   5.016   0.489
 7673SOL    HW123918   2.219   5.034   0.391
 7673SOL    HW223919   2.267   4.935   0.512
 7674SOL     OW23920   6.799   1.952   4.110
 7674SOL    HW123921   6.710   1.959   4.065
 7674SOL    HW223922   6.857   1.889   4.059
 7675SOL     OW23923   5.141   0.577   2.306
 7675SOL    HW123924   5.156   0.485   2.343
 7675SOL    HW223925   5.217   0.636   2.333
 7676SOL     OW23926   0.675   1.797   0.189
 7676SOL    HW123927   0.700   1.804   0.286
 7676SOL    HW223928   0.588   1.842   0.173
 7677SOL     OW23929   1.571   3.161   2.146
 7677SOL    HW123930   1.505   3.215   2.093
 7677SOL    HW223931   1.561   3.064   2.122
 7678SOL     OW23932   1.290   1.104   6.317
 7678SOL    HW123933   1.307   1.023   6.260
 7678SOL    HW223934   1.353   1.176   6.291
 7679SOL     OW23935   1.345   5.986   4.870
 7679SOL    HW123936   1.423   6.041   4.898
 7679SOL    HW223937   1.263   6.019   4.917
 7680SOL     OW23938   2.320   3.238   6.895
 7680SOL    HW123939   2.369   3.214   6.979
 7680SOL    HW223940   2.386   3.263   6.825
 7681SOL     OW23941   3.270   0.279   0.114
 7681SOL    HW123942   3.304   0.362   0.160
 7681SOL    HW223943   3.315   0.199   0.154
 7682SOL     OW23944   2.236   0.238   1.516
 7682SOL    HW123945   2.154   0.211   1.465
 7682SOL    HW223946   2.209   0.294   1.595
 7683SOL     OW23947   6.514   2.426   3.567
 7683SOL    HW123948   6.576   2.347   3.570
 7683SOL    HW223949   6.472   2.432   3.476
 7684SOL     OW23950   5.865   2.346   6.896
 7684SOL    HW123951   5.823   2.303   6.976
 7684SOL    HW223952   5.800   2.348   6.821
 7685SOL     OW23953   3.725   2.586   6.693
 7685SOL    HW123954   3.722   2.596   6.792
 7685SOL    HW223955   3.665   2.654   6.650
 7686SOL     OW23956   4.135   0.364   2.972
 7686SOL    HW123957   4.068   0.417   2.920
 7686SOL    HW223958   4.119   0.375   3.070
 7687SOL     OW23959   5.339   5.652   5.705
 7687SOL    HW123960   5.266   5.673   5.770
 7687SOL    HW223961   5.386   5.569   5.733
 7688SOL     OW23962   6.949   6.969   6.549
 7688SOL    HW123963   6.871   6.996   6.605
 7688SOL    HW223964   7.014   0.026   6.544
 7689SOL     OW23965   5.032   6.004   3.878
 7689SOL    HW123966   5.038   5.921   3.933
 7689SOL    HW223967   5.032   5.980   3.781
 7690SOL     OW23968   5.717   5.700   2.408
 7690SOL    HW123969   5.670   5.614   2.425
 7690SOL    HW223970   5.816   5.686   2.411
 7691SOL     OW23971   4.802   2.797   4.238
 7691SOL    HW123972   4.727   2.736   4.264
 7691SOL    HW223973   4.786   2.832   4.145
 7692SOL     OW23974   0.601   6.777   1.301
 7692SOL    HW123975   0.647   6.830   1.371
 7692SOL    HW223976   0.626   6.680   1.310
 7693SOL     OW23977   4.300   1.039   0.060
 7693SOL    HW123978   4.301   0.964   0.126
 7693SOL    HW223979   4.253   1.118   0.099
 7694SOL     OW23980   1.132   4.497   4.031
 7694SOL    HW123981   1.113   4.399   4.035
 7694SOL    HW223982   1.199   4.514   3.959
 7695SOL     OW23983   4.215   0.079   0.984
 7695SOL    HW123984   4.137   0.105   1.041
 7695SOL    HW223985   4.281   0.154   0.982
 7696SOL     OW23986   6.846   1.998   4.391
 7696SOL    HW123987   6.813   1.967   4.302
 7696SOL    HW223988   6.932   2.048   4.378
 7697SOL     OW23989   2.583   1.083   3.167
 7697SOL    HW123990   2.682   1.095   3.178
 7697SOL    HW223991   2.559   1.092   3.071
 7698SOL     OW23992   0.350   2.830   4.430
 7698SOL    HW123993   0.269   2.888   4.422
 7698SOL    HW223994   0.432   2.887   4.432
 7699SOL     OW23995   2.635   5.629   6.962
 7699SOL    HW123996   2.723   5.669   6.986
 7699SOL    HW223997   2.605   5.663   6.873
 7700SOL     OW23998   5.036   6.825   5.314
 7700SOL    HW123999   5.032   6.925   5.319
 7700SOL    HW224000   5.130   6.797   5.294
 7701SOL     OW24001   6.285   1.395   6.621
 7701SOL    HW124002   6.368   1.365   6.574
 7701SOL    HW224003   6.305   1.414   6.717
 7702SOL     OW24004   3.853   6.284   5.880
 7702SOL    HW124005   3.841   6.188   5.906
 7702SOL    HW224006   3.769   6.334   5.899
 7703SOL     OW24007   6.503   1.595   5.169
 7703SOL    HW124008   6.423   1.638   5.211
 7703SOL    HW224009   6.474   1.534   5.095
 7704SOL     OW24010   4.274   4.899   5.840
 7704SOL    HW124011   4.350   4.868   5.896
 7704SOL    HW224012   4.189   4.896   5.893
 7705SOL     OW24013   3.110   4.868   5.549
 7705SOL    HW124014   3.137   4.813   5.470
 7705SOL    HW224015   3.088   4.809   5.626
 7706SOL     OW24016   5.525   1.059   6.016
 7706SOL    HW124017   5.620   1.090   6.023
 7706SOL    HW224018   5.521   0.976   5.960
 7707SOL     OW24019   0.343   5.664   6.429
 7707SOL    HW124020   0.408   5.712   6.488
 7707SOL    HW224021   0.327   5.572   6.465
 7708SOL     OW24022   5.059   6.053   4.996
 7708SOL    HW124023   5.031   6.074   4.903
 7708SOL    HW224024   4.992   6.088   5.061
 7709SOL     OW24025   5.530   3.210   2.225
 7709SOL    HW124026   5.575   3.149   2.289
 7709SOL    HW224027   5.438   3.177   2.206
 7710SOL     OW24028   2.064   0.523   1.306
 7710SOL    HW124029   2.148   0.527   1.252
 7710SOL    HW224030   2.018   0.611   1.304
 7711SOL     OW24031   6.338   6.561   5.024
 7711SOL    HW124032   6.241   6.542   5.035
 7711SOL    HW224033   6.392   6.493   5.075
 7712SOL     OW24034   6.786   5.236   1.311
 7712SOL    HW124035   6.847   5.243   1.390
 7712SOL    HW224036   6.798   5.315   1.252
 7713SOL     OW24037   2.336   3.690   0.843
 7713SOL    HW124038   2.362   3.764   0.905
 7713SOL    HW224039   2.238   3.674   0.849
 7714SOL     OW24040   6.371   5.157   4.741
 7714SOL    HW124041   6.379   5.125   4.836
 7714SOL    HW224042   6.427   5.239   4.730
 7715SOL     OW24043   5.042   1.070   1.181
 7715SOL    HW124044   5.072   1.032   1.269
 7715SOL    HW224045   4.963   1.018   1.148
 7716SOL     OW24046   4.844   3.126   3.301
 7716SOL    HW124047   4.816   3.209   3.348
 7716SOL    HW224048   4.804   3.046   3.347
 7717SOL     OW24049   2.649   1.550   5.115
 7717SOL    HW124050   2.673   1.645   5.136
 7717SOL    HW224051   2.595   1.513   5.190
 7718SOL     OW24052   1.477   1.853   3.660
 7718SOL    HW124053   1.529   1.864   3.745
 7718SOL    HW224054   1.418   1.933   3.647
 7719SOL     OW24055   6.901   3.204   3.725
 7719SOL    HW124056   6.969   3.152   3.776
 7719SOL    HW224057   6.810   3.166   3.742
 7720SOL     OW24058   0.021   6.547   1.119
 7720SOL    HW124059   0.008   6.629   1.175
 7720SOL    HW224060   0.093   6.564   1.052
 7721SOL     OW24061   2.261   4.112   2.893
 7721SOL    HW124062   2.220   4.092   2.804
 7721SOL    HW224063   2.189   4.139   2.958
 7722SOL     OW24064   0.229   5.079   2.400
 7722SOL    HW124065   0.313   5.122   2.432
 7722SOL    HW224066   0.239   4.979   2.406
 7723SOL     OW24067   6.804   4.089   0.888
 7723SOL    HW124068   6.720   4.041   0.862
 7723SOL    HW224069   6.864   4.098   0.809
 7724SOL     OW24070   2.122   4.617   2.006
 7724SOL    HW124071   2.216   4.622   2.040
 7724SOL    HW224072   2.118   4.554   1.928
 7725SOL     OW24073   5.129   2.440   3.028
 7725SOL    HW124074   5.093   2.383   2.955
 7725SOL    HW224075   5.093   2.533   3.018
 7726SOL     OW24076   0.258   4.621   3.848
 7726SOL    HW124077   0.172   4.673   3.841
 7726SOL    HW224078   0.322   4.671   3.906
 7727SOL     OW24079   5.914   1.751   3.805
 7727SOL    HW124080   5.860   1.740   3.889
 7727SOL    HW224081   5.898   1.842   3.767
 7728SOL     OW24082   1.289   3.439   3.155
 7728SOL    HW124083   1.192   3.456   3.136
 7728SOL    HW224084   1.298   3.370   3.226
 7729SOL     OW24085   6.015   2.472   1.400
 7729SOL    HW124086   5.953   2.529   1.454
 7729SOL    HW224087   6.106   2.473   1.441
 7730SOL     OW24088   5.941   5.866   2.168
 7730SOL    HW124089   6.007   5.806   2.123
 7730SOL    HW224090   5.850   5.850   2.129
 7731SOL     OW24091   5.868   1.056   1.010
 7731SOL    HW124092   5.862   1.080   0.913
 7731SOL    HW224093   5.959   1.082   1.045
 7732SOL     OW24094   4.424   6.034   0.540
 7732SOL    HW124095   4.418   5.934   0.541
 7732SOL    HW224096   4.416   6.069   0.633
 7733SOL     OW24097   4.325   6.428   1.514
 7733SOL    HW124098   4.283   6.342   1.483
 7733SOL    HW224099   4.381   6.466   1.441
 7734SOL     OW24100   1.548   3.651   3.353
 7734SOL    HW124101   1.566   3.699   3.267
 7734SOL    HW224102   1.491   3.708   3.412
 7735SOL     OW24103   4.549   4.548   6.891
 7735SOL    HW124104   4.512   4.459   6.864
 7735SOL    HW224105   4.592   4.591   6.812
 7736SOL     OW24106   5.634   4.604   0.486
 7736SOL    HW124107   5.577   4.561   0.556
 7736SOL    HW224108   5.636   4.703   0.500
 7737SOL     OW24109   4.651   1.382   0.743
 7737SOL    HW124110   4.589   1.460   0.732
 7737SOL    HW224111   4.602   1.298   0.721
 7738SOL     OW24112   2.365   6.136   0.588
 7738SOL    HW124113   2.455   6.166   0.557
 7738SOL    HW224114   2.364   6.131   0.688
 7739SOL     OW24115   0.284   2.266   1.066
 7739SOL    HW124116   0.336   2.314   0.994
 7739SOL    HW224117   0.287   2.321   1.150
 7740SOL     OW24118   0.241   0.371   2.884
 7740SOL    HW124119   0.211   0.281   2.853
 7740SOL    HW224120   0.245   0.372   2.984
 7741SOL     OW24121   1.512   5.793   4.833
 7741SOL    HW124122   1.597   5.844   4.849
 7741SOL    HW224123   1.435   5.857   4.834
 7742SOL     OW24124   6.175   1.928   3.395
 7742SOL    HW124125   6.199   2.022   3.368
 7742SOL    HW224126   6.213   1.864   3.328
 7743SOL     OW24127   4.771   3.451   5.962
 7743SOL    HW124128   4.747   3.354   5.960
 7743SOL    HW224129   4.805   3.475   6.053
 7744SOL     OW24130   0.036   6.295   3.924
 7744SOL    HW124131   7.000   6.323   4.003
 7744SOL    HW224132   0.129   6.332   3.932
 7745SOL     OW24133   3.695   2.120   6.046
 7745SOL    HW124134   3.731   2.086   6.134
 7745SOL    HW224135   3.698   2.220   6.045
 7746SOL     OW24136   2.328   0.211   0.139
 7746SOL    HW124137   2.354   0.195   0.234
 7746SOL    HW224138   2.241   0.261   0.137
 7747SOL     OW24139   5.020   6.054   0.938
 7747SOL    HW124140   5.036   6.025   1.032
 7747SOL    HW224141   4.945   6.119   0.935
 7748SOL     OW24142   3.205   3.734   5.552
 7748SOL    HW124143   3.146   3.795   5.498
 7748SOL    HW224144   3.270   3.688   5.492
 7749SOL     OW24145   4.604   2.859   5.748
 7749SOL    HW124146   4.606   2.760   5.763
 7749SOL    HW224147   4.513   2.895   5.770
 7750SOL     OW24148   0.759   6.091   1.494
 7750SOL    HW124149   0.782   6.161   1.426
 7750SOL    HW224150   0.753   6.134   1.584
 7751SOL     OW24151   1.388   1.990   2.200
 7751SOL    HW124152   1.352   1.975   2.291
 7751SOL    HW224153   1.350   1.923   2.137
 7752SOL     OW24154   4.769   0.698   4.606
 7752SOL    HW124155   4.866   0.704   4.630
 7752SOL    HW224156   4.755   0.724   4.511
 7753SOL     OW24157   2.034   1.445   4.474
 7753SOL    HW124158   2.013   1.533   4.430
 7753SOL    HW224159   2.123   1.452   4.520
 7754SOL     OW24160   3.731   6.190   1.878
 7754SOL    HW124161   3.736   6.179   1.779
 7754SOL    HW224162   3.728   6.288   1.901
 7755SOL     OW24163   1.433   4.209   6.710
 7755SOL    HW124164   1.512   4.201   6.771
 7755SOL    HW224165   1.397   4.302   6.713
 7756SOL     OW24166   2.154   6.099   1.362
 7756SOL    HW124167   2.215   6.102   1.282
 7756SOL    HW224168   2.154   6.006   1.399
 7757SOL     OW24169   0.053   4.702   1.539
 7757SOL    HW124170   0.120   4.652   1.594
 7757SOL    HW224171   0.052   4.798   1.568
 7758SOL     OW24172   1.676   1.055   6.265
 7758SOL    HW124173   1.637   1.104   6.187
 7758SOL    HW224174   1.620   0.974   6.284
 7759SOL     OW24175   2.488   2.255   6.118
 7759SOL    HW124176   2.587   2.249   6.127
 7759SOL    HW224177   2.455   2.336   6.167
 7760SOL     OW24178   4.386   1.878   1.850
 7760SOL    HW124179   4.417   1.969   1.878
 7760SOL    HW224180   4.434   1.851   1.767
 7761SOL     OW24181   5.414   5.704   4.330
 7761SOL    HW124182   5.317   5.723   4.317
 7761SOL    HW224183   5.429   5.666   4.422
 7762SOL     OW24184   0.237   0.093   3.867
 7762SOL    HW124185   0.156   0.040   3.893
 7762SOL    HW224186   0.282   0.128   3.950
 7763SOL     OW24187   2.529   0.435   5.231
 7763SOL    HW124188   2.515   0.357   5.170
 7763SOL    HW224189   2.520   0.405   5.326
 7764SOL     OW24190   3.288   3.832   5.257
 7764SOL    HW124191   3.317   3.922   5.222
 7764SOL    HW224192   3.189   3.831   5.265
 7765SOL     OW24193   6.937   3.185   4.257
 7765SOL    HW124194   6.955   3.118   4.185
 7765SOL    HW224195   6.861   3.244   4.230
 7766SOL     OW24196   0.697   4.570   0.166
 7766SOL    HW124197   0.600   4.590   0.182
 7766SOL    HW224198   0.745   4.571   0.253
 7767SOL     OW24199   3.879   0.584   2.337
 7767SOL    HW124200   3.941   0.507   2.350
 7767SOL    HW224201   3.828   0.571   2.252
 7768SOL     OW24202   4.579   4.675   2.883
 7768SOL    HW124203   4.666   4.653   2.838
 7768SOL    HW224204   4.504   4.659   2.819
 7769SOL     OW24205   3.802   2.040   5.245
 7769SOL    HW124206   3.768   2.038   5.151
 7769SOL    HW224207   3.888   2.091   5.249
 7770SOL     OW24208   1.155   3.215   4.698
 7770SOL    HW124209   1.249   3.250   4.701
 7770SOL    HW224210   1.135   3.166   4.783
 7771SOL     OW24211   2.871   2.528   6.021
 7771SOL    HW124212   2.940   2.464   5.988
 7771SOL    HW224213   2.848   2.506   6.116
 7772SOL     OW24214   5.226   0.684   1.237
 7772SOL    HW124215   5.167   0.692   1.156
 7772SOL    HW224216   5.209   0.597   1.282
 7773SOL     OW24217   3.341   5.709   0.165
 7773SOL    HW124218   3.420   5.655   0.196
 7773SOL    HW224219   3.264   5.647   0.147
 7774SOL     OW24220   5.017   2.119   2.894
 7774SOL    HW124221   5.073   2.104   2.813
 7774SOL    HW224222   5.076   2.127   2.974
 7775SOL     OW24223   3.728   0.781   6.897
 7775SOL    HW124224   3.730   0.681   6.896
 7775SOL    HW224225   3.811   0.816   6.940
 7776SOL     OW24226   0.964   6.701   5.318
 7776SOL    HW124227   0.891   6.674   5.255
 7776SOL    HW224228   0.953   6.797   5.343
 7777SOL     OW24229   5.845   5.065   4.083
 7777SOL    HW124230   5.913   4.992   4.086
 7777SOL    HW224231   5.753   5.024   4.084
 7778SOL     OW24232   6.291   4.297   2.776
 7778SOL    HW124233   6.197   4.323   2.752
 7778SOL    HW224234   6.333   4.250   2.699
 7779SOL     OW24235   3.075   6.080   2.284
 7779SOL    HW124236   3.167   6.076   2.324
 7779SOL    HW224237   3.017   6.013   2.330
 7780SOL     OW24238   6.476   5.479   5.441
 7780SOL    HW124239   6.493   5.509   5.535
 7780SOL    HW224240   6.464   5.380   5.438
 7781SOL     OW24241   2.015   2.574   0.538
 7781SOL    HW124242   1.943   2.504   0.534
 7781SOL    HW224243   1.985   2.655   0.487
 7782SOL     OW24244   6.542   4.501   3.401
 7782SOL    HW124245   6.471   4.449   3.354
 7782SOL    HW224246   6.622   4.509   3.341
 7783SOL     OW24247   0.926   6.976   5.387
 7783SOL    HW124248   0.995   0.022   5.357
 7783SOL    HW224249   0.835   7.018   5.380
 7784SOL     OW24250   2.493   2.438   2.157
 7784SOL    HW124251   2.580   2.466   2.197
 7784SOL    HW224252   2.421   2.502   2.184
 7785SOL     OW24253   1.826   6.224   2.501
 7785SOL    HW124254   1.893   6.257   2.434
 7785SOL    HW224255   1.854   6.133   2.534
 7786SOL     OW24256   4.252   0.532   6.943
 7786SOL    HW124257   4.162   0.523   6.984
 7786SOL    HW224258   4.323   0.518   7.012
 7787SOL     OW24259   2.647   3.361   0.963
 7787SOL    HW124260   2.624   3.341   1.058
 7787SOL    HW224261   2.564   3.371   0.909
 7788SOL     OW24262   1.620   4.811   1.323
 7788SOL    HW124263   1.576   4.755   1.393
 7788SOL    HW224264   1.585   4.904   1.327
 7789SOL     OW24265   3.687   0.474   6.620
 7789SOL    HW124266   3.739   0.516   6.546
 7789SOL    HW224267   3.589   0.484   6.603
 7790SOL     OW24268   5.839   5.048   2.372
 7790SOL    HW124269   5.764   5.005   2.422
 7790SOL    HW224270   5.911   4.980   2.355
 7791SOL     OW24271   2.007   5.574   1.820
 7791SOL    HW124272   2.038   5.567   1.725
 7791SOL    HW224273   2.086   5.592   1.879
 7792SOL     OW24274   0.561   1.504   2.908
 7792SOL    HW124275   0.542   1.439   2.982
 7792SOL    HW224276   0.655   1.494   2.878
 7793SOL     OW24277   4.001   1.888   0.217
 7793SOL    HW124278   4.068   1.893   0.143
 7793SOL    HW224279   4.041   1.839   0.295
 7794SOL     OW24280   0.870   5.649   2.767
 7794SOL    HW124281   0.907   5.677   2.855
 7794SOL    HW224282   0.944   5.619   2.708
 7795SOL     OW24283   3.003   5.571   5.836
 7795SOL    HW124284   2.927   5.532   5.888
 7795SOL    HW224285   3.072   5.606   5.900
 7796SOL     OW24286   3.634   2.997   5.897
 7796SOL    HW124287   3.552   2.999   5.839
 7796SOL    HW224288   3.623   2.928   5.968
 7797SOL     OW24289   0.888   5.269   3.099
 7797SOL    HW124290   0.808   5.324   3.077
 7797SOL    HW224291   0.873   5.175   3.069
 7798SOL     OW24292   0.766   1.900   1.679
 7798SOL    HW124293   0.759   1.997   1.701
 7798SOL    HW224294   0.778   1.889   1.580
 7799SOL     OW24295   2.659   6.278   2.735
 7799SOL    HW124296   2.597   6.200   2.731
 7799SOL    HW224297   2.719   6.269   2.815
 7800SOL     OW24298   0.918   5.977   1.073
 7800SOL    HW124299   0.958   5.953   0.984
 7800SOL    HW224300   0.866   5.899   1.108
 7801SOL     OW24301   1.369   2.780   2.536
 7801SOL    HW124302   1.358   2.836   2.454
 7801SOL    HW224303   1.298   2.802   2.602
 7802SOL     OW24304   6.533   4.046   5.994
 7802SOL    HW124305   6.542   4.145   5.985
 7802SOL    HW224306   6.447   4.017   5.951
 7803SOL     OW24307   4.974   2.341   5.673
 7803SOL    HW124308   4.993   2.359   5.769
 7803SOL    HW224309   5.045   2.282   5.635
 7804SOL     OW24310   2.346   2.064   4.627
 7804SOL    HW124311   2.309   1.995   4.689
 7804SOL    HW224312   2.401   2.129   4.679
 7805SOL     OW24313   5.550   2.550   1.767
 7805SOL    HW124314   5.582   2.623   1.708
 7805SOL    HW224315   5.626   2.516   1.823
 7806SOL     OW24316   6.382   2.325   5.223
 7806SOL    HW124317   6.474   2.286   5.228
 7806SOL    HW224318   6.360   2.344   5.127
 7807SOL     OW24319   2.438   4.888   6.051
 7807SOL    HW124320   2.516   4.829   6.031
 7807SOL    HW224321   2.365   4.835   6.094
 7808SOL     OW24322   4.971   4.359   2.888
 7808SOL    HW124323   5.062   4.328   2.917
 7808SOL    HW224324   4.980   4.428   2.817
 7809SOL     OW24325   5.343   5.078   3.575
 7809SOL    HW124326   5.392   5.128   3.504
 7809SOL    HW224327   5.250   5.058   3.544
 7810SOL     OW24328   4.362   6.226   4.813
 7810SOL    HW124329   4.389   6.146   4.867
 7810SOL    HW224330   4.386   6.211   4.717
 7811SOL     OW24331   1.283   5.746   2.555
 7811SOL    HW124332   1.297   5.695   2.470
 7811SOL    HW224333   1.267   5.842   2.534
 7812SOL     OW24334   2.570   2.563   5.697
 7812SOL    HW124335   2.667   2.588   5.693
 7812SOL    HW224336   2.514   2.645   5.687
 7813SOL     OW24337   5.551   2.510   1.405
 7813SOL    HW124338   5.500   2.593   1.381
 7813SOL    HW224339   5.491   2.430   1.397
 7814SOL     OW24340   6.438   3.100   2.136
 7814SOL    HW124341   6.465   3.053   2.053
 7814SOL    HW224342   6.342   3.081   2.155
 7815SOL     OW24343   6.041   2.815   5.735
 7815SOL    HW124344   5.943   2.815   5.754
 7815SOL    HW224345   6.071   2.723   5.711
 7816SOL     OW24346   0.632   1.755   5.613
 7816SOL    HW124347   0.720   1.792   5.643
 7816SOL    HW224348   0.594   1.812   5.541
 7817SOL     OW24349   3.021   3.385   5.936
 7817SOL    HW124350   2.937   3.344   5.970
 7817SOL    HW224351   3.046   3.462   5.995
 7818SOL     OW24352   5.089   1.262   2.263
 7818SOL    HW124353   5.159   1.266   2.335
 7818SOL    HW224354   5.012   1.321   2.289
 7819SOL     OW24355   0.733   3.660   4.193
 7819SOL    HW124356   0.770   3.567   4.189
 7819SOL    HW224357   0.738   3.701   4.101
 7820SOL     OW24358   1.530   0.987   5.648
 7820SOL    HW124359   1.550   0.907   5.592
 7820SOL    HW224360   1.450   1.035   5.610
 7821SOL     OW24361   6.367   5.720   0.161
 7821SOL    HW124362   6.307   5.641   0.144
 7821SOL    HW224363   6.452   5.708   0.110
 7822SOL     OW24364   1.149   1.252   4.788
 7822SOL    HW124365   1.236   1.268   4.836
 7822SOL    HW224366   1.091   1.193   4.844
 7823SOL     OW24367   1.216   4.062   6.747
 7823SOL    HW124368   1.192   4.075   6.844
 7823SOL    HW224369   1.294   4.119   6.724
 7824SOL     OW24370   5.553   2.061   2.527
 7824SOL    HW124371   5.545   1.981   2.467
 7824SOL    HW224372   5.503   2.138   2.488
 7825SOL     OW24373   2.698   2.936   1.494
 7825SOL    HW124374   2.604   2.903   1.501
 7825SOL    HW224375   2.750   2.875   1.434
 7826SOL     OW24376   5.854   1.228   0.228
 7826SOL    HW124377   5.886   1.280   0.307
 7826SOL    HW224378   5.898   1.138   0.227
 7827SOL     OW24379   4.659   5.091   1.711
 7827SOL    HW124380   4.591   5.115   1.781
 7827SOL    HW224381   4.719   5.018   1.746
 7828SOL     OW24382   1.164   6.300   0.670
 7828SOL    HW124383   1.178   6.398   0.655
 7828SOL    HW224384   1.235   6.266   0.731
 7829SOL     OW24385   2.897   3.017   1.733
 7829SOL    HW124386   2.970   3.062   1.682
 7829SOL    HW224387   2.904   2.918   1.721
 7830SOL     OW24388   6.113   3.351   6.484
 7830SOL    HW124389   6.156   3.352   6.574
 7830SOL    HW224390   6.068   3.263   6.470
 7831SOL     OW24391   1.127   3.497   0.483
 7831SOL    HW124392   1.068   3.433   0.434
 7831SOL    HW224393   1.106   3.590   0.454
 7832SOL     OW24394   2.781   1.752   5.447
 7832SOL    HW124395   2.731   1.665   5.449
 7832SOL    HW224396   2.805   1.773   5.352
 7833SOL     OW24397   0.668   6.521   0.451
 7833SOL    HW124398   0.648   6.495   0.545
 7833SOL    HW224399   0.614   6.602   0.426
 7834SOL     OW24400   0.429   0.695   2.177
 7834SOL    HW124401   0.375   0.776   2.197
 7834SOL    HW224402   0.424   0.674   2.079
 7835SOL     OW24403   2.276   2.872   4.783
 7835SOL    HW124404   2.275   2.950   4.721
 7835SOL    HW224405   2.323   2.897   4.868
 7836SOL     OW24406   3.057   6.939   6.507
 7836SOL    HW124407   3.084   6.884   6.428
 7836SOL    HW224408   3.119   7.016   6.518
 7837SOL     OW24409   5.783   6.460   2.534
 7837SOL    HW124410   5.729   6.532   2.577
 7837SOL    HW224411   5.744   6.371   2.555
 7838SOL     OW24412   4.331   6.912   4.428
 7838SOL    HW124413   4.280   6.884   4.509
 7838SOL    HW224414   4.381   6.833   4.391
 7839SOL     OW24415   5.886   4.444   4.427
 7839SOL    HW124416   5.847   4.446   4.335
 7839SOL    HW224417   5.955   4.372   4.432
 7840SOL     OW24418   4.834   2.986   3.995
 7840SOL    HW124419   4.905   2.922   3.967
 7840SOL    HW224420   4.876   3.072   4.023
 7841SOL     OW24421   6.713   2.137   6.860
 7841SOL    HW124422   6.653   2.142   6.939
 7841SOL    HW224423   6.808   2.141   6.891
 7842SOL     OW24424   2.199   1.584   3.096
 7842SOL    HW124425   2.112   1.628   3.074
 7842SOL    HW224426   2.233   1.536   3.015
 7843SOL     OW24427   5.657   4.151   1.244
 7843SOL    HW124428   5.728   4.130   1.176
 7843SOL    HW224429   5.699   4.196   1.323
 7844SOL     OW24430   4.308   0.667   3.172
 7844SOL    HW124431   4.335   0.731   3.100
 7844SOL    HW224432   4.209   0.654   3.169
 7845SOL     OW24433   6.844   0.725   4.090
 7845SOL    HW124434   6.808   0.677   4.170
 7845SOL    HW224435   6.908   0.665   4.041
 7846SOL     OW24436   2.072   0.715   1.730
 7846SOL    HW124437   2.076   0.694   1.827
 7846SOL    HW224438   2.053   0.812   1.717
 7847SOL     OW24439   0.342   0.643   0.610
 7847SOL    HW124440   0.267   0.617   0.671
 7847SOL    HW224441   0.349   0.576   0.535
 7848SOL     OW24442   4.107   4.102   1.481
 7848SOL    HW124443   4.055   4.019   1.459
 7848SOL    HW224444   4.059   4.153   1.553
 7849SOL     OW24445   5.015   2.817   4.427
 7849SOL    HW124446   4.973   2.843   4.340
 7849SOL    HW224447   4.980   2.875   4.500
 7850SOL     OW24448   6.940   1.036   5.162
 7850SOL    HW124449   6.849   1.079   5.160
 7850SOL    HW224450   6.956   0.991   5.074
 7851SOL     OW24451   6.037   0.054   0.405
 7851SOL    HW124452   6.037   0.049   0.505
 7851SOL    HW224453   6.079   0.140   0.376
 7852SOL     OW24454   3.187   6.560   0.046
 7852SOL    HW124455   3.168   6.574   6.968
 7852SOL    HW224456   3.100   6.559   0.097
 7853SOL     OW24457   2.658   1.682   0.504
 7853SOL    HW124458   2.709   1.760   0.468
 7853SOL    HW224459   2.676   1.602   0.447
 7854SOL     OW24460   3.190   3.991   2.674
 7854SOL    HW124461   3.169   3.893   2.668
 7854SOL    HW224462   3.211   4.025   2.582
 7855SOL     OW24463   4.192   5.118   6.149
 7855SOL    HW124464   4.208   5.121   6.051
 7855SOL    HW224465   4.140   5.036   6.172
 7856SOL     OW24466   5.757   3.799   4.899
 7856SOL    HW124467   5.835   3.758   4.945
 7856SOL    HW224468   5.747   3.759   4.808
 7857SOL     OW24469   6.063   2.114   5.719
 7857SOL    HW124470   5.971   2.149   5.699
 7857SOL    HW224471   6.070   2.093   5.817
 7858SOL     OW24472   6.693   4.179   3.745
 7858SOL    HW124473   6.657   4.186   3.838
 7858SOL    HW224474   6.635   4.232   3.682
 7859SOL     OW24475   1.101   4.829   6.108
 7859SOL    HW124476   1.021   4.870   6.150
 7859SOL    HW224477   1.140   4.892   6.041
 7860SOL     OW24478   3.941   0.043   1.921
 7860SOL    HW124479   3.963   0.123   1.866
 7860SOL    HW224480   3.963   0.062   2.017
 7861SOL     OW24481   4.337   5.163   1.250
 7861SOL    HW124482   4.390   5.200   1.325
 7861SOL    HW224483   4.297   5.076   1.277
 7862SOL     OW24484   3.017   4.265   1.695
 7862SOL    HW124485   2.945   4.208   1.655
 7862SOL    HW224486   2.976   4.343   1.743
 7863SOL     OW24487   6.624   6.103   2.396
 7863SOL    HW124488   6.632   6.200   2.373
 7863SOL    HW224489   6.534   6.085   2.434
 7864SOL     OW24490   0.655   6.125   5.617
 7864SOL    HW124491   0.670   6.159   5.524
 7864SOL    HW224492   0.658   6.202   5.681
 7865SOL     OW24493   3.520   6.500   3.234
 7865SOL    HW124494   3.568   6.414   3.218
 7865SOL    HW224495   3.558   6.545   3.315
 7866SOL     OW24496   2.673   2.119   3.305
 7866SOL    HW124497   2.724   2.109   3.390
 7866SOL    HW224498   2.595   2.180   3.320
 7867SOL     OW24499   6.381   5.923   2.181
 7867SOL    HW124500   6.470   5.926   2.134
 7867SOL    HW224501   6.309   5.952   2.118
 7868SOL     OW24502   5.466   6.080   1.067
 7868SOL    HW124503   5.409   6.156   1.097
 7868SOL    HW224504   5.508   6.102   0.979
 7869SOL     OW24505   6.732   3.095   1.381
 7869SOL    HW124506   6.678   3.013   1.398
 7869SOL    HW224507   6.716   3.162   1.454
 7870SOL     OW24508   6.952   5.480   3.926
 7870SOL    HW124509   6.923   5.561   3.876
 7870SOL    HW224510   0.034   5.474   3.922
 7871SOL     OW24511   6.054   2.924   2.872
 7871SOL    HW124512   6.154   2.924   2.874
 7871SOL    HW224513   6.018   2.915   2.965
 7872SOL     OW24514   0.340   3.969   3.078
 7872SOL    HW124515   0.431   3.972   3.037
 7872SOL    HW224516   0.324   4.054   3.130
 7873SOL     OW24517   6.904   6.572   6.299
 7873SOL    HW124518   6.863   6.589   6.388
 7873SOL    HW224519   6.954   6.654   6.269
 7874SOL     OW24520   5.881   1.475   6.924
 7874SOL    HW124521   5.795   1.462   6.974
 7874SOL    HW224522   5.862   1.484   6.827
 7875SOL     OW24523   5.374   3.986   6.704
 7875SOL    HW124524   5.304   3.976   6.775
 7875SOL    HW224525   5.443   4.052   6.733
 7876SOL     OW24526   6.437   0.332   4.337
 7876SOL    HW124527   6.504   0.342   4.411
 7876SOL    HW224528   6.454   0.402   4.268
 7877SOL     OW24529   6.874   2.522   3.165
 7877SOL    HW124530   6.974   2.519   3.170
 7877SOL    HW224531   6.845   2.611   3.131
 7878SOL     OW24532   4.533   4.375   2.528
 7878SOL    HW124533   4.471   4.430   2.472
 7878SOL    HW224534   4.575   4.304   2.471
 7879SOL     OW24535   5.155   6.201   3.415
 7879SOL    HW124536   5.237   6.250   3.446
 7879SOL    HW224537   5.171   6.164   3.324
 7880SOL     OW24538   0.563   6.245   6.827
 7880SOL    HW124539   0.519   6.252   6.917
 7880SOL    HW224540   0.552   6.330   6.777
 7881SOL     OW24541   6.987   4.084   5.400
 7881SOL    HW124542   6.960   4.178   5.379
 7881SOL    HW224543   6.954   4.023   5.327
 7882SOL     OW24544   0.775   2.902   2.666
 7882SOL    HW124545   0.789   2.993   2.705
 7882SOL    HW224546   0.744   2.911   2.571
 7883SOL     OW24547   2.885   1.164   2.949
 7883SOL    HW124548   2.848   1.256   2.964
 7883SOL    HW224549   2.938   1.163   2.864
 7884SOL     OW24550   1.779   4.766   3.895
 7884SOL    HW124551   1.827   4.847   3.862
 7884SOL    HW224552   1.681   4.786   3.903
 7885SOL     OW24553   5.846   5.469   2.620
 7885SOL    HW124554   5.839   5.424   2.709
 7885SOL    HW224555   5.905   5.415   2.560
 7886SOL     OW24556   4.856   3.401   1.952
 7886SOL    HW124557   4.769   3.447   1.932
 7886SOL    HW224558   4.848   3.304   1.932
 7887SOL     OW24559   3.690   3.108   6.178
 7887SOL    HW124560   3.669   3.103   6.276
 7887SOL    HW224561   3.625   3.168   6.132
 7888SOL     OW24562   6.024   1.551   4.076
 7888SOL    HW124563   6.078   1.620   4.027
 7888SOL    HW224564   5.980   1.594   4.155
 7889SOL     OW24565   6.103   5.298   0.448
 7889SOL    HW124566   6.167   5.274   0.374
 7889SOL    HW224567   6.110   5.396   0.467
 7890SOL     OW24568   1.521   2.964   4.639
 7890SOL    HW124569   1.493   2.923   4.552
 7890SOL    HW224570   1.618   2.949   4.653
 7891SOL     OW24571   0.263   2.365   3.904
 7891SOL    HW124572   0.272   2.267   3.924
 7891SOL    HW224573   0.339   2.394   3.847
 7892SOL     OW24574   1.902   2.542   5.050
 7892SOL    HW124575   1.930   2.571   5.142
 7892SOL    HW224576   1.974   2.563   4.985
 7893SOL     OW24577   6.713   0.687   2.210
 7893SOL    HW124578   6.752   0.607   2.164
 7893SOL    HW224579   6.699   0.667   2.307
 7894SOL     OW24580   2.137   1.673   6.402
 7894SOL    HW124581   2.055   1.631   6.363
 7894SOL    HW224582   2.207   1.603   6.415
 7895SOL     OW24583   3.620   6.085   3.585
 7895SOL    HW124584   3.671   6.164   3.618
 7895SOL    HW224585   3.550   6.060   3.652
 7896SOL     OW24586   4.265   2.523   1.759
 7896SOL    HW124587   4.278   2.519   1.660
 7896SOL    HW224588   4.354   2.521   1.804
 7897SOL     OW24589   3.638   4.148   6.071
 7897SOL    HW124590   3.627   4.146   5.972
 7897SOL    HW224591   3.639   4.055   6.106
 7898SOL     OW24592   4.956   0.092   4.436
 7898SOL    HW124593   4.859   0.094   4.413
 7898SOL    HW224594   4.970   0.037   4.519
 7899SOL     OW24595   5.251   5.293   1.514
 7899SOL    HW124596   5.219   5.229   1.444
 7899SOL    HW224597   5.288   5.241   1.591
 7900SOL     OW24598   0.483   4.238   0.788
 7900SOL    HW124599   0.437   4.192   0.864
 7900SOL    HW224600   0.422   4.239   0.708
 7901SOL     OW24601   5.444   0.995   6.339
 7901SOL    HW124602   5.386   1.038   6.269
 7901SOL    HW224603   5.539   1.019   6.322
 7902SOL     OW24604   7.017   6.072   2.826
 7902SOL    HW124605   7.000   5.989   2.879
 7902SOL    HW224606   6.930   6.115   2.802
 7903SOL     OW24607   2.892   1.747   3.835
 7903SOL    HW124608   2.967   1.683   3.851
 7903SOL    HW224609   2.839   1.717   3.756
 7904SOL     OW24610   6.015   0.797   2.287
 7904SOL    HW124611   5.981   0.800   2.381
 7904SOL    HW224612   6.007   0.703   2.252
 7905SOL     OW24613   5.585   0.905   0.745
 7905SOL    HW124614   5.510   0.970   0.732
 7905SOL    HW224615   5.655   0.920   0.676
 7906SOL     OW24616   1.658   5.095   1.170
 7906SOL    HW124617   1.750   5.087   1.208
 7906SOL    HW224618   1.664   5.115   1.072
 7907SOL     OW24619   6.115   0.549   2.783
 7907SOL    HW124620   6.162   0.564   2.696
 7907SOL    HW224621   6.069   0.633   2.811
 7908SOL     OW24622   0.390   1.076   6.531
 7908SOL    HW124623   0.299   1.110   6.508
 7908SOL    HW224624   0.456   1.151   6.529
 7909SOL     OW24625   5.461   4.447   2.694
 7909SOL    HW124626   5.505   4.404   2.616
 7909SOL    HW224627   5.522   4.442   2.774
 7910SOL     OW24628   1.911   3.392   0.776
 7910SOL    HW124629   2.006   3.421   0.786
 7910SOL    HW224630   1.885   3.336   0.854
 7911SOL     OW24631   0.920   3.957   1.085
 7911SOL    HW124632   0.918   4.012   1.169
 7911SOL    HW224633   1.013   3.954   1.050
 7912SOL     OW24634   5.108   5.451   0.177
 7912SOL    HW124635   5.028   5.420   0.126
 7912SOL    HW224636   5.135   5.381   0.243
 7913SOL     OW24637   1.059   4.018   0.759
 7913SOL    HW124638   1.132   3.980   0.816
 7913SOL    HW224639   0.996   3.945   0.733
 7914SOL     OW24640   6.404   5.193   5.450
 7914SOL    HW124641   6.497   5.156   5.443
 7914SOL    HW224642   6.344   5.146   5.386
 7915SOL     OW24643   3.664   0.377   2.953
 7915SOL    HW124644   3.626   0.290   2.984
 7915SOL    HW224645   3.684   0.372   2.855
 7916SOL     OW24646   0.697   6.858   4.640
 7916SOL    HW124647   0.773   6.816   4.689
 7916SOL    HW224648   0.731   6.937   4.588
 7917SOL     OW24649   4.039   2.739   6.876
 7917SOL    HW124650   3.986   2.803   6.820
 7917SOL    HW224651   3.992   2.725   6.963
 7918SOL     OW24652   1.865   0.981   5.068
 7918SOL    HW124653   1.829   0.915   5.133
 7918SOL    HW224654   1.944   1.027   5.107
 7919SOL     OW24655   1.389   4.749   3.261
 7919SOL    HW124656   1.424   4.670   3.311
 7919SOL    HW224657   1.359   4.819   3.327
 7920SOL     OW24658   4.883   0.428   1.320
 7920SOL    HW124659   4.903   0.525   1.335
 7920SOL    HW224660   4.830   0.419   1.235
 7921SOL     OW24661   5.313   1.739   1.582
 7921SOL    HW124662   5.255   1.776   1.509
 7921SOL    HW224663   5.255   1.707   1.657
 7922SOL     OW24664   0.948   6.444   6.781
 7922SOL    HW124665   1.033   6.390   6.778
 7922SOL    HW224666   0.942   6.500   6.698
 7923SOL     OW24667   3.846   2.005   6.256
 7923SOL    HW124668   3.853   2.055   6.342
 7923SOL    HW224669   3.821   1.910   6.274
 7924SOL     OW24670   6.058   6.908   1.429
 7924SOL    HW124671   5.961   6.925   1.443
 7924SOL    HW224672   6.088   6.833   1.488
 7925SOL     OW24673   2.866   6.371   0.262
 7925SOL    HW124674   2.797   6.307   0.228
 7925SOL    HW224675   2.887   6.438   0.191
 7926SOL     OW24676   5.748   0.514   6.501
 7926SOL    HW124677   5.753   0.414   6.505
 7926SOL    HW224678   5.658   0.542   6.467
 7927SOL     OW24679   4.838   0.107   2.024
 7927SOL    HW124680   4.788   0.114   2.110
 7927SOL    HW224681   4.890   0.021   2.023
 7928SOL     OW24682   6.867   0.676   3.317
 7928SOL    HW124683   6.807   0.634   3.385
 7928SOL    HW224684   6.894   0.767   3.347
 7929SOL     OW24685   4.696   3.761   6.698
 7929SOL    HW124686   4.692   3.838   6.634
 7929SOL    HW224687   4.747   3.686   6.657
 7930SOL     OW24688   3.741   5.515   5.887
 7930SOL    HW124689   3.741   5.427   5.839
 7930SOL    HW224690   3.835   5.545   5.901
 7931SOL     OW24691   2.719   2.333   0.592
 7931SOL    HW124692   2.686   2.298   0.504
 7931SOL    HW224693   2.657   2.303   0.665
 7932SOL     OW24694   0.039   5.569   0.868
 7932SOL    HW124695   0.090   5.551   0.784
 7932SOL    HW224696   0.086   5.640   0.920
 7933SOL     OW24697   6.244   0.890   5.191
 7933SOL    HW124698   6.181   0.836   5.135
 7933SOL    HW224699   6.222   0.987   5.183
 7934SOL     OW24700   1.666   4.425   1.171
 7934SOL    HW124701   1.569   4.431   1.196
 7934SOL    HW224702   1.692   4.329   1.164
 7935SOL     OW24703   5.539   3.820   2.774
 7935SOL    HW124704   5.608   3.797   2.705
 7935SOL    HW224705   5.584   3.834   2.863
 7936SOL     OW24706   3.658   6.461   3.867
 7936SOL    HW124707   3.626   6.544   3.822
 7936SOL    HW224708   3.698   6.484   3.956
 7937SOL     OW24709   2.409   6.189   5.308
 7937SOL    HW124710   2.346   6.147   5.243
 7937SOL    HW224711   2.365   6.199   5.397
 7938SOL     OW24712   5.355   0.439   5.172
 7938SOL    HW124713   5.350   0.382   5.090
 7938SOL    HW224714   5.398   0.388   5.246
 7939SOL     OW24715   1.107   1.632   5.366
 7939SOL    HW124716   1.177   1.699   5.390
 7939SOL    HW224717   1.146   1.540   5.368
 7940SOL     OW24718   4.287   2.036   2.645
 7940SOL    HW124719   4.297   1.954   2.702
 7940SOL    HW224720   4.302   2.012   2.549
 7941SOL     OW24721   4.554   6.459   3.103
 7941SOL    HW124722   4.541   6.515   3.021
 7941SOL    HW224723   4.492   6.381   3.100
 7942SOL     OW24724   0.989   2.579   1.742
 7942SOL    HW124725   1.067   2.641   1.743
 7942SOL    HW224726   0.985   2.528   1.828
 7943SOL     OW24727   2.016   4.730   5.724
 7943SOL    HW124728   1.968   4.781   5.653
 7943SOL    HW224729   2.069   4.795   5.780
 7944SOL     OW24730   0.917   3.016   1.049
 7944SOL    HW124731   0.890   2.941   0.989
 7944SOL    HW224732   0.938   2.980   1.140
 7945SOL     OW24733   6.096   5.537   3.165
 7945SOL    HW124734   6.013   5.584   3.194
 7945SOL    HW224735   6.163   5.605   3.133
 7946SOL     OW24736   3.855   0.066   5.767
 7946SOL    HW124737   3.940   0.095   5.812
 7946SOL    HW224738   3.875   7.010   5.704
 7947SOL     OW24739   1.960   2.735   5.256
 7947SOL    HW124740   1.919   2.827   5.256
 7947SOL    HW224741   2.024   2.727   5.333
 7948SOL     OW24742   1.385   4.689   2.254
 7948SOL    HW124743   1.467   4.698   2.312
 7948SOL    HW224744   1.339   4.603   2.277
 7949SOL     OW24745   4.669   4.490   6.034
 7949SOL    HW124746   4.746   4.552   6.049
 7949SOL    HW224747   4.668   4.460   5.939
 7950SOL     OW24748   5.334   5.660   5.428
 7950SOL    HW124749   5.288   5.739   5.389
 7950SOL    HW224750   5.350   5.675   5.525
 7951SOL     OW24751   2.875   5.664   2.074
 7951SOL    HW124752   2.879   5.764   2.075
 7951SOL    HW224753   2.951   5.627   2.126
 7952SOL     OW24754   6.153   3.932   6.972
 7952SOL    HW124755   6.204   3.863   0.005
 7952SOL    HW224756   6.059   3.937   7.007
 7953SOL     OW24757   4.205   1.694   0.805
 7953SOL    HW124758   4.222   1.793   0.802
 7953SOL    HW224759   4.268   1.651   0.870
 7954SOL     OW24760   4.029   3.471   6.457
 7954SOL    HW124761   4.030   3.393   6.520
 7954SOL    HW224762   3.975   3.448   6.376
 7955SOL     OW24763   1.706   1.438   6.493
 7955SOL    HW124764   1.710   1.424   6.592
 7955SOL    HW224765   1.622   1.486   6.469
 7956SOL     OW24766   6.082   1.496   1.634
 7956SOL    HW124767   6.133   1.547   1.704
 7956SOL    HW224768   5.985   1.499   1.655
 7957SOL     OW24769   4.303   0.646   5.574
 7957SOL    HW124770   4.204   0.637   5.584
 7957SOL    HW224771   4.348   0.569   5.620
 7958SOL     OW24772   5.699   3.475   6.299
 7958SOL    HW124773   5.757   3.397   6.320
 7958SOL    HW224774   5.755   3.550   6.264
 7959SOL     OW24775   5.246   0.788   6.206
 7959SOL    HW124776   5.315   0.715   6.211
 7959SOL    HW224777   5.291   0.877   6.220
 7960SOL     OW24778   6.647   0.680   6.493
 7960SOL    HW124779   6.647   0.582   6.514
 7960SOL    HW224780   6.683   0.731   6.572
 7961SOL     OW24781   6.905   6.375   0.211
 7961SOL    HW124782   6.810   6.343   0.209
 7961SOL    HW224783   6.911   6.456   0.271
 7962SOL     OW24784   6.494   6.773   6.310
 7962SOL    HW124785   6.477   6.830   6.390
 7962SOL    HW224786   6.487   6.829   6.227
 7963SOL     OW24787   6.143   4.176   4.169
 7963SOL    HW124788   6.165   4.079   4.155
 7963SOL    HW224789   6.227   4.229   4.173
 7964SOL     OW24790   6.903   3.383   1.786
 7964SOL    HW124791   6.994   3.366   1.747
 7964SOL    HW224792   6.911   3.395   1.885
 7965SOL     OW24793   4.695   2.159   0.157
 7965SOL    HW124794   4.745   2.215   0.223
 7965SOL    HW224795   4.616   2.209   0.123
 7966SOL     OW24796   4.047   4.177   5.430
 7966SOL    HW124797   3.993   4.259   5.450
 7966SOL    HW224798   3.987   4.105   5.395
 7967SOL     OW24799   1.709   4.965   2.320
 7967SOL    HW124800   1.765   4.884   2.336
 7967SOL    HW224801   1.650   4.981   2.399
 7968SOL     OW24802   6.550   1.844   4.789
 7968SOL    HW124803   6.522   1.765   4.734
 7968SOL    HW224804   6.625   1.891   4.744
 7969SOL     OW24805   4.602   5.899   0.065
 7969SOL    HW124806   4.686   5.856   0.030
 7969SOL    HW224807   4.623   5.992   0.095
 7970SOL     OW24808   6.256   3.111   2.636
 7970SOL    HW124809   6.168   3.152   2.660
 7970SOL    HW224810   6.313   3.179   2.590
 7971SOL     OW24811   3.246   1.532   1.105
 7971SOL    HW124812   3.320   1.595   1.079
 7971SOL    HW224813   3.176   1.582   1.156
 7972SOL     OW24814   4.188   3.230   1.929
 7972SOL    HW124815   4.110   3.281   1.967
 7972SOL    HW224816   4.229   3.174   2.001
 7973SOL     OW24817   6.036   3.783   3.530
 7973SOL    HW124818   6.049   3.827   3.619
 7973SOL    HW224819   6.040   3.852   3.457
 7974SOL     OW24820   6.261   1.620   5.286
 7974SOL    HW124821   6.161   1.633   5.289
 7974SOL    HW224822   6.287   1.554   5.356
 7975SOL     OW24823   4.337   1.487   7.010
 7975SOL    HW124824   4.257   1.429   6.993
 7975SOL    HW224825   4.419   1.430   7.011
 7976SOL     OW24826   1.667   0.395   6.164
 7976SOL    HW124827   1.748   0.340   6.145
 7976SOL    HW224828   1.595   0.371   6.099
 7977SOL     OW24829   5.535   6.094   2.851
 7977SOL    HW124830   5.633   6.079   2.845
 7977SOL    HW224831   5.501   6.125   2.762
 7978SOL     OW24832   0.377   4.178   1.045
 7978SOL    HW124833   0.301   4.159   0.983
 7978SOL    HW224834   0.348   4.244   1.114
 7979SOL     OW24835   1.946   3.867   4.660
 7979SOL    HW124836   1.898   3.909   4.583
 7979SOL    HW224837   2.021   3.926   4.690
 7980SOL     OW24838   3.703   4.414   5.576
 7980SOL    HW124839   3.637   4.448   5.509
 7980SOL    HW224840   3.654   4.384   5.658
 7981SOL     OW24841   2.148   5.152   3.604
 7981SOL    HW124842   2.240   5.118   3.626
 7981SOL    HW224843   2.156   5.238   3.554
 7982SOL     OW24844   1.173   1.504   5.981
 7982SOL    HW124845   1.117   1.561   6.040
 7982SOL    HW224846   1.125   1.488   5.894
 7983SOL     OW24847   5.120   0.927   1.401
 7983SOL    HW124848   5.181   0.983   1.457
 7983SOL    HW224849   5.168   0.843   1.374
 7984SOL     OW24850   0.596   2.061   1.321
 7984SOL    HW124851   0.547   1.987   1.367
 7984SOL    HW224852   0.583   2.053   1.222
 7985SOL     OW24853   2.236   2.120   5.328
 7985SOL    HW124854   2.144   2.142   5.294
 7985SOL    HW224855   2.296   2.102   5.250
 7986SOL     OW24856   3.533   2.169   4.479
 7986SOL    HW124857   3.605   2.177   4.547
 7986SOL    HW224858   3.572   2.148   4.390
 7987SOL     OW24859   1.501   3.712   0.840
 7987SOL    HW124860   1.572   3.655   0.798
 7987SOL    HW224861   1.423   3.719   0.779
 7988SOL     OW24862   6.982   0.934   1.522
 7988SOL    HW124863   6.903   0.900   1.572
 7988SOL    HW224864   6.994   1.032   1.539
 7989SOL     OW24865   1.833   4.136   0.807
 7989SOL    HW124866   1.803   4.193   0.730
 7989SOL    HW224867   1.874   4.051   0.772
 7990SOL     OW24868   2.794   6.454   4.820
 7990SOL    HW124869   2.698   6.467   4.841
 7990SOL    HW224870   2.804   6.409   4.732
 7991SOL     OW24871   5.450   1.721   4.500
 7991SOL    HW124872   5.492   1.767   4.421
 7991SOL    HW224873   5.444   1.785   4.576
 7992SOL     OW24874   2.483   0.523   0.732
 7992SOL    HW124875   2.423   0.473   0.670
 7992SOL    HW224876   2.501   0.468   0.813
 7993SOL     OW24877   0.178   0.213   1.803
 7993SOL    HW124878   0.101   0.163   1.845
 7993SOL    HW224879   0.250   0.149   1.779
 7994SOL     OW24880   4.567   0.704   3.302
 7994SOL    HW124881   4.477   0.689   3.260
 7994SOL    HW224882   4.634   0.727   3.231
 7995SOL     OW24883   6.478   4.626   2.596
 7995SOL    HW124884   6.407   4.696   2.584
 7995SOL    HW224885   6.487   4.575   2.510
 7996SOL     OW24886   4.057   0.220   3.492
 7996SOL    HW124887   4.084   0.131   3.528
 7996SOL    HW224888   4.078   0.291   3.558
 7997SOL     OW24889   0.770   2.170   0.025
 7997SOL    HW124890   0.769   2.255   6.990
 7997SOL    HW224891   0.756   2.092   6.983
 7998SOL     OW24892   2.622   0.333   0.049
 7998SOL    HW124893   2.646   0.400   0.120
 7998SOL    HW224894   2.569   0.259   0.089
 7999SOL     OW24895   1.185   2.382   5.919
 7999SOL    HW124896   1.100   2.342   5.886
 7999SOL    HW224897   1.262   2.339   5.872
 8000SOL     OW24898   5.869   6.443   6.207
 8000SOL    HW124899   5.864   6.421   6.304
 8000SOL    HW224900   5.937   6.384   6.162
 8001SOL     OW24901   4.872   0.137   0.907
 8001SOL    HW124902   4.894   0.081   0.826
 8001SOL    HW224903   4.953   0.188   0.935
 8002SOL     OW24904   0.708   0.970   5.632
 8002SOL    HW124905   0.635   1.032   5.603
 8002SOL    HW224906   0.713   0.970   5.732
 8003SOL     OW24907   2.018   6.734   2.331
 8003SOL    HW124908   1.930   6.745   2.378
 8003SOL    HW224909   2.011   6.772   2.238
 8004SOL     OW24910   1.593   2.838   3.453
 8004SOL    HW124911   1.613   2.927   3.496
 8004SOL    HW224912   1.678   2.789   3.437
 8005SOL     OW24913   2.819   0.176   4.241
 8005SOL    HW124914   2.912   0.201   4.268
 8005SOL    HW224915   2.805   0.199   4.144
 8006SOL     OW24916   3.540   5.265   4.946
 8006SOL    HW124917   3.546   5.357   4.907
 8006SOL    HW224918   3.632   5.224   4.949
 8007SOL     OW24919   6.149   1.934   6.483
 8007SOL    HW124920   6.143   1.956   6.385
 8007SOL    HW224921   6.085   1.992   6.534
 8008SOL     OW24922   3.751   6.599   0.275
 8008SOL    HW124923   3.706   6.514   0.304
 8008SOL    HW224924   3.735   6.614   0.178
 8009SOL     OW24925   5.066   1.562   1.025
 8009SOL    HW124926   5.033   1.472   1.053
 8009SOL    HW224927   5.078   1.619   1.107
 8010SOL     OW24928   2.795   2.311   5.711
 8010SOL    HW124929   2.772   2.408   5.717
 8010SOL    HW224930   2.713   2.256   5.721
 8011SOL     OW24931   3.520   1.947   1.678
 8011SOL    HW124932   3.558   1.981   1.765
 8011SOL    HW224933   3.592   1.947   1.609
 8012SOL     OW24934   0.738   3.332   5.626
 8012SOL    HW124935   0.682   3.384   5.561
 8012SOL    HW224936   0.791   3.396   5.682
 8013SOL     OW24937   0.874   2.706   3.127
 8013SOL    HW124938   0.888   2.608   3.139
 8013SOL    HW224939   0.890   2.730   3.031
 8014SOL     OW24940   1.781   0.051   3.536
 8014SOL    HW124941   1.730   0.008   3.461
 8014SOL    HW224942   1.754   0.147   3.543
 8015SOL     OW24943   1.211   0.468   5.998
 8015SOL    HW124944   1.281   0.398   5.988
 8015SOL    HW224945   1.130   0.442   5.945
 8016SOL     OW24946   3.680   1.378   5.256
 8016SOL    HW124947   3.644   1.284   5.256
 8016SOL    HW224948   3.710   1.402   5.348
 8017SOL     OW24949   6.602   0.025   0.391
 8017SOL    HW124950   6.567   0.034   0.484
 8017SOL    HW224951   6.701   0.034   0.391
 8018SOL     OW24952   3.780   1.866   6.755
 8018SOL    HW124953   3.778   1.920   6.839
 8018SOL    HW224954   3.864   1.811   6.753
 8019SOL     OW24955   2.836   3.217   0.737
 8019SOL    HW124956   2.931   3.218   0.768
 8019SOL    HW224957   2.779   3.271   0.799
 8020SOL     OW24958   5.778   0.169   5.488
 8020SOL    HW124959   5.785   0.085   5.434
 8020SOL    HW224960   5.704   0.226   5.452
 8021SOL     OW24961   2.391   2.192   2.216
 8021SOL    HW124962   2.332   2.253   2.268
 8021SOL    HW224963   2.460   2.246   2.167
 8022SOL     OW24964   6.343   0.561   1.471
 8022SOL    HW124965   6.321   0.628   1.401
 8022SOL    HW224966   6.425   0.511   1.444
 8023SOL     OW24967   5.675   5.691   3.148
 8023SOL    HW124968   5.607   5.731   3.209
 8023SOL    HW224969   5.644   5.702   3.053
 8024SOL     OW24970   1.723   6.060   6.334
 8024SOL    HW124971   1.650   6.075   6.399
 8024SOL    HW224972   1.688   6.069   6.241
 8025SOL     OW24973   1.805   4.581   1.647
 8025SOL    HW124974   1.720   4.633   1.640
 8025SOL    HW224975   1.883   4.642   1.631
 8026SOL     OW24976   0.133   4.777   0.766
 8026SOL    HW124977   0.228   4.808   0.776
 8026SOL    HW224978   0.129   4.705   0.696
 8027SOL     OW24979   4.226   6.587   5.345
 8027SOL    HW124980   4.244   6.626   5.435
 8027SOL    HW224981   4.137   6.540   5.346
 8028SOL     OW24982   3.223   5.888   4.394
 8028SOL    HW124983   3.242   5.889   4.492
 8028SOL    HW224984   3.258   5.972   4.352
 8029SOL     OW24985   5.070   2.310   1.995
 8029SOL    HW124986   5.167   2.319   2.016
 8029SOL    HW224987   5.049   2.359   1.911
 8030SOL     OW24988   5.999   5.004   1.004
 8030SOL    HW124989   6.023   5.101   1.016
 8030SOL    HW224990   6.069   4.947   1.046
 8031SOL     OW24991   5.510   0.484   3.616
 8031SOL    HW124992   5.553   0.573   3.630
 8031SOL    HW224993   5.577   0.412   3.631
 8032SOL     OW24994   5.308   3.330   1.725
 8032SOL    HW124995   5.226   3.387   1.731
 8032SOL    HW224996   5.282   3.234   1.741
 8033SOL     OW24997   3.917   3.706   0.319
 8033SOL    HW124998   3.859   3.754   0.385
 8033SOL    HW224999   3.867   3.629   0.280
 8034SOL     OW25000   5.785   0.659   5.354
 8034SOL    HW125001   5.825   0.749   5.371
 8034SOL    HW225002   5.687   0.662   5.374
 8035SOL     OW25003   4.413   0.727   2.465
 8035SOL    HW125004   4.373   0.715   2.556
 8035SOL    HW225005   4.377   0.659   2.402
 8036SOL     OW25006   6.771   2.918   3.925
 8036SOL    HW125007   6.678   2.913   3.887
 8036SOL    HW225008   6.826   2.843   3.890
 8037SOL     OW25009   1.334   2.954   0.181
 8037SOL    HW125010   1.429   2.968   0.151
 8037SOL    HW225011   1.303   2.864   0.152
 8038SOL     OW25012   5.628   6.348   1.815
 8038SOL    HW125013   5.723   6.316   1.814
 8038SOL    HW225014   5.608   6.391   1.903
 8039SOL     OW25015   0.308   2.520   5.359
 8039SOL    HW125016   0.286   2.616   5.377
 8039SOL    HW225017   0.400   2.500   5.395
 8040SOL     OW25018   1.777   5.870   5.973
 8040SOL    HW125019   1.769   5.829   6.064
 8040SOL    HW225020   1.796   5.798   5.906
 8041SOL     OW25021   3.105   1.486   3.086
 8041SOL    HW125022   3.105   1.483   3.186
 8041SOL    HW225023   3.036   1.552   3.055
 8042SOL     OW25024   4.221   4.388   6.024
 8042SOL    HW125025   4.223   4.476   5.975
 8042SOL    HW225026   4.173   4.400   6.111
 8043SOL     OW25027   4.609   4.921   1.361
 8043SOL    HW125028   4.703   4.895   1.339
 8043SOL    HW225029   4.554   4.839   1.378
 8044SOL     OW25030   3.804   4.003   1.033
 8044SOL    HW125031   3.826   3.910   1.005
 8044SOL    HW225032   3.736   4.041   0.971
 8045SOL     OW25033   0.074   1.518   2.758
 8045SOL    HW125034   0.050   1.435   2.709
 8045SOL    HW225035   0.141   1.497   2.829
 8046SOL     OW25036   0.103   4.931   1.860
 8046SOL    HW125037   0.196   4.895   1.871
 8046SOL    HW225038   0.100   5.026   1.891
 8047SOL     OW25039   4.031   6.844   6.159
 8047SOL    HW125040   4.007   6.816   6.253
 8047SOL    HW225041   3.997   6.775   6.095
 8048SOL     OW25042   3.569   3.145   0.594
 8048SOL    HW125043   3.572   3.196   0.680
 8048SOL    HW225044   3.487   3.087   0.593
 8049SOL     OW25045   1.167   6.770   0.294
 8049SOL    HW125046   1.108   6.695   0.325
 8049SOL    HW225047   1.205   6.818   0.373
 8050SOL     OW25048   1.468   4.152   4.345
 8050SOL    HW125049   1.546   4.214   4.355
 8050SOL    HW225050   1.436   4.123   4.435
 8051SOL     OW25051   5.036   6.005   4.325
 8051SOL    HW125052   5.121   5.990   4.274
 8051SOL    HW225053   5.011   5.921   4.373
 8052SOL     OW25054   2.569   1.240   2.079
 8052SOL    HW125055   2.647   1.204   2.028
 8052SOL    HW225056   2.489   1.246   2.018
 8053SOL     OW25057   3.122   3.046   5.590
 8053SOL    HW125058   3.159   3.106   5.519
 8053SOL    HW225059   3.178   2.964   5.597
 8054SOL     OW25060   5.974   4.187   4.820
 8054SOL    HW125061   6.007   4.135   4.899
 8054SOL    HW225062   5.956   4.125   4.744
 8055SOL     OW25063   0.062   0.509   5.025
 8055SOL    HW125064   0.078   0.606   5.004
 8055SOL    HW225065   0.139   0.474   5.079
 8056SOL     OW25066   2.577   6.771   3.791
 8056SOL    HW125067   2.665   6.779   3.745
 8056SOL    HW225068   2.570   6.681   3.834
 8057SOL     OW25069   2.503   2.218   1.907
 8057SOL    HW125070   2.567   2.284   1.867
 8057SOL    HW225071   2.415   2.223   1.860
 8058SOL     OW25072   3.027   6.408   3.407
 8058SOL    HW125073   3.096   6.405   3.335
 8058SOL    HW225074   2.938   6.385   3.369
 8059SOL     OW25075   3.126   1.823   5.460
 8059SOL    HW125076   3.053   1.792   5.399
 8059SOL    HW225077   3.138   1.757   5.535
 8060SOL     OW25078   6.831   0.591   6.192
 8060SOL    HW125079   6.812   0.649   6.271
 8060SOL    HW225080   6.770   0.616   6.117
 8061SOL     OW25081   0.262   0.926   2.213
 8061SOL    HW125082   0.166   0.908   2.191
 8061SOL    HW225083   0.289   1.015   2.177
 8062SOL     OW25084   4.005   5.515   4.803
 8062SOL    HW125085   4.060   5.439   4.840
 8062SOL    HW225086   4.063   5.572   4.745
 8063SOL     OW25087   3.424   0.651   2.975
 8063SOL    HW125088   3.450   0.641   3.071
 8063SOL    HW225089   3.483   0.594   2.918
 8064SOL     OW25090   6.478   3.234   0.490
 8064SOL    HW125091   6.572   3.204   0.475
 8064SOL    HW225092   6.462   3.247   0.588
 8065SOL     OW25093   3.847   0.093   4.574
 8065SOL    HW125094   3.894   0.044   4.646
 8065SOL    HW225095   3.768   0.141   4.612
 8066SOL     OW25096   6.571   1.210   4.758
 8066SOL    HW125097   6.554   1.284   4.694
 8066SOL    HW225098   6.643   1.151   4.722
 8067SOL     OW25099   5.176   3.419   3.467
 8067SOL    HW125100   5.179   3.423   3.367
 8067SOL    HW225101   5.104   3.479   3.501
 8068SOL     OW25102   0.430   5.127   1.456
 8068SOL    HW125103   0.398   5.091   1.368
 8068SOL    HW225104   0.449   5.225   1.447
 8069SOL     OW25105   3.226   5.403   2.124
 8069SOL    HW125106   3.252   5.310   2.149
 8069SOL    HW225107   3.150   5.400   2.058
 8070SOL     OW25108   4.108   4.204   0.629
 8070SOL    HW125109   4.104   4.145   0.710
 8070SOL    HW225110   4.115   4.147   0.547
 8071SOL     OW25111   4.190   6.742   5.123
 8071SOL    HW125112   4.198   6.669   5.191
 8071SOL    HW225113   4.208   6.830   5.167
 8072SOL     OW25114   2.953   2.663   0.314
 8072SOL    HW125115   3.034   2.622   0.356
 8072SOL    HW225116   2.893   2.590   0.280
 8073SOL     OW25117   3.085   0.116   6.199
 8073SOL    HW125118   3.120   0.208   6.215
 8073SOL    HW225119   3.114   0.055   6.273
 8074SOL     OW25120   1.768   1.159   0.656
 8074SOL    HW125121   1.685   1.148   0.709
 8074SOL    HW225122   1.820   1.237   0.692
 8075SOL     OW25123   0.654   6.729   0.030
 8075SOL    HW125124   0.737   6.716   0.085
 8075SOL    HW225125   0.601   6.805   0.067
 8076SOL     OW25126   0.270   6.783   6.577
 8076SOL    HW125127   0.174   6.799   6.602
 8076SOL    HW225128   0.318   6.871   6.572
 8077SOL     OW25129   3.971   5.892   2.019
 8077SOL    HW125130   3.930   5.852   1.937
 8077SOL    HW225131   3.938   5.986   2.030
 8078SOL     OW25132   0.908   1.423   0.844
 8078SOL    HW125133   0.924   1.334   0.885
 8078SOL    HW225134   0.930   1.495   0.910
 8079SOL     OW25135   0.272   1.533   4.571
 8079SOL    HW125136   0.195   1.511   4.631
 8079SOL    HW225137   0.339   1.458   4.573
 8080SOL     OW25138   1.043   2.913   2.253
 8080SOL    HW125139   0.973   2.843   2.239
 8080SOL    HW225140   1.006   2.990   2.304
 8081SOL     OW25141   6.103   4.486   5.625
 8081SOL    HW125142   6.159   4.435   5.690
 8081SOL    HW225143   6.043   4.548   5.674
 8082SOL     OW25144   2.908   0.600   2.155
 8082SOL    HW125145   2.862   0.549   2.083
 8082SOL    HW225146   2.979   0.658   2.115
 8083SOL     OW25147   5.730   3.117   3.853
 8083SOL    HW125148   5.726   3.024   3.818
 8083SOL    HW225149   5.744   3.181   3.777
 8084SOL     OW25150   2.210   0.404   5.831
 8084SOL    HW125151   2.245   0.311   5.840
 8084SOL    HW225152   2.283   0.469   5.850
 8085SOL     OW25153   6.618   5.914   2.879
 8085SOL    HW125154   6.670   5.984   2.830
 8085SOL    HW225155   6.541   5.884   2.823
 8086SOL     OW25156   0.019   1.010   1.280
 8086SOL    HW125157   6.960   1.069   1.259
 8086SOL    HW225158   7.015   0.953   1.359
 8087SOL     OW25159   1.317   0.898   6.153
 8087SOL    HW125160   1.335   0.878   6.057
 8087SOL    HW225161   1.220   0.885   6.172
 8088SOL     OW25162   6.026   6.696   6.935
 8088SOL    HW125163   6.058   6.601   6.932
 8088SOL    HW225164   5.999   6.725   6.843
 8089SOL     OW25165   5.771   2.802   6.503
 8089SOL    HW125166   5.815   2.839   6.421
 8089SOL    HW225167   5.808   2.848   6.584
 8090SOL     OW25168   3.992   1.289   6.219
 8090SOL    HW125169   4.083   1.303   6.256
 8090SOL    HW225170   3.970   1.363   6.155
 8091SOL     OW25171   1.147   4.423   4.468
 8091SOL    HW125172   1.171   4.362   4.543
 8091SOL    HW225173   1.163   4.377   4.381
 8092SOL     OW25174   4.580   1.978   5.272
 8092SOL    HW125175   4.598   1.950   5.366
 8092SOL    HW225176   4.591   1.900   5.211
 8093SOL     OW25177   3.339   5.897   2.865
 8093SOL    HW125178   3.357   5.922   2.960
 8093SOL    HW225179   3.269   5.825   2.862
 8094SOL     OW25180   0.600   3.806   5.228
 8094SOL    HW125181   0.637   3.854   5.149
 8094SOL    HW225182   0.548   3.869   5.285
 8095SOL     OW25183   1.043   4.910   4.958
 8095SOL    HW125184   1.107   4.862   4.899
 8095SOL    HW225185   0.960   4.855   4.969
 8096SOL     OW25186   0.749   0.322   2.172
 8096SOL    HW125187   0.838   0.293   2.209
 8096SOL    HW225188   0.734   0.276   2.084
 8097SOL     OW25189   4.093   0.422   5.025
 8097SOL    HW125190   4.087   0.498   4.960
 8097SOL    HW225191   4.002   0.386   5.043
 8098SOL     OW25192   1.713   6.615   3.983
 8098SOL    HW125193   1.704   6.639   3.886
 8098SOL    HW225194   1.755   6.524   3.991
 8099SOL     OW25195   4.408   6.075   4.313
 8099SOL    HW125196   4.374   5.981   4.309
 8099SOL    HW225197   4.389   6.121   4.227
 8100SOL     OW25198   6.284   1.741   6.017
 8100SOL    HW125199   6.232   1.672   6.066
 8100SOL    HW225200   6.289   1.717   5.920
 8101SOL     OW25201   2.198   5.136   0.739
 8101SOL    HW125202   2.206   5.080   0.656
 8101SOL    HW225203   2.239   5.226   0.722
 8102SOL     OW25204   1.132   3.576   4.285
 8102SOL    HW125205   1.080   3.651   4.244
 8102SOL    HW225206   1.082   3.490   4.273
 8103SOL     OW25207   3.425   0.580   1.697
 8103SOL    HW125208   3.383   0.667   1.725
 8103SOL    HW225209   3.521   0.580   1.723
 8104SOL     OW25210   2.090   0.110   5.575
 8104SOL    HW125211   2.044   0.199   5.572
 8104SOL    HW225212   2.075   0.067   5.664
 8105SOL     OW25213   0.278   2.393   2.633
 8105SOL    HW125214   0.306   2.358   2.723
 8105SOL    HW225215   0.261   2.316   2.572
 8106SOL     OW25216   2.516   6.369   3.572
 8106SOL    HW125217   2.588   6.308   3.540
 8106SOL    HW225218   2.478   6.334   3.657
 8107SOL     OW25219   1.024   5.938   4.503
 8107SOL    HW125220   1.002   5.866   4.570
 8107SOL    HW225221   0.984   5.915   4.415
 8108SOL     OW25222   6.697   1.279   6.655
 8108SOL    HW125223   6.615   1.289   6.598
 8108SOL    HW225224   6.700   1.354   6.721
 8109SOL     OW25225   0.153   4.262   6.102
 8109SOL    HW125226   0.216   4.331   6.067
 8109SOL    HW225227   0.089   4.305   6.167
 8110SOL     OW25228   4.065   4.642   1.628
 8110SOL    HW125229   4.127   4.566   1.647
 8110SOL    HW225230   3.977   4.607   1.596
 8111SOL     OW25231   5.475   0.812   4.053
 8111SOL    HW125232   5.396   0.856   4.096
 8111SOL    HW225233   5.449   0.779   3.962
 8112SOL     OW25234   1.061   3.395   4.520
 8112SOL    HW125235   0.964   3.388   4.545
 8112SOL    HW225236   1.112   3.319   4.559
 8113SOL     OW25237   5.964   3.589   1.094
 8113SOL    HW125238   6.011   3.521   1.038
 8113SOL    HW225239   5.940   3.548   1.182
 8114SOL     OW25240   1.238   3.551   2.192
 8114SOL    HW125241   1.161   3.609   2.219
 8114SOL    HW225242   1.291   3.597   2.121
 8115SOL     OW25243   3.035   6.296   5.609
 8115SOL    HW125244   3.131   6.319   5.598
 8115SOL    HW225245   3.026   6.201   5.639
 8116SOL     OW25246   4.292   5.510   0.589
 8116SOL    HW125247   4.392   5.509   0.598
 8116SOL    HW225248   4.268   5.508   0.492
 8117SOL     OW25249   2.234   6.995   3.116
 8117SOL    HW125250   2.187   6.991   3.204
 8117SOL    HW225251   2.331   6.972   3.130
 8118SOL     OW25252   6.312   3.822   6.695
 8118SOL    HW125253   6.296   3.738   6.747
 8118SOL    HW225254   6.335   3.798   6.600
 8119SOL     OW25255   5.012   6.466   6.462
 8119SOL    HW125256   5.022   6.372   6.495
 8119SOL    HW225257   5.015   6.466   6.362
 8120SOL     OW25258   2.707   4.841   0.282
 8120SOL    HW125259   2.779   4.779   0.313
 8120SOL    HW225260   2.748   4.925   0.247
 8121SOL     OW25261   0.806   4.712   2.076
 8121SOL    HW125262   0.893   4.683   2.035
 8121SOL    HW225263   0.802   4.683   2.171
 8122SOL     OW25264   1.142   4.605   3.172
 8122SOL    HW125265   1.204   4.667   3.219
 8122SOL    HW225266   1.081   4.562   3.239
 8123SOL     OW25267   7.015   1.132   0.225
 8123SOL    HW125268   6.946   1.204   0.211
 8123SOL    HW225269   0.006   1.079   0.141
 8124SOL     OW25270   5.700   6.264   3.405
 8124SOL    HW125271   5.768   6.338   3.404
 8124SOL    HW225272   5.675   6.241   3.312
 8125SOL     OW25273   0.624   0.873   2.724
 8125SOL    HW125274   0.623   0.787   2.673
 8125SOL    HW225275   0.716   0.891   2.758
 8126SOL     OW25276   5.067   5.153   3.564
 8126SOL    HW125277   4.993   5.113   3.510
 8126SOL    HW225278   5.122   5.213   3.507
 8127SOL     OW25279   2.780   3.101   6.432
 8127SOL    HW125280   2.794   3.125   6.336
 8127SOL    HW225281   2.684   3.081   6.448
 8128SOL     OW25282   2.941   2.127   1.772
 8128SOL    HW125283   2.917   2.184   1.851
 8128SOL    HW225284   3.008   2.058   1.801
 8129SOL     OW25285   2.004   2.246   6.794
 8129SOL    HW125286   2.088   2.281   6.837
 8129SOL    HW225287   2.001   2.147   6.804
 8130SOL     OW25288   1.791   6.386   6.842
 8130SOL    HW125289   1.741   6.316   6.792
 8130SOL    HW225290   1.790   6.364   6.940
 8131SOL     OW25291   2.311   2.382   1.536
 8131SOL    HW125292   2.358   2.450   1.480
 8131SOL    HW225293   2.274   2.427   1.618
 8132SOL     OW25294   6.017   6.532   4.683
 8132SOL    HW125295   6.113   6.558   4.691
 8132SOL    HW225296   6.000   6.493   4.592
 8133SOL     OW25297   3.690   5.601   2.208
 8133SOL    HW125298   3.765   5.592   2.143
 8133SOL    HW225299   3.653   5.693   2.203
 8134SOL     OW25300   6.673   0.995   6.454
 8134SOL    HW125301   6.771   0.980   6.445
 8134SOL    HW225302   6.625   0.950   6.378
 8135SOL     OW25303   1.539   0.841   1.577
 8135SOL    HW125304   1.537   0.805   1.670
 8135SOL    HW225305   1.445   0.861   1.547
 8136SOL     OW25306   5.645   5.406   2.425
 8136SOL    HW125307   5.718   5.431   2.489
 8136SOL    HW225308   5.685   5.364   2.344
 8137SOL     OW25309   2.844   1.121   4.905
 8137SOL    HW125310   2.861   1.031   4.945
 8137SOL    HW225311   2.879   1.122   4.812
 8138SOL     OW25312   5.294   1.060   1.620
 8138SOL    HW125313   5.327   1.007   1.698
 8138SOL    HW225314   5.230   1.130   1.652
 8139SOL     OW25315   0.775   1.303   2.197
 8139SOL    HW125316   0.692   1.345   2.234
 8139SOL    HW225317   0.852   1.322   2.258
 8140SOL     OW25318   4.843   1.142   4.559
 8140SOL    HW125319   4.769   1.191   4.605
 8140SOL    HW225320   4.930   1.161   4.605
 8141SOL     OW25321   4.028   5.520   5.899
 8141SOL    HW125322   4.044   5.439   5.842
 8141SOL    HW225323   4.063   5.503   5.991
 8142SOL     OW25324   6.336   5.129   6.909
 8142SOL    HW125325   6.394   5.109   6.987
 8142SOL    HW225326   6.247   5.084   6.921
 8143SOL     OW25327   6.318   4.703   0.016
 8143SOL    HW125328   6.376   4.622   0.007
 8143SOL    HW225329   6.297   4.739   6.943
 8144SOL     OW25330   5.260   0.065   0.041
 8144SOL    HW125331   5.315   0.124   0.100
 8144SOL    HW225332   5.240   6.998   0.089
 8145SOL     OW25333   5.607   5.957   2.550
 8145SOL    HW125334   5.656   5.871   2.537
 8145SOL    HW225335   5.512   5.945   2.521
 8146SOL     OW25336   3.471   1.449   5.667
 8146SOL    HW125337   3.545   1.384   5.682
 8146SOL    HW225338   3.493   1.508   5.589
 8147SOL     OW25339   5.416   2.078   3.374
 8147SOL    HW125340   5.366   2.065   3.460
 8147SOL    HW225341   5.359   2.131   3.311
 8148SOL     OW25342   5.884   3.670   2.676
 8148SOL    HW125343   5.894   3.686   2.578
 8148SOL    HW225344   5.830   3.588   2.692
 8149SOL     OW25345   2.477   5.904   2.960
 8149SOL    HW125346   2.400   5.845   2.985
 8149SOL    HW225347   2.516   5.945   3.042
 8150SOL     OW25348   0.006   4.744   0.413
 8150SOL    HW125349   0.074   4.707   0.476
 8150SOL    HW225350   6.963   4.805   0.462
 8151SOL     OW25351   0.733   2.158   3.207
 8151SOL    HW125352   0.767   2.139   3.299
 8151SOL    HW225353   0.687   2.076   3.172
 8152SOL     OW25354   1.567   1.828   3.071
 8152SOL    HW125355   1.655   1.874   3.064
 8152SOL    HW225356   1.551   1.799   3.165
 8153SOL     OW25357   3.173   6.846   2.727
 8153SOL    HW125358   3.196   6.927   2.674
 8153SOL    HW225359   3.229   6.769   2.696
 8154SOL     OW25360   2.249   6.018   4.491
 8154SOL    HW125361   2.297   5.953   4.432
 8154SOL    HW225362   2.267   5.995   4.587
 8155SOL     OW25363   2.981   3.221   2.309
 8155SOL    HW125364   3.059   3.265   2.265
 8155SOL    HW225365   2.913   3.198   2.240
 8156SOL     OW25366   5.877   0.443   5.520
 8156SOL    HW125367   5.829   0.356   5.529
 8156SOL    HW225368   5.836   0.496   5.446
 8157SOL     OW25369   5.495   5.872   6.505
 8157SOL    HW125370   5.459   5.858   6.597
 8157SOL    HW225371   5.418   5.882   6.441
 8158SOL     OW25372   1.551   5.928   0.798
 8158SOL    HW125373   1.503   5.943   0.711
 8158SOL    HW225374   1.608   5.846   0.791
 8159SOL     OW25375   2.223   5.486   2.213
 8159SOL    HW125376   2.181   5.573   2.187
 8159SOL    HW225377   2.308   5.473   2.163
 8160SOL     OW25378   4.748   1.463   1.007
 8160SOL    HW125379   4.719   1.428   0.918
 8160SOL    HW225380   4.814   1.399   1.048
 8161SOL     OW25381   4.803   1.085   0.836
 8161SOL    HW125382   4.870   1.157   0.821
 8161SOL    HW225383   4.829   1.032   0.916
 8162SOL     OW25384   6.368   6.540   0.029
 8162SOL    HW125385   6.435   6.486   6.996
 8162SOL    HW225386   6.361   6.505   0.122
 8163SOL     OW25387   2.695   4.067   5.493
 8163SOL    HW125388   2.795   4.071   5.485
 8163SOL    HW225389   2.659   3.999   5.429
 8164SOL     OW25390   5.871   3.247   1.559
 8164SOL    HW125391   5.950   3.275   1.614
 8164SOL    HW225392   5.796   3.220   1.619
 8165SOL     OW25393   2.124   4.420   1.484
 8165SOL    HW125394   2.056   4.433   1.412
 8165SOL    HW225395   2.155   4.509   1.518
 8166SOL     OW25396   2.192   0.993   1.902
 8166SOL    HW125397   2.176   1.088   1.929
 8166SOL    HW225398   2.237   0.944   1.976
 8167SOL     OW25399   5.848   2.569   3.769
 8167SOL    HW125400   5.943   2.552   3.742
 8167SOL    HW225401   5.805   2.631   3.703
 8168SOL     OW25402   3.522   1.614   2.722
 8168SOL    HW125403   3.607   1.663   2.702
 8168SOL    HW225404   3.536   1.516   2.709
 8169SOL     OW25405   4.283   3.666   0.834
 8169SOL    HW125406   4.230   3.683   0.751
 8169SOL    HW225407   4.307   3.569   0.838
 8170SOL     OW25408   1.534   5.950   3.613
 8170SOL    HW125409   1.541   5.997   3.701
 8170SOL    HW225410   1.621   5.907   3.591
 8171SOL     OW25411   0.640   2.193   6.692
 8171SOL    HW125412   0.557   2.228   6.734
 8171SOL    HW225413   0.676   2.118   6.747
 8172SOL     OW25414   0.307   0.242   0.838
 8172SOL    HW125415   0.316   0.298   0.920
 8172SOL    HW225416   0.210   0.226   0.818
 8173SOL     OW25417   3.400   2.583   6.892
 8173SOL    HW125418   3.353   2.617   6.811
 8173SOL    HW225419   3.453   2.657   6.934
 8174SOL     OW25420   5.759   1.736   0.951
 8174SOL    HW125421   5.663   1.734   0.925
 8174SOL    HW225422   5.815   1.750   0.869
 8175SOL     OW25423   6.696   2.473   6.479
 8175SOL    HW125424   6.643   2.484   6.395
 8175SOL    HW225425   6.654   2.526   6.553
 8176SOL     OW25426   2.663   5.540   2.185
 8176SOL    HW125427   2.671   5.505   2.278
 8176SOL    HW225428   2.737   5.605   2.167
 8177SOL     OW25429   1.688   6.264   3.873
 8177SOL    HW125430   1.724   6.295   3.960
 8177SOL    HW225431   1.755   6.280   3.801
 8178SOL     OW25432   2.315   0.051   6.142
 8178SOL    HW125433   2.400   0.064   6.192
 8178SOL    HW225434   2.256   0.131   6.154
 8179SOL     OW25435   3.092   2.970   7.001
 8179SOL    HW125436   3.028   2.895   6.989
 8179SOL    HW225437   3.172   2.957   6.943
 8180SOL     OW25438   6.590   0.187   4.096
 8180SOL    HW125439   6.525   0.159   4.025
 8180SOL    HW225440   6.541   0.230   4.171
 8181SOL     OW25441   2.508   2.512   2.832
 8181SOL    HW125442   2.533   2.529   2.927
 8181SOL    HW225443   2.590   2.485   2.780
 8182SOL     OW25444   3.180   1.988   5.827
 8182SOL    HW125445   3.273   1.999   5.793
 8182SOL    HW225446   3.121   2.057   5.784
 8183SOL     OW25447   1.181   3.418   5.107
 8183SOL    HW125448   1.214   3.323   5.110
 8183SOL    HW225449   1.215   3.463   5.024
 8184SOL     OW25450   6.592   0.727   5.727
 8184SOL    HW125451   6.505   0.683   5.704
 8184SOL    HW225452   6.627   0.776   5.648
 8185SOL     OW25453   2.935   0.930   0.677
 8185SOL    HW125454   3.015   0.872   0.661
 8185SOL    HW225455   2.852   0.873   0.676
 8186SOL     OW25456   3.251   6.060   5.433
 8186SOL    HW125457   3.231   6.087   5.527
 8186SOL    HW225458   3.170   6.018   5.392
 8187SOL     OW25459   1.374   1.435   5.571
 8187SOL    HW125460   1.293   1.426   5.513
 8187SOL    HW225461   1.453   1.393   5.525
 8188SOL     OW25462   5.095   1.644   2.224
 8188SOL    HW125463   5.095   1.719   2.290
 8188SOL    HW225464   5.025   1.577   2.249
 8189SOL     OW25465   5.623   4.527   2.375
 8189SOL    HW125466   5.641   4.457   2.444
 8189SOL    HW225467   5.565   4.598   2.414
 8190SOL     OW25468   5.537   4.265   4.154
 8190SOL    HW125469   5.531   4.193   4.223
 8190SOL    HW225470   5.469   4.249   4.083
 8191SOL     OW25471   0.612   5.499   3.621
 8191SOL    HW125472   0.539   5.439   3.651
 8191SOL    HW225473   0.682   5.505   3.692
 8192SOL     OW25474   2.958   5.475   1.450
 8192SOL    HW125475   2.906   5.560   1.441
 8192SOL    HW225476   2.958   5.445   1.545
 8193SOL     OW25477   5.527   6.332   5.210
 8193SOL    HW125478   5.617   6.356   5.175
 8193SOL    HW225479   5.456   6.363   5.147
 8194SOL     OW25480   6.340   1.508   6.885
 8194SOL    HW125481   6.302   1.593   6.848
 8194SOL    HW225482   6.290   1.482   6.967
 8195SOL     OW25483   0.022   0.218   0.239
 8195SOL    HW125484   0.117   0.204   0.266
 8195SOL    HW225485   0.007   0.314   0.216
 8196SOL     OW25486   3.496   6.365   5.747
 8196SOL    HW125487   3.502   6.367   5.847
 8196SOL    HW225488   3.540   6.281   5.713
 8197SOL     OW25489   6.825   0.965   6.059
 8197SOL    HW125490   6.843   1.058   6.028
 8197SOL    HW225491   6.728   0.955   6.079
 8198SOL     OW25492   2.730   6.607   2.926
 8198SOL    HW125493   2.750   6.705   2.921
 8198SOL    HW225494   2.797   6.557   2.871
 8199SOL     OW25495   0.782   3.956   0.660
 8199SOL    HW125496   0.717   3.916   0.596
 8199SOL    HW225497   0.775   4.056   0.657
 8200SOL     OW25498   4.587   4.014   1.664
 8200SOL    HW125499   4.526   4.064   1.725
 8200SOL    HW225500   4.544   3.927   1.639
 8201SOL     OW25501   5.355   0.494   4.526
 8201SOL    HW125502   5.435   0.448   4.488
 8201SOL    HW225503   5.298   0.429   4.575
 8202SOL     OW25504   1.980   4.976   3.751
 8202SOL    HW125505   2.021   5.052   3.700
 8202SOL    HW225506   2.017   4.890   3.718
 8203SOL     OW25507   4.865   3.612   1.291
 8203SOL    HW125508   4.941   3.638   1.351
 8203SOL    HW225509   4.896   3.542   1.227
 8204SOL     OW25510   3.443   6.642   2.054
 8204SOL    HW125511   3.346   6.661   2.067
 8204SOL    HW225512   3.496   6.701   2.115
 8205SOL     OW25513   5.357   5.586   1.913
 8205SOL    HW125514   5.266   5.621   1.890
 8205SOL    HW225515   5.419   5.662   1.931
 8206SOL     OW25516   3.883   2.190   5.679
 8206SOL    HW125517   3.808   2.255   5.687
 8206SOL    HW225518   3.882   2.128   5.758
 8207SOL     OW25519   3.024   4.676   5.711
 8207SOL    HW125520   2.937   4.691   5.666
 8207SOL    HW225521   3.008   4.639   5.803
 8208SOL     OW25522   1.842   5.365   1.889
 8208SOL    HW125523   1.785   5.374   1.807
 8208SOL    HW225524   1.904   5.443   1.894
 8209SOL     OW25525   1.777   1.040   5.377
 8209SOL    HW125526   1.836   0.965   5.348
 8209SOL    HW225527   1.829   1.104   5.433
 8210SOL     OW25528   1.864   1.092   0.425
 8210SOL    HW125529   1.824   1.016   0.373
 8210SOL    HW225530   1.806   1.113   0.504
 8211SOL     OW25531   2.913   3.789   3.980
 8211SOL    HW125532   2.968   3.724   3.927
 8211SOL    HW225533   2.830   3.811   3.930
 8212SOL     OW25534   1.880   0.177   1.590
 8212SOL    HW125535   1.947   0.145   1.522
 8212SOL    HW225536   1.808   0.229   1.544
 8213SOL     OW25537   4.321   4.574   1.963
 8213SOL    HW125538   4.383   4.636   1.914
 8213SOL    HW225539   4.351   4.480   1.949
 8214SOL     OW25540   3.081   5.620   4.350
 8214SOL    HW125541   3.136   5.685   4.297
 8214SOL    HW225542   3.015   5.670   4.406
 8215SOL     OW25543   3.495   6.505   6.654
 8215SOL    HW125544   3.509   6.431   6.720
 8215SOL    HW225545   3.428   6.477   6.585
 8216SOL     OW25546   4.656   6.205   2.846
 8216SOL    HW125547   4.564   6.239   2.865
 8216SOL    HW225548   4.660   6.173   2.751
 8217SOL     OW25549   2.440   4.550   3.440
 8217SOL    HW125550   2.500   4.629   3.451
 8217SOL    HW225551   2.446   4.492   3.522
 8218SOL     OW25552   1.557   0.324   4.617
 8218SOL    HW125553   1.578   0.323   4.715
 8218SOL    HW225554   1.642   0.320   4.565
 8219SOL     OW25555   3.953   3.592   1.254
 8219SOL    HW125556   3.958   3.508   1.307
 8219SOL    HW225557   3.899   3.577   1.171
 8220SOL     OW25558   3.513   4.090   4.786
 8220SOL    HW125559   3.428   4.056   4.745
 8220SOL    HW225560   3.591   4.046   4.742
 8221SOL     OW25561   6.110   3.080   3.659
 8221SOL    HW125562   6.044   3.026   3.607
 8221SOL    HW225563   6.070   3.169   3.680
 8222SOL     OW25564   5.944   2.367   1.745
 8222SOL    HW125565   6.036   2.328   1.751
 8222SOL    HW225566   5.896   2.326   1.667
 8223SOL     OW25567   6.805   5.574   5.333
 8223SOL    HW125568   6.715   5.617   5.336
 8223SOL    HW225569   6.794   5.477   5.312
 8224SOL     OW25570   4.991   1.965   0.431
 8224SOL    HW125571   5.089   1.982   0.433
 8224SOL    HW225572   4.954   1.986   0.341
 8225SOL     OW25573   4.584   1.360   0.002
 8225SOL    HW125574   4.665   1.378   6.964
 8225SOL    HW225575   4.596   1.274   0.052
 8226SOL     OW25576   3.178   0.740   0.209
 8226SOL    HW125577   3.233   0.792   0.143
 8226SOL    HW225578   3.109   0.800   0.250
 8227SOL     OW25579   5.781   1.640   2.726
 8227SOL    HW125580   5.761   1.704   2.653
 8227SOL    HW225581   5.874   1.604   2.715
 8228SOL     OW25582   0.902   0.903   5.460
 8228SOL    HW125583   0.892   0.963   5.380
 8228SOL    HW225584   0.832   0.927   5.528
 8229SOL     OW25585   4.172   4.741   1.170
 8229SOL    HW125586   4.121   4.725   1.086
 8229SOL    HW225587   4.206   4.653   1.205
 8230SOL     OW25588   4.047   0.555   5.895
 8230SOL    HW125589   4.017   0.648   5.876
 8230SOL    HW225590   4.099   0.520   5.817
 8231SOL     OW25591   3.302   1.194   1.479
 8231SOL    HW125592   3.310   1.190   1.579
 8231SOL    HW225593   3.382   1.150   1.438
 8232SOL     OW25594   4.058   0.415   2.444
 8232SOL    HW125595   4.101   0.452   2.527
 8232SOL    HW225596   4.121   0.352   2.400
 8233SOL     OW25597   0.551   0.802   5.202
 8233SOL    HW125598   0.519   0.823   5.109
 8233SOL    HW225599   0.569   0.704   5.209
 8234SOL     OW25600   2.493   3.169   0.071
 8234SOL    HW125601   2.505   3.076   0.037
 8234SOL    HW225602   2.570   3.225   0.041
 8235SOL     OW25603   6.944   5.319   0.096
 8235SOL    HW125604   6.900   5.371   0.023
 8235SOL    HW225605   6.940   5.372   0.181
 8236SOL     OW25606   1.260   6.573   5.771
 8236SOL    HW125607   1.274   6.476   5.749
 8236SOL    HW225608   1.286   6.589   5.866
 8237SOL     OW25609   4.528   5.369   6.177
 8237SOL    HW125610   4.477   5.370   6.090
 8237SOL    HW225611   4.528   5.461   6.216
 8238SOL     OW25612   2.411   4.525   0.722
 8238SOL    HW125613   2.506   4.505   0.701
 8238SOL    HW225614   2.404   4.562   0.815
 8239SOL     OW25615   0.854   2.075   5.510
 8239SOL    HW125616   0.764   2.117   5.495
 8239SOL    HW225617   0.845   2.002   5.578
 8240SOL     OW25618   3.858   3.665   4.669
 8240SOL    HW125619   3.861   3.585   4.609
 8240SOL    HW225620   3.944   3.671   4.720
 8241SOL     OW25621   1.122   3.649   6.865
 8241SOL    HW125622   1.188   3.709   6.821
 8241SOL    HW225623   1.030   3.684   6.851
 8242SOL     OW25624   1.053   4.091   4.319
 8242SOL    HW125625   1.049   4.093   4.419
 8242SOL    HW225626   1.064   3.996   4.288
 8243SOL     OW25627   0.734   4.805   5.043
 8243SOL    HW125628   0.743   4.725   5.103
 8243SOL    HW225629   0.688   4.778   4.958
 8244SOL     OW25630   1.616   0.308   3.753
 8244SOL    HW125631   1.557   0.353   3.820
 8244SOL    HW225632   1.691   0.370   3.728
 8245SOL     OW25633   5.192   1.243   4.116
 8245SOL    HW125634   5.233   1.153   4.107
 8245SOL    HW225635   5.259   1.313   4.095
 8246SOL     OW25636   1.066   4.450   6.719
 8246SOL    HW125637   1.006   4.386   6.671
 8246SOL    HW225638   1.043   4.451   6.816
 8247SOL     OW25639   2.999   5.162   3.543
 8247SOL    HW125640   2.912   5.173   3.591
 8247SOL    HW225641   2.982   5.126   3.451
 8248SOL     OW25642   0.369   5.274   3.027
 8248SOL    HW125643   0.415   5.305   3.111
 8248SOL    HW225644   0.391   5.178   3.011
 8249SOL     OW25645   2.304   2.046   6.207
 8249SOL    HW125646   2.352   2.095   6.134
 8249SOL    HW225647   2.218   2.009   6.171
 8250SOL     OW25648   1.469   1.777   6.647
 8250SOL    HW125649   1.466   1.680   6.623
 8250SOL    HW225650   1.559   1.815   6.624
 8251SOL     OW25651   6.741   2.583   4.670
 8251SOL    HW125652   6.721   2.556   4.764
 8251SOL    HW225653   6.712   2.510   4.607
 8252SOL     OW25654   1.758   2.392   6.699
 8252SOL    HW125655   1.851   2.363   6.719
 8252SOL    HW225656   1.760   2.465   6.630
 8253SOL     OW25657   3.983   5.907   0.251
 8253SOL    HW125658   4.033   5.994   0.255
 8253SOL    HW225659   3.968   5.881   0.156
 8254SOL     OW25660   5.479   5.300   0.628
 8254SOL    HW125661   5.478   5.303   0.528
 8254SOL    HW225662   5.562   5.344   0.662
 8255SOL     OW25663   0.264   6.945   5.507
 8255SOL    HW125664   0.240   0.022   5.493
 8255SOL    HW225665   0.244   6.918   5.601
 8256SOL     OW25666   1.915   5.992   2.575
 8256SOL    HW125667   1.938   5.901   2.543
 8256SOL    HW225668   1.996   6.035   2.615
 8257SOL     OW25669   4.763   4.087   4.263
 8257SOL    HW125670   4.699   4.164   4.260
 8257SOL    HW225671   4.836   4.107   4.328
 8258SOL     OW25672   6.371   3.652   1.917
 8258SOL    HW125673   6.299   3.672   1.850
 8258SOL    HW225674   6.336   3.588   1.985
 8259SOL     OW25675   4.682   2.213   3.958
 8259SOL    HW125676   4.723   2.164   3.881
 8259SOL    HW225677   4.743   2.207   4.037
 8260SOL     OW25678   2.959   0.274   0.708
 8260SOL    HW125679   2.956   0.223   0.794
 8260SOL    HW225680   2.883   0.340   0.706
 8261SOL     OW25681   4.963   0.366   3.547
 8261SOL    HW125682   4.914   0.306   3.612
 8261SOL    HW225683   4.973   0.319   3.460
 8262SOL     OW25684   0.012   3.667   1.540
 8262SOL    HW125685   0.052   3.595   1.597
 8262SOL    HW225686   6.961   3.627   1.480
 8263SOL     OW25687   6.804   2.456   0.064
 8263SOL    HW125688   6.866   2.386   0.030
 8263SOL    HW225689   6.826   2.477   0.159
 8264SOL     OW25690   1.900   6.452   3.016
 8264SOL    HW125691   1.978   6.433   3.075
 8264SOL    HW225692   1.904   6.392   2.936
 8265SOL     OW25693   5.171   0.693   0.941
 8265SOL    HW125694   5.072   0.695   0.925
 8265SOL    HW225695   5.205   0.600   0.928
 8266SOL     OW25696   2.408   6.940   3.917
 8266SOL    HW125697   2.474   6.897   3.856
 8266SOL    HW225698   2.422   6.908   4.010
 8267SOL     OW25699   1.439   3.650   3.086
 8267SOL    HW125700   1.434   3.750   3.078
 8267SOL    HW225701   1.352   3.610   3.055
 8268SOL     OW25702   3.305   4.286   6.678
 8268SOL    HW125703   3.324   4.311   6.583
 8268SOL    HW225704   3.391   4.267   6.725
 8269SOL     OW25705   4.292   2.301   3.113
 8269SOL    HW125706   4.376   2.352   3.094
 8269SOL    HW225707   4.277   2.295   3.211
 8270SOL     OW25708   3.959   0.100   6.068
 8270SOL    HW125709   4.041   0.150   6.039
 8270SOL    HW225710   3.979   0.002   6.072
 8271SOL     OW25711   4.811   6.204   4.968
 8271SOL    HW125712   4.794   6.291   5.013
 8271SOL    HW225713   4.886   6.214   4.902
 8272SOL     OW25714   0.547   6.647   1.734
 8272SOL    HW125715   0.605   6.710   1.785
 8272SOL    HW225716   0.457   6.642   1.778
 8273SOL     OW25717   2.903   6.548   0.051
 8273SOL    HW125718   2.877   6.520   6.977
 8273SOL    HW225719   2.905   6.648   0.056
 8274SOL     OW25720   4.749   6.225   6.629
 8274SOL    HW125721   4.844   6.240   6.601
 8274SOL    HW225722   4.692   6.301   6.598
 8275SOL     OW25723   6.191   0.817   4.494
 8275SOL    HW125724   6.261   0.884   4.519
 8275SOL    HW225725   6.222   0.725   4.518
 8276SOL     OW25726   6.505   3.306   6.701
 8276SOL    HW125727   6.523   3.211   6.725
 8276SOL    HW225728   6.582   3.363   6.730
 8277SOL     OW25729   0.881   5.299   5.772
 8277SOL    HW125730   0.837   5.222   5.726
 8277SOL    HW225731   0.879   5.379   5.712
 8278SOL     OW25732   3.637   1.431   0.016
 8278SOL    HW125733   3.730   1.456   0.044
 8278SOL    HW225734   3.640   1.347   6.981
 8279SOL     OW25735   4.414   6.131   6.257
 8279SOL    HW125736   4.466   6.207   6.220
 8279SOL    HW225737   4.332   6.166   6.303
 8280SOL     OW25738   5.050   2.632   0.643
 8280SOL    HW125739   5.052   2.555   0.707
 8280SOL    HW225740   4.956   2.649   0.615
 8281SOL     OW25741   1.957   4.686   0.150
 8281SOL    HW125742   2.000   4.706   0.238
 8281SOL    HW225743   1.911   4.597   0.155
 8282SOL     OW25744   3.128   2.962   1.197
 8282SOL    HW125745   3.071   3.043   1.187
 8282SOL    HW225746   3.074   2.880   1.179
 8283SOL     OW25747   0.260   4.822   3.286
 8283SOL    HW125748   0.337   4.885   3.285
 8283SOL    HW225749   0.269   4.758   3.209
 8284SOL     OW25750   2.005   1.959   1.639
 8284SOL    HW125751   1.968   1.893   1.704
 8284SOL    HW225752   2.022   2.046   1.686
 8285SOL     OW25753   3.245   4.205   5.652
 8285SOL    HW125754   3.158   4.240   5.617
 8285SOL    HW225755   3.234   4.111   5.682
 8286SOL     OW25756   5.662   1.103   4.455
 8286SOL    HW125757   5.685   1.010   4.483
 8286SOL    HW225758   5.595   1.141   4.518
 8287SOL     OW25759   1.415   0.614   3.422
 8287SOL    HW125760   1.319   0.610   3.450
 8287SOL    HW225761   1.473   0.617   3.502
 8288SOL     OW25762   1.449   1.518   2.437
 8288SOL    HW125763   1.362   1.567   2.450
 8288SOL    HW225764   1.477   1.476   2.523
 8289SOL     OW25765   6.421   1.768   5.580
 8289SOL    HW125766   6.348   1.834   5.594
 8289SOL    HW225767   6.489   1.777   5.653
 8290SOL     OW25768   3.598   2.637   1.772
 8290SOL    HW125769   3.528   2.659   1.840
 8290SOL    HW225770   3.640   2.549   1.793
 8291SOL     OW25771   5.757   6.425   5.951
 8291SOL    HW125772   5.717   6.335   5.934
 8291SOL    HW225773   5.779   6.434   6.048
 8292SOL     OW25774   1.441   3.773   4.612
 8292SOL    HW125775   1.359   3.722   4.589
 8292SOL    HW225776   1.491   3.727   4.685
 8293SOL     OW25777   2.687   5.275   2.877
 8293SOL    HW125778   2.617   5.345   2.867
 8293SOL    HW225779   2.744   5.297   2.956
 8294SOL     OW25780   6.655   3.694   6.221
 8294SOL    HW125781   6.719   3.699   6.298
 8294SOL    HW225782   6.586   3.623   6.240
 8295SOL     OW25783   4.710   4.217   2.377
 8295SOL    HW125784   4.798   4.209   2.423
 8295SOL    HW225785   4.723   4.211   2.278
 8296SOL     OW25786   3.563   6.565   1.139
 8296SOL    HW125787   3.524   6.642   1.088
 8296SOL    HW225788   3.616   6.508   1.076
 8297SOL     OW25789   6.649   4.576   3.013
 8297SOL    HW125790   6.684   4.594   2.921
 8297SOL    HW225791   6.550   4.593   3.014
 8298SOL     OW25792   6.817   0.066   6.785
 8298SOL    HW125793   6.899   0.120   6.809
 8298SOL    HW225794   6.768   0.112   6.712
 8299SOL     OW25795   0.736   3.815   1.427
 8299SOL    HW125796   0.833   3.831   1.441
 8299SOL    HW225797   0.684   3.859   1.500
 8300SOL     OW25798   6.006   5.068   3.211
 8300SOL    HW125799   6.003   5.150   3.155
 8300SOL    HW225800   6.086   5.013   3.186
 8301SOL     OW25801   4.368   6.357   0.824
 8301SOL    HW125802   4.309   6.425   0.780
 8301SOL    HW225803   4.461   6.391   0.829
 8302SOL     OW25804   3.640   6.658   4.637
 8302SOL    HW125805   3.632   6.748   4.593
 8302SOL    HW225806   3.660   6.589   4.568
 8303SOL     OW25807   6.731   6.905   2.751
 8303SOL    HW125808   6.819   6.857   2.761
 8303SOL    HW225809   6.681   6.900   2.837
 8304SOL     OW25810   6.289   4.025   3.848
 8304SOL    HW125811   6.196   3.999   3.821
 8304SOL    HW225812   6.302   4.122   3.830
 8305SOL     OW25813   5.046   5.753   4.530
 8305SOL    HW125814   4.947   5.761   4.519
 8305SOL    HW225815   5.084   5.703   4.452
 8306SOL     OW25816   6.086   1.032   2.495
 8306SOL    HW125817   6.057   0.946   2.536
 8306SOL    HW225818   6.050   1.040   2.403
 8307SOL     OW25819   1.965   4.744   2.291
 8307SOL    HW125820   2.039   4.744   2.224
 8307SOL    HW225821   1.979   4.670   2.357
 8308SOL     OW25822   1.267   4.973   0.086
 8308SOL    HW125823   1.321   5.054   0.064
 8308SOL    HW225824   1.232   4.932   0.002
 8309SOL     OW25825   6.580   4.217   3.971
 8309SOL    HW125826   6.624   4.241   4.058
 8309SOL    HW225827   6.482   4.206   3.986
 8310SOL     OW25828   1.021   6.534   0.371
 8310SOL    HW125829   0.924   6.519   0.389
 8310SOL    HW225830   1.039   6.518   0.274
 8311SOL     OW25831   5.385   7.000   4.323
 8311SOL    HW125832   5.312   0.049   4.338
 8311SOL    HW225833   5.423   7.012   4.231
 8312SOL     OW25834   5.286   0.866   7.016
 8312SOL    HW125835   5.319   0.959   0.018
 8312SOL    HW225836   5.357   0.800   0.020
 8313SOL     OW25837   4.797   1.509   4.504
 8313SOL    HW125838   4.767   1.599   4.536
 8313SOL    HW225839   4.896   1.500   4.518
 8314SOL     OW25840   4.812   6.551   5.823
 8314SOL    HW125841   4.763   6.631   5.789
 8314SOL    HW225842   4.907   6.555   5.794
 8315SOL     OW25843   3.804   2.996   4.418
 8315SOL    HW125844   3.834   3.061   4.349
 8315SOL    HW225845   3.856   3.011   4.503
 8316SOL     OW25846   1.239   2.687   0.124
 8316SOL    HW125847   1.139   2.678   0.128
 8316SOL    HW225848   1.281   2.598   0.142
 8317SOL     OW25849   1.531   1.742   3.930
 8317SOL    HW125850   1.462   1.670   3.931
 8317SOL    HW225851   1.616   1.706   3.891
 8318SOL     OW25852   3.895   6.841   6.583
 8318SOL    HW125853   3.813   6.857   6.528
 8318SOL    HW225854   3.957   6.780   6.534
 8319SOL     OW25855   2.235   0.310   6.137
 8319SOL    HW125856   2.225   0.402   6.177
 8319SOL    HW225857   2.303   0.312   6.064
 8320SOL     OW25858   3.202   3.527   4.639
 8320SOL    HW125859   3.129   3.586   4.673
 8320SOL    HW225860   3.289   3.576   4.643
 8321SOL     OW25861   6.657   6.635   0.212
 8321SOL    HW125862   6.589   6.709   0.218
 8321SOL    HW225863   6.692   6.629   0.119
 8322SOL     OW25864   6.992   0.942   0.026
 8322SOL    HW125865   6.917   0.908   6.989
 8322SOL    HW225866   0.060   0.904   7.011
 8323SOL     OW25867   4.633   4.494   1.072
 8323SOL    HW125868   4.668   4.415   1.122
 8323SOL    HW225869   4.594   4.464   0.984
 8324SOL     OW25870   5.813   6.388   6.469
 8324SOL    HW125871   5.722   6.392   6.510
 8324SOL    HW225872   5.875   6.341   6.530
 8325SOL     OW25873   1.345   5.257   5.536
 8325SOL    HW125874   1.282   5.304   5.597
 8325SOL    HW225875   1.298   5.231   5.453
 8326SOL     OW25876   1.654   3.347   1.668
 8326SOL    HW125877   1.682   3.442   1.678
 8326SOL    HW225878   1.706   3.290   1.733
 8327SOL     OW25879   1.013   0.060   4.727
 8327SOL    HW125880   1.072   0.120   4.673
 8327SOL    HW225881   0.920   0.063   4.692
 8328SOL     OW25882   1.453   0.299   6.014
 8328SOL    HW125883   1.426   0.216   6.064
 8328SOL    HW225884   1.489   0.273   5.925
 8329SOL     OW25885   1.155   2.669   5.518
 8329SOL    HW125886   1.253   2.653   5.534
 8329SOL    HW225887   1.144   2.724   5.435
 8330SOL     OW25888   3.400   0.493   6.444
 8330SOL    HW125889   3.400   0.551   6.526
 8330SOL    HW225890   3.484   0.509   6.392
 8331SOL     OW25891   1.843   2.017   0.054
 8331SOL    HW125892   1.752   2.059   0.047
 8331SOL    HW225893   1.869   1.980   6.983
 8332SOL     OW25894   5.869   4.674   2.295
 8332SOL    HW125895   5.909   4.591   2.256
 8332SOL    HW225896   5.780   4.652   2.335
 8333SOL     OW25897   3.088   4.740   1.326
 8333SOL    HW125898   3.006   4.683   1.316
 8333SOL    HW225899   3.085   4.788   1.413
 8334SOL     OW25900   3.336   2.164   6.374
 8334SOL    HW125901   3.395   2.132   6.300
 8334SOL    HW225902   3.349   2.106   6.454
 8335SOL     OW25903   5.132   3.245   6.007
 8335SOL    HW125904   5.163   3.337   6.033
 8335SOL    HW225905   5.129   3.238   5.907
 8336SOL     OW25906   1.019   3.549   3.133
 8336SOL    HW125907   0.940   3.527   3.077
 8336SOL    HW225908   1.001   3.633   3.185
 8337SOL     OW25909   0.415   0.800   4.392
 8337SOL    HW125910   0.500   0.847   4.413
 8337SOL    HW225911   0.339   0.847   4.437
 8338SOL     OW25912   3.836   5.131   2.694
 8338SOL    HW125913   3.890   5.138   2.778
 8338SOL    HW225914   3.809   5.222   2.664
 8339SOL     OW25915   6.443   0.448   0.523
 8339SOL    HW125916   6.380   0.376   0.551
 8339SOL    HW225917   6.426   0.473   0.428
 8340SOL     OW25918   5.596   2.420   0.455
 8340SOL    HW125919   5.649   2.338   0.435
 8340SOL    HW225920   5.639   2.471   0.529
 8341SOL     OW25921   3.395   0.606   6.715
 8341SOL    HW125922   3.469   0.659   6.758
 8341SOL    HW225923   3.323   0.589   6.783
 8342SOL     OW25924   4.736   0.019   0.110
 8342SOL    HW125925   4.804   6.965   0.118
 8342SOL    HW225926   4.747   0.084   0.186
 8343SOL     OW25927   6.765   3.715   3.770
 8343SOL    HW125928   6.844   3.775   3.774
 8343SOL    HW225929   6.787   3.628   3.814
 8344SOL     OW25930   1.063   5.535   5.126
 8344SOL    HW125931   1.151   5.495   5.152
 8344SOL    HW225932   1.078   5.628   5.090
 8345SOL     OW25933   4.549   0.851   2.112
 8345SOL    HW125934   4.509   0.789   2.179
 8345SOL    HW225935   4.489   0.930   2.099
 8346SOL     OW25936   4.693   2.945   5.506
 8346SOL    HW125937   4.618   2.957   5.440
 8346SOL    HW225938   4.656   2.907   5.591
 8347SOL     OW25939   2.471   0.365   5.972
 8347SOL    HW125940   2.446   0.309   5.894
 8347SOL    HW225941   2.561   0.405   5.957
 8348SOL     OW25942   3.791   6.428   2.019
 8348SOL    HW125943   3.878   6.427   1.969
 8348SOL    HW225944   3.739   6.509   1.994
 8349SOL     OW25945   1.272   6.532   2.140
 8349SOL    HW125946   1.257   6.513   2.043
 8349SOL    HW225947   1.306   6.449   2.185
 8350SOL     OW25948   2.452   0.049   6.420
 8350SOL    HW125949   2.380   0.106   6.459
 8350SOL    HW225950   2.505   0.101   6.353
 8351SOL     OW25951   0.329   4.348   3.816
 8351SOL    HW125952   0.290   4.440   3.815
 8351SOL    HW225953   0.416   4.349   3.867
 8352SOL     OW25954   2.724   5.225   1.604
 8352SOL    HW125955   2.810   5.274   1.622
 8352SOL    HW225956   2.745   5.134   1.568
 8353SOL     OW25957   1.512   3.998   2.468
 8353SOL    HW125958   1.498   3.922   2.404
 8353SOL    HW225959   1.543   3.962   2.556
 8354SOL     OW25960   3.272   0.049   3.715
 8354SOL    HW125961   3.362   0.013   3.742
 8354SOL    HW225962   3.285   0.125   3.651
 8355SOL     OW25963   2.088   6.257   5.756
 8355SOL    HW125964   2.051   6.184   5.813
 8355SOL    HW225965   2.022   6.332   5.751
 8356SOL     OW25966   1.468   5.533   1.373
 8356SOL    HW125967   1.545   5.564   1.429
 8356SOL    HW225968   1.445   5.439   1.397
 8357SOL     OW25969   4.024   5.805   5.821
 8357SOL    HW125970   4.010   5.707   5.832
 8357SOL    HW225971   4.082   5.822   5.741
 8358SOL     OW25972   1.191   2.599   4.990
 8358SOL    HW125973   1.221   2.533   5.058
 8358SOL    HW225974   1.226   2.574   4.900
 8359SOL     OW25975   3.313   1.794   5.100
 8359SOL    HW125976   3.308   1.887   5.063
 8359SOL    HW225977   3.391   1.787   5.163
 8360SOL     OW25978   5.306   6.660   0.449
 8360SOL    HW125979   5.381   6.714   0.411
 8360SOL    HW225980   5.285   6.584   0.388
 8361SOL     OW25981   3.314   0.068   0.473
 8361SOL    HW125982   3.223   0.061   0.434
 8361SOL    HW225983   3.380   0.023   0.413
 8362SOL     OW25984   6.382   3.579   1.003
 8362SOL    HW125985   6.447   3.528   1.059
 8362SOL    HW225986   6.392   3.677   1.022
 8363SOL     OW25987   3.209   2.197   6.955
 8363SOL    HW125988   3.182   2.129   0.004
 8363SOL    HW225989   3.168   2.175   6.866
 8364SOL     OW25990   0.481   2.586   4.044
 8364SOL    HW125991   0.464   2.520   4.117
 8364SOL    HW225992   0.540   2.545   3.975
 8365SOL     OW25993   2.134   2.462   2.849
 8365SOL    HW125994   2.170   2.408   2.925
 8365SOL    HW225995   2.168   2.426   2.763
 8366SOL     OW25996   4.881   5.757   0.648
 8366SOL    HW125997   4.808   5.806   0.695
 8366SOL    HW225998   4.969   5.797   0.673
 8367SOL     OW25999   4.605   5.138   4.834
 8367SOL    HW126000   4.682   5.192   4.867
 8367SOL    HW226001   4.594   5.154   4.736
 8368SOL     OW26002   1.104   6.173   0.135
 8368SOL    HW126003   1.090   6.113   0.213
 8368SOL    HW226004   1.017   6.217   0.111
 8369SOL     OW26005   1.282   1.411   0.165
 8369SOL    HW126006   1.219   1.448   0.232
 8369SOL    HW226007   1.232   1.356   0.098
 8370SOL     OW26008   2.960   2.125   0.266
 8370SOL    HW126009   2.893   2.148   0.196
 8370SOL    HW226010   2.961   2.196   0.336
 8371SOL     OW26011   1.812   4.388   5.853
 8371SOL    HW126012   1.830   4.479   5.891
 8371SOL    HW226013   1.733   4.393   5.792
 8372SOL     OW26014   1.657   6.122   2.283
 8372SOL    HW126015   1.698   6.180   2.354
 8372SOL    HW226016   1.717   6.045   2.264
 8373SOL     OW26017   0.094   0.844   4.388
 8373SOL    HW126018   0.076   0.785   4.467
 8373SOL    HW226019   0.021   0.913   4.381
 8374SOL     OW26020   1.799   0.542   4.786
 8374SOL    HW126021   1.772   0.616   4.724
 8374SOL    HW226022   1.779   0.569   4.881
 8375SOL     OW26023   4.366   1.423   5.094
 8375SOL    HW126024   4.293   1.355   5.091
 8375SOL    HW226025   4.448   1.382   5.134
 8376SOL     OW26026   1.991   0.932   3.346
 8376SOL    HW126027   2.074   0.897   3.303
 8376SOL    HW226028   1.944   0.858   3.394
 8377SOL     OW26029   5.272   5.543   6.838
 8377SOL    HW126030   5.254   5.528   6.741
 8377SOL    HW226031   5.358   5.499   6.864
 8378SOL     OW26032   6.341   5.748   3.656
 8378SOL    HW126033   6.271   5.803   3.701
 8378SOL    HW226034   6.326   5.651   3.677
 8379SOL     OW26035   5.702   1.301   2.244
 8379SOL    HW126036   5.620   1.347   2.279
 8379SOL    HW226037   5.676   1.233   2.176
 8380SOL     OW26038   6.577   5.397   0.325
 8380SOL    HW126039   6.645   5.356   0.265
 8380SOL    HW226040   6.594   5.496   0.332
 8381SOL     OW26041   0.220   1.905   2.777
 8381SOL    HW126042   0.251   1.949   2.861
 8381SOL    HW226043   0.276   1.936   2.700
 8382SOL     OW26044   2.844   0.161   0.340
 8382SOL    HW126045   2.785   0.138   0.418
 8382SOL    HW226046   2.797   0.139   0.255
 8383SOL     OW26047   3.294   6.748   4.649
 8383SOL    HW126048   3.285   6.652   4.675
 8383SOL    HW226049   3.217   6.800   4.687
 8384SOL     OW26050   0.133   2.746   0.789
 8384SOL    HW126051   0.060   2.680   0.769
 8384SOL    HW226052   0.134   2.816   0.717
 8385SOL     OW26053   4.444   3.417   0.781
 8385SOL    HW126054   4.461   3.319   0.767
 8385SOL    HW226055   4.496   3.448   0.860
 8386SOL     OW26056   1.780   5.729   1.819
 8386SOL    HW126057   1.867   5.682   1.830
 8386SOL    HW226058   1.784   5.789   1.739
 8387SOL     OW26059   2.140   1.572   1.683
 8387SOL    HW126060   2.234   1.607   1.683
 8387SOL    HW226061   2.094   1.602   1.599
 8388SOL     OW26062   3.270   6.355   0.368
 8388SOL    HW126063   3.234   6.393   0.453
 8388SOL    HW226064   3.226   6.267   0.349
 8389SOL     OW26065   1.025   2.649   4.602
 8389SOL    HW126066   1.044   2.744   4.628
 8389SOL    HW226067   1.051   2.635   4.507
 8390SOL     OW26068   2.111   0.716   5.926
 8390SOL    HW126069   2.121   0.813   5.948
 8390SOL    HW226070   2.093   0.706   5.829
 8391SOL     OW26071   5.105   5.693   1.898
 8391SOL    HW126072   5.036   5.647   1.953
 8391SOL    HW226073   5.094   5.792   1.906
 8392SOL     OW26074   5.648   5.993   5.224
 8392SOL    HW126075   5.662   6.071   5.285
 8392SOL    HW226076   5.696   6.009   5.138
 8393SOL     OW26077   6.880   6.299   3.013
 8393SOL    HW126078   6.907   6.203   3.011
 8393SOL    HW226079   6.902   6.338   3.103
 8394SOL     OW26080   0.571   1.831   2.998
 8394SOL    HW126081   0.654   1.782   3.026
 8394SOL    HW226082   0.569   1.838   2.898
 8395SOL     OW26083   0.240   6.463   4.510
 8395SOL    HW126084   0.158   6.445   4.455
 8395SOL    HW226085   0.319   6.421   4.467
 8396SOL     OW26086   4.645   4.287   2.754
 8396SOL    HW126087   4.586   4.315   2.678
 8396SOL    HW226088   4.733   4.257   2.719
 8397SOL     OW26089   2.165   6.360   2.600
 8397SOL    HW126090   2.130   6.290   2.663
 8397SOL    HW226091   2.253   6.394   2.633
 8398SOL     OW26092   4.258   1.741   6.922
 8398SOL    HW126093   4.289   1.651   6.954
 8398SOL    HW226094   4.262   1.806   6.998
 8399SOL     OW26095   5.928   5.974   0.062
 8399SOL    HW126096   5.946   5.877   0.080
 8399SOL    HW226097   5.857   6.006   0.124
 8400SOL     OW26098   0.183   0.371   3.159
 8400SOL    HW126099   0.253   0.299   3.167
 8400SOL    HW226100   0.195   0.437   3.234
 8401SOL     OW26101   3.576   3.869   6.338
 8401SOL    HW126102   3.624   3.848   6.252
 8401SOL    HW226103   3.634   3.927   6.395
 8402SOL     OW26104   3.646   1.629   6.582
 8402SOL    HW126105   3.746   1.624   6.585
 8402SOL    HW226106   3.612   1.684   6.658
 8403SOL     OW26107   1.507   1.422   4.316
 8403SOL    HW126108   1.436   1.452   4.380
 8403SOL    HW226109   1.569   1.499   4.297
 8404SOL     OW26110   4.839   6.458   5.545
 8404SOL    HW126111   4.872   6.500   5.630
 8404SOL    HW226112   4.902   6.482   5.470
 8405SOL     OW26113   0.530   2.549   6.743
 8405SOL    HW126114   0.499   2.618   6.678
 8405SOL    HW226115   0.605   2.496   6.703
 8406SOL     OW26116   4.722   1.674   1.180
 8406SOL    HW126117   4.749   1.597   1.122
 8406SOL    HW226118   4.641   1.717   1.140
 8407SOL     OW26119   5.952   4.765   3.793
 8407SOL    HW126120   5.990   4.680   3.756
 8407SOL    HW226121   5.859   4.779   3.759
 8408SOL     OW26122   4.943   0.774   3.929
 8408SOL    HW126123   5.033   0.733   3.945
 8408SOL    HW226124   4.943   0.868   3.965
 8409SOL     OW26125   1.159   1.771   3.995
 8409SOL    HW126126   1.064   1.740   3.993
 8409SOL    HW226127   1.167   1.848   4.058
 8410SOL     OW26128   5.087   6.733   1.489
 8410SOL    HW126129   5.099   6.772   1.397
 8410SOL    HW226130   5.173   6.742   1.540
 8411SOL     OW26131   1.488   4.542   4.173
 8411SOL    HW126132   1.399   4.587   4.165
 8411SOL    HW226133   1.507   4.490   4.090
 8412SOL     OW26134   4.559   2.380   1.623
 8412SOL    HW126135   4.579   2.282   1.616
 8412SOL    HW226136   4.514   2.398   1.711
 8413SOL     OW26137   3.799   5.073   0.456
 8413SOL    HW126138   3.712   5.113   0.429
 8413SOL    HW226139   3.847   5.039   0.375
 8414SOL     OW26140   3.818   6.478   2.854
 8414SOL    HW126141   3.860   6.535   2.924
 8414SOL    HW226142   3.878   6.402   2.832
 8415SOL     OW26143   0.232   4.411   3.479
 8415SOL    HW126144   0.246   4.312   3.471
 8415SOL    HW226145   0.284   4.446   3.557
 8416SOL     OW26146   5.173   4.015   2.637
 8416SOL    HW126147   5.162   4.096   2.580
 8416SOL    HW226148   5.240   4.033   2.709
 8417SOL     OW26149   2.240   6.362   5.972
 8417SOL    HW126150   2.338   6.342   5.963
 8417SOL    HW226151   2.191   6.324   5.894
 8418SOL     OW26152   6.042   6.184   2.764
 8418SOL    HW126153   6.000   6.191   2.674
 8418SOL    HW226154   6.123   6.242   2.768
 8419SOL     OW26155   4.762   0.196   2.266
 8419SOL    HW126156   4.860   0.201   2.285
 8419SOL    HW226157   4.712   0.182   2.352
 8420SOL     OW26158   3.987   0.438   0.001
 8420SOL    HW126159   3.994   0.444   0.101
 8420SOL    HW226160   4.010   0.346   6.990
 8421SOL     OW26161   1.797   0.086   2.200
 8421SOL    HW126162   1.719   0.032   2.231
 8421SOL    HW226163   1.794   0.093   2.100
 8422SOL     OW26164   5.241   6.492   0.243
 8422SOL    HW126165   5.183   6.418   0.209
 8422SOL    HW226166   5.242   6.566   0.176
 8423SOL     OW26167   3.750   4.877   6.892
 8423SOL    HW126168   3.741   4.797   6.953
 8423SOL    HW226169   3.692   4.863   6.812
 8424SOL     OW26170   3.579   1.801   2.383
 8424SOL    HW126171   3.549   1.758   2.298
 8424SOL    HW226172   3.620   1.731   2.442
 8425SOL     OW26173   6.964   5.242   1.586
 8425SOL    HW126174   6.933   5.337   1.593
 8425SOL    HW226175   0.044   5.238   1.599
 8426SOL     OW26176   3.692   3.538   3.826
 8426SOL    HW126177   3.758   3.465   3.842
 8426SOL    HW226178   3.599   3.501   3.825
 8427SOL     OW26179   1.572   3.890   6.960
 8427SOL    HW126180   1.517   3.948   0.001
 8427SOL    HW226181   1.636   3.836   7.015
 8428SOL     OW26182   0.310   4.351   1.863
 8428SOL    HW126183   0.256   4.274   1.831
 8428SOL    HW226184   0.302   4.360   1.962
 8429SOL     OW26185   2.615   4.998   4.163
 8429SOL    HW126186   2.624   5.068   4.234
 8429SOL    HW226187   2.535   4.940   4.183
 8430SOL     OW26188   4.786   4.913   2.597
 8430SOL    HW126189   4.759   4.823   2.632
 8430SOL    HW226190   4.741   4.985   2.651
 8431SOL     OW26191   3.512   4.867   1.282
 8431SOL    HW126192   3.435   4.826   1.232
 8431SOL    HW226193   3.503   4.966   1.281
 8432SOL     OW26194   4.270   5.433   6.408
 8432SOL    HW126195   4.211   5.356   6.434
 8432SOL    HW226196   4.274   5.499   6.483
 8433SOL     OW26197   1.104   2.562   6.664
 8433SOL    HW126198   1.070   2.625   6.734
 8433SOL    HW226199   1.176   2.505   6.703
 8434SOL     OW26200   4.265   6.710   5.584
 8434SOL    HW126201   4.312   6.798   5.593
 8434SOL    HW226202   4.218   6.689   5.670
 8435SOL     OW26203   4.197   2.030   1.117
 8435SOL    HW126204   4.159   1.944   1.151
 8435SOL    HW226205   4.203   2.026   1.017
 8436SOL     OW26206   3.869   4.893   2.409
 8436SOL    HW126207   3.826   4.899   2.319
 8436SOL    HW226208   3.801   4.912   2.479
 8437SOL     OW26209   0.351   0.975   1.178
 8437SOL    HW126210   0.356   0.900   1.243
 8437SOL    HW226211   0.258   0.982   1.142
 8438SOL     OW26212   2.901   4.933   2.224
 8438SOL    HW126213   2.809   4.896   2.211
 8438SOL    HW226214   2.964   4.890   2.160
 8439SOL     OW26215   6.985   5.757   2.019
 8439SOL    HW126216   0.037   5.688   2.037
 8439SOL    HW226217   6.957   5.799   2.105
 8440SOL     OW26218   0.168   0.866   1.796
 8440SOL    HW126219   0.143   0.812   1.877
 8440SOL    HW226220   0.231   0.813   1.739
 8441SOL     OW26221   5.375   5.800   6.722
 8441SOL    HW126222   5.283   5.832   6.744
 8441SOL    HW226223   5.406   5.736   6.792
 8442SOL     OW26224   2.441   4.218   6.932
 8442SOL    HW126225   2.446   4.124   6.966
 8442SOL    HW226226   2.533   4.249   6.909
 8443SOL     OW26227   0.803   0.756   3.288
 8443SOL    HW126228   0.765   0.810   3.363
 8443SOL    HW226229   0.836   0.818   3.216
 8444SOL     OW26230   3.818   6.475   4.098
 8444SOL    HW126231   3.799   6.558   4.152
 8444SOL    HW226232   3.852   6.403   4.159
 8445SOL     OW26233   3.522   5.329   3.052
 8445SOL    HW126234   3.515   5.241   3.004
 8445SOL    HW226235   3.580   5.391   2.999
 8446SOL     OW26236   5.380   5.994   3.171
 8446SOL    HW126237   5.398   5.930   3.096
 8446SOL    HW226238   5.282   5.995   3.192
 8447SOL     OW26239   5.281   2.557   1.710
 8447SOL    HW126240   5.377   2.582   1.699
 8447SOL    HW226241   5.268   2.512   1.798
 8448SOL     OW26242   0.510   3.858   6.013
 8448SOL    HW126243   0.591   3.894   6.059
 8448SOL    HW226244   0.473   3.781   6.065
 8449SOL     OW26245   0.371   3.148   4.966
 8449SOL    HW126246   0.385   3.139   4.868
 8449SOL    HW226247   0.407   3.236   4.997
 8450SOL     OW26248   1.600   6.480   3.083
 8450SOL    HW126249   1.516   6.487   3.029
 8450SOL    HW226250   1.674   6.528   3.036
 8451SOL     OW26251   3.488   2.689   0.713
 8451SOL    HW126252   3.484   2.760   0.783
 8451SOL    HW226253   3.529   2.607   0.751
 8452SOL     OW26254   6.673   0.287   1.092
 8452SOL    HW126255   6.640   0.371   1.136
 8452SOL    HW226256   6.753   0.307   1.037
 8453SOL     OW26257   6.416   5.133   6.328
 8453SOL    HW126258   6.481   5.105   6.258
 8453SOL    HW226259   6.324   5.135   6.288
 8454SOL     OW26260   1.808   6.698   2.726
 8454SOL    HW126261   1.876   6.770   2.714
 8454SOL    HW226262   1.847   6.610   2.697
 8455SOL     OW26263   4.878   1.411   1.391
 8455SOL    HW126264   4.809   1.483   1.395
 8455SOL    HW226265   4.961   1.442   1.438
 8456SOL     OW26266   5.652   5.535   3.685
 8456SOL    HW126267   5.738   5.515   3.639
 8456SOL    HW226268   5.587   5.460   3.667
 8457SOL     OW26269   6.656   0.004   5.343
 8457SOL    HW126270   6.672   6.954   5.271
 8457SOL    HW226271   6.597   0.076   5.307
 8458SOL     OW26272   1.893   1.322   0.266
 8458SOL    HW126273   1.817   1.329   0.201
 8458SOL    HW226274   1.879   1.243   0.325
 8459SOL     OW26275   3.738   6.298   2.520
 8459SOL    HW126276   3.738   6.288   2.421
 8459SOL    HW226277   3.660   6.353   2.548
 8460SOL     OW26278   4.606   2.591   0.001
 8460SOL    HW126279   4.549   2.632   6.949
 8460SOL    HW226280   4.555   2.588   0.087
 8461SOL     OW26281   0.473   3.573   1.779
 8461SOL    HW126282   0.499   3.630   1.858
 8461SOL    HW226283   0.516   3.483   1.788
 8462SOL     OW26284   3.793   3.480   0.212
 8462SOL    HW126285   3.873   3.501   0.155
 8462SOL    HW226286   3.773   3.382   0.207
 8463SOL     OW26287   6.553   2.127   0.057
 8463SOL    HW126288   6.629   2.130   0.122
 8463SOL    HW226289   6.480   2.069   0.095
 8464SOL     OW26290   0.122   3.353   6.176
 8464SOL    HW126291   0.095   3.449   6.167
 8464SOL    HW226292   0.083   3.314   6.259
 8465SOL     OW26293   2.784   2.637   0.766
 8465SOL    HW126294   2.693   2.597   0.765
 8465SOL    HW226295   2.851   2.568   0.794
 8466SOL     OW26296   5.412   0.533   5.563
 8466SOL    HW126297   5.396   0.561   5.657
 8466SOL    HW226298   5.460   0.606   5.514
 8467SOL     OW26299   3.554   0.591   0.385
 8467SOL    HW126300   3.635   0.649   0.377
 8467SOL    HW226301   3.485   0.639   0.439
 8468SOL     OW26302   6.139   3.610   6.421
 8468SOL    HW126303   6.128   3.515   6.449
 8468SOL    HW226304   6.068   3.667   6.463
 8469SOL     OW26305   3.853   2.884   6.184
 8469SOL    HW126306   3.953   2.888   6.181
 8469SOL    HW226307   3.815   2.976   6.169
 8470SOL     OW26308   0.969   4.859   0.870
 8470SOL    HW126309   0.978   4.860   0.970
 8470SOL    HW226310   0.899   4.925   0.842
 8471SOL     OW26311   3.123   0.602   4.781
 8471SOL    HW126312   3.202   0.664   4.780
 8471SOL    HW226313   3.092   0.587   4.687
 8472SOL     OW26314   5.895   1.708   6.097
 8472SOL    HW126315   5.903   1.706   5.997
 8472SOL    HW226316   5.880   1.802   6.128
 8473SOL     OW26317   4.171   4.612   7.009
 8473SOL    HW126318   4.258   4.614   0.039
 8473SOL    HW226319   4.139   4.517   7.002
 8474SOL     OW26320   2.894   3.555   3.082
 8474SOL    HW126321   2.934   3.488   3.020
 8474SOL    HW226322   2.841   3.507   3.153
 8475SOL     OW26323   0.341   3.665   1.473
 8475SOL    HW126324   0.395   3.728   1.530
 8475SOL    HW226325   0.245   3.671   1.498
 8476SOL     OW26326   6.567   0.433   1.377
 8476SOL    HW126327   6.556   0.494   1.298
 8476SOL    HW226328   6.616   0.351   1.349
 8477SOL     OW26329   5.377   5.701   1.561
 8477SOL    HW126330   5.420   5.787   1.532
 8477SOL    HW226331   5.391   5.633   1.489
 8478SOL     OW26332   1.174   0.799   5.485
 8478SOL    HW126333   1.086   0.834   5.455
 8478SOL    HW226334   1.167   0.766   5.580
 8479SOL     OW26335   2.019   2.080   0.953
 8479SOL    HW126336   2.080   2.159   0.957
 8479SOL    HW226337   1.997   2.059   0.858
 8480SOL     OW26338   4.730   2.614   0.337
 8480SOL    HW126339   4.788   2.542   0.297
 8480SOL    HW226340   4.637   2.605   0.302
 8481SOL     OW26341   3.861   2.061   4.278
 8481SOL    HW126342   3.916   2.121   4.337
 8481SOL    HW226343   3.845   1.974   4.324
 8482SOL     OW26344   4.059   1.343   0.021
 8482SOL    HW126345   4.070   1.414   0.090
 8482SOL    HW226346   3.998   1.375   6.968
 8483SOL     OW26347   3.293   6.118   3.466
 8483SOL    HW126348   3.307   6.038   3.407
 8483SOL    HW226349   3.380   6.166   3.478
 8484SOL     OW26350   6.304   6.076   5.389
 8484SOL    HW126351   6.403   6.070   5.399
 8484SOL    HW226352   6.261   6.057   5.477
 8485SOL     OW26353   3.579   2.215   0.224
 8485SOL    HW126354   3.555   2.159   0.304
 8485SOL    HW226355   3.546   2.170   0.141
 8486SOL     OW26356   2.219   1.391   2.294
 8486SOL    HW126357   2.316   1.415   2.303
 8486SOL    HW226358   2.179   1.443   2.219
 8487SOL     OW26359   5.300   1.568   6.193
 8487SOL    HW126360   5.337   1.507   6.263
 8487SOL    HW226361   5.208   1.540   6.169
 8488SOL     OW26362   5.906   5.290   2.823
 8488SOL    HW126363   5.827   5.285   2.884
 8488SOL    HW226364   5.921   5.200   2.781
 8489SOL     OW26365   5.530   0.747   1.497
 8489SOL    HW126366   5.622   0.737   1.533
 8489SOL    HW226367   5.463   0.714   1.564
 8490SOL     OW26368   2.756   0.100   6.242
 8490SOL    HW126369   2.748   0.001   6.257
 8490SOL    HW226370   2.813   0.140   6.314
 8491SOL     OW26371   2.140   6.102   2.708
 8491SOL    HW126372   2.192   6.016   2.707
 8491SOL    HW226373   2.131   6.135   2.801
 8492SOL     OW26374   6.108   4.497   3.728
 8492SOL    HW126375   6.165   4.425   3.767
 8492SOL    HW226376   6.166   4.570   3.691
 8493SOL     OW26377   2.551   1.185   0.254
 8493SOL    HW126378   2.531   1.091   0.280
 8493SOL    HW226379   2.469   1.241   0.266
 8494SOL     OW26380   5.629   4.864   1.815
 8494SOL    HW126381   5.576   4.910   1.745
 8494SOL    HW226382   5.710   4.918   1.837
 8495SOL     OW26383   6.607   5.963   0.708
 8495SOL    HW126384   6.612   5.863   0.713
 8495SOL    HW226385   6.597   6.000   0.801
 8496SOL     OW26386   5.326   1.209   2.112
 8496SOL    HW126387   5.238   1.236   2.153
 8496SOL    HW226388   5.333   1.247   2.020
 8497SOL     OW26389   0.309   0.446   3.395
 8497SOL    HW126390   0.404   0.474   3.408
 8497SOL    HW226391   0.304   0.346   3.395
 8498SOL     OW26392   5.431   6.938   3.740
 8498SOL    HW126393   5.381   7.002   3.798
 8498SOL    HW226394   5.385   6.849   3.741
 8499SOL     OW26395   1.024   5.620   0.519
 8499SOL    HW126396   1.108   5.664   0.486
 8499SOL    HW226397   1.007   5.648   0.613
 8500SOL     OW26398   1.929   0.501   5.960
 8500SOL    HW126399   1.994   0.577   5.958
 8500SOL    HW226400   1.928   0.456   5.872
 8501SOL     OW26401   0.261   2.445   0.245
 8501SOL    HW126402   0.175   2.444   0.297
 8501SOL    HW226403   0.324   2.510   0.285
 8502SOL     OW26404   0.407   2.881   0.283
 8502SOL    HW126405   0.495   2.886   0.329
 8502SOL    HW226406   0.392   2.965   0.230
 8503SOL     OW26407   6.820   5.818   4.914
 8503SOL    HW126408   6.888   5.746   4.929
 8503SOL    HW226409   6.742   5.804   4.976
 8504SOL     OW26410   1.794   5.206   2.434
 8504SOL    HW126411   1.823   5.122   2.389
 8504SOL    HW226412   1.715   5.186   2.492
 8505SOL     OW26413   5.294   3.546   2.467
 8505SOL    HW126414   5.246   3.626   2.502
 8505SOL    HW226415   5.344   3.571   2.384
 8506SOL     OW26416   1.498   1.107   6.633
 8506SOL    HW126417   1.456   1.084   6.546
 8506SOL    HW226418   1.594   1.132   6.618
 8507SOL     OW26419   4.513   0.241   4.913
 8507SOL    HW126420   4.576   0.306   4.953
 8507SOL    HW226421   4.564   0.162   4.879
 8508SOL     OW26422   4.201   1.942   6.362
 8508SOL    HW126423   4.301   1.941   6.357
 8508SOL    HW226424   4.170   2.034   6.386
 8509SOL     OW26425   5.713   0.318   3.559
 8509SOL    HW126426   5.744   0.346   3.469
 8509SOL    HW226427   5.689   0.221   3.556
 8510SOL     OW26428   5.456   2.976   3.753
 8510SOL    HW126429   5.465   2.909   3.827
 8510SOL    HW226430   5.414   3.059   3.789
 8511SOL     OW26431   5.969   3.367   2.592
 8511SOL    HW126432   5.966   3.273   2.558
 8511SOL    HW226433   5.893   3.382   2.655
 8512SOL     OW26434   2.172   0.202   3.430
 8512SOL    HW126435   2.244   0.220   3.364
 8512SOL    HW226436   2.084   0.229   3.392
 8513SOL     OW26437   6.138   6.184   0.106
 8513SOL    HW126438   6.059   6.187   0.167
 8513SOL    HW226439   6.157   6.089   0.081
 8514SOL     OW26440   3.280   6.364   3.209
 8514SOL    HW126441   3.212   6.431   3.179
 8514SOL    HW226442   3.372   6.401   3.193
 8515SOL     OW26443   5.588   2.643   1.116
 8515SOL    HW126444   5.548   2.551   1.111
 8515SOL    HW226445   5.670   2.646   1.059
 8516SOL     OW26446   6.795   2.312   2.673
 8516SOL    HW126447   6.888   2.349   2.665
 8516SOL    HW226448   6.788   2.229   2.618
 8517SOL     OW26449   0.950   2.476   0.244
 8517SOL    HW126450   0.948   2.378   0.224
 8517SOL    HW226451   0.980   2.490   0.339
 8518SOL     OW26452   3.969   5.182   0.160
 8518SOL    HW126453   3.985   5.092   0.201
 8518SOL    HW226454   3.971   5.252   0.232
 8519SOL     OW26455   1.800   5.861   2.245
 8519SOL    HW126456   1.836   5.792   2.183
 8519SOL    HW226457   1.790   5.821   2.336
 8520SOL     OW26458   3.767   1.446   0.343
 8520SOL    HW126459   3.779   1.346   0.350
 8520SOL    HW226460   3.854   1.488   0.319
 8521SOL     OW26461   0.530   6.581   5.956
 8521SOL    HW126462   0.483   6.602   6.042
 8521SOL    HW226463   0.462   6.568   5.884
 8522SOL     OW26464   1.308   6.537   3.273
 8522SOL    HW126465   1.316   6.637   3.277
 8522SOL    HW226466   1.297   6.508   3.178
 8523SOL     OW26467   2.504   6.956   5.937
 8523SOL    HW126468   2.467   6.977   5.846
 8523SOL    HW226469   2.455   7.010   6.006
 8524SOL     OW26470   1.283   3.185   5.088
 8524SOL    HW126471   1.359   3.121   5.102
 8524SOL    HW226472   1.205   3.136   5.050
 8525SOL     OW26473   5.684   3.388   3.138
 8525SOL    HW126474   5.700   3.289   3.147
 8525SOL    HW226475   5.664   3.410   3.043
 8526SOL     OW26476   2.475   2.900   1.780
 8526SOL    HW126477   2.433   2.907   1.689
 8526SOL    HW226478   2.531   2.981   1.797
 8527SOL     OW26479   4.691   0.695   4.341
 8527SOL    HW126480   4.606   0.645   4.354
 8527SOL    HW226481   4.724   0.682   4.248
 8528SOL     OW26482   4.851   2.991   6.385
 8528SOL    HW126483   4.921   2.937   6.433
 8528SOL    HW226484   4.880   3.086   6.379
 8529SOL     OW26485   1.477   5.154   0.006
 8529SOL    HW126486   1.546   5.082   0.008
 8529SOL    HW226487   1.517   5.239   6.988
 8530SOL     OW26488   1.335   4.310   5.581
 8530SOL    HW126489   1.306   4.341   5.490
 8530SOL    HW226490   1.406   4.372   5.616
 8531SOL     OW26491   5.205   4.310   3.124
 8531SOL    HW126492   5.171   4.404   3.130
 8531SOL    HW226493   5.185   4.261   3.209
 8532SOL     OW26494   3.777   5.090   5.174
 8532SOL    HW126495   3.812   5.119   5.085
 8532SOL    HW226496   3.842   5.028   5.218
 8533SOL     OW26497   3.025   1.127   4.235
 8533SOL    HW126498   3.101   1.189   4.253
 8533SOL    HW226499   3.017   1.110   4.137
 8534SOL     OW26500   1.385   3.693   2.794
 8534SOL    HW126501   1.426   3.780   2.764
 8534SOL    HW226502   1.300   3.712   2.845
 8535SOL     OW26503   0.794   2.151   4.902
 8535SOL    HW126504   0.803   2.251   4.910
 8535SOL    HW226505   0.878   2.108   4.934
 8536SOL     OW26506   0.047   1.365   5.564
 8536SOL    HW126507   6.975   1.341   5.530
 8536SOL    HW226508   0.052   1.464   5.579
 8537SOL     OW26509   5.434   0.848   0.993
 8537SOL    HW126510   5.373   0.772   0.967
 8537SOL    HW226511   5.496   0.868   0.918
 8538SOL     OW26512   6.981   0.867   4.808
 8538SOL    HW126513   7.006   0.953   4.763
 8538SOL    HW226514   6.881   0.864   4.819
 8539SOL     OW26515   0.159   2.639   1.593
 8539SOL    HW126516   0.199   2.566   1.648
 8539SOL    HW226517   0.232   2.701   1.562
 8540SOL     OW26518   3.254   0.935   0.584
 8540SOL    HW126519   3.241   0.989   0.666
 8540SOL    HW226520   3.263   0.995   0.505
 8541SOL     OW26521   2.969   1.509   4.953
 8541SOL    HW126522   3.062   1.499   4.916
 8541SOL    HW226523   2.954   1.438   5.022
 8542SOL     OW26524   2.077   4.406   0.192
 8542SOL    HW126525   2.082   4.312   0.159
 8542SOL    HW226526   2.156   4.457   0.159
 8543SOL     OW26527   2.682   2.593   5.303
 8543SOL    HW126528   2.678   2.534   5.222
 8543SOL    HW226529   2.712   2.540   5.382
 8544SOL     OW26530   4.956   3.919   5.116
 8544SOL    HW126531   4.862   3.919   5.149
 8544SOL    HW226532   4.966   3.983   5.040
 8545SOL     OW26533   3.395   6.950   5.200
 8545SOL    HW126534   3.358   6.862   5.169
 8545SOL    HW226535   3.458   6.934   5.276
 8546SOL     OW26536   5.735   0.667   2.070
 8546SOL    HW126537   5.717   0.742   2.134
 8546SOL    HW226538   5.797   0.699   1.999
 8547SOL     OW26539   6.756   6.572   5.882
 8547SOL    HW126540   6.669   6.601   5.920
 8547SOL    HW226541   6.741   6.527   5.794
 8548SOL     OW26542   0.610   3.000   6.474
 8548SOL    HW126543   0.609   3.098   6.496
 8548SOL    HW226544   0.696   2.977   6.429
 8549SOL     OW26545   1.788   0.788   3.628
 8549SOL    HW126546   1.876   0.775   3.674
 8549SOL    HW226547   1.798   0.767   3.530
 8550SOL     OW26548   0.760   4.209   0.355
 8550SOL    HW126549   0.743   4.183   0.450
 8550SOL    HW226550   0.763   4.308   0.348
 8551SOL     OW26551   1.595   2.152   6.367
 8551SOL    HW126552   1.551   2.169   6.278
 8551SOL    HW226553   1.656   2.228   6.389
 8552SOL     OW26554   2.696   1.478   2.446
 8552SOL    HW126555   2.619   1.475   2.381
 8552SOL    HW226556   2.710   1.388   2.485
 8553SOL     OW26557   4.501   2.849   0.992
 8553SOL    HW126558   4.403   2.853   0.973
 8553SOL    HW226559   4.516   2.872   1.089
 8554SOL     OW26560   0.616   6.844   0.922
 8554SOL    HW126561   0.692   6.860   0.859
 8554SOL    HW226562   0.550   6.918   0.915
 8555SOL     OW26563   4.533   1.557   3.819
 8555SOL    HW126564   4.565   1.627   3.882
 8555SOL    HW226565   4.587   1.473   3.832
 8556SOL     OW26566   2.201   6.203   6.978
 8556SOL    HW126567   2.201   6.296   7.015
 8556SOL    HW226568   2.108   6.168   6.973
 8557SOL     OW26569   6.815   0.776   6.818
 8557SOL    HW126570   6.845   0.865   6.787
 8557SOL    HW226571   6.836   0.707   6.749
 8558SOL     OW26572   2.835   4.807   3.124
 8558SOL    HW126573   2.791   4.805   3.035
 8558SOL    HW226574   2.872   4.717   3.145
 8559SOL     OW26575   1.058   4.923   2.538
 8559SOL    HW126576   1.010   4.968   2.613
 8559SOL    HW226577   1.153   4.905   2.564
 8560SOL     OW26578   2.715   5.089   1.157
 8560SOL    HW126579   2.806   5.051   1.143
 8560SOL    HW226580   2.716   5.151   1.235
 8561SOL     OW26581   3.220   0.342   2.711
 8561SOL    HW126582   3.140   0.283   2.694
 8561SOL    HW226583   3.234   0.352   2.809
 8562SOL     OW26584   4.064   1.101   6.760
 8562SOL    HW126585   3.997   1.134   6.693
 8562SOL    HW226586   4.066   1.001   6.759
 8563SOL     OW26587   1.509   5.537   3.270
 8563SOL    HW126588   1.608   5.524   3.269
 8563SOL    HW226589   1.488   5.633   3.256
 8564SOL     OW26590   3.689   6.500   7.017
 8564SOL    HW126591   3.600   6.539   0.024
 8564SOL    HW226592   3.732   6.559   6.948
 8565SOL     OW26593   3.335   5.563   0.736
 8565SOL    HW126594   3.293   5.591   0.823
 8565SOL    HW226595   3.434   5.576   0.741
 8566SOL     OW26596   3.098   1.057   3.349
 8566SOL    HW126597   3.145   1.069   3.436
 8566SOL    HW226598   3.032   0.983   3.356
 8567SOL     OW26599   2.167   1.859   1.408
 8567SOL    HW126600   2.101   1.899   1.471
 8567SOL    HW226601   2.124   1.843   1.319
 8568SOL     OW26602   6.882   1.375   0.162
 8568SOL    HW126603   6.907   1.423   0.078
 8568SOL    HW226604   6.793   1.408   0.194
 8569SOL     OW26605   5.387   2.421   6.497
 8569SOL    HW126606   5.315   2.413   6.428
 8569SOL    HW226607   5.356   2.484   6.569
 8570SOL     OW26608   1.055   2.141   5.019
 8570SOL    HW126609   1.148   2.173   5.004
 8570SOL    HW226610   1.056   2.064   5.082
 8571SOL     OW26611   1.973   0.816   4.310
 8571SOL    HW126612   1.994   0.858   4.399
 8571SOL    HW226613   1.927   0.729   4.324
 8572SOL     OW26614   3.379   3.768   5.911
 8572SOL    HW126615   3.306   3.716   5.867
 8572SOL    HW226616   3.350   3.796   6.003
 8573SOL     OW26617   3.494   6.107   1.191
 8573SOL    HW126618   3.570   6.054   1.229
 8573SOL    HW226619   3.423   6.045   1.157
 8574SOL     OW26620   0.078   6.308   5.714
 8574SOL    HW126621   7.018   6.343   5.661
 8574SOL    HW226622   0.133   6.247   5.656
 8575SOL     OW26623   3.250   6.623   2.601
 8575SOL    HW126624   3.237   6.527   2.628
 8575SOL    HW226625   3.291   6.627   2.510
 8576SOL     OW26626   0.693   3.898   4.353
 8576SOL    HW126627   0.663   3.803   4.346
 8576SOL    HW226628   0.648   3.953   4.283
 8577SOL     OW26629   1.482   1.333   6.294
 8577SOL    HW126630   1.477   1.420   6.343
 8577SOL    HW226631   1.578   1.313   6.272
 8578SOL     OW26632   6.071   6.587   5.250
 8578SOL    HW126633   6.053   6.563   5.154
 8578SOL    HW226634   6.103   6.681   5.256
 8579SOL     OW26635   2.648   5.969   2.348
 8579SOL    HW126636   2.587   5.892   2.329
 8579SOL    HW226637   2.742   5.942   2.328
 8580SOL     OW26638   1.086   6.268   0.978
 8580SOL    HW126639   1.066   6.182   0.931
 8580SOL    HW226640   1.002   6.321   0.988
 8581SOL     OW26641   3.583   5.003   1.560
 8581SOL    HW126642   3.639   5.080   1.588
 8581SOL    HW226643   3.517   5.033   1.490
 8582SOL     OW26644   4.035   4.752   5.597
 8582SOL    HW126645   4.112   4.816   5.604
 8582SOL    HW226646   4.003   4.749   5.503
 8583SOL     OW26647   4.099   0.710   2.466
 8583SOL    HW126648   4.007   0.679   2.439
 8583SOL    HW226649   4.096   0.808   2.486
 8584SOL     OW26650   6.475   1.171   4.473
 8584SOL    HW126651   6.391   1.161   4.418
 8584SOL    HW226652   6.467   1.252   4.531
 8585SOL     OW26653   5.774   2.395   1.263
 8585SOL    HW126654   5.720   2.479   1.269
 8585SOL    HW226655   5.870   2.417   1.282
 8586SOL     OW26656   5.474   6.367   1.361
 8586SOL    HW126657   5.435   6.352   1.271
 8586SOL    HW226658   5.461   6.286   1.418
 8587SOL     OW26659   1.040   1.557   5.742
 8587SOL    HW126660   0.989   1.501   5.676
 8587SOL    HW226661   1.038   1.653   5.713
 8588SOL     OW26662   3.072   1.606   6.599
 8588SOL    HW126663   3.066   1.582   6.696
 8588SOL    HW226664   3.168   1.617   6.573
 8589SOL     OW26665   0.136   3.385   5.867
 8589SOL    HW126666   0.133   3.339   5.779
 8589SOL    HW226667   0.052   3.364   5.918
 8590SOL     OW26668   6.804   1.858   2.623
 8590SOL    HW126669   6.787   1.923   2.550
 8590SOL    HW226670   6.901   1.832   2.623
 8591SOL     OW26671   6.746   5.127   0.148
 8591SOL    HW126672   6.819   5.196   0.140
 8591SOL    HW226673   6.752   5.084   0.238
 8592SOL     OW26674   0.531   2.712   6.955
 8592SOL    HW126675   0.492   2.798   6.923
 8592SOL    HW226676   0.532   2.646   6.880
 8593SOL     OW26677   3.173   0.391   6.249
 8593SOL    HW126678   3.195   0.456   6.177
 8593SOL    HW226679   3.216   0.420   6.335
 8594SOL     OW26680   6.037   2.966   6.051
 8594SOL    HW126681   5.987   3.011   5.977
 8594SOL    HW226682   6.102   2.900   6.011
 8595SOL     OW26683   5.094   6.803   2.380
 8595SOL    HW126684   5.130   6.803   2.473
 8595SOL    HW226685   5.002   6.762   2.380
 8596SOL     OW26686   1.047   3.418   3.898
 8596SOL    HW126687   1.138   3.425   3.940
 8596SOL    HW226688   1.028   3.323   3.875
 8597SOL     OW26689   6.528   3.494   1.385
 8597SOL    HW126690   6.550   3.498   1.287
 8597SOL    HW226691   6.431   3.511   1.397
 8598SOL     OW26692   5.576   0.760   4.882
 8598SOL    HW126693   5.583   0.859   4.865
 8598SOL    HW226694   5.651   0.713   4.837
 8599SOL     OW26695   1.492   3.266   3.555
 8599SOL    HW126696   1.511   3.257   3.457
 8599SOL    HW226697   1.563   3.321   3.598
 8600SOL     OW26698   4.175   3.492   1.083
 8600SOL    HW126699   4.160   3.582   1.124
 8600SOL    HW226700   4.137   3.490   0.990
 8601SOL     OW26701   0.909   0.729   4.023
 8601SOL    HW126702   0.906   0.732   3.923
 8601SOL    HW226703   0.819   0.703   4.058
 8602SOL     OW26704   2.704   6.968   4.007
 8602SOL    HW126705   2.664   6.886   3.966
 8602SOL    HW226706   2.764   6.942   4.083
 8603SOL     OW26707   6.767   0.761   0.227
 8603SOL    HW126708   6.695   0.806   0.173
 8603SOL    HW226709   6.791   0.674   0.184
 8604SOL     OW26710   0.960   4.009   6.034
 8604SOL    HW126711   1.020   3.940   6.074
 8604SOL    HW226712   0.971   4.010   5.935
 8605SOL     OW26713   0.217   4.720   4.558
 8605SOL    HW126714   0.266   4.644   4.600
 8605SOL    HW226715   0.127   4.689   4.526
 8606SOL     OW26716   2.363   2.083   6.603
 8606SOL    HW126717   2.434   2.106   6.537
 8606SOL    HW226718   2.285   2.144   6.590
 8607SOL     OW26719   2.405   4.782   1.520
 8607SOL    HW126720   2.390   4.781   1.421
 8607SOL    HW226721   2.503   4.775   1.538
 8608SOL     OW26722   2.791   4.782   2.817
 8608SOL    HW126723   2.880   4.794   2.773
 8608SOL    HW226724   2.728   4.737   2.753
 8609SOL     OW26725   4.949   1.430   3.670
 8609SOL    HW126726   4.934   1.342   3.625
 8609SOL    HW226727   5.011   1.417   3.748
 8610SOL     OW26728   6.951   6.370   3.254
 8610SOL    HW126729   0.024   6.394   3.286
 8610SOL    HW226730   6.915   6.295   3.309
 8611SOL     OW26731   3.497   1.070   3.857
 8611SOL    HW126732   3.465   1.111   3.943
 8611SOL    HW226733   3.503   0.971   3.868
 8612SOL     OW26734   3.854   2.997   2.984
 8612SOL    HW126735   3.938   3.029   3.029
 8612SOL    HW226736   3.796   2.950   3.051
 8613SOL     OW26737   3.062   2.381   1.376
 8613SOL    HW126738   3.064   2.352   1.472
 8613SOL    HW226739   2.997   2.324   1.326
 8614SOL     OW26740   1.510   2.390   2.040
 8614SOL    HW126741   1.499   2.335   2.122
 8614SOL    HW226742   1.484   2.336   1.960
 8615SOL     OW26743   4.720   2.062   3.711
 8615SOL    HW126744   4.788   1.988   3.708
 8615SOL    HW226745   4.628   2.022   3.703
 8616SOL     OW26746   4.393   5.029   2.562
 8616SOL    HW126747   4.302   5.050   2.529
 8616SOL    HW226748   4.415   4.933   2.542
 8617SOL     OW26749   5.308   6.697   3.756
 8617SOL    HW126750   5.215   6.686   3.722
 8617SOL    HW226751   5.309   6.683   3.855
 8618SOL     OW26752   6.367   3.823   1.681
 8618SOL    HW126753   6.465   3.806   1.684
 8618SOL    HW226754   6.348   3.918   1.706
 8619SOL     OW26755   5.393   5.036   1.966
 8619SOL    HW126756   5.321   4.997   1.908
 8619SOL    HW226757   5.387   4.996   2.058
 8620SOL     OW26758   2.456   0.845   4.818
 8620SOL    HW126759   2.411   0.809   4.900
 8620SOL    HW226760   2.429   0.791   4.738
 8621SOL     OW26761   4.669   2.682   2.172
 8621SOL    HW126762   4.637   2.716   2.083
 8621SOL    HW226763   4.688   2.759   2.232
 8622SOL     OW26764   6.643   5.307   2.671
 8622SOL    HW126765   6.632   5.391   2.725
 8622SOL    HW226766   6.682   5.235   2.728
 8623SOL     OW26767   6.864   3.643   4.732
 8623SOL    HW126768   6.948   3.674   4.687
 8623SOL    HW226769   6.886   3.604   4.821
 8624SOL     OW26770   3.187   3.583   5.774
 8624SOL    HW126771   3.090   3.570   5.794
 8624SOL    HW226772   3.196   3.634   5.688
 8625SOL     OW26773   3.553   1.814   5.251
 8625SOL    HW126774   3.651   1.806   5.234
 8625SOL    HW226775   3.536   1.885   5.319
 8626SOL     OW26776   4.506   2.861   0.694
 8626SOL    HW126777   4.592   2.825   0.657
 8626SOL    HW226778   4.494   2.830   0.788
 8627SOL     OW26779   1.515   1.443   2.669
 8627SOL    HW126780   1.533   1.526   2.721
 8627SOL    HW226781   1.506   1.366   2.732
 8628SOL     OW26782   0.274   6.614   0.219
 8628SOL    HW126783   0.268   6.561   0.303
 8628SOL    HW226784   0.303   6.555   0.144
 8629SOL     OW26785   0.853   0.062   4.508
 8629SOL    HW126786   0.846   0.047   4.409
 8629SOL    HW226787   0.802   0.144   4.533
 8630SOL     OW26788   4.865   3.389   3.392
 8630SOL    HW126789   4.897   3.395   3.297
 8630SOL    HW226790   4.909   3.460   3.446
 8631SOL     OW26791   2.608   5.678   0.254
 8631SOL    HW126792   2.598   5.665   0.155
 8631SOL    HW226793   2.517   5.685   0.296
 8632SOL     OW26794   4.205   4.594   5.316
 8632SOL    HW126795   4.118   4.613   5.272
 8632SOL    HW226796   4.266   4.547   5.252
 8633SOL     OW26797   5.339   4.057   5.785
 8633SOL    HW126798   5.306   4.078   5.877
 8633SOL    HW226799   5.425   4.105   5.768
 8634SOL     OW26800   5.908   5.288   0.755
 8634SOL    HW126801   5.878   5.239   0.673
 8634SOL    HW226802   5.843   5.271   0.829
 8635SOL     OW26803   6.086   3.151   6.892
 8635SOL    HW126804   6.113   3.079   6.828
 8635SOL    HW226805   6.047   3.109   6.974
 8636SOL     OW26806   4.015   6.136   0.769
 8636SOL    HW126807   3.964   6.152   0.684
 8636SOL    HW226808   4.112   6.152   0.753
 8637SOL     OW26809   1.378   1.546   6.592
 8637SOL    HW126810   1.355   1.512   6.684
 8637SOL    HW226811   1.321   1.500   6.524
 8638SOL     OW26812   4.000   2.868   5.305
 8638SOL    HW126813   3.907   2.877   5.268
 8638SOL    HW226814   4.029   2.957   5.342
 8639SOL     OW26815   4.898   3.114   6.993
 8639SOL    HW126816   4.896   3.037   6.929
 8639SOL    HW226817   4.834   3.096   0.050
 8640SOL     OW26818   3.330   3.193   0.942
 8640SOL    HW126819   3.330   3.273   0.883
 8640SOL    HW226820   3.288   3.216   1.030
 8641SOL     OW26821   4.226   5.163   3.065
 8641SOL    HW126822   4.314   5.126   3.096
 8641SOL    HW226823   4.224   5.261   3.083
 8642SOL     OW26824   1.157   6.739   3.664
 8642SOL    HW126825   1.206   6.740   3.752
 8642SOL    HW226826   1.070   6.787   3.674
 8643SOL     OW26827   3.107   0.012   0.292
 8643SOL    HW126828   3.023   0.053   0.257
 8643SOL    HW226829   3.154   6.983   0.218
 8644SOL     OW26830   6.368   2.280   6.581
 8644SOL    HW126831   6.290   2.322   6.626
 8644SOL    HW226832   6.449   2.291   6.638
 8645SOL     OW26833   5.898   4.276   1.667
 8645SOL    HW126834   5.811   4.281   1.717
 8645SOL    HW226835   5.935   4.184   1.674
 8646SOL     OW26836   0.573   2.469   5.503
 8646SOL    HW126837   0.529   2.496   5.589
 8646SOL    HW226838   0.625   2.546   5.467
 8647SOL     OW26839   2.708   5.310   1.337
 8647SOL    HW126840   2.681   5.298   1.432
 8647SOL    HW226841   2.675   5.397   1.303
 8648SOL     OW26842   5.782   6.664   0.993
 8648SOL    HW126843   5.842   6.586   0.977
 8648SOL    HW226844   5.818   6.720   1.067
 8649SOL     OW26845   4.446   6.816   0.106
 8649SOL    HW126846   4.440   6.734   0.161
 8649SOL    HW226847   4.441   6.792   0.009
 8650SOL     OW26848   2.300   0.193   4.786
 8650SOL    HW126849   2.271   0.098   4.788
 8650SOL    HW226850   2.240   0.246   4.726
 8651SOL     OW26851   2.838   1.467   0.718
 8651SOL    HW126852   2.834   1.427   0.809
 8651SOL    HW226853   2.917   1.431   0.669
 8652SOL     OW26854   1.056   4.827   4.341
 8652SOL    HW126855   1.032   4.767   4.264
 8652SOL    HW226856   1.033   4.921   4.318
 8653SOL     OW26857   0.270   1.922   6.158
 8653SOL    HW126858   0.323   1.864   6.220
 8653SOL    HW226859   0.190   1.957   6.206
 8654SOL     OW26860   1.030   4.639   1.937
 8654SOL    HW126861   1.071   4.549   1.953
 8654SOL    HW226862   1.102   4.706   1.920
 8655SOL     OW26863   6.616   1.506   5.619
 8655SOL    HW126864   6.665   1.574   5.565
 8655SOL    HW226865   6.682   1.451   5.671
 8656SOL     OW26866   5.807   6.864   2.074
 8656SOL    HW126867   5.719   6.853   2.027
 8656SOL    HW226868   5.791   6.892   2.169
 8657SOL     OW26869   5.811   0.376   2.019
 8657SOL    HW126870   5.756   0.320   1.957
 8657SOL    HW226871   5.781   0.471   2.013
 8658SOL     OW26872   6.247   5.169   1.738
 8658SOL    HW126873   6.226   5.102   1.809
 8658SOL    HW226874   6.169   5.230   1.725
 8659SOL     OW26875   4.631   2.291   2.714
 8659SOL    HW126876   4.562   2.323   2.649
 8659SOL    HW226877   4.647   2.361   2.783
 8660SOL     OW26878   0.901   2.668   1.132
 8660SOL    HW126879   0.807   2.645   1.156
 8660SOL    HW226880   0.901   2.724   1.049
 8661SOL     OW26881   6.309   3.241   3.112
 8661SOL    HW126882   6.382   3.201   3.167
 8661SOL    HW226883   6.257   3.168   3.066
 8662SOL     OW26884   3.155   5.717   2.472
 8662SOL    HW126885   3.209   5.678   2.397
 8662SOL    HW226886   3.190   5.681   2.559
 8663SOL     OW26887   3.424   5.814   3.301
 8663SOL    HW126888   3.475   5.772   3.376
 8663SOL    HW226889   3.488   5.860   3.239
 8664SOL     OW26890   2.249   5.784   3.026
 8664SOL    HW126891   2.249   5.843   3.107
 8664SOL    HW226892   2.249   5.688   3.054
 8665SOL     OW26893   5.811   4.869   5.645
 8665SOL    HW126894   5.892   4.834   5.692
 8665SOL    HW226895   5.732   4.813   5.669
 8666SOL     OW26896   5.148   0.275   4.067
 8666SOL    HW126897   5.167   0.207   3.997
 8666SOL    HW226898   5.149   0.367   4.026
 8667SOL     OW26899   4.855   1.520   4.074
 8667SOL    HW126900   4.816   1.482   4.158
 8667SOL    HW226901   4.889   1.613   4.092
 8668SOL     OW26902   5.742   2.963   4.790
 8668SOL    HW126903   5.809   2.916   4.848
 8668SOL    HW226904   5.708   2.900   4.721
 8669SOL     OW26905   6.449   6.349   6.118
 8669SOL    HW126906   6.548   6.350   6.105
 8669SOL    HW226907   6.410   6.271   6.069
 8670SOL     OW26908   5.775   5.076   5.856
 8670SOL    HW126909   5.837   5.060   5.779
 8670SOL    HW226910   5.757   4.990   5.903
 8671SOL     OW26911   0.452   2.340   2.293
 8671SOL    HW126912   0.538   2.388   2.311
 8671SOL    HW226913   0.449   2.255   2.345
 8672SOL     OW26914   6.935   0.237   3.540
 8672SOL    HW126915   6.989   0.284   3.609
 8672SOL    HW226916   6.971   0.259   3.449
 8673SOL     OW26917   0.177   1.523   0.185
 8673SOL    HW126918   0.082   1.549   0.175
 8673SOL    HW226919   0.231   1.602   0.216
 8674SOL     OW26920   0.747   4.375   3.066
 8674SOL    HW126921   0.819   4.357   2.999
 8674SOL    HW226922   0.749   4.304   3.137
 8675SOL     OW26923   3.627   1.545   6.047
 8675SOL    HW126924   3.606   1.586   6.136
 8675SOL    HW226925   3.592   1.603   5.974
 8676SOL     OW26926   5.703   1.272   1.320
 8676SOL    HW126927   5.640   1.327   1.265
 8676SOL    HW226928   5.703   1.178   1.287
 8677SOL     OW26929   1.582   6.600   6.011
 8677SOL    HW126930   1.658   6.535   6.005
 8677SOL    HW226931   1.495   6.551   6.011
 8678SOL     OW26932   1.229   6.929   0.487
 8678SOL    HW126933   1.190   6.984   0.413
 8678SOL    HW226934   1.196   6.963   0.575
 8679SOL     OW26935   1.922   1.050   4.049
 8679SOL    HW126936   1.944   1.139   4.088
 8679SOL    HW226937   1.852   1.061   3.977
 8680SOL     OW26938   6.600   2.859   5.779
 8680SOL    HW126939   6.590   2.955   5.750
 8680SOL    HW226940   6.511   2.826   5.812
 8681SOL     OW26941   5.412   5.787   0.723
 8681SOL    HW126942   5.326   5.768   0.677
 8681SOL    HW226943   5.452   5.872   0.686
 8682SOL     OW26944   6.936   0.305   1.007
 8682SOL    HW126945   6.960   0.401   1.016
 8682SOL    HW226946   6.965   0.255   1.089
 8683SOL     OW26947   1.655   3.508   4.881
 8683SOL    HW126948   1.751   3.534   4.870
 8683SOL    HW226949   1.649   3.410   4.899
 8684SOL     OW26950   0.626   3.977   4.834
 8684SOL    HW126951   0.626   3.878   4.848
 8684SOL    HW226952   0.646   3.998   4.739
 8685SOL     OW26953   5.275   2.724   5.918
 8685SOL    HW126954   5.185   2.730   5.961
 8685SOL    HW226955   5.346   2.724   5.988
 8686SOL     OW26956   6.467   6.285   2.620
 8686SOL    HW126957   6.463   6.298   2.521
 8686SOL    HW226958   6.470   6.374   2.665
 8687SOL     OW26959   6.079   3.071   3.285
 8687SOL    HW126960   6.111   3.115   3.368
 8687SOL    HW226961   6.153   3.018   3.244
 8688SOL     OW26962   1.592   3.847   6.409
 8688SOL    HW126963   1.662   3.912   6.380
 8688SOL    HW226964   1.616   3.811   6.500
 8689SOL     OW26965   4.380   3.152   0.445
 8689SOL    HW126966   4.444   3.146   0.522
 8689SOL    HW226967   4.286   3.152   0.479
 8690SOL     OW26968   1.086   2.061   2.993
 8690SOL    HW126969   1.067   2.150   3.035
 8690SOL    HW226970   1.165   2.019   3.038
 8691SOL     OW26971   3.324   2.062   4.688
 8691SOL    HW126972   3.386   2.098   4.619
 8691SOL    HW226973   3.229   2.079   4.660
 8692SOL     OW26974   4.340   2.135   5.577
 8692SOL    HW126975   4.405   2.188   5.522
 8692SOL    HW226976   4.358   2.038   5.564
 8693SOL     OW26977   6.539   0.946   6.702
 8693SOL    HW126978   6.585   0.944   6.613
 8693SOL    HW226979   6.586   1.009   6.763
 8694SOL     OW26980   6.344   3.223   4.334
 8694SOL    HW126981   6.348   3.302   4.272
 8694SOL    HW226982   6.437   3.200   4.364
 8695SOL     OW26983   4.282   3.539   6.414
 8695SOL    HW126984   4.286   3.623   6.360
 8695SOL    HW226985   4.190   3.501   6.409
 8696SOL     OW26986   2.893   5.752   5.641
 8696SOL    HW126987   2.808   5.716   5.679
 8696SOL    HW226988   2.970   5.714   5.693
 8697SOL     OW26989   1.680   4.146   6.024
 8697SOL    HW126990   1.728   4.121   5.940
 8697SOL    HW226991   1.721   4.098   6.101
 8698SOL     OW26992   4.747   6.081   6.093
 8698SOL    HW126993   4.678   6.063   6.023
 8698SOL    HW226994   4.738   6.175   6.126
 8699SOL     OW26995   2.560   2.408   6.795
 8699SOL    HW126996   2.604   2.418   6.884
 8699SOL    HW226997   2.535   2.498   6.759
 8700SOL     OW26998   0.691   0.564   5.143
 8700SOL    HW126999   0.680   0.603   5.052
 8700SOL    HW227000   0.719   0.469   5.136
 8701SOL     OW27001   1.044   1.578   0.222
 8701SOL    HW127002   0.994   1.493   0.239
 8701SOL    HW227003   0.993   1.634   0.157
 8702SOL     OW27004   5.019   4.795   1.657
 8702SOL    HW127005   5.105   4.793   1.606
 8702SOL    HW227006   4.952   4.736   1.611
 8703SOL     OW27007   2.695   4.567   0.126
 8703SOL    HW127008   2.663   4.623   0.201
 8703SOL    HW227009   2.677   4.613   0.039
 8704SOL     OW27010   0.356   2.174   4.329
 8704SOL    HW127011   0.355   2.118   4.246
 8704SOL    HW227012   0.349   2.270   4.304
 8705SOL     OW27013   4.278   2.760   0.168
 8705SOL    HW127014   4.337   2.820   0.222
 8705SOL    HW227015   4.287   2.782   0.071
 8706SOL     OW27016   5.615   2.844   0.253
 8706SOL    HW127017   5.557   2.800   0.322
 8706SOL    HW227018   5.704   2.799   0.251
 8707SOL     OW27019   1.322   1.787   4.602
 8707SOL    HW127020   1.227   1.800   4.575
 8707SOL    HW227021   1.377   1.864   4.570
 8708SOL     OW27022   5.121   1.962   3.247
 8708SOL    HW127023   5.184   2.037   3.228
 8708SOL    HW227024   5.160   1.902   3.317
 8709SOL     OW27025   6.623   0.100   6.587
 8709SOL    HW127026   6.624   0.167   6.513
 8709SOL    HW227027   6.587   0.013   6.553
 8710SOL     OW27028   2.452   1.304   3.286
 8710SOL    HW127029   2.482   1.213   3.257
 8710SOL    HW227030   2.517   1.341   3.352
 8711SOL     OW27031   1.273   1.278   2.361
 8711SOL    HW127032   1.341   1.351   2.356
 8711SOL    HW227033   1.274   1.226   2.275
 8712SOL     OW27034   2.417   2.411   5.340
 8712SOL    HW127035   2.459   2.343   5.401
 8712SOL    HW227036   2.481   2.486   5.326
 8713SOL     OW27037   1.129   4.383   1.953
 8713SOL    HW127038   1.165   4.338   2.034
 8713SOL    HW227039   1.049   4.332   1.919
 8714SOL     OW27040   0.290   6.171   6.761
 8714SOL    HW127041   0.360   6.217   6.815
 8714SOL    HW227042   0.211   6.150   6.818
 8715SOL     OW27043   2.602   1.851   0.182
 8715SOL    HW127044   2.633   1.756   0.174
 8715SOL    HW227045   2.576   1.885   0.091
 8716SOL     OW27046   0.068   6.383   1.348
 8716SOL    HW127047   6.999   6.424   1.322
 8716SOL    HW227048   0.062   6.283   1.338
 8717SOL     OW27049   2.272   3.857   0.125
 8717SOL    HW127050   2.193   3.881   0.069
 8717SOL    HW227051   2.243   3.830   0.216
 8718SOL     OW27052   1.705   3.489   6.532
 8718SOL    HW127053   1.628   3.454   6.479
 8718SOL    HW227054   1.704   3.589   6.529
 8719SOL     OW27055   3.501   1.131   6.200
 8719SOL    HW127056   3.483   1.218   6.154
 8719SOL    HW227057   3.418   1.100   6.246
 8720SOL     OW27058   6.026   4.384   5.141
 8720SOL    HW127059   6.038   4.449   5.216
 8720SOL    HW227060   5.952   4.321   5.163
 8721SOL     OW27061   0.173   6.242   6.473
 8721SOL    HW127062   0.190   6.173   6.543
 8721SOL    HW227063   0.199   6.332   6.507
 8722SOL     OW27064   3.595   0.588   0.978
 8722SOL    HW127065   3.580   0.503   0.928
 8722SOL    HW227066   3.565   0.665   0.923
 8723SOL     OW27067   5.184   0.123   2.075
 8723SOL    HW127068   5.093   0.159   2.098
 8723SOL    HW227069   5.253   0.165   2.135
 8724SOL     OW27070   4.232   0.393   4.281
 8724SOL    HW127071   4.186   0.431   4.361
 8724SOL    HW227072   4.255   0.467   4.217
 8725SOL     OW27073   0.506   6.459   4.351
 8725SOL    HW127074   0.599   6.421   4.356
 8725SOL    HW227075   0.502   6.544   4.403
 8726SOL     OW27076   0.335   1.036   0.443
 8726SOL    HW127077   0.270   0.998   0.509
 8726SOL    HW227078   0.301   1.123   0.408
 8727SOL     OW27079   5.660   6.081   6.434
 8727SOL    HW127080   5.738   6.101   6.493
 8727SOL    HW227081   5.598   6.017   6.480
 8728SOL     OW27082   5.452   0.989   3.233
 8728SOL    HW127083   5.464   1.057   3.306
 8728SOL    HW227084   5.376   0.929   3.255
 8729SOL     OW27085   3.756   4.796   5.857
 8729SOL    HW127086   3.828   4.860   5.831
 8729SOL    HW227087   3.766   4.772   5.953
 8730SOL     OW27088   5.449   4.554   2.973
 8730SOL    HW127089   5.448   4.456   2.954
 8730SOL    HW227090   5.358   4.592   2.957
 8731SOL     OW27091   0.251   1.995   3.325
 8731SOL    HW127092   0.159   2.033   3.319
 8731SOL    HW227093   0.301   2.038   3.400
 8732SOL     OW27094   5.210   5.357   0.922
 8732SOL    HW127095   5.178   5.337   1.015
 8732SOL    HW227096   5.294   5.411   0.927
 8733SOL     OW27097   0.747   5.006   0.830
 8733SOL    HW127098   0.699   5.047   0.753
 8733SOL    HW227099   0.680   4.981   0.901
 8734SOL     OW27100   6.861   3.869   2.167
 8734SOL    HW127101   6.793   3.807   2.127
 8734SOL    HW227102   6.827   3.963   2.164
 8735SOL     OW27103   2.034   3.842   5.415
 8735SOL    HW127104   2.033   3.782   5.495
 8735SOL    HW227105   2.076   3.929   5.439
 8736SOL     OW27106   0.543   5.340   1.749
 8736SOL    HW127107   0.483   5.278   1.800
 8736SOL    HW227108   0.632   5.345   1.794
 8737SOL     OW27109   1.307   5.569   6.564
 8737SOL    HW127110   1.256   5.496   6.518
 8737SOL    HW227111   1.253   5.603   6.641
 8738SOL     OW27112   0.967   3.625   3.753
 8738SOL    HW127113   0.976   3.591   3.659
 8738SOL    HW227114   1.013   3.563   3.816
 8739SOL     OW27115   5.261   3.678   5.182
 8739SOL    HW127116   5.308   3.732   5.252
 8739SOL    HW227117   5.317   3.676   5.099
 8740SOL     OW27118   3.460   1.569   3.179
 8740SOL    HW127119   3.444   1.626   3.259
 8740SOL    HW227120   3.451   1.624   3.096
 8741SOL     OW27121   1.653   0.210   2.656
 8741SOL    HW127122   1.702   0.134   2.613
 8741SOL    HW227123   1.604   0.262   2.586
 8742SOL     OW27124   3.544   0.998   2.783
 8742SOL    HW127125   3.600   1.000   2.700
 8742SOL    HW227126   3.484   1.078   2.784
 8743SOL     OW27127   1.302   1.022   1.684
 8743SOL    HW127128   1.270   1.083   1.756
 8743SOL    HW227129   1.347   0.943   1.725
 8744SOL     OW27130   4.038   3.271   6.667
 8744SOL    HW127131   3.974   3.198   6.643
 8744SOL    HW227132   4.132   3.238   6.654
 8745SOL     OW27133   6.593   1.738   6.479
 8745SOL    HW127134   6.501   1.731   6.439
 8745SOL    HW227135   6.594   1.814   6.544
 8746SOL     OW27136   5.259   5.538   4.074
 8746SOL    HW127137   5.224   5.528   3.981
 8746SOL    HW227138   5.322   5.464   4.095
 8747SOL     OW27139   6.311   0.978   2.321
 8747SOL    HW127140   6.401   0.952   2.355
 8747SOL    HW227141   6.245   0.977   2.396
 8748SOL     OW27142   0.689   1.632   4.438
 8748SOL    HW127143   0.601   1.646   4.483
 8748SOL    HW227144   0.760   1.619   4.507
 8749SOL     OW27145   2.490   1.152   5.903
 8749SOL    HW127146   2.431   1.215   5.852
 8749SOL    HW227147   2.444   1.064   5.912
 8750SOL     OW27148   3.987   2.600   6.220
 8750SOL    HW127149   3.990   2.575   6.317
 8750SOL    HW227150   4.018   2.694   6.209
 8751SOL     OW27151   6.943   6.740   1.554
 8751SOL    HW127152   6.881   6.818   1.541
 8751SOL    HW227153   6.891   6.661   1.586
 8752SOL     OW27154   4.702   2.894   0.423
 8752SOL    HW127155   4.753   2.947   0.491
 8752SOL    HW227156   4.728   2.798   0.430
 8753SOL     OW27157   1.556   3.159   0.306
 8753SOL    HW127158   1.464   3.191   0.325
 8753SOL    HW227159   1.555   3.098   0.226
 8754SOL     OW27160   2.575   4.656   6.218
 8754SOL    HW127161   2.594   4.643   6.120
 8754SOL    HW227162   2.519   4.579   6.251
 8755SOL     OW27163   0.577   1.743   1.772
 8755SOL    HW127164   0.572   1.686   1.690
 8755SOL    HW227165   0.634   1.823   1.753
 8756SOL     OW27166   2.441   2.651   3.958
 8756SOL    HW127167   2.448   2.729   4.021
 8756SOL    HW227168   2.501   2.578   3.991
 8757SOL     OW27169   5.355   6.217   4.986
 8757SOL    HW127170   5.349   6.173   5.075
 8757SOL    HW227171   5.303   6.164   4.919
 8758SOL     OW27172   3.158   6.629   3.585
 8758SOL    HW127173   3.255   6.629   3.559
 8758SOL    HW227174   3.143   6.561   3.656
 8759SOL     OW27175   6.436   0.716   6.751
 8759SOL    HW127176   6.477   0.801   6.718
 8759SOL    HW227177   6.493   0.638   6.724
 8760SOL     OW27178   2.070   1.631   3.496
 8760SOL    HW127179   2.095   1.708   3.438
 8760SOL    HW227180   2.152   1.582   3.524
 8761SOL     OW27181   4.987   1.324   1.920
 8761SOL    HW127182   5.027   1.415   1.933
 8761SOL    HW227183   4.893   1.323   1.955
 8762SOL     OW27184   1.847   5.154   3.939
 8762SOL    HW127185   1.891   5.076   3.893
 8762SOL    HW227186   1.847   5.233   3.878
 8763SOL     OW27187   6.858   0.863   5.369
 8763SOL    HW127188   6.956   0.840   5.373
 8763SOL    HW227189   6.845   0.944   5.312
 8764SOL     OW27190   4.234   5.149   5.882
 8764SOL    HW127191   4.157   5.196   5.840
 8764SOL    HW227192   4.244   5.058   5.843
 8765SOL     OW27193   5.118   0.491   5.310
 8765SOL    HW127194   5.126   0.574   5.366
 8765SOL    HW227195   5.198   0.483   5.251
 8766SOL     OW27196   4.959   3.997   6.274
 8766SOL    HW127197   4.933   3.999   6.177
 8766SOL    HW227198   4.971   4.090   6.307
 8767SOL     OW27199   2.958   0.302   3.795
 8767SOL    HW127200   3.007   0.233   3.848
 8767SOL    HW227201   3.011   0.386   3.793
 8768SOL     OW27202   6.634   2.879   0.169
 8768SOL    HW127203   6.700   2.954   0.164
 8768SOL    HW227204   6.660   2.816   0.242
 8769SOL     OW27205   6.389   1.165   1.819
 8769SOL    HW127206   6.314   1.206   1.871
 8769SOL    HW227207   6.398   1.069   1.845
 8770SOL     OW27208   5.443   3.498   2.213
 8770SOL    HW127209   5.472   3.403   2.221
 8770SOL    HW227210   5.375   3.506   2.140
 8771SOL     OW27211   0.784   3.586   6.552
 8771SOL    HW127212   0.755   3.565   6.459
 8771SOL    HW227213   0.848   3.516   6.583
 8772SOL     OW27214   5.639   0.312   5.148
 8772SOL    HW127215   5.676   0.401   5.123
 8772SOL    HW227216   5.630   0.256   5.066
 8773SOL     OW27217   6.931   1.763   3.944
 8773SOL    HW127218   6.999   1.780   3.873
 8773SOL    HW227219   6.953   1.678   3.991
 8774SOL     OW27220   1.135   6.819   6.927
 8774SOL    HW127221   1.057   6.796   6.986
 8774SOL    HW227222   1.125   6.772   6.839
 8775SOL     OW27223   5.320   2.217   4.296
 8775SOL    HW127224   5.229   2.175   4.298
 8775SOL    HW227225   5.376   2.172   4.227
 8776SOL     OW27226   4.784   2.462   0.983
 8776SOL    HW127227   4.777   2.499   1.076
 8776SOL    HW227228   4.694   2.464   0.940
 8777SOL     OW27229   0.968   3.122   3.062
 8777SOL    HW127230   1.021   3.068   3.128
 8777SOL    HW227231   1.031   3.164   2.996
 8778SOL     OW27232   4.450   4.485   5.713
 8778SOL    HW127233   4.461   4.386   5.699
 8778SOL    HW227234   4.366   4.502   5.764
 8779SOL     OW27235   3.460   4.946   2.672
 8779SOL    HW127236   3.472   5.017   2.602
 8779SOL    HW227237   3.362   4.935   2.692
 8780SOL     OW27238   0.330   5.690   2.205
 8780SOL    HW127239   0.249   5.653   2.160
 8780SOL    HW227240   0.381   5.747   2.141
 8781SOL     OW27241   4.182   0.172   2.374
 8781SOL    HW127242   4.100   0.123   2.346
 8781SOL    HW227243   4.209   0.143   2.466
 8782SOL     OW27244   4.883   0.717   1.380
 8782SOL    HW127245   4.831   0.729   1.465
 8782SOL    HW227246   4.951   0.790   1.373
 8783SOL     OW27247   5.026   3.380   4.353
 8783SOL    HW127248   4.992   3.403   4.444
 8783SOL    HW227249   5.040   3.464   4.300
 8784SOL     OW27250   5.854   6.546   0.564
 8784SOL    HW127251   5.756   6.532   0.579
 8784SOL    HW227252   5.899   6.457   0.552
 8785SOL     OW27253   6.859   5.964   6.480
 8785SOL    HW127254   6.772   5.923   6.451
 8785SOL    HW227255   6.841   6.034   6.550
 8786SOL     OW27256   4.210   2.283   1.920
 8786SOL    HW127257   4.115   2.253   1.917
 8786SOL    HW227258   4.214   2.382   1.924
 8787SOL     OW27259   3.459   0.518   1.454
 8787SOL    HW127260   3.465   0.418   1.451
 8787SOL    HW227261   3.431   0.547   1.545
 8788SOL     OW27262   0.219   0.199   4.715
 8788SOL    HW127263   0.147   0.163   4.655
 8788SOL    HW227264   0.188   0.286   4.755
 8789SOL     OW27265   0.253   4.068   5.144
 8789SOL    HW127266   0.309   4.145   5.113
 8789SOL    HW227267   0.161   4.101   5.166
 8790SOL     OW27268   5.795   2.620   6.993
 8790SOL    HW127269   5.778   2.610   0.073
 8790SOL    HW227270   5.874   2.564   6.967
 8791SOL     OW27271   4.583   6.085   5.260
 8791SOL    HW127272   4.511   6.101   5.328
 8791SOL    HW227273   4.563   6.136   5.177
 8792SOL     OW27274   4.213   4.947   1.382
 8792SOL    HW127275   4.286   4.912   1.442
 8792SOL    HW227276   4.190   4.878   1.314
 8793SOL     OW27277   0.869   5.600   3.870
 8793SOL    HW127278   0.940   5.553   3.923
 8793SOL    HW227279   0.903   5.690   3.842
 8794SOL     OW27280   7.018   0.900   2.154
 8794SOL    HW127281   6.940   0.879   2.213
 8794SOL    HW227282   7.004   0.989   2.110
 8795SOL     OW27283   1.419   5.186   5.178
 8795SOL    HW127284   1.479   5.144   5.247
 8795SOL    HW227285   1.327   5.147   5.186
 8796SOL     OW27286   6.740   3.211   3.452
 8796SOL    HW127287   6.786   3.290   3.410
 8796SOL    HW227288   6.748   3.216   3.551
 8797SOL     OW27289   6.482   0.133   3.209
 8797SOL    HW127290   6.571   0.130   3.164
 8797SOL    HW227291   6.491   0.099   3.303
 8798SOL     OW27292   4.527   6.784   4.950
 8798SOL    HW127293   4.550   6.753   5.043
 8798SOL    HW227294   4.463   6.719   4.909
 8799SOL     OW27295   2.428   5.157   2.059
 8799SOL    HW127296   2.492   5.105   2.116
 8799SOL    HW227297   2.386   5.096   1.992
 8800SOL     OW27298   6.934   5.806   5.392
 8800SOL    HW127299   6.964   5.868   5.319
 8800SOL    HW227300   6.891   5.725   5.352
 8801SOL     OW27301   6.159   2.100   4.936
 8801SOL    HW127302   6.227   2.103   5.009
 8801SOL    HW227303   6.204   2.078   4.850
 8802SOL     OW27304   1.086   5.689   5.990
 8802SOL    HW127305   1.076   5.761   6.058
 8802SOL    HW227306   1.099   5.730   5.900
 8803SOL     OW27307   6.165   0.655   6.837
 8803SOL    HW127308   6.243   0.690   6.785
 8803SOL    HW227309   6.089   0.720   6.829
 8804SOL     OW27310   1.905   5.868   1.229
 8804SOL    HW127311   1.822   5.906   1.189
 8804SOL    HW227312   1.959   5.942   1.269
 8805SOL     OW27313   4.475   5.673   2.593
 8805SOL    HW127314   4.450   5.648   2.499
 8805SOL    HW227315   4.455   5.770   2.607
 8806SOL     OW27316   2.306   6.051   0.342
 8806SOL    HW127317   2.316   6.060   0.441
 8806SOL    HW227318   2.386   6.090   0.297
 8807SOL     OW27319   4.972   2.156   1.089
 8807SOL    HW127320   4.936   2.204   1.009
 8807SOL    HW227321   5.072   2.151   1.083
 8808SOL     OW27322   2.003   2.383   0.268
 8808SOL    HW127323   2.059   2.371   0.350
 8808SOL    HW227324   1.961   2.474   0.270
 8809SOL     OW27325   2.098   3.981   3.723
 8809SOL    HW127326   2.013   3.928   3.722
 8809SOL    HW227327   2.139   3.976   3.815
 8810SOL     OW27328   6.958   1.648   6.056
 8810SOL    HW127329   6.858   1.651   6.060
 8810SOL    HW227330   6.992   1.594   6.133
 8811SOL     OW27331   4.241   0.010   2.593
 8811SOL    HW127332   4.230   0.062   2.678
 8811SOL    HW227333   4.156   6.981   2.572
 8812SOL     OW27334   3.240   1.161   6.323
 8812SOL    HW127335   3.191   1.095   6.379
 8812SOL    HW227336   3.177   1.204   6.259
 8813SOL     OW27337   2.159   4.445   3.087
 8813SOL    HW127338   2.108   4.398   3.160
 8813SOL    HW227339   2.243   4.394   3.068
 8814SOL     OW27340   6.031   6.825   0.148
 8814SOL    HW127341   6.008   6.781   0.061
 8814SOL    HW227342   6.006   6.921   0.144
 8815SOL     OW27343   5.341   1.089   0.715
 8815SOL    HW127344   5.287   1.072   0.797
 8815SOL    HW227345   5.313   1.025   0.644
 8816SOL     OW27346   0.337   6.469   5.793
 8816SOL    HW127347   0.340   6.405   5.870
 8816SOL    HW227348   0.245   6.472   5.756
 8817SOL     OW27349   1.249   3.541   4.886
 8817SOL    HW127350   1.159   3.548   4.842
 8817SOL    HW227351   1.315   3.596   4.835
 8818SOL     OW27352   2.241   6.668   4.161
 8818SOL    HW127353   2.144   6.691   4.159
 8818SOL    HW227354   2.295   6.750   4.180
 8819SOL     OW27355   5.228   4.093   6.085
 8819SOL    HW127356   5.151   4.054   6.036
 8819SOL    HW227357   5.251   4.182   6.045
 8820SOL     OW27358   3.514   1.088   4.689
 8820SOL    HW127359   3.598   1.102   4.742
 8820SOL    HW227360   3.509   0.992   4.659
 8821SOL     OW27361   1.653   5.187   0.901
 8821SOL    HW127362   1.574   5.154   0.849
 8821SOL    HW227363   1.654   5.287   0.898
 8822SOL     OW27364   6.363   6.678   4.121
 8822SOL    HW127365   6.273   6.642   4.099
 8822SOL    HW227366   6.433   6.621   4.077
 8823SOL     OW27367   3.089   1.415   3.384
 8823SOL    HW127368   3.076   1.330   3.435
 8823SOL    HW227369   3.167   1.465   3.422
 8824SOL     OW27370   1.571   0.399   0.647
 8824SOL    HW127371   1.557   0.480   0.704
 8824SOL    HW227372   1.492   0.337   0.657
 8825SOL     OW27373   0.324   0.315   0.551
 8825SOL    HW127374   0.267   0.376   0.496
 8825SOL    HW227375   0.311   0.335   0.648
 8826SOL     OW27376   1.093   3.421   0.786
 8826SOL    HW127377   1.082   3.490   0.714
 8826SOL    HW227378   1.164   3.451   0.850
 8827SOL     OW27379   3.911   0.312   2.642
 8827SOL    HW127380   3.949   0.331   2.551
 8827SOL    HW227381   3.918   0.394   2.699
 8828SOL     OW27382   4.367   3.599   5.988
 8828SOL    HW127383   4.439   3.631   5.927
 8828SOL    HW227384   4.401   3.523   6.043
 8829SOL     OW27385   0.312   1.813   2.115
 8829SOL    HW127386   0.266   1.753   2.180
 8829SOL    HW227387   0.256   1.894   2.099
 8830SOL     OW27388   2.704   2.105   3.033
 8830SOL    HW127389   2.739   2.187   2.988
 8830SOL    HW227390   2.671   2.127   3.124
 8831SOL     OW27391   0.712   2.005   2.296
 8831SOL    HW127392   0.673   1.927   2.247
 8831SOL    HW227393   0.789   2.042   2.243
 8832SOL     OW27394   6.403   0.109   3.903
 8832SOL    HW127395   6.429   0.060   3.819
 8832SOL    HW227396   6.368   0.044   3.970
 8833SOL     OW27397   3.744   2.321   1.271
 8833SOL    HW127398   3.684   2.263   1.325
 8833SOL    HW227399   3.824   2.269   1.241
 8834SOL     OW27400   5.700   3.810   5.636
 8834SOL    HW127401   5.621   3.759   5.603
 8834SOL    HW227402   5.769   3.746   5.671
 8835SOL     OW27403   6.047   0.597   5.660
 8835SOL    HW127404   5.973   0.536   5.633
 8835SOL    HW227405   6.019   0.692   5.646
 8836SOL     OW27406   5.212   2.635   6.658
 8836SOL    HW127407   5.228   2.724   6.615
 8836SOL    HW227408   5.135   2.642   6.721
 8837SOL     OW27409   6.464   6.808   2.076
 8837SOL    HW127410   6.393   6.848   2.019
 8837SOL    HW227411   6.498   6.725   2.033
 8838SOL     OW27412   0.386   4.107   2.570
 8838SOL    HW127413   0.372   4.133   2.665
 8838SOL    HW227414   0.409   4.188   2.516
 8839SOL     OW27415   5.390   5.687   2.535
 8839SOL    HW127416   5.468   5.638   2.573
 8839SOL    HW227417   5.415   5.725   2.446
 8840SOL     OW27418   0.244   0.734   1.343
 8840SOL    HW127419   0.251   0.741   1.442
 8840SOL    HW227420   0.149   0.717   1.317
 8841SOL     OW27421   3.623   0.894   1.966
 8841SOL    HW127422   3.633   0.801   1.932
 8841SOL    HW227423   3.671   0.957   1.905
 8842SOL     OW27424   3.267   3.818   3.762
 8842SOL    HW127425   3.247   3.912   3.735
 8842SOL    HW227426   3.349   3.816   3.819
 8843SOL     OW27427   1.906   3.622   5.636
 8843SOL    HW127428   1.881   3.607   5.732
 8843SOL    HW227429   2.003   3.599   5.623
 8844SOL     OW27430   5.615   2.359   5.522
 8844SOL    HW127431   5.632   2.323   5.430
 8844SOL    HW227432   5.613   2.459   5.519
 8845SOL     OW27433   1.908   5.366   1.436
 8845SOL    HW127434   1.940   5.411   1.353
 8845SOL    HW227435   1.849   5.289   1.412
 8846SOL     OW27436   5.120   4.215   3.794
 8846SOL    HW127437   5.101   4.117   3.784
 8846SOL    HW227438   5.116   4.240   3.891
 8847SOL     OW27439   2.296   2.321   3.013
 8847SOL    HW127440   2.384   2.366   2.998
 8847SOL    HW227441   2.298   2.229   2.974
 8848SOL     OW27442   3.007   1.710   1.285
 8848SOL    HW127443   2.998   1.809   1.297
 8848SOL    HW227444   2.923   1.674   1.244
 8849SOL     OW27445   3.682   5.879   4.534
 8849SOL    HW127446   3.669   5.810   4.463
 8849SOL    HW227447   3.620   5.861   4.610
 8850SOL     OW27448   2.636   1.667   0.776
 8850SOL    HW127449   2.599   1.698   0.688
 8850SOL    HW227450   2.697   1.590   0.762
 8851SOL     OW27451   1.598   4.332   3.178
 8851SOL    HW127452   1.696   4.310   3.171
 8851SOL    HW227453   1.558   4.336   3.086
 8852SOL     OW27454   5.535   3.086   6.283
 8852SOL    HW127455   5.443   3.093   6.244
 8852SOL    HW227456   5.603   3.104   6.211
 8853SOL     OW27457   4.164   1.917   5.220
 8853SOL    HW127458   4.208   1.876   5.140
 8853SOL    HW227459   4.108   1.848   5.266
 8854SOL     OW27460   1.065   1.248   6.194
 8854SOL    HW127461   1.101   1.325   6.141
 8854SOL    HW227462   1.137   1.180   6.207
 8855SOL     OW27463   6.205   5.851   6.728
 8855SOL    HW127464   6.293   5.840   6.682
 8855SOL    HW227465   6.140   5.783   6.693
 8856SOL     OW27466   6.359   0.609   4.946
 8856SOL    HW127467   6.290   0.679   4.965
 8856SOL    HW227468   6.375   0.555   5.029
 8857SOL     OW27469   6.689   1.970   3.219
 8857SOL    HW127470   6.627   2.031   3.169
 8857SOL    HW227471   6.702   1.886   3.167
 8858SOL     OW27472   0.685   3.975   5.539
 8858SOL    HW127473   0.601   3.979   5.486
 8858SOL    HW227474   0.679   3.900   5.606
 8859SOL     OW27475   1.186   6.616   5.202
 8859SOL    HW127476   1.109   6.647   5.257
 8859SOL    HW227477   1.218   6.690   5.144
 8860SOL     OW27478   1.316   2.773   2.953
 8860SOL    HW127479   1.278   2.732   3.036
 8860SOL    HW227480   1.415   2.764   2.954
 8861SOL     OW27481   3.592   2.814   0.032
 8861SOL    HW127482   3.513   2.858   0.076
 8861SOL    HW227483   3.676   2.853   0.070
 8862SOL     OW27484   6.043   1.853   5.046
 8862SOL    HW127485   6.101   1.794   5.101
 8862SOL    HW227486   6.101   1.917   4.994
 8863SOL     OW27487   1.789   5.876   4.836
 8863SOL    HW127488   1.833   5.807   4.893
 8863SOL    HW227489   1.854   5.950   4.818
 8864SOL     OW27490   2.193   3.411   6.551
 8864SOL    HW127491   2.123   3.418   6.481
 8864SOL    HW227492   2.210   3.502   6.590
 8865SOL     OW27493   2.741   1.790   5.168
 8865SOL    HW127494   2.730   1.882   5.131
 8865SOL    HW227495   2.823   1.748   5.129
 8866SOL     OW27496   3.919   6.740   3.283
 8866SOL    HW127497   3.867   6.794   3.350
 8866SOL    HW227498   4.002   6.789   3.258
 8867SOL     OW27499   5.746   2.004   2.763
 8867SOL    HW127500   5.686   2.016   2.684
 8867SOL    HW227501   5.822   1.944   2.738
 8868SOL     OW27502   4.686   3.668   0.681
 8868SOL    HW127503   4.703   3.725   0.601
 8868SOL    HW227504   4.608   3.705   0.733
 8869SOL     OW27505   4.862   4.048   3.612
 8869SOL    HW127506   4.881   4.056   3.710
 8869SOL    HW227507   4.907   4.123   3.564
 8870SOL     OW27508   3.579   1.158   0.842
 8870SOL    HW127509   3.500   1.099   0.863
 8870SOL    HW227510   3.547   1.250   0.820
 8871SOL     OW27511   1.505   1.143   3.703
 8871SOL    HW127512   1.579   1.140   3.769
 8871SOL    HW227513   1.464   1.052   3.693
 8872SOL     OW27514   2.114   4.386   3.602
 8872SOL    HW127515   2.159   4.462   3.649
 8872SOL    HW227516   2.053   4.339   3.666
 8873SOL     OW27517   0.580   6.071   3.497
 8873SOL    HW127518   0.601   6.027   3.585
 8873SOL    HW227519   0.583   6.003   3.424
 8874SOL     OW27520   2.037   0.121   1.371
 8874SOL    HW127521   1.961   0.144   1.311
 8874SOL    HW227522   2.076   0.033   1.343
 8875SOL     OW27523   1.461   2.753   4.477
 8875SOL    HW127524   1.533   2.768   4.409
 8875SOL    HW227525   1.500   2.708   4.557
 8876SOL     OW27526   0.083   1.400   4.929
 8876SOL    HW127527   7.015   1.445   4.950
 8876SOL    HW227528   0.111   1.343   5.006
 8877SOL     OW27529   2.936   0.695   4.113
 8877SOL    HW127530   2.864   0.633   4.144
 8877SOL    HW227531   2.926   0.783   4.160
 8878SOL     OW27532   0.368   4.513   0.920
 8878SOL    HW127533   0.292   4.449   0.910
 8878SOL    HW227534   0.342   4.587   0.981
 8879SOL     OW27535   5.217   5.621   0.389
 8879SOL    HW127536   5.249   5.530   0.362
 8879SOL    HW227537   5.227   5.633   0.487
 8880SOL     OW27538   6.982   5.448   4.661
 8880SOL    HW127539   0.043   5.425   4.717
 8880SOL    HW227540   6.931   5.364   4.640
 8881SOL     OW27541   6.634   1.126   2.760
 8881SOL    HW127542   6.690   1.199   2.720
 8881SOL    HW227543   6.608   1.151   2.853
 8882SOL     OW27544   5.657   1.385   0.007
 8882SOL    HW127545   5.578   1.396   6.966
 8882SOL    HW227546   5.628   1.357   0.098
 8883SOL     OW27547   0.160   1.005   6.204
 8883SOL    HW127548   0.101   0.965   6.134
 8883SOL    HW227549   0.223   0.936   6.238
 8884SOL     OW27550   5.733   6.773   6.424
 8884SOL    HW127551   5.780   6.734   6.344
 8884SOL    HW227552   5.638   6.741   6.425
 8885SOL     OW27553   6.057   4.048   1.612
 8885SOL    HW127554   6.062   4.065   1.514
 8885SOL    HW227555   6.142   4.077   1.655
 8886SOL     OW27556   2.796   6.423   5.737
 8886SOL    HW127557   2.802   6.523   5.743
 8886SOL    HW227558   2.879   6.387   5.692
 8887SOL     OW27559   2.585   1.242   1.286
 8887SOL    HW127560   2.526   1.161   1.286
 8887SOL    HW227561   2.573   1.293   1.201
 8888SOL     OW27562   1.005   1.616   1.155
 8888SOL    HW127563   1.052   1.552   1.216
 8888SOL    HW227564   1.064   1.639   1.078
 8889SOL     OW27565   5.111   6.937   4.645
 8889SOL    HW127566   5.202   6.974   4.664
 8889SOL    HW227567   5.120   6.845   4.609
 8890SOL     OW27568   6.521   5.635   4.221
 8890SOL    HW127569   6.617   5.653   4.196
 8890SOL    HW227570   6.518   5.576   4.302
 8891SOL     OW27571   5.802   3.205   6.370
 8891SOL    HW127572   5.812   3.161   6.281
 8891SOL    HW227573   5.714   3.180   6.410
 8892SOL     OW27574   2.473   6.820   3.218
 8892SOL    HW127575   2.473   6.720   3.205
 8892SOL    HW227576   2.436   6.842   3.308
 8893SOL     OW27577   7.013   1.276   1.595
 8893SOL    HW127578   6.955   1.335   1.538
 8893SOL    HW227579   6.972   1.266   1.685
 8894SOL     OW27580   3.870   2.717   5.938
 8894SOL    HW127581   3.917   2.640   5.981
 8894SOL    HW227582   3.806   2.758   6.003
 8895SOL     OW27583   0.193   6.774   1.555
 8895SOL    HW127584   0.226   6.701   1.614
 8895SOL    HW227585   0.094   6.767   1.545
 8896SOL     OW27586   1.698   3.652   5.181
 8896SOL    HW127587   1.600   3.665   5.172
 8896SOL    HW227588   1.729   3.582   5.116
 8897SOL     OW27589   1.569   1.658   2.026
 8897SOL    HW127590   1.492   1.674   2.087
 8897SOL    HW227591   1.566   1.565   1.990
 8898SOL     OW27592   6.292   3.483   4.826
 8898SOL    HW127593   6.262   3.476   4.921
 8898SOL    HW227594   6.212   3.478   4.766
 8899SOL     OW27595   1.801   4.064   6.991
 8899SOL    HW127596   1.713   4.019   6.974
 8899SOL    HW227597   1.842   4.091   6.904
 8900SOL     OW27598   5.067   2.907   3.362
 8900SOL    HW127599   4.974   2.884   3.335
 8900SOL    HW227600   5.123   2.923   3.281
 8901SOL     OW27601   1.691   0.610   2.739
 8901SOL    HW127602   1.779   0.649   2.767
 8901SOL    HW227603   1.618   0.654   2.790
 8902SOL     OW27604   2.039   5.837   6.493
 8902SOL    HW127605   2.026   5.935   6.476
 8902SOL    HW227606   2.030   5.786   6.408
 8903SOL     OW27607   2.277   1.796   3.677
 8903SOL    HW127608   2.183   1.771   3.655
 8903SOL    HW227609   2.297   1.772   3.772
 8904SOL     OW27610   0.058   5.585   3.456
 8904SOL    HW127611   7.010   5.658   3.466
 8904SOL    HW227612   0.031   5.507   3.513
 8905SOL     OW27613   2.253   3.115   5.310
 8905SOL    HW127614   2.251   3.215   5.318
 8905SOL    HW227615   2.343   3.085   5.279
 8906SOL     OW27616   6.461   6.325   6.391
 8906SOL    HW127617   6.380   6.347   6.444
 8906SOL    HW227618   6.434   6.302   6.297
 8907SOL     OW27619   3.181   2.607   5.376
 8907SOL    HW127620   3.154   2.530   5.319
 8907SOL    HW227621   3.108   2.676   5.376
 8908SOL     OW27622   1.558   1.989   0.757
 8908SOL    HW127623   1.596   1.981   0.664
 8908SOL    HW227624   1.626   1.957   0.823
 8909SOL     OW27625   3.086   0.177   5.701
 8909SOL    HW127626   3.175   0.214   5.675
 8909SOL    HW227627   3.027   0.251   5.732
 8910SOL     OW27628   2.998   3.134   6.190
 8910SOL    HW127629   2.952   3.175   6.111
 8910SOL    HW227630   3.023   3.039   6.169
 8911SOL     OW27631   3.112   2.133   4.464
 8911SOL    HW127632   3.072   2.148   4.554
 8911SOL    HW227633   3.064   2.188   4.396
 8912SOL     OW27634   4.663   1.659   6.397
 8912SOL    HW127635   4.687   1.681   6.302
 8912SOL    HW227636   4.725   1.588   6.431
 8913SOL     OW27637   5.037   4.217   1.821
 8913SOL    HW127638   4.990   4.299   1.851
 8913SOL    HW227639   5.120   4.203   1.875
 8914SOL     OW27640   4.159   1.236   5.090
 8914SOL    HW127641   4.069   1.266   5.059
 8914SOL    HW227642   4.193   1.165   5.029
 8915SOL     OW27643   2.179   3.169   3.884
 8915SOL    HW127644   2.235   3.177   3.966
 8915SOL    HW227645   2.164   3.259   3.844
 8916SOL     OW27646   0.133   4.415   2.416
 8916SOL    HW127647   0.147   4.372   2.505
 8916SOL    HW227648   0.099   4.509   2.429
 8917SOL     OW27649   5.842   5.649   6.816
 8917SOL    HW127650   5.877   5.673   6.726
 8917SOL    HW227651   5.897   5.694   6.887
 8918SOL     OW27652   5.708   6.291   6.846
 8918SOL    HW127653   5.712   6.249   6.937
 8918SOL    HW227654   5.716   6.390   6.855
 8919SOL     OW27655   3.610   4.112   0.872
 8919SOL    HW127656   3.552   4.186   0.908
 8919SOL    HW227657   3.553   4.034   0.848
 8920SOL     OW27658   6.387   5.727   6.229
 8920SOL    HW127659   6.418   5.714   6.323
 8920SOL    HW227660   6.437   5.665   6.169
 8921SOL     OW27661   1.119   0.881   3.664
 8921SOL    HW127662   1.148   0.934   3.744
 8921SOL    HW227663   1.140   0.933   3.581
 8922SOL     OW27664   2.620   4.939   0.757
 8922SOL    HW127665   2.717   4.916   0.764
 8922SOL    HW227666   2.571   4.894   0.832
 8923SOL     OW27667   1.738   3.703   0.025
 8923SOL    HW127668   1.693   3.629   6.993
 8923SOL    HW227669   1.837   3.691   0.021
 8924SOL     OW27670   2.719   5.241   5.653
 8924SOL    HW127671   2.639   5.299   5.638
 8924SOL    HW227672   2.689   5.153   5.689
 8925SOL     OW27673   0.127   6.609   2.264
 8925SOL    HW127674   0.027   6.611   2.269
 8925SOL    HW227675   0.158   6.514   2.256
 8926SOL     OW27676   5.865   2.177   2.428
 8926SOL    HW127677   5.813   2.188   2.513
 8926SOL    HW227678   5.813   2.218   2.353
 8927SOL     OW27679   2.445   2.590   4.906
 8927SOL    HW127680   2.389   2.640   4.840
 8927SOL    HW227681   2.412   2.608   4.999
 8928SOL     OW27682   0.228   0.713   5.709
 8928SOL    HW127683   0.131   0.719   5.731
 8928SOL    HW227684   0.249   0.620   5.678
 8929SOL     OW27685   0.072   3.498   4.016
 8929SOL    HW127686   0.011   3.462   3.947
 8929SOL    HW227687   0.043   3.590   4.042
 8930SOL     OW27688   1.162   5.251   5.324
 8930SOL    HW127689   1.147   5.240   5.226
 8930SOL    HW227690   1.074   5.246   5.372
 8931SOL     OW27691   5.109   2.158   1.349
 8931SOL    HW127692   5.023   2.172   1.300
 8931SOL    HW227693   5.184   2.150   1.282
 8932SOL     OW27694   5.858   7.017   6.414
 8932SOL    HW127695   5.904   7.018   6.504
 8932SOL    HW227696   5.788   6.947   6.413
 8933SOL     OW27697   1.225   1.153   5.101
 8933SOL    HW127698   1.152   1.181   5.038
 8933SOL    HW227699   1.247   1.057   5.086
 8934SOL     OW27700   3.497   5.397   3.333
 8934SOL    HW127701   3.505   5.362   3.240
 8934SOL    HW227702   3.413   5.362   3.375
 8935SOL     OW27703   4.842   3.006   2.540
 8935SOL    HW127704   4.842   3.106   2.549
 8935SOL    HW227705   4.845   2.965   2.632
 8936SOL     OW27706   0.136   4.290   1.180
 8936SOL    HW127707   0.135   4.224   1.254
 8936SOL    HW227708   0.077   4.368   1.203
 8937SOL     OW27709   0.428   0.038   3.676
 8937SOL    HW127710   0.369   0.076   3.747
 8937SOL    HW227711   0.465   6.968   3.706
 8938SOL     OW27712   5.896   0.806   0.679
 8938SOL    HW127713   5.899   0.723   0.623
 8938SOL    HW227714   5.958   0.874   0.640
 8939SOL     OW27715   0.021   2.593   4.637
 8939SOL    HW127716   6.940   2.590   4.649
 8939SOL    HW227717   0.063   2.623   4.723
 8940SOL     OW27718   6.710   3.546   0.843
 8940SOL    HW127719   6.784   3.612   0.850
 8940SOL    HW227720   6.652   3.568   0.765
 8941SOL     OW27721   4.875   2.522   2.055
 8941SOL    HW127722   4.923   2.443   2.092
 8941SOL    HW227723   4.806   2.553   2.120
 8942SOL     OW27724   0.096   5.204   3.813
 8942SOL    HW127725   0.184   5.192   3.768
 8942SOL    HW227726   0.041   5.121   3.800
 8943SOL     OW27727   4.359   3.520   0.267
 8943SOL    HW127728   4.314   3.439   0.229
 8943SOL    HW227729   4.440   3.493   0.318
 8944SOL     OW27730   4.713   5.403   4.344
 8944SOL    HW127731   4.700   5.355   4.257
 8944SOL    HW227732   4.797   5.457   4.340
 8945SOL     OW27733   6.023   3.704   5.051
 8945SOL    HW127734   6.061   3.611   5.050
 8945SOL    HW227735   6.096   3.770   5.030
 8946SOL     OW27736   4.766   1.158   4.296
 8946SOL    HW127737   4.696   1.089   4.279
 8946SOL    HW227738   4.821   1.131   4.375
 8947SOL     OW27739   1.166   4.688   6.647
 8947SOL    HW127740   1.122   4.606   6.683
 8947SOL    HW227741   1.228   4.664   6.573
 8948SOL     OW27742   6.057   6.899   3.923
 8948SOL    HW127743   5.993   6.823   3.927
 8948SOL    HW227744   6.105   6.899   3.835
 8949SOL     OW27745   3.444   6.177   0.128
 8949SOL    HW127746   3.470   6.108   0.194
 8949SOL    HW227747   3.461   6.268   0.166
 8950SOL     OW27748   4.567   4.306   1.358
 8950SOL    HW127749   4.543   4.331   1.452
 8950SOL    HW227750   4.657   4.263   1.357
 8951SOL     OW27751   2.234   1.226   4.070
 8951SOL    HW127752   2.137   1.250   4.082
 8951SOL    HW227753   2.253   1.142   4.120
 8952SOL     OW27754   2.379   4.817   3.526
 8952SOL    HW127755   2.464   4.870   3.528
 8952SOL    HW227756   2.331   4.835   3.440
 8953SOL     OW27757   2.701   5.241   2.431
 8953SOL    HW127758   2.754   5.248   2.347
 8953SOL    HW227759   2.759   5.206   2.504
 8954SOL     OW27760   1.280   6.007   4.596
 8954SOL    HW127761   1.297   5.997   4.694
 8954SOL    HW227762   1.189   5.972   4.575
 8955SOL     OW27763   5.656   3.105   3.395
 8955SOL    HW127764   5.603   3.190   3.396
 8955SOL    HW227765   5.719   3.106   3.318
 8956SOL     OW27766   0.650   6.697   5.483
 8956SOL    HW127767   0.627   6.790   5.511
 8956SOL    HW227768   0.741   6.697   5.442
 8957SOL     OW27769   1.525   5.494   2.596
 8957SOL    HW127770   1.605   5.554   2.609
 8957SOL    HW227771   1.504   5.486   2.499
 8958SOL     OW27772   1.673   3.240   5.643
 8958SOL    HW127773   1.702   3.261   5.550
 8958SOL    HW227774   1.590   3.291   5.665
 8959SOL     OW27775   0.841   3.585   1.996
 8959SOL    HW127776   0.804   3.571   2.088
 8959SOL    HW227777   0.800   3.667   1.956
 8960SOL     OW27778   6.225   3.919   4.107
 8960SOL    HW127779   6.251   3.937   4.012
 8960SOL    HW227780   6.266   3.833   4.137
 8961SOL     OW27781   3.186   6.410   4.889
 8961SOL    HW127782   3.196   6.320   4.931
 8961SOL    HW227783   3.119   6.463   4.941
 8962SOL     OW27784   0.982   5.670   1.279
 8962SOL    HW127785   1.025   5.633   1.196
 8962SOL    HW227786   0.888   5.697   1.259
 8963SOL     OW27787   3.719   6.149   4.499
 8963SOL    HW127788   3.752   6.178   4.589
 8963SOL    HW227789   3.690   6.053   4.504
 8964SOL     OW27790   6.323   3.747   3.523
 8964SOL    HW127791   6.234   3.703   3.523
 8964SOL    HW227792   6.356   3.757   3.617
 8965SOL     OW27793   4.367   4.815   0.295
 8965SOL    HW127794   4.377   4.740   0.229
 8965SOL    HW227795   4.335   4.897   0.246
 8966SOL     OW27796   4.923   5.642   6.314
 8966SOL    HW127797   4.871   5.582   6.252
 8966SOL    HW227798   4.910   5.737   6.286
 8967SOL     OW27799   3.290   0.846   2.819
 8967SOL    HW127800   3.331   0.937   2.830
 8967SOL    HW227801   3.318   0.787   2.895
 8968SOL     OW27802   3.341   5.004   1.750
 8968SOL    HW127803   3.318   5.062   1.672
 8968SOL    HW227804   3.400   5.055   1.813
 8969SOL     OW27805   6.694   0.608   3.046
 8969SOL    HW127806   6.733   0.562   3.125
 8969SOL    HW227807   6.715   0.706   3.050
 8970SOL     OW27808   1.146   1.635   6.364
 8970SOL    HW127809   1.096   1.686   6.434
 8970SOL    HW227810   1.081   1.595   6.300
 8971SOL     OW27811   4.180   5.856   0.607
 8971SOL    HW127812   4.147   5.798   0.682
 8971SOL    HW227813   4.186   5.951   0.638
 8972SOL     OW27814   5.866   5.163   0.503
 8972SOL    HW127815   5.889   5.067   0.519
 8972SOL    HW227816   5.950   5.215   0.485
 8973SOL     OW27817   0.761   2.608   2.028
 8973SOL    HW127818   0.690   2.588   1.961
 8973SOL    HW227819   0.840   2.548   2.011
 8974SOL     OW27820   2.290   4.219   4.396
 8974SOL    HW127821   2.251   4.273   4.322
 8974SOL    HW227822   2.374   4.262   4.429
 8975SOL     OW27823   0.588   0.361   6.451
 8975SOL    HW127824   0.635   0.275   6.472
 8975SOL    HW227825   0.638   0.437   6.492
 8976SOL     OW27826   6.785   0.298   1.781
 8976SOL    HW127827   6.714   0.347   1.731
 8976SOL    HW227828   6.875   0.321   1.742
 8977SOL     OW27829   6.828   5.050   6.282
 8977SOL    HW127830   6.911   4.995   6.269
 8977SOL    HW227831   6.747   4.992   6.274
 8978SOL     OW27832   5.941   5.979   5.843
 8978SOL    HW127833   6.034   5.959   5.812
 8978SOL    HW227834   5.921   5.925   5.924
 8979SOL     OW27835   0.276   5.835   6.217
 8979SOL    HW127836   0.289   5.766   6.288
 8979SOL    HW227837   0.270   5.790   6.128
 8980SOL     OW27838   3.910   1.327   5.079
 8980SOL    HW127839   3.824   1.355   5.122
 8980SOL    HW227840   3.956   1.408   5.041
 8981SOL     OW27841   4.487   2.355   6.766
 8981SOL    HW127842   4.417   2.284   6.769
 8981SOL    HW227843   4.452   2.439   6.807
 8982SOL     OW27844   6.594   1.063   1.581
 8982SOL    HW127845   6.677   1.075   1.636
 8982SOL    HW227846   6.531   1.139   1.598
 8983SOL     OW27847   1.010   5.643   3.190
 8983SOL    HW127848   1.027   5.707   3.114
 8983SOL    HW227849   1.021   5.692   3.277
 8984SOL     OW27850   5.885   0.431   4.361
 8984SOL    HW127851   5.872   0.484   4.278
 8984SOL    HW227852   5.976   0.390   4.361
 8985SOL     OW27853   5.196   1.899   0.703
 8985SOL    HW127854   5.096   1.898   0.695
 8985SOL    HW227855   5.226   1.984   0.745
 8986SOL     OW27856   6.018   4.455   1.852
 8986SOL    HW127857   5.961   4.534   1.876
 8986SOL    HW227858   5.985   4.414   1.767
 8987SOL     OW27859   2.445   6.882   1.271
 8987SOL    HW127860   2.372   6.848   1.331
 8987SOL    HW227861   2.501   6.805   1.240
 8988SOL     OW27862   2.178   5.153   1.239
 8988SOL    HW127863   2.251   5.085   1.227
 8988SOL    HW227864   2.197   5.233   1.182
 8989SOL     OW27865   5.207   2.140   2.405
 8989SOL    HW127866   5.230   2.098   2.317
 8989SOL    HW227867   5.116   2.180   2.400
 8990SOL     OW27868   3.382   6.737   1.643
 8990SOL    HW127869   3.420   6.806   1.581
 8990SOL    HW227870   3.381   6.648   1.597
 8991SOL     OW27871   2.112   2.165   0.469
 8991SOL    HW127872   2.116   2.067   0.450
 8991SOL    HW227873   2.182   2.189   0.536
 8992SOL     OW27874   0.933   3.351   0.133
 8992SOL    HW127875   0.903   3.292   0.058
 8992SOL    HW227876   1.009   3.408   0.101
 8993SOL     OW27877   5.732   2.558   3.356
 8993SOL    HW127878   5.716   2.520   3.266
 8993SOL    HW227879   5.818   2.523   3.393
 8994SOL     OW27880   1.409   5.288   3.999
 8994SOL    HW127881   1.421   5.334   3.912
 8994SOL    HW227882   1.443   5.346   4.073
 8995SOL     OW27883   1.823   3.282   5.213
 8995SOL    HW127884   1.789   3.348   5.280
 8995SOL    HW227885   1.922   3.289   5.206
 8996SOL     OW27886   0.403   3.982   2.218
 8996SOL    HW127887   0.355   3.937   2.293
 8996SOL    HW227888   0.337   4.020   2.154
 8997SOL     OW27889   4.613   1.292   5.335
 8997SOL    HW127890   4.576   1.209   5.378
 8997SOL    HW227891   4.675   1.267   5.261
 8998SOL     OW27892   1.421   2.681   5.572
 8998SOL    HW127893   1.494   2.666   5.639
 8998SOL    HW227894   1.387   2.775   5.580
 8999SOL     OW27895   5.328   1.734   5.781
 8999SOL    HW127896   5.316   1.812   5.719
 8999SOL    HW227897   5.390   1.759   5.854
 9000SOL     OW27898   3.773   4.067   0.623
 9000SOL    HW127899   3.756   4.062   0.722
 9000SOL    HW227900   3.715   4.138   0.583
 9001SOL     OW27901   2.626   4.780   3.860
 9001SOL    HW127902   2.715   4.824   3.862
 9001SOL    HW227903   2.555   4.847   3.879
 9002SOL     OW27904   6.047   4.714   5.754
 9002SOL    HW127905   6.072   4.690   5.848
 9002SOL    HW227906   6.109   4.785   5.720
 9003SOL     OW27907   6.411   3.122   0.038
 9003SOL    HW127908   6.363   3.039   0.065
 9003SOL    HW227909   6.380   3.198   0.094
 9004SOL     OW27910   5.052   6.319   1.239
 9004SOL    HW127911   5.019   6.380   1.311
 9004SOL    HW227912   5.029   6.224   1.264
 9005SOL     OW27913   4.703   2.176   3.140
 9005SOL    HW127914   4.724   2.078   3.131
 9005SOL    HW227915   4.641   2.203   3.067
 9006SOL     OW27916   2.063   4.994   0.921
 9006SOL    HW127917   2.109   5.069   0.872
 9006SOL    HW227918   2.019   5.030   1.003
 9007SOL     OW27919   3.405   5.661   4.385
 9007SOL    HW127920   3.492   5.707   4.366
 9007SOL    HW227921   3.330   5.718   4.353
 9008SOL     OW27922   0.177   4.262   1.478
 9008SOL    HW127923   0.264   4.311   1.474
 9008SOL    HW227924   0.104   4.325   1.502
 9009SOL     OW27925   2.886   6.538   0.474
 9009SOL    HW127926   2.873   6.492   0.562
 9009SOL    HW227927   2.861   6.476   0.400
 9010SOL     OW27928   0.568   6.733   5.016
 9010SOL    HW127929   0.493   6.672   5.044
 9010SOL    HW227930   0.536   6.791   4.941
 9011SOL     OW27931   4.012   1.810   1.060
 9011SOL    HW127932   4.016   1.711   1.057
 9011SOL    HW227933   3.980   1.845   0.971
 9012SOL     OW27934   0.872   5.075   1.254
 9012SOL    HW127935   0.911   5.166   1.269
 9012SOL    HW227936   0.801   5.058   1.323
 9013SOL     OW27937   6.381   6.095   3.691
 9013SOL    HW127938   6.355   6.188   3.666
 9013SOL    HW227939   6.480   6.087   3.691
 9014SOL     OW27940   1.261   0.836   0.682
 9014SOL    HW127941   1.195   0.882   0.623
 9014SOL    HW227942   1.337   0.802   0.627
 9015SOL     OW27943   0.235   1.256   5.847
 9015SOL    HW127944   0.308   1.311   5.805
 9015SOL    HW227945   0.237   1.164   5.809
 9016SOL     OW27946   6.585   6.006   5.832
 9016SOL    HW127947   6.639   6.089   5.845
 9016SOL    HW227948   6.621   5.955   5.754
 9017SOL     OW27949   5.691   2.334   3.665
 9017SOL    HW127950   5.755   2.300   3.596
 9017SOL    HW227951   5.720   2.425   3.695
 9018SOL     OW27952   3.034   1.745   5.183
 9018SOL    HW127953   3.013   1.650   5.205
 9018SOL    HW227954   3.129   1.752   5.151
 9019SOL     OW27955   2.960   6.016   0.523
 9019SOL    HW127956   2.885   5.958   0.493
 9019SOL    HW227957   3.037   6.007   0.459
 9020SOL     OW27958   1.864   4.248   2.775
 9020SOL    HW127959   1.852   4.341   2.810
 9020SOL    HW227960   1.780   4.220   2.727
 9021SOL     OW27961   0.382   5.772   4.404
 9021SOL    HW127962   0.324   5.853   4.410
 9021SOL    HW227963   0.335   5.701   4.351
 9022SOL     OW27964   2.948   0.360   0.192
 9022SOL    HW127965   2.968   0.322   0.102
 9022SOL    HW227966   2.899   0.291   0.246
 9023SOL     OW27967   3.241   3.615   3.533
 9023SOL    HW127968   3.162   3.659   3.490
 9023SOL    HW227969   3.271   3.670   3.611
 9024SOL     OW27970   1.713   6.341   6.138
 9024SOL    HW127971   1.679   6.258   6.093
 9024SOL    HW227972   1.683   6.342   6.233
 9025SOL     OW27973   6.213   4.925   1.896
 9025SOL    HW127974   6.266   4.846   1.866
 9025SOL    HW227975   6.123   4.894   1.927
 9026SOL     OW27976   3.633   2.879   4.264
 9026SOL    HW127977   3.582   2.808   4.312
 9026SOL    HW227978   3.706   2.914   4.323
 9027SOL     OW27979   2.596   2.480   3.085
 9027SOL    HW127980   2.587   2.511   3.179
 9027SOL    HW227981   2.671   2.414   3.078
 9028SOL     OW27982   2.225   4.620   5.106
 9028SOL    HW127983   2.303   4.566   5.139
 9028SOL    HW227984   2.258   4.708   5.071
 9029SOL     OW27985   4.862   5.510   3.729
 9029SOL    HW127986   4.828   5.537   3.819
 9029SOL    HW227987   4.851   5.585   3.665
 9030SOL     OW27988   2.253   0.815   2.564
 9030SOL    HW127989   2.251   0.914   2.555
 9030SOL    HW227990   2.318   0.789   2.635
 9031SOL     OW27991   2.497   6.309   5.907
 9031SOL    HW127992   2.568   6.315   5.977
 9031SOL    HW227993   2.513   6.228   5.850
 9032SOL     OW27994   2.674   2.394   1.791
 9032SOL    HW127995   2.770   2.388   1.821
 9032SOL    HW227996   2.653   2.489   1.766
 9033SOL     OW27997   1.893   3.330   4.110
 9033SOL    HW127998   1.898   3.282   4.023
 9033SOL    HW227999   1.977   3.384   4.123
 9034SOL     OW28000   2.732   6.647   5.408
 9034SOL    HW128001   2.736   6.730   5.464
 9034SOL    HW228002   2.649   6.597   5.429
 9035SOL     OW28003   0.031   0.522   4.420
 9035SOL    HW128004   0.038   0.545   4.517
 9035SOL    HW228005   6.970   0.569   4.380
 9036SOL     OW28006   1.408   2.430   5.537
 9036SOL    HW128007   1.487   2.404   5.481
 9036SOL    HW228008   1.413   2.527   5.559
 9037SOL     OW28009   2.411   4.021   6.606
 9037SOL    HW128010   2.505   4.048   6.626
 9037SOL    HW228011   2.351   4.101   6.614
 9038SOL     OW28012   5.196   0.109   5.230
 9038SOL    HW128013   5.116   0.115   5.290
 9038SOL    HW228014   5.166   0.093   5.136
 9039SOL     OW28015   1.898   4.855   5.004
 9039SOL    HW128016   1.821   4.898   5.050
 9039SOL    HW228017   1.957   4.926   4.965
 9040SOL     OW28018   2.308   1.578   2.690
 9040SOL    HW128019   2.401   1.615   2.684
 9040SOL    HW228020   2.244   1.645   2.653
 9041SOL     OW28021   1.115   2.156   1.383
 9041SOL    HW128022   1.037   2.208   1.348
 9041SOL    HW228023   1.128   2.073   1.328
 9042SOL     OW28024   3.192   5.200   3.189
 9042SOL    HW128025   3.095   5.175   3.187
 9042SOL    HW228026   3.247   5.117   3.199
 9043SOL     OW28027   1.253   2.491   6.205
 9043SOL    HW128028   1.180   2.539   6.253
 9043SOL    HW228029   1.216   2.442   6.126
 9044SOL     OW28030   5.897   0.094   0.702
 9044SOL    HW128031   5.892   7.014   0.681
 9044SOL    HW228032   5.805   0.134   0.697
 9045SOL     OW28033   3.218   0.157   2.978
 9045SOL    HW128034   3.276   0.228   3.017
 9045SOL    HW228035   3.263   0.068   2.985
 9046SOL     OW28036   3.336   4.252   5.396
 9046SOL    HW128037   3.308   4.241   5.491
 9046SOL    HW228038   3.403   4.326   5.390
 9047SOL     OW28039   1.472   4.427   3.916
 9047SOL    HW128040   1.458   4.328   3.915
 9047SOL    HW228041   1.462   4.463   3.823
 9048SOL     OW28042   1.630   3.884   5.041
 9048SOL    HW128043   1.684   3.813   5.087
 9048SOL    HW228044   1.656   3.973   5.077
 9049SOL     OW28045   5.047   6.228   5.954
 9049SOL    HW128046   4.967   6.217   6.013
 9049SOL    HW228047   5.110   6.294   5.995
 9050SOL     OW28048   0.539   5.189   6.767
 9050SOL    HW128049   0.488   5.115   6.722
 9050SOL    HW228050   0.555   5.165   6.862
 9051SOL     OW28051   4.665   6.137   0.169
 9051SOL    HW128052   4.595   6.209   0.166
 9051SOL    HW228053   4.740   6.161   0.106
 9052SOL     OW28054   2.746   4.710   4.637
 9052SOL    HW128055   2.806   4.789   4.647
 9052SOL    HW228056   2.727   4.694   4.540
 9053SOL     OW28057   2.348   2.839   4.191
 9053SOL    HW128058   2.354   2.756   4.245
 9053SOL    HW228059   2.332   2.917   4.251
 9054SOL     OW28060   1.398   0.785   1.812
 9054SOL    HW128061   1.454   0.815   1.889
 9054SOL    HW228062   1.365   0.692   1.828
 9055SOL     OW28063   1.080   2.547   4.340
 9055SOL    HW128064   1.149   2.483   4.305
 9055SOL    HW228065   1.000   2.495   4.372
 9056SOL     OW28066   5.207   0.197   2.520
 9056SOL    HW128067   5.167   0.279   2.560
 9056SOL    HW228068   5.276   0.160   2.582
 9057SOL     OW28069   6.233   5.533   7.010
 9057SOL    HW128070   6.189   5.444   7.001
 9057SOL    HW228071   6.283   5.554   6.926
 9058SOL     OW28072   2.058   2.714   4.895
 9058SOL    HW128073   2.103   2.716   4.985
 9058SOL    HW228074   2.114   2.763   4.828
 9059SOL     OW28075   6.488   1.458   3.511
 9059SOL    HW128076   6.564   1.503   3.464
 9059SOL    HW228077   6.524   1.391   3.576
 9060SOL     OW28078   6.991   3.796   2.426
 9060SOL    HW128079   0.026   3.712   2.415
 9060SOL    HW228080   6.936   3.811   2.344
 9061SOL     OW28081   4.919   6.051   3.029
 9061SOL    HW128082   4.911   6.042   2.930
 9061SOL    HW228083   4.828   6.069   3.068
 9062SOL     OW28084   1.527   4.012   2.966
 9062SOL    HW128085   1.502   4.109   2.968
 9062SOL    HW228086   1.510   3.971   3.056
 9063SOL     OW28087   3.116   1.415   2.662
 9063SOL    HW128088   3.163   1.429   2.749
 9063SOL    HW228089   3.183   1.409   2.588
 9064SOL     OW28090   0.214   3.838   3.649
 9064SOL    HW128091   0.260   3.919   3.686
 9064SOL    HW228092   0.230   3.833   3.550
 9065SOL     OW28093   2.910   6.155   4.904
 9065SOL    HW128094   2.840   6.226   4.914
 9065SOL    HW228095   2.994   6.183   4.951
 9066SOL     OW28096   5.940   6.127   6.216
 9066SOL    HW128097   6.014   6.172   6.167
 9066SOL    HW228098   5.975   6.086   6.300
 9067SOL     OW28099   6.482   6.803   4.315
 9067SOL    HW128100   6.462   6.901   4.310
 9067SOL    HW228101   6.442   6.756   4.237
 9068SOL     OW28102   5.198   0.352   5.523
 9068SOL    HW128103   5.272   0.418   5.532
 9068SOL    HW228104   5.148   0.370   5.438
 9069SOL     OW28105   4.408   2.269   2.318
 9069SOL    HW128106   4.407   2.348   2.379
 9069SOL    HW228107   4.380   2.188   2.369
 9070SOL     OW28108   1.311   2.139   6.289
 9070SOL    HW128109   1.329   2.219   6.231
 9070SOL    HW228110   1.303   2.058   6.232
 9071SOL     OW28111   4.464   1.445   6.197
 9071SOL    HW128112   4.406   1.420   6.119
 9071SOL    HW228113   4.408   1.489   6.267
 9072SOL     OW28114   5.462   0.182   1.505
 9072SOL    HW128115   5.504   0.273   1.497
 9072SOL    HW228116   5.431   0.168   1.599
 9073SOL     OW28117   4.235   0.062   0.428
 9073SOL    HW128118   4.311   0.042   0.366
 9073SOL    HW228119   4.179   6.999   0.439
 9074SOL     OW28120   1.333   0.467   1.313
 9074SOL    HW128121   1.407   0.528   1.284
 9074SOL    HW228122   1.257   0.474   1.249
 9075SOL     OW28123   6.541   0.948   2.528
 9075SOL    HW128124   6.559   1.016   2.600
 9075SOL    HW228125   6.590   0.975   2.445
 9076SOL     OW28126   4.790   0.714   3.145
 9076SOL    HW128127   4.859   0.649   3.179
 9076SOL    HW228128   4.829   0.806   3.145
 9077SOL     OW28129   5.118   1.528   5.896
 9077SOL    HW128130   5.142   1.612   5.847
 9077SOL    HW228131   5.028   1.497   5.867
 9078SOL     OW28132   4.812   5.052   6.870
 9078SOL    HW128133   4.808   5.060   6.970
 9078SOL    HW228134   4.857   4.965   6.846
 9079SOL     OW28135   1.659   0.577   5.279
 9079SOL    HW128136   1.624   0.671   5.281
 9079SOL    HW228137   1.687   0.550   5.371
 9080SOL     OW28138   6.576   3.963   0.782
 9080SOL    HW128139   6.583   3.906   0.700
 9080SOL    HW228140   6.494   4.021   0.776
 9081SOL     OW28141   3.713   1.782   1.468
 9081SOL    HW128142   3.764   1.820   1.391
 9081SOL    HW228143   3.775   1.764   1.544
 9082SOL     OW28144   2.653   6.749   6.002
 9082SOL    HW128145   2.658   6.743   6.102
 9082SOL    HW228146   2.595   6.827   5.977
 9083SOL     OW28147   5.338   4.312   5.989
 9083SOL    HW128148   5.422   4.357   5.958
 9083SOL    HW228149   5.262   4.377   5.985
 9084SOL     OW28150   0.592   3.094   5.664
 9084SOL    HW128151   0.637   3.184   5.666
 9084SOL    HW228152   0.568   3.067   5.758
 9085SOL     OW28153   3.444   4.941   0.092
 9085SOL    HW128154   3.535   4.980   0.105
 9085SOL    HW228155   3.402   4.980   0.010
 9086SOL     OW28156   6.634   4.316   0.881
 9086SOL    HW128157   6.590   4.287   0.796
 9086SOL    HW228158   6.623   4.244   0.950
 9087SOL     OW28159   5.926   2.838   2.644
 9087SOL    HW128160   5.963   2.860   2.734
 9087SOL    HW228161   5.944   2.914   2.581
 9088SOL     OW28162   6.222   0.631   1.974
 9088SOL    HW128163   6.191   0.678   1.892
 9088SOL    HW228164   6.313   0.592   1.959
 9089SOL     OW28165   4.172   5.395   4.113
 9089SOL    HW128166   4.156   5.300   4.086
 9089SOL    HW228167   4.269   5.409   4.129
 9090SOL     OW28168   5.409   6.241   4.118
 9090SOL    HW128169   5.497   6.201   4.093
 9090SOL    HW228170   5.352   6.251   4.036
 9091SOL     OW28171   3.158   2.526   0.439
 9091SOL    HW128172   3.230   2.549   0.504
 9091SOL    HW228173   3.132   2.430   0.450
 9092SOL     OW28174   1.331   0.204   5.489
 9092SOL    HW128175   1.238   0.204   5.526
 9092SOL    HW228176   1.395   0.174   5.561
 9093SOL     OW28177   1.567   6.055   6.863
 9093SOL    HW128178   1.627   6.018   6.792
 9093SOL    HW228179   1.542   5.982   6.927
 9094SOL     OW28180   0.244   6.362   2.114
 9094SOL    HW128181   0.304   6.403   2.183
 9094SOL    HW228182   0.284   6.276   2.081
 9095SOL     OW28183   5.389   3.187   6.970
 9095SOL    HW128184   5.462   3.121   6.989
 9095SOL    HW228185   5.303   3.154   7.007
 9096SOL     OW28186   5.358   3.093   3.315
 9096SOL    HW128187   5.399   3.044   3.392
 9096SOL    HW228188   5.418   3.084   3.235
 9097SOL     OW28189   1.129   3.515   0.081
 9097SOL    HW128190   1.148   3.570   0.000
 9097SOL    HW228191   1.208   3.458   0.103
 9098SOL     OW28192   4.009   3.607   1.621
 9098SOL    HW128193   4.108   3.610   1.630
 9098SOL    HW228194   3.983   3.529   1.564
 9099SOL     OW28195   3.360   3.696   1.021
 9099SOL    HW128196   3.421   3.773   1.004
 9099SOL    HW228197   3.265   3.727   1.018
 9100SOL     OW28198   0.816   2.998   1.989
 9100SOL    HW128199   0.905   3.037   1.968
 9100SOL    HW228200   0.822   2.898   1.987
 9101SOL     OW28201   2.195   3.139   2.944
 9101SOL    HW128202   2.196   3.192   3.029
 9101SOL    HW228203   2.233   3.048   2.961
 9102SOL     OW28204   3.756   5.995   2.422
 9102SOL    HW128205   3.660   5.972   2.410
 9102SOL    HW228206   3.765   6.073   2.484
 9103SOL     OW28207   0.134   3.605   0.394
 9103SOL    HW128208   0.059   3.663   0.426
 9103SOL    HW228209   0.119   3.511   0.425
 9104SOL     OW28210   4.204   6.186   1.720
 9104SOL    HW128211   4.147   6.268   1.727
 9104SOL    HW228212   4.282   6.204   1.660
 9105SOL     OW28213   1.736   0.519   6.936
 9105SOL    HW128214   1.654   0.549   6.985
 9105SOL    HW228215   1.756   0.583   6.862
 9106SOL     OW28216   6.462   3.887   0.229
 9106SOL    HW128217   6.527   3.880   0.305
 9106SOL    HW228218   6.388   3.948   0.254
 9107SOL     OW28219   4.595   0.014   6.471
 9107SOL    HW128220   4.497   0.017   6.493
 9107SOL    HW228221   4.625   0.104   6.440
 9108SOL     OW28222   4.951   4.541   5.159
 9108SOL    HW128223   4.962   4.565   5.062
 9108SOL    HW228224   4.967   4.443   5.170
 9109SOL     OW28225   1.874   2.374   2.840
 9109SOL    HW128226   1.967   2.411   2.845
 9109SOL    HW228227   1.809   2.449   2.828
 9110SOL     OW28228   2.433   4.418   4.147
 9110SOL    HW128229   2.351   4.361   4.145
 9110SOL    HW228230   2.454   4.442   4.242
 9111SOL     OW28231   4.220   3.448   0.627
 9111SOL    HW128232   4.313   3.444   0.662
 9111SOL    HW228233   4.212   3.390   0.545
 9112SOL     OW28234   0.634   4.055   3.774
 9112SOL    HW128235   0.613   3.960   3.798
 9112SOL    HW228236   0.698   4.092   3.841
 9113SOL     OW28237   4.358   0.562   0.351
 9113SOL    HW128238   4.452   0.542   0.378
 9113SOL    HW228239   4.325   0.489   0.292
 9114SOL     OW28240   1.609   5.046   2.597
 9114SOL    HW128241   1.538   5.109   2.630
 9114SOL    HW228242   1.598   4.958   2.644
 9115SOL     OW28243   0.635   5.755   5.114
 9115SOL    HW128244   0.609   5.658   5.116
 9115SOL    HW228245   0.726   5.766   5.152
 9116SOL     OW28246   6.540   1.714   0.190
 9116SOL    HW128247   6.527   1.717   0.091
 9116SOL    HW228248   6.455   1.687   0.234
 9117SOL     OW28249   6.197   2.965   6.727
 9117SOL    HW128250   6.207   2.866   6.717
 9117SOL    HW228251   6.286   3.008   6.716
 9118SOL     OW28252   5.955   6.100   0.516
 9118SOL    HW128253   5.862   6.125   0.487
 9118SOL    HW228254   6.000   6.180   0.555
 9119SOL     OW28255   5.535   1.378   2.751
 9119SOL    HW128256   5.624   1.352   2.714
 9119SOL    HW228257   5.512   1.470   2.719
 9120SOL     OW28258   5.749   2.851   5.723
 9120SOL    HW128259   5.732   2.753   5.709
 9120SOL    HW228260   5.768   2.894   5.635
 9121SOL     OW28261   0.565   3.300   6.011
 9121SOL    HW128262   0.575   3.399   6.009
 9121SOL    HW228263   0.652   3.257   5.988
 9122SOL     OW28264   1.825   2.479   1.702
 9122SOL    HW128265   1.737   2.481   1.653
 9122SOL    HW228266   1.861   2.572   1.710
 9123SOL     OW28267   3.481   0.214   4.467
 9123SOL    HW128268   3.436   0.129   4.492
 9123SOL    HW228269   3.430   0.291   4.505
 9124SOL     OW28270   5.653   6.628   5.521
 9124SOL    HW128271   5.686   6.617   5.428
 9124SOL    HW228272   5.723   6.674   5.576
 9125SOL     OW28273   4.670   4.582   3.995
 9125SOL    HW128274   4.660   4.603   3.898
 9125SOL    HW228275   4.765   4.561   4.016
 9126SOL     OW28276   5.804   1.142   2.449
 9126SOL    HW128277   5.830   1.212   2.515
 9126SOL    HW228278   5.739   1.180   2.383
 9127SOL     OW28279   6.489   0.173   6.119
 9127SOL    HW128280   6.430   0.223   6.182
 9127SOL    HW228281   6.447   0.086   6.096
 9128SOL     OW28282   3.593   2.250   5.277
 9128SOL    HW128283   3.510   2.225   5.227
 9128SOL    HW228284   3.662   2.179   5.264
 9129SOL     OW28285   2.183   2.750   1.220
 9129SOL    HW128286   2.153   2.838   1.257
 9129SOL    HW228287   2.212   2.762   1.125
 9130SOL     OW28288   0.002   3.506   6.874
 9130SOL    HW128289   0.023   3.539   6.966
 9130SOL    HW228290   0.028   3.410   6.866
 9131SOL     OW28291   6.871   4.316   5.272
 9131SOL    HW128292   6.910   4.406   5.292
 9131SOL    HW228293   6.774   4.327   5.249
 9132SOL     OW28294   0.406   4.500   4.315
 9132SOL    HW128295   0.429   4.432   4.385
 9132SOL    HW228296   0.456   4.584   4.334
 9133SOL     OW28297   3.302   5.288   0.735
 9133SOL    HW128298   3.246   5.247   0.808
 9133SOL    HW228299   3.283   5.386   0.729
 9134SOL     OW28300   3.534   6.753   0.949
 9134SOL    HW128301   3.563   6.750   0.853
 9134SOL    HW228302   3.486   6.838   0.967
 9135SOL     OW28303   6.722   6.333   1.901
 9135SOL    HW128304   6.819   6.307   1.906
 9135SOL    HW228305   6.697   6.352   1.806
 9136SOL     OW28306   4.757   5.468   5.178
 9136SOL    HW128307   4.691   5.408   5.131
 9136SOL    HW228308   4.792   5.536   5.114
 9137SOL     OW28309   5.175   1.702   1.259
 9137SOL    HW128310   5.118   1.770   1.306
 9137SOL    HW228311   5.253   1.747   1.217
 9138SOL     OW28312   6.172   4.686   6.039
 9138SOL    HW128313   6.199   4.781   6.029
 9138SOL    HW228314   6.209   4.650   6.125
 9139SOL     OW28315   2.314   1.357   4.338
 9139SOL    HW128316   2.343   1.301   4.416
 9139SOL    HW228317   2.257   1.302   4.277
 9140SOL     OW28318   6.555   3.441   2.713
 9140SOL    HW128319   6.620   3.511   2.682
 9140SOL    HW228320   6.468   3.452   2.664
 9141SOL     OW28321   5.412   0.510   6.718
 9141SOL    HW128322   5.433   0.528   6.622
 9141SOL    HW228323   5.442   0.417   6.742
 9142SOL     OW28324   0.529   2.474   0.108
 9142SOL    HW128325   0.483   2.410   0.047
 9142SOL    HW228326   0.536   2.563   0.063
 9143SOL     OW28327   5.011   3.627   0.655
 9143SOL    HW128328   4.983   3.687   0.731
 9143SOL    HW228329   4.951   3.643   0.577
 9144SOL     OW28330   2.156   5.263   5.904
 9144SOL    HW128331   2.211   5.197   5.852
 9144SOL    HW228332   2.060   5.255   5.876
 9145SOL     OW28333   6.672   5.641   0.388
 9145SOL    HW128334   6.635   5.694   0.464
 9145SOL    HW228335   6.744   5.694   0.342
 9146SOL     OW28336   4.864   2.225   2.148
 9146SOL    HW128337   4.852   2.130   2.176
 9146SOL    HW228338   4.950   2.236   2.098
 9147SOL     OW28339   5.827   0.056   4.297
 9147SOL    HW128340   5.924   0.063   4.273
 9147SOL    HW228341   5.777   0.131   4.255
 9148SOL     OW28342   5.072   6.728   0.639
 9148SOL    HW128343   5.146   6.783   0.676
 9148SOL    HW228344   5.087   6.712   0.541
 9149SOL     OW28345   5.303   3.213   3.803
 9149SOL    HW128346   5.328   3.310   3.815
 9149SOL    HW228347   5.266   3.200   3.712
 9150SOL     OW28348   3.470   5.303   3.831
 9150SOL    HW128349   3.423   5.378   3.784
 9150SOL    HW228350   3.533   5.340   3.899
 9151SOL     OW28351   1.424   4.505   3.372
 9151SOL    HW128352   1.444   4.444   3.295
 9151SOL    HW228353   1.336   4.481   3.412
 9152SOL     OW28354   2.619   5.272   4.736
 9152SOL    HW128355   2.579   5.180   4.742
 9152SOL    HW228356   2.580   5.320   4.658
 9153SOL     OW28357   1.466   3.167   1.076
 9153SOL    HW128358   1.486   3.157   0.979
 9153SOL    HW228359   1.378   3.214   1.087
 9154SOL     OW28360   3.872   5.418   0.032
 9154SOL    HW128361   3.924   5.429   6.966
 9154SOL    HW228362   3.879   5.323   0.063
 9155SOL     OW28363   1.348   3.028   0.818
 9155SOL    HW128364   1.433   3.077   0.797
 9155SOL    HW228365   1.355   2.934   0.784
 9156SOL     OW28366   2.296   2.725   0.252
 9156SOL    HW128367   2.282   2.782   0.170
 9156SOL    HW228368   2.367   2.767   0.309
 9157SOL     OW28369   5.866   4.694   6.207
 9157SOL    HW128370   5.802   4.698   6.284
 9157SOL    HW228371   5.872   4.601   6.173
 9158SOL     OW28372   5.664   3.599   5.195
 9158SOL    HW128373   5.669   3.499   5.192
 9158SOL    HW228374   5.756   3.638   5.184
 9159SOL     OW28375   1.063   0.022   2.950
 9159SOL    HW128376   1.037   0.028   3.046
 9159SOL    HW228377   0.981   0.016   2.893
 9160SOL     OW28378   6.408   0.110   5.111
 9160SOL    HW128379   6.411   0.011   5.098
 9160SOL    HW228380   6.353   0.132   5.191
 9161SOL     OW28381   4.823   3.900   4.518
 9161SOL    HW128382   4.805   3.984   4.569
 9161SOL    HW228383   4.778   3.905   4.429
 9162SOL     OW28384   4.729   1.348   3.875
 9162SOL    HW128385   4.753   1.388   3.964
 9162SOL    HW228386   4.802   1.368   3.809
 9163SOL     OW28387   2.139   3.631   4.592
 9163SOL    HW128388   2.076   3.699   4.630
 9163SOL    HW228389   2.179   3.577   4.667
 9164SOL     OW28390   2.517   0.186   6.750
 9164SOL    HW128391   2.449   0.210   6.681
 9164SOL    HW228392   2.606   0.223   6.724
 9165SOL     OW28393   5.956   1.862   5.473
 9165SOL    HW128394   6.045   1.883   5.513
 9165SOL    HW228395   5.885   1.870   5.542
 9166SOL     OW28396   4.298   6.095   0.817
 9166SOL    HW128397   4.331   6.066   0.906
 9166SOL    HW228398   4.311   6.194   0.807
 9167SOL     OW28399   1.712   2.573   6.156
 9167SOL    HW128400   1.626   2.580   6.206
 9167SOL    HW228401   1.762   2.492   6.185
 9168SOL     OW28402   0.779   0.621   6.320
 9168SOL    HW128403   0.782   0.605   6.221
 9168SOL    HW228404   0.763   0.718   6.337
 9169SOL     OW28405   6.130   1.141   5.360
 9169SOL    HW128406   6.037   1.172   5.341
 9169SOL    HW228407   6.191   1.172   5.286
 9170SOL     OW28408   1.271   4.740   0.438
 9170SOL    HW128409   1.290   4.726   0.340
 9170SOL    HW228410   1.313   4.666   0.490
 9171SOL     OW28411   3.547   4.710   0.826
 9171SOL    HW128412   3.632   4.660   0.812
 9171SOL    HW228413   3.550   4.796   0.775
 9172SOL     OW28414   3.179   0.401   4.947
 9172SOL    HW128415   3.093   0.358   4.975
 9172SOL    HW228416   3.159   0.487   4.899
 9173SOL     OW28417   6.361   4.183   4.787
 9173SOL    HW128418   6.353   4.278   4.759
 9173SOL    HW228419   6.296   4.127   4.735
 9174SOL     OW28420   5.830   4.790   1.098
 9174SOL    HW128421   5.734   4.797   1.125
 9174SOL    HW228422   5.861   4.879   1.064
 9175SOL     OW28423   0.918   0.008   3.730
 9175SOL    HW128424   0.854   7.001   3.803
 9175SOL    HW228425   1.004   0.039   3.770
 9176SOL     OW28426   3.305   1.256   5.025
 9176SOL    HW128427   3.284   1.181   4.963
 9176SOL    HW228428   3.338   1.335   4.973
 9177SOL     OW28429   1.197   4.648   5.038
 9177SOL    HW128430   1.264   4.576   5.051
 9177SOL    HW228431   1.206   4.688   4.947
 9178SOL     OW28432   2.173   5.539   0.144
 9178SOL    HW128433   2.222   5.453   0.158
 9178SOL    HW228434   2.149   5.550   0.048
 9179SOL     OW28435   3.183   5.387   4.192
 9179SOL    HW128436   3.234   5.460   4.237
 9179SOL    HW228437   3.149   5.323   4.262
 9180SOL     OW28438   5.497   2.088   3.053
 9180SOL    HW128439   5.557   2.061   3.127
 9180SOL    HW228440   5.551   2.112   2.972
 9181SOL     OW28441   3.976   2.107   4.026
 9181SOL    HW128442   4.068   2.146   4.029
 9181SOL    HW228443   3.938   2.104   4.119
 9182SOL     OW28444   1.976   6.366   1.846
 9182SOL    HW128445   2.000   6.275   1.811
 9182SOL    HW228446   2.057   6.409   1.885
 9183SOL     OW28447   5.409   6.373   0.412
 9183SOL    HW128448   5.348   6.424   0.352
 9183SOL    HW228449   5.362   6.293   0.447
 9184SOL     OW28450   5.430   1.906   0.575
 9184SOL    HW128451   5.422   1.872   0.481
 9184SOL    HW228452   5.340   1.926   0.611
 9185SOL     OW28453   3.937   6.701   4.521
 9185SOL    HW128454   3.845   6.731   4.545
 9185SOL    HW228455   3.964   6.625   4.581
 9186SOL     OW28456   5.526   0.032   4.082
 9186SOL    HW128457   5.579   6.966   4.094
 9186SOL    HW228458   5.588   0.111   4.082
 9187SOL     OW28459   2.761   1.539   1.178
 9187SOL    HW128460   2.695   1.595   1.128
 9187SOL    HW228461   2.723   1.515   1.267
 9188SOL     OW28462   1.565   6.918   1.694
 9188SOL    HW128463   1.467   6.902   1.682
 9188SOL    HW228464   1.612   6.830   1.704
 9189SOL     OW28465   4.560   6.010   1.346
 9189SOL    HW128466   4.637   5.988   1.405
 9189SOL    HW228467   4.581   6.090   1.291
 9190SOL     OW28468   1.995   3.920   0.095
 9190SOL    HW128469   1.957   3.827   0.098
 9190SOL    HW228470   1.947   3.973   0.026
 9191SOL     OW28471   6.242   1.634   5.733
 9191SOL    HW128472   6.154   1.608   5.695
 9191SOL    HW228473   6.305   1.657   5.659
 9192SOL     OW28474   0.734   3.918   6.137
 9192SOL    HW128475   0.823   3.950   6.105
 9192SOL    HW228476   0.734   3.913   6.237
 9193SOL     OW28477   4.811   4.024   0.556
 9193SOL    HW128478   4.893   4.067   0.519
 9193SOL    HW228479   4.820   4.015   0.655
 9194SOL     OW28480   3.081   0.250   3.417
 9194SOL    HW128481   3.021   0.170   3.419
 9194SOL    HW228482   3.050   0.314   3.347
 9195SOL     OW28483   1.872   1.929   4.027
 9195SOL    HW128484   1.896   1.844   3.980
 9195SOL    HW228485   1.955   1.974   4.061
 9196SOL     OW28486   4.383   6.882   3.935
 9196SOL    HW128487   4.341   6.884   4.025
 9196SOL    HW228488   4.330   6.940   3.873
 9197SOL     OW28489   1.806   4.687   2.048
 9197SOL    HW128490   1.839   4.720   2.136
 9197SOL    HW228491   1.878   4.634   2.003
 9198SOL     OW28492   6.663   5.196   6.520
 9198SOL    HW128493   6.577   5.162   6.483
 9198SOL    HW228494   6.737   5.178   6.455
 9199SOL     OW28495   1.262   3.652   6.090
 9199SOL    HW128496   1.293   3.731   6.037
 9199SOL    HW228497   1.311   3.649   6.177
 9200SOL     OW28498   2.688   6.631   0.852
 9200SOL    HW128499   2.688   6.698   0.778
 9200SOL    HW228500   2.766   6.569   0.840
 9201SOL     OW28501   0.403   2.910   0.648
 9201SOL    HW128502   0.435   2.815   0.637
 9201SOL    HW228503   0.446   2.951   0.728
 9202SOL     OW28504   1.581   6.568   2.676
 9202SOL    HW128505   1.501   6.627   2.663
 9202SOL    HW228506   1.653   6.620   2.722
 9203SOL     OW28507   0.719   4.831   0.047
 9203SOL    HW128508   0.722   4.749   0.104
 9203SOL    HW228509   0.804   4.838   7.013
 9204SOL     OW28510   4.582   2.906   6.410
 9204SOL    HW128511   4.530   2.963   6.473
 9204SOL    HW228512   4.676   2.939   6.405
 9205SOL     OW28513   6.895   4.770   2.828
 9205SOL    HW128514   6.830   4.809   2.894
 9205SOL    HW228515   6.849   4.701   2.772
 9206SOL     OW28516   4.506   5.510   2.057
 9206SOL    HW128517   4.482   5.470   1.968
 9206SOL    HW228518   4.459   5.460   2.130
 9207SOL     OW28519   4.857   4.663   6.106
 9207SOL    HW128520   4.850   4.707   6.195
 9207SOL    HW228521   4.894   4.727   6.039
 9208SOL     OW28522   5.819   4.452   3.900
 9208SOL    HW128523   5.865   4.473   3.986
 9208SOL    HW228524   5.840   4.358   3.873
 9209SOL     OW28525   3.160   0.374   6.590
 9209SOL    HW128526   3.244   0.399   6.638
 9209SOL    HW228527   3.081   0.399   6.646
 9210SOL     OW28528   0.306   1.100   3.138
 9210SOL    HW128529   0.207   1.109   3.132
 9210SOL    HW228530   0.337   1.028   3.077
 9211SOL     OW28531   0.402   2.426   4.958
 9211SOL    HW128532   0.385   2.332   4.986
 9211SOL    HW228533   0.403   2.432   4.858
 9212SOL     OW28534   5.030   5.324   4.318
 9212SOL    HW128535   5.033   5.305   4.220
 9212SOL    HW228536   4.958   5.270   4.361
 9213SOL     OW28537   5.178   3.557   5.904
 9213SOL    HW128538   5.188   3.508   5.817
 9213SOL    HW228539   5.234   3.640   5.901
 9214SOL     OW28540   0.254   4.229   6.524
 9214SOL    HW128541   0.270   4.131   6.513
 9214SOL    HW228542   0.221   4.267   6.437
 9215SOL     OW28543   0.947   2.255   1.194
 9215SOL    HW128544   0.962   2.181   1.129
 9215SOL    HW228545   1.019   2.324   1.184
 9216SOL     OW28546   2.597   0.149   2.530
 9216SOL    HW128547   2.545   0.217   2.581
 9216SOL    HW228548   2.540   0.069   2.513
 9217SOL     OW28549   0.869   1.680   0.034
 9217SOL    HW128550   0.839   1.601   7.000
 9217SOL    HW228551   0.797   1.707   0.098
 9218SOL     OW28552   2.639   6.834   0.287
 9218SOL    HW128553   2.676   6.804   0.375
 9218SOL    HW228554   2.630   6.755   0.227
 9219SOL     OW28555   0.033   2.518   1.391
 9219SOL    HW128556   0.079   2.560   1.469
 9219SOL    HW228557   6.961   2.558   1.380
 9220SOL     OW28558   1.750   6.437   1.013
 9220SOL    HW128559   1.844   6.421   0.983
 9220SOL    HW228560   1.698   6.475   0.937
 9221SOL     OW28561   2.864   0.933   3.835
 9221SOL    HW128562   2.797   0.860   3.821
 9221SOL    HW228563   2.942   0.918   3.773
 9222SOL     OW28564   1.913   0.254   6.078
 9222SOL    HW128565   2.007   0.237   6.108
 9222SOL    HW228566   1.906   0.346   6.040
 9223SOL     OW28567   1.409   1.051   4.186
 9223SOL    HW128568   1.407   0.972   4.248
 9223SOL    HW228569   1.500   1.093   4.189
 9224SOL     OW28570   2.066   5.106   4.950
 9224SOL    HW128571   2.101   5.175   5.013
 9224SOL    HW228572   2.002   5.149   4.887
 9225SOL     OW28573   3.373   6.174   6.120
 9225SOL    HW128574   3.312   6.148   6.046
 9225SOL    HW228575   3.387   6.096   6.181
 9226SOL     OW28576   5.782   0.233   1.624
 9226SOL    HW128577   5.720   0.256   1.700
 9226SOL    HW228578   5.828   0.315   1.592
 9227SOL     OW28579   1.013   4.850   1.171
 9227SOL    HW128580   1.108   4.881   1.185
 9227SOL    HW228581   0.951   4.912   1.219
 9228SOL     OW28582   1.571   1.109   6.005
 9228SOL    HW128583   1.484   1.126   5.958
 9228SOL    HW228584   1.623   1.040   5.954
 9229SOL     OW28585   1.161   5.149   4.654
 9229SOL    HW128586   1.248   5.131   4.700
 9229SOL    HW228587   1.173   5.139   4.555
 9230SOL     OW28588   5.045   1.557   3.121
 9230SOL    HW128589   5.028   1.650   3.087
 9230SOL    HW228590   5.142   1.547   3.142
 9231SOL     OW28591   0.759   4.486   4.499
 9231SOL    HW128592   0.827   4.555   4.525
 9231SOL    HW228593   0.782   4.399   4.544
 9232SOL     OW28594   3.685   5.287   6.611
 9232SOL    HW128595   3.769   5.234   6.622
 9232SOL    HW228596   3.708   5.384   6.601
 9233SOL     OW28597   5.539   5.195   1.789
 9233SOL    HW128598   5.492   5.113   1.820
 9233SOL    HW228599   5.477   5.273   1.795
 9234SOL     OW28600   3.590   5.298   5.494
 9234SOL    HW128601   3.494   5.302   5.466
 9234SOL    HW228602   3.620   5.203   5.495
 9235SOL     OW28603   1.396   2.885   3.630
 9235SOL    HW128604   1.460   2.839   3.568
 9235SOL    HW228605   1.409   2.852   3.723
 9236SOL     OW28606   2.948   4.081   5.411
 9236SOL    HW128607   2.989   3.990   5.408
 9236SOL    HW228608   2.994   4.141   5.346
 9237SOL     OW28609   1.995   5.683   4.948
 9237SOL    HW128610   2.008   5.709   5.043
 9237SOL    HW228611   2.084   5.663   4.906
 9238SOL     OW28612   3.933   1.391   6.778
 9238SOL    HW128613   4.030   1.412   6.762
 9238SOL    HW228614   3.908   1.308   6.728
 9239SOL     OW28615   6.976   4.123   0.674
 9239SOL    HW128616   0.042   4.078   0.646
 9239SOL    HW228617   6.972   4.215   0.634
 9240SOL     OW28618   4.871   1.698   0.817
 9240SOL    HW128619   4.787   1.645   0.804
 9240SOL    HW228620   4.931   1.649   0.880
 9241SOL     OW28621   0.306   5.197   5.688
 9241SOL    HW128622   0.361   5.172   5.768
 9241SOL    HW228623   0.340   5.283   5.650
 9242SOL     OW28624   0.105   5.655   0.363
 9242SOL    HW128625   0.192   5.654   0.412
 9242SOL    HW228626   0.048   5.580   0.396
 9243SOL     OW28627   5.892   6.995   2.523
 9243SOL    HW128628   5.855   0.020   2.441
 9243SOL    HW228629   5.992   6.990   2.517
 9244SOL     OW28630   4.879   4.748   6.534
 9244SOL    HW128631   4.966   4.797   6.547
 9244SOL    HW228632   4.848   4.760   6.439
 9245SOL     OW28633   2.429   5.084   3.665
 9245SOL    HW128634   2.470   5.160   3.715
 9245SOL    HW228635   2.424   5.004   3.724
 9246SOL     OW28636   0.271   4.534   2.815
 9246SOL    HW128637   0.354   4.519   2.869
 9246SOL    HW228638   0.206   4.587   2.869
 9247SOL     OW28639   0.566   0.124   3.031
 9247SOL    HW128640   0.569   0.175   2.945
 9247SOL    HW228641   0.622   0.042   3.023
 9248SOL     OW28642   1.580   2.577   5.798
 9248SOL    HW128643   1.558   2.592   5.895
 9248SOL    HW228644   1.678   2.557   5.789
 9249SOL     OW28645   5.091   3.595   6.882
 9249SOL    HW128646   5.044   3.517   6.840
 9249SOL    HW228647   5.059   3.680   6.839
 9250SOL     OW28648   5.346   3.249   4.836
 9250SOL    HW128649   5.438   3.220   4.809
 9250SOL    HW228650   5.323   3.334   4.788
 9251SOL     OW28651   3.750   2.101   3.048
 9251SOL    HW128652   3.789   2.123   2.959
 9251SOL    HW228653   3.656   2.067   3.037
 9252SOL     OW28654   5.706   0.230   4.113
 9252SOL    HW128655   5.798   0.249   4.080
 9252SOL    HW228656   5.657   0.316   4.125
 9253SOL     OW28657   5.947   6.369   5.731
 9253SOL    HW128658   5.919   6.384   5.826
 9253SOL    HW228659   5.996   6.449   5.697
 9254SOL     OW28660   6.712   4.605   2.725
 9254SOL    HW128661   6.746   4.517   2.691
 9254SOL    HW228662   6.641   4.639   2.662
 9255SOL     OW28663   5.204   3.943   0.449
 9255SOL    HW128664   5.205   3.874   0.377
 9255SOL    HW228665   5.252   3.909   0.529
 9256SOL     OW28666   3.539   5.772   2.671
 9256SOL    HW128667   3.447   5.744   2.642
 9256SOL    HW228668   3.587   5.693   2.710
 9257SOL     OW28669   0.602   3.552   2.978
 9257SOL    HW128670   0.617   3.470   3.034
 9257SOL    HW228671   0.515   3.594   3.004
 9258SOL     OW28672   3.296   2.917   3.354
 9258SOL    HW128673   3.339   2.914   3.264
 9258SOL    HW228674   3.301   2.827   3.397
 9259SOL     OW28675   0.936   1.884   0.538
 9259SOL    HW128676   0.895   1.799   0.504
 9259SOL    HW228677   1.017   1.905   0.483
 9260SOL     OW28678   4.853   1.827   5.490
 9260SOL    HW128679   4.902   1.741   5.479
 9260SOL    HW228680   4.901   1.885   5.557
 9261SOL     OW28681   4.989   0.704   6.326
 9261SOL    HW128682   5.081   0.743   6.325
 9261SOL    HW228683   4.925   0.770   6.364
 9262SOL     OW28684   6.603   3.050   5.314
 9262SOL    HW128685   6.553   2.994   5.380
 9262SOL    HW228686   6.696   3.064   5.345
 9263SOL     OW28687   5.685   4.825   1.437
 9263SOL    HW128688   5.779   4.815   1.404
 9263SOL    HW228689   5.667   4.755   1.507
 9264SOL     OW28690   5.466   4.086   0.409
 9264SOL    HW128691   5.373   4.057   0.432
 9264SOL    HW228692   5.501   4.146   0.481
 9265SOL     OW28693   2.584   1.694   6.819
 9265SOL    HW128694   2.564   1.596   6.821
 9265SOL    HW228695   2.596   1.723   6.724
 9266SOL     OW28696   2.170   6.551   2.218
 9266SOL    HW128697   2.102   6.597   2.275
 9266SOL    HW228698   2.249   6.611   2.205
 9267SOL     OW28699   0.025   4.300   5.853
 9267SOL    HW128700   0.087   4.285   5.931
 9267SOL    HW228701   0.004   4.212   5.810
 9268SOL     OW28702   1.913   5.088   1.310
 9268SOL    HW128703   1.901   5.098   1.409
 9268SOL    HW228704   2.000   5.129   1.282
 9269SOL     OW28705   3.170   2.116   6.070
 9269SOL    HW128706   3.161   2.061   5.987
 9269SOL    HW228707   3.102   2.086   6.137
 9270SOL     OW28708   5.121   0.048   5.856
 9270SOL    HW128709   5.187   0.113   5.892
 9270SOL    HW228710   5.074   0.003   5.931
 9271SOL     OW28711   1.570   5.442   6.987
 9271SOL    HW128712   1.630   5.367   6.959
 9271SOL    HW228713   1.549   5.499   6.908
 9272SOL     OW28714   2.050   5.701   5.878
 9272SOL    HW128715   2.026   5.706   5.780
 9272SOL    HW228716   2.128   5.760   5.896
 9273SOL     OW28717   5.468   6.028   3.765
 9273SOL    HW128718   5.503   6.084   3.840
 9273SOL    HW228719   5.516   5.940   3.764
 9274SOL     OW28720   6.328   2.911   0.209
 9274SOL    HW128721   6.296   2.858   0.288
 9274SOL    HW228722   6.426   2.896   0.197
 9275SOL     OW28723   6.959   2.198   6.983
 9275SOL    HW128724   0.015   2.257   7.014
 9275SOL    HW228725   6.957   2.115   0.019
 9276SOL     OW28726   2.890   4.855   3.841
 9276SOL    HW128727   2.925   4.838   3.934
 9276SOL    HW228728   2.920   4.945   3.810
 9277SOL     OW28729   4.965   3.332   0.679
 9277SOL    HW128730   4.979   3.431   0.672
 9277SOL    HW228731   4.963   3.291   0.588
 9278SOL     OW28732   1.211   0.864   4.689
 9278SOL    HW128733   1.117   0.873   4.723
 9278SOL    HW228734   1.210   0.863   4.589
 9279SOL     OW28735   4.306   0.837   1.385
 9279SOL    HW128736   4.400   0.861   1.359
 9279SOL    HW228737   4.257   0.804   1.305
 9280SOL     OW28738   1.469   0.663   2.898
 9280SOL    HW128739   1.472   0.622   2.989
 9280SOL    HW228740   1.426   0.753   2.904
 9281SOL     OW28741   3.253   4.330   1.290
 9281SOL    HW128742   3.230   4.262   1.359
 9281SOL    HW228743   3.247   4.289   1.199
 9282SOL     OW28744   4.824   1.979   4.998
 9282SOL    HW128745   4.760   1.938   5.063
 9282SOL    HW228746   4.792   2.070   4.972
 9283SOL     OW28747   5.342   0.482   3.841
 9283SOL    HW128748   5.293   0.396   3.828
 9283SOL    HW228749   5.411   0.492   3.768
 9284SOL     OW28750   3.342   4.913   5.808
 9284SOL    HW128751   3.306   4.987   5.751
 9284SOL    HW228752   3.412   4.862   5.757
 9285SOL     OW28753   4.798   3.044   0.879
 9285SOL    HW128754   4.878   3.038   0.939
 9285SOL    HW228755   4.751   2.955   0.878
 9286SOL     OW28756   5.587   0.332   6.140
 9286SOL    HW128757   5.685   0.335   6.156
 9286SOL    HW228758   5.566   0.378   6.053
 9287SOL     OW28759   3.251   5.047   0.266
 9287SOL    HW128760   3.260   5.055   0.365
 9287SOL    HW228761   3.327   4.992   0.230
 9288SOL     OW28762   3.491   1.139   5.181
 9288SOL    HW128763   3.420   1.174   5.119
 9288SOL    HW228764   3.449   1.080   5.250
 9289SOL     OW28765   3.276   1.869   2.660
 9289SOL    HW128766   3.216   1.827   2.728
 9289SOL    HW228767   3.314   1.797   2.601
 9290SOL     OW28768   5.039   1.861   3.552
 9290SOL    HW128769   4.976   1.805   3.605
 9290SOL    HW228770   4.989   1.914   3.484
 9291SOL     OW28771   2.442   6.824   4.980
 9291SOL    HW128772   2.487   6.815   4.892
 9291SOL    HW228773   2.475   6.752   5.042
 9292SOL     OW28774   0.476   2.749   6.589
 9292SOL    HW128775   0.544   2.817   6.561
 9292SOL    HW228776   0.387   2.774   6.550
 9293SOL     OW28777   6.367   4.151   0.340
 9293SOL    HW128778   6.337   4.131   0.246
 9293SOL    HW228779   6.287   4.161   0.399
 9294SOL     OW28780   3.759   6.609   5.242
 9294SOL    HW128781   3.698   6.614   5.322
 9294SOL    HW228782   3.755   6.696   5.193
 9295SOL     OW28783   5.218   2.531   4.207
 9295SOL    HW128784   5.152   2.523   4.133
 9295SOL    HW228785   5.266   2.444   4.218
 9296SOL     OW28786   0.607   6.690   6.269
 9296SOL    HW128787   0.680   6.708   6.204
 9296SOL    HW228788   0.554   6.773   6.284
 9297SOL     OW28789   6.582   0.793   0.438
 9297SOL    HW128790   6.509   0.799   0.370
 9297SOL    HW228791   6.671   0.803   0.393
 9298SOL     OW28792   1.445   0.386   5.069
 9298SOL    HW128793   1.444   0.363   5.166
 9298SOL    HW228794   1.470   0.483   5.058
 9299SOL     OW28795   1.022   2.809   4.853
 9299SOL    HW128796   1.089   2.743   4.887
 9299SOL    HW228797   0.931   2.784   4.886
 9300SOL     OW28798   6.968   4.666   5.065
 9300SOL    HW128799   0.015   4.665   4.990
 9300SOL    HW228800   6.907   4.587   5.057
 9301SOL     OW28801   4.778   4.337   3.728
 9301SOL    HW128802   4.787   4.282   3.811
 9301SOL    HW228803   4.717   4.289   3.663
 9302SOL     OW28804   2.036   3.612   4.339
 9302SOL    HW128805   2.079   3.624   4.429
 9302SOL    HW228806   1.942   3.582   4.351
 9303SOL     OW28807   3.928   6.150   0.510
 9303SOL    HW128808   3.866   6.211   0.461
 9303SOL    HW228809   4.011   6.137   0.456
 9304SOL     OW28810   4.838   4.103   0.810
 9304SOL    HW128811   4.891   4.172   0.762
 9304SOL    HW228812   4.807   4.140   0.898
 9305SOL     OW28813   3.513   1.357   2.148
 9305SOL    HW128814   3.467   1.443   2.173
 9305SOL    HW228815   3.586   1.338   2.213
 9306SOL     OW28816   0.428   4.234   5.021
 9306SOL    HW128817   0.521   4.202   5.043
 9306SOL    HW228818   0.428   4.273   4.929
 9307SOL     OW28819   1.078   3.356   1.526
 9307SOL    HW128820   1.069   3.404   1.438
 9307SOL    HW228821   1.139   3.407   1.586
 9308SOL     OW28822   1.375   4.180   1.189
 9308SOL    HW128823   1.432   4.107   1.226
 9308SOL    HW228824   1.394   4.265   1.237
 9309SOL     OW28825   3.643   4.995   5.558
 9309SOL    HW128826   3.597   5.002   5.469
 9309SOL    HW228827   3.609   4.915   5.607
 9310SOL     OW28828   4.782   4.900   6.316
 9310SOL    HW128829   4.873   4.941   6.316
 9310SOL    HW228830   4.713   4.972   6.319
 9311SOL     OW28831   5.176   5.106   1.769
 9311SOL    HW128832   5.217   5.191   1.801
 9311SOL    HW228833   5.092   5.127   1.718
 9312SOL     OW28834   1.265   3.665   1.676
 9312SOL    HW128835   1.269   3.620   1.587
 9312SOL    HW228836   1.174   3.651   1.715
 9313SOL     OW28837   6.699   0.637   0.922
 9313SOL    HW128838   6.709   0.736   0.910
 9313SOL    HW228839   6.678   0.595   0.834
 9314SOL     OW28840   4.396   5.866   6.174
 9314SOL    HW128841   4.423   5.956   6.208
 9314SOL    HW228842   4.421   5.857   6.078
 9315SOL     OW28843   6.513   0.821   5.219
 9315SOL    HW128844   6.579   0.895   5.231
 9315SOL    HW228845   6.427   0.859   5.184
 9316SOL     OW28846   4.228   5.289   5.489
 9316SOL    HW128847   4.326   5.298   5.508
 9316SOL    HW228848   4.192   5.377   5.457
 9317SOL     OW28849   6.753   5.203   3.292
 9317SOL    HW128850   6.765   5.105   3.275
 9317SOL    HW228851   6.662   5.220   3.330
 9318SOL     OW28852   6.409   0.615   5.353
 9318SOL    HW128853   6.435   0.698   5.302
 9318SOL    HW228854   6.369   0.642   5.440
 9319SOL     OW28855   0.821   2.752   6.606
 9319SOL    HW128856   0.827   2.772   6.704
 9319SOL    HW228857   0.814   2.653   6.593
 9320SOL     OW28858   3.786   1.082   6.310
 9320SOL    HW128859   3.696   1.098   6.269
 9320SOL    HW228860   3.855   1.131   6.258
 9321SOL     OW28861   6.362   0.577   3.028
 9321SOL    HW128862   6.286   0.553   2.966
 9321SOL    HW228863   6.448   0.548   2.986
 9322SOL     OW28864   0.673   5.250   6.450
 9322SOL    HW128865   0.635   5.271   6.541
 9322SOL    HW228866   0.766   5.286   6.445
 9323SOL     OW28867   1.571   6.997   5.341
 9323SOL    HW128868   1.479   6.986   5.303
 9323SOL    HW228869   1.587   6.929   5.411
 9324SOL     OW28870   1.916   4.994   0.478
 9324SOL    HW128871   2.015   4.986   0.490
 9324SOL    HW228872   1.875   5.033   0.560
 9325SOL     OW28873   5.222   0.945   6.694
 9325SOL    HW128874   5.287   0.885   6.646
 9325SOL    HW228875   5.214   0.915   6.789
 9326SOL     OW28876   1.881   6.746   0.973
 9326SOL    HW128877   1.868   6.776   1.067
 9326SOL    HW228878   1.978   6.722   0.959
 9327SOL     OW28879   5.134   6.958   2.854
 9327SOL    HW128880   5.105   0.032   2.877
 9327SOL    HW228881   5.186   6.919   2.930
 9328SOL     OW28882   3.258   1.408   5.824
 9328SOL    HW128883   3.332   1.433   5.761
 9328SOL    HW228884   3.256   1.308   5.834
 9329SOL     OW28885   6.601   4.130   2.256
 9329SOL    HW128886   6.577   4.075   2.336
 9329SOL    HW228887   6.664   4.203   2.283
 9330SOL     OW28888   0.232   6.467   6.995
 9330SOL    HW128889   0.308   6.464   6.930
 9330SOL    HW228890   0.175   6.547   6.976
 9331SOL     OW28891   1.316   1.790   6.207
 9331SOL    HW128892   1.407   1.751   6.196
 9331SOL    HW228893   1.265   1.738   6.276
 9332SOL     OW28894   3.814   3.514   2.574
 9332SOL    HW128895   3.856   3.464   2.650
 9332SOL    HW228896   3.718   3.532   2.595
 9333SOL     OW28897   4.214   3.762   1.419
 9333SOL    HW128898   4.120   3.795   1.421
 9333SOL    HW228899   4.238   3.733   1.326
 9334SOL     OW28900   4.575   6.017   3.823
 9334SOL    HW128901   4.623   5.933   3.796
 9334SOL    HW228902   4.631   6.069   3.887
 9335SOL     OW28903   0.948   1.588   6.177
 9335SOL    HW128904   0.888   1.643   6.237
 9335SOL    HW228905   0.894   1.518   6.131
 9336SOL     OW28906   2.969   5.361   5.566
 9336SOL    HW128907   2.997   5.397   5.655
 9336SOL    HW228908   2.872   5.335   5.570
 9337SOL     OW28909   4.674   1.204   3.212
 9337SOL    HW128910   4.623   1.268   3.269
 9337SOL    HW228911   4.768   1.237   3.199
 9338SOL     OW28912   3.683   0.639   1.833
 9338SOL    HW128913   3.756   0.653   1.765
 9338SOL    HW228914   3.720   0.590   1.912
 9339SOL     OW28915   5.440   6.861   1.189
 9339SOL    HW128916   5.536   6.840   1.171
 9339SOL    HW228917   5.382   6.799   1.135
 9340SOL     OW28918   6.037   3.451   4.702
 9340SOL    HW128919   5.945   3.419   4.681
 9340SOL    HW228920   6.058   3.533   4.648
 9341SOL     OW28921   0.011   5.738   6.590
 9341SOL    HW128922   6.979   5.799   6.529
 9341SOL    HW228923   0.038   5.656   6.539
 9342SOL     OW28924   2.068   0.355   3.741
 9342SOL    HW128925   2.139   0.400   3.687
 9342SOL    HW228926   1.987   0.341   3.684
 9343SOL     OW28927   6.166   4.410   3.115
 9343SOL    HW128928   6.087   4.369   3.068
 9343SOL    HW228929   6.134   4.481   3.178
 9344SOL     OW28930   4.778   6.349   1.752
 9344SOL    HW128931   4.788   6.257   1.715
 9344SOL    HW228932   4.844   6.362   1.826
 9345SOL     OW28933   6.563   4.480   2.400
 9345SOL    HW128934   6.493   4.470   2.329
 9345SOL    HW228935   6.641   4.421   2.377
 9346SOL     OW28936   5.885   0.743   0.932
 9346SOL    HW128937   5.846   0.808   0.997
 9346SOL    HW228938   5.882   0.781   0.840
 9347SOL     OW28939   1.283   4.890   1.244
 9347SOL    HW128940   1.325   4.844   1.166
 9347SOL    HW228941   1.291   4.989   1.233
 9348SOL     OW28942   3.897   5.566   2.054
 9348SOL    HW128943   3.881   5.583   1.957
 9348SOL    HW228944   3.959   5.489   2.065
 9349SOL     OW28945   1.251   6.431   2.702
 9349SOL    HW128946   1.265   6.350   2.645
 9349SOL    HW228947   1.310   6.505   2.670
 9350SOL     OW28948   0.680   3.542   5.222
 9350SOL    HW128949   0.770   3.523   5.259
 9350SOL    HW228950   0.663   3.641   5.223
 9351SOL     OW28951   2.813   0.753   6.230
 9351SOL    HW128952   2.907   0.720   6.227
 9351SOL    HW228953   2.771   0.726   6.316
 9352SOL     OW28954   2.983   2.453   6.948
 9352SOL    HW128955   3.010   2.419   6.857
 9352SOL    HW228956   3.063   2.493   6.993
 9353SOL     OW28957   0.408   5.372   0.757
 9353SOL    HW128958   0.376   5.278   0.768
 9353SOL    HW228959   0.506   5.372   0.739
 9354SOL     OW28960   6.403   2.016   6.507
 9354SOL    HW128961   6.386   2.112   6.528
 9354SOL    HW228962   6.316   1.967   6.498
 9355SOL     OW28963   0.450   2.174   5.050
 9355SOL    HW128964   0.539   2.218   5.055
 9355SOL    HW228965   0.406   2.177   5.140
 9356SOL     OW28966   3.892   0.278   1.034
 9356SOL    HW128967   3.935   0.222   1.105
 9356SOL    HW228968   3.958   0.345   1.001
 9357SOL     OW28969   0.956   3.299   6.198
 9357SOL    HW128970   1.035   3.356   6.176
 9357SOL    HW228971   0.979   3.238   6.274
 9358SOL     OW28972   6.893   4.069   2.476
 9358SOL    HW128973   6.828   4.099   2.546
 9358SOL    HW228974   6.909   3.971   2.486
 9359SOL     OW28975   1.533   4.475   6.934
 9359SOL    HW128976   1.462   4.486   6.864
 9359SOL    HW228977   1.516   4.391   6.985
 9360SOL     OW28978   1.432   5.926   6.136
 9360SOL    HW128979   1.429   5.827   6.127
 9360SOL    HW228980   1.419   5.951   6.232
 9361SOL     OW28981   2.100   5.392   3.428
 9361SOL    HW128982   2.086   5.303   3.383
 9361SOL    HW228983   2.117   5.462   3.359
 9362SOL     OW28984   1.358   1.503   2.914
 9362SOL    HW128985   1.334   1.406   2.915
 9362SOL    HW228986   1.441   1.518   2.968
 9363SOL     OW28987   3.739   5.390   1.231
 9363SOL    HW128988   3.777   5.476   1.264
 9363SOL    HW228989   3.673   5.408   1.158
 9364SOL     OW28990   2.097   1.374   0.927
 9364SOL    HW128991   2.045   1.345   0.847
 9364SOL    HW228992   2.084   1.308   1.001
 9365SOL     OW28993   3.170   1.853   3.585
 9365SOL    HW128994   3.244   1.916   3.562
 9365SOL    HW228995   3.085   1.884   3.541
 9366SOL     OW28996   2.970   5.832   0.201
 9366SOL    HW128997   3.006   5.738   0.208
 9366SOL    HW228998   2.969   5.860   0.105
 9367SOL     OW28999   6.266   0.373   1.664
 9367SOL    HW129000   6.280   0.403   1.570
 9367SOL    HW229001   6.310   0.437   1.727
 9368SOL     OW29002   3.822   6.870   2.132
 9368SOL    HW129003   3.783   6.895   2.043
 9368SOL    HW229004   3.878   6.787   2.122
 9369SOL     OW29005   0.425   5.813   5.229
 9369SOL    HW129006   0.518   5.807   5.193
 9369SOL    HW229007   0.416   5.753   5.309
 9370SOL     OW29008   5.049   1.043   3.854
 9370SOL    HW129009   5.142   1.078   3.845
 9370SOL    HW229010   4.984   1.118   3.838
 9371SOL     OW29011   2.540   5.781   1.230
 9371SOL    HW129012   2.460   5.777   1.169
 9371SOL    HW229013   2.538   5.866   1.282
 9372SOL     OW29014   4.560   6.843   1.957
 9372SOL    HW129015   4.558   6.941   1.936
 9372SOL    HW229016   4.474   6.801   1.927
 9373SOL     OW29017   5.912   2.187   0.668
 9373SOL    HW129018   5.861   2.235   0.739
 9373SOL    HW229019   5.991   2.243   0.641
 9374SOL     OW29020   6.797   3.484   5.869
 9374SOL    HW129021   6.776   3.418   5.941
 9374SOL    HW229022   6.810   3.575   5.910
 9375SOL     OW29023   6.899   1.928   0.887
 9375SOL    HW129024   6.902   1.858   0.958
 9375SOL    HW229025   6.911   2.018   0.928
 9376SOL     OW29026   2.044   3.371   1.792
 9376SOL    HW129027   2.047   3.419   1.704
 9376SOL    HW229028   2.089   3.428   1.862
 9377SOL     OW29029   2.828   5.344   3.101
 9377SOL    HW129030   2.891   5.373   3.173
 9377SOL    HW229031   2.735   5.343   3.138
 9378SOL     OW29032   3.288   1.330   4.062
 9378SOL    HW129033   3.247   1.403   4.116
 9378SOL    HW229034   3.232   1.312   3.981
 9379SOL     OW29035   4.752   0.246   4.609
 9379SOL    HW129036   4.838   0.292   4.586
 9379SOL    HW229037   4.689   0.312   4.651
 9380SOL     OW29038   3.533   5.924   5.941
 9380SOL    HW129039   3.531   5.971   6.029
 9380SOL    HW229040   3.442   5.891   5.918
 9381SOL     OW29041   5.200   2.476   4.833
 9381SOL    HW129042   5.175   2.573   4.828
 9381SOL    HW229043   5.171   2.440   4.921
 9382SOL     OW29044   3.976   0.876   4.121
 9382SOL    HW129045   4.032   0.906   4.198
 9382SOL    HW229046   4.028   0.889   4.036
 9383SOL     OW29047   4.903   4.478   4.118
 9383SOL    HW129048   4.982   4.520   4.162
 9383SOL    HW229049   4.934   4.404   4.057
 9384SOL     OW29050   2.630   0.171   2.243
 9384SOL    HW129051   2.623   0.177   2.343
 9384SOL    HW229052   2.569   0.099   2.210
 9385SOL     OW29053   3.918   1.628   4.146
 9385SOL    HW129054   3.893   1.532   4.139
 9385SOL    HW229055   3.877   1.679   4.071
 9386SOL     OW29056   3.274   5.623   5.340
 9386SOL    HW129057   3.195   5.562   5.336
 9386SOL    HW229058   3.288   5.666   5.251
 9387SOL     OW29059   3.798   2.324   0.360
 9387SOL    HW129060   3.851   2.247   0.396
 9387SOL    HW229061   3.715   2.290   0.317
 9388SOL     OW29062   1.636   6.663   3.724
 9388SOL    HW129063   1.588   6.626   3.644
 9388SOL    HW229064   1.728   6.692   3.697
 9389SOL     OW29065   3.420   5.470   1.893
 9389SOL    HW129066   3.321   5.462   1.899
 9389SOL    HW229067   3.448   5.563   1.916
 9390SOL     OW29068   5.590   4.406   5.930
 9390SOL    HW129069   5.572   4.424   5.834
 9390SOL    HW229070   5.679   4.361   5.940
 9391SOL     OW29071   0.632   0.227   4.815
 9391SOL    HW129072   0.663   0.157   4.880
 9391SOL    HW229073   0.570   0.186   4.749
 9392SOL     OW29074   5.016   4.535   3.777
 9392SOL    HW129075   4.963   4.451   3.771
 9392SOL    HW229076   5.021   4.578   3.687
 9393SOL     OW29077   3.003   6.267   6.301
 9393SOL    HW129078   3.023   6.329   6.226
 9393SOL    HW229079   2.903   6.260   6.313
 9394SOL     OW29080   5.815   0.583   1.293
 9394SOL    HW129081   5.907   0.611   1.266
 9394SOL    HW229082   5.748   0.634   1.239
 9395SOL     OW29083   2.582   1.353   0.723
 9395SOL    HW129084   2.680   1.370   0.716
 9395SOL    HW229085   2.535   1.438   0.748
 9396SOL     OW29086   2.134   5.744   5.455
 9396SOL    HW129087   2.055   5.724   5.513
 9396SOL    HW229088   2.185   5.821   5.494
 9397SOL     OW29089   3.372   6.590   5.850
 9397SOL    HW129090   3.338   6.514   5.904
 9397SOL    HW229091   3.425   6.555   5.772
 9398SOL     OW29092   6.438   1.269   5.952
 9398SOL    HW129093   6.433   1.366   5.928
 9398SOL    HW229094   6.491   1.258   6.036
 9399SOL     OW29095   1.197   2.321   4.244
 9399SOL    HW129096   1.277   2.297   4.188
 9399SOL    HW229097   1.165   2.240   4.293
 9400SOL     OW29098   4.838   0.702   0.272
 9400SOL    HW129099   4.877   0.692   0.363
 9400SOL    HW229100   4.766   0.771   0.274
 9401SOL     OW29101   0.009   2.752   1.816
 9401SOL    HW129102   0.052   2.727   1.730
 9401SOL    HW229103   0.050   2.837   1.850
 9402SOL     OW29104   1.943   5.316   3.729
 9402SOL    HW129105   1.976   5.410   3.738
 9402SOL    HW229106   2.020   5.257   3.706
 9403SOL     OW29107   0.056   1.161   2.399
 9403SOL    HW129108   0.135   1.194   2.348
 9403SOL    HW229109   7.007   1.123   2.335
 9404SOL     OW29110   0.715   3.110   1.303
 9404SOL    HW129111   0.699   3.012   1.293
 9404SOL    HW229112   0.749   3.147   1.216
 9405SOL     OW29113   0.590   4.671   4.837
 9405SOL    HW129114   0.504   4.648   4.883
 9405SOL    HW229115   0.570   4.708   4.747
 9406SOL     OW29116   0.944   3.017   6.723
 9406SOL    HW129117   1.031   3.057   6.693
 9406SOL    HW229118   0.918   2.943   6.661
 9407SOL     OW29119   2.596   5.164   5.101
 9407SOL    HW129120   2.641   5.083   5.136
 9407SOL    HW229121   2.592   5.159   5.001
 9408SOL     OW29122   6.911   3.174   5.415
 9408SOL    HW129123   7.005   3.173   5.380
 9408SOL    HW229124   6.864   3.255   5.379
 9409SOL     OW29125   6.509   5.796   1.864
 9409SOL    HW129126   6.539   5.745   1.945
 9409SOL    HW229127   6.545   5.890   1.870
 9410SOL     OW29128   4.682   1.083   1.841
 9410SOL    HW129129   4.726   1.110   1.927
 9410SOL    HW229130   4.741   1.018   1.793
 9411SOL     OW29131   3.092   3.085   3.194
 9411SOL    HW129132   3.141   3.094   3.108
 9411SOL    HW229133   3.118   2.999   3.239
 9412SOL     OW29134   0.739   0.410   0.989
 9412SOL    HW129135   0.656   0.458   0.963
 9412SOL    HW229136   0.724   0.363   1.076
 9413SOL     OW29137   4.648   4.739   4.715
 9413SOL    HW129138   4.637   4.786   4.802
 9413SOL    HW229139   4.563   4.693   4.690
 9414SOL     OW29140   2.441   2.232   4.801
 9414SOL    HW129141   2.359   2.223   4.859
 9414SOL    HW229142   2.507   2.291   4.847
 9415SOL     OW29143   2.827   0.455   1.920
 9415SOL    HW129144   2.816   0.435   1.822
 9415SOL    HW229145   2.855   0.371   1.968
 9416SOL     OW29146   0.216   0.197   5.505
 9416SOL    HW129147   0.143   0.237   5.450
 9416SOL    HW229148   0.298   0.253   5.499
 9417SOL     OW29149   3.306   6.277   1.503
 9417SOL    HW129150   3.374   6.309   1.436
 9417SOL    HW229151   3.336   6.303   1.595
 9418SOL     OW29152   3.090   1.349   3.817
 9418SOL    HW129153   3.011   1.331   3.875
 9418SOL    HW229154   3.111   1.447   3.819
 9419SOL     OW29155   2.360   2.455   6.251
 9419SOL    HW129156   2.290   2.384   6.262
 9419SOL    HW229157   2.407   2.468   6.339
 9420SOL     OW29158   5.848   4.411   0.721
 9420SOL    HW129159   5.810   4.486   0.776
 9420SOL    HW229160   5.889   4.448   0.638
 9421SOL     OW29161   3.790   5.975   4.941
 9421SOL    HW129162   3.692   5.983   4.958
 9421SOL    HW229163   3.817   5.879   4.945
 9422SOL     OW29164   2.576   6.168   4.155
 9422SOL    HW129165   2.607   6.074   4.164
 9422SOL    HW229166   2.597   6.201   4.063
 9423SOL     OW29167   4.008   5.582   3.240
 9423SOL    HW129168   3.977   5.675   3.262
 9423SOL    HW229169   3.929   5.521   3.234
 9424SOL     OW29170   5.149   1.835   4.451
 9424SOL    HW129171   5.158   1.739   4.426
 9424SOL    HW229172   5.124   1.843   4.547
 9425SOL     OW29173   5.961   4.775   1.367
 9425SOL    HW129174   6.031   4.709   1.395
 9425SOL    HW229175   5.948   4.770   1.268
 9426SOL     OW29176   0.789   2.045   6.385
 9426SOL    HW129177   0.749   2.129   6.420
 9426SOL    HW229178   0.879   2.065   6.345
 9427SOL     OW29179   2.906   5.633   2.808
 9427SOL    HW129180   2.838   5.676   2.868
 9427SOL    HW229181   2.993   5.626   2.856
 9428SOL     OW29182   6.335   6.233   0.631
 9428SOL    HW129183   6.408   6.298   0.608
 9428SOL    HW229184   6.357   6.144   0.590
 9429SOL     OW29185   1.562   2.559   4.149
 9429SOL    HW129186   1.490   2.582   4.083
 9429SOL    HW229187   1.627   2.496   4.106
 9430SOL     OW29188   0.508   2.192   4.553
 9430SOL    HW129189   0.554   2.108   4.579
 9430SOL    HW229190   0.476   2.185   4.458
 9431SOL     OW29191   0.089   4.343   0.908
 9431SOL    HW129192   0.003   4.380   0.875
 9431SOL    HW229193   0.077   4.308   1.001
 9432SOL     OW29194   6.672   1.152   3.949
 9432SOL    HW129195   6.667   1.065   3.999
 9432SOL    HW229196   6.727   1.139   3.866
 9433SOL     OW29197   4.123   5.829   2.838
 9433SOL    HW129198   4.130   5.733   2.866
 9433SOL    HW229199   4.160   5.840   2.746
 9434SOL     OW29200   5.799   5.476   3.970
 9434SOL    HW129201   5.804   5.532   4.052
 9434SOL    HW229202   5.709   5.485   3.928
 9435SOL     OW29203   0.431   2.574   2.482
 9435SOL    HW129204   0.405   2.669   2.500
 9435SOL    HW229205   0.369   2.512   2.530
 9436SOL     OW29206   0.922   1.019   2.400
 9436SOL    HW129207   0.992   0.978   2.457
 9436SOL    HW229208   0.946   1.115   2.381
 9437SOL     OW29209   0.510   5.402   3.231
 9437SOL    HW129210   0.456   5.441   3.306
 9437SOL    HW229211   0.608   5.415   3.251
 9438SOL     OW29212   2.157   6.684   1.246
 9438SOL    HW129213   2.212   6.687   1.329
 9438SOL    HW229214   2.070   6.639   1.265
 9439SOL     OW29215   0.941   3.013   0.713
 9439SOL    HW129216   0.848   3.049   0.706
 9439SOL    HW229217   1.007   3.087   0.703
 9440SOL     OW29218   3.184   4.973   3.587
 9440SOL    HW129219   3.121   5.050   3.589
 9440SOL    HW229220   3.220   4.956   3.679
 9441SOL     OW29221   6.560   5.796   5.004
 9441SOL    HW129222   6.541   5.807   4.906
 9441SOL    HW229223   6.533   5.705   5.033
 9442SOL     OW29224   4.948   3.417   1.068
 9442SOL    HW129225   4.965   3.352   1.143
 9442SOL    HW229226   4.933   3.366   0.983
 9443SOL     OW29227   3.282   5.534   1.502
 9443SOL    HW129228   3.340   5.454   1.511
 9443SOL    HW229229   3.337   5.617   1.512
 9444SOL     OW29230   2.184   3.489   0.661
 9444SOL    HW129231   2.109   3.533   0.612
 9444SOL    HW229232   2.231   3.556   0.719
 9445SOL     OW29233   0.695   1.880   4.297
 9445SOL    HW129234   0.716   1.806   4.361
 9445SOL    HW229235   0.727   1.967   4.334
 9446SOL     OW29236   6.306   5.166   3.735
 9446SOL    HW129237   6.404   5.167   3.757
 9446SOL    HW229238   6.254   5.129   3.812
 9447SOL     OW29239   5.307   5.653   2.878
 9447SOL    HW129240   5.397   5.687   2.853
 9447SOL    HW229241   5.311   5.613   2.970
 9448SOL     OW29242   5.883   6.955   5.794
 9448SOL    HW129243   5.933   0.016   5.829
 9448SOL    HW229244   5.786   6.965   5.816
 9449SOL     OW29245   5.253   6.671   0.046
 9449SOL    HW129246   5.223   6.670   6.969
 9449SOL    HW229247   5.206   6.745   0.094
 9450SOL     OW29248   1.474   5.753   4.262
 9450SOL    HW129249   1.493   5.665   4.220
 9450SOL    HW229250   1.476   5.744   4.362
 9451SOL     OW29251   3.269   5.600   6.320
 9451SOL    HW129252   3.268   5.615   6.419
 9451SOL    HW229253   3.233   5.680   6.273
 9452SOL     OW29254   0.698   4.210   1.088
 9452SOL    HW129255   0.782   4.210   1.035
 9452SOL    HW229256   0.624   4.171   1.032
 9453SOL     OW29257   3.350   4.952   3.160
 9453SOL    HW129258   3.442   4.930   3.129
 9453SOL    HW229259   3.285   4.889   3.118
 9454SOL     OW29260   4.705   4.187   1.056
 9454SOL    HW129261   4.610   4.203   1.029
 9454SOL    HW229262   4.708   4.128   1.137
 9455SOL     OW29263   2.976   2.128   2.342
 9455SOL    HW129264   3.010   2.146   2.250
 9455SOL    HW229265   3.053   2.111   2.403
 9456SOL     OW29266   6.285   3.653   2.317
 9456SOL    HW129267   6.280   3.598   2.233
 9456SOL    HW229268   6.251   3.599   2.394
 9457SOL     OW29269   1.390   4.978   4.412
 9457SOL    HW129270   1.325   5.053   4.403
 9457SOL    HW229271   1.446   4.972   4.329
 9458SOL     OW29272   6.945   4.375   0.562
 9458SOL    HW129273   7.018   4.443   0.549
 9458SOL    HW229274   6.887   4.374   0.480
 9459SOL     OW29275   5.227   4.258   4.681
 9459SOL    HW129276   5.246   4.348   4.642
 9459SOL    HW229277   5.230   4.263   4.781
 9460SOL     OW29278   1.623   3.438   4.078
 9460SOL    HW129279   1.718   3.408   4.089
 9460SOL    HW229280   1.563   3.381   4.134
 9461SOL     OW29281   1.317   1.827   1.467
 9461SOL    HW129282   1.355   1.905   1.516
 9461SOL    HW229283   1.389   1.762   1.446
 9462SOL     OW29284   1.633   2.316   3.946
 9462SOL    HW129285   1.705   2.256   3.911
 9462SOL    HW229286   1.604   2.378   3.873
 9463SOL     OW29287   5.553   6.622   1.398
 9463SOL    HW129288   5.610   6.653   1.322
 9463SOL    HW229289   5.501   6.541   1.371
 9464SOL     OW29290   6.642   0.522   1.623
 9464SOL    HW129291   6.641   0.469   1.538
 9464SOL    HW229292   6.642   0.619   1.602
 9465SOL     OW29293   0.279   4.009   1.389
 9465SOL    HW129294   0.195   3.977   1.344
 9465SOL    HW229295   0.261   4.096   1.435
 9466SOL     OW29296   3.916   5.736   6.355
 9466SOL    HW129297   4.005   5.729   6.311
 9466SOL    HW229298   3.844   5.718   6.288
 9467SOL     OW29299   2.108   2.770   0.718
 9467SOL    HW129300   2.112   2.852   0.660
 9467SOL    HW229301   2.055   2.699   0.672
 9468SOL     OW29302   0.061   3.800   6.700
 9468SOL    HW129303   0.011   3.729   6.749
 9468SOL    HW229304   0.094   3.763   6.613
 9469SOL     OW29305   0.193   6.050   0.105
 9469SOL    HW129306   0.170   6.133   0.155
 9469SOL    HW229307   0.174   6.064   0.008
 9470SOL     OW29308   4.777   3.841   0.187
 9470SOL    HW129309   4.838   3.919   0.192
 9470SOL    HW229310   4.703   3.852   0.254
 9471SOL     OW29311   6.215   2.374   4.991
 9471SOL    HW129312   6.191   2.286   4.951
 9471SOL    HW229313   6.133   2.431   5.000
 9472SOL     OW29314   1.278   4.676   6.233
 9472SOL    HW129315   1.326   4.634   6.155
 9472SOL    HW229316   1.212   4.743   6.199
 9473SOL     OW29317   2.787   4.004   6.997
 9473SOL    HW129318   2.767   3.979   0.074
 9473SOL    HW229319   2.703   4.030   6.951
 9474SOL     OW29320   5.895   3.812   1.620
 9474SOL    HW129321   5.956   3.891   1.612
 9474SOL    HW229322   5.812   3.839   1.669
 9475SOL     OW29323   4.614   3.646   5.882
 9475SOL    HW129324   4.605   3.655   5.782
 9475SOL    HW229325   4.648   3.555   5.904
 9476SOL     OW29326   3.967   4.445   5.524
 9476SOL    HW129327   3.874   4.475   5.543
 9476SOL    HW229328   4.032   4.510   5.562
 9477SOL     OW29329   1.803   3.369   1.419
 9477SOL    HW129330   1.841   3.435   1.483
 9477SOL    HW229331   1.756   3.297   1.470
 9478SOL     OW29332   4.482   2.547   0.985
 9478SOL    HW129333   4.503   2.639   0.952
 9478SOL    HW229334   4.464   2.551   1.083
 9479SOL     OW29335   4.155   1.237   1.325
 9479SOL    HW129336   4.250   1.258   1.349
 9479SOL    HW229337   4.139   1.139   1.333
 9480SOL     OW29338   5.479   5.806   0.116
 9480SOL    HW129339   5.495   5.815   0.018
 9480SOL    HW229340   5.395   5.753   0.131
 9481SOL     OW29341   4.228   1.774   3.440
 9481SOL    HW129342   4.134   1.743   3.426
 9481SOL    HW229343   4.287   1.694   3.454
 9482SOL     OW29344   5.561   0.639   0.761
 9482SOL    HW129345   5.552   0.735   0.736
 9482SOL    HW229346   5.638   0.628   0.824
 9483SOL     OW29347   0.746   0.703   6.931
 9483SOL    HW129348   0.787   0.750   6.853
 9483SOL    HW229349   0.728   0.608   6.907
 9484SOL     OW29350   2.726   6.570   4.395
 9484SOL    HW129351   2.726   6.493   4.459
 9484SOL    HW229352   2.821   6.597   4.375
 9485SOL     OW29353   6.140   1.197   1.054
 9485SOL    HW129354   6.151   1.267   0.984
 9485SOL    HW229355   6.075   1.228   1.123
 9486SOL     OW29356   4.933   5.489   0.635
 9486SOL    HW129357   4.934   5.589   0.639
 9486SOL    HW229358   4.922   5.460   0.541
 9487SOL     OW29359   3.464   3.858   4.430
 9487SOL    HW129360   3.489   3.796   4.504
 9487SOL    HW229361   3.414   3.937   4.468
 9488SOL     OW29362   1.675   1.213   1.276
 9488SOL    HW129363   1.731   1.293   1.257
 9488SOL    HW229364   1.613   1.233   1.352
 9489SOL     OW29365   5.402   4.610   1.269
 9489SOL    HW129366   5.472   4.673   1.235
 9489SOL    HW229367   5.348   4.577   1.193
 9490SOL     OW29368   6.303   5.493   3.735
 9490SOL    HW129369   6.378   5.444   3.779
 9490SOL    HW229370   6.280   5.450   3.648
 9491SOL     OW29371   5.759   6.197   3.664
 9491SOL    HW129372   5.729   6.104   3.686
 9491SOL    HW229373   5.724   6.222   3.574
 9492SOL     OW29374   4.837   2.866   5.128
 9492SOL    HW129375   4.912   2.851   5.192
 9492SOL    HW229376   4.830   2.964   5.108
 9493SOL     OW29377   3.465   6.382   4.251
 9493SOL    HW129378   3.497   6.470   4.216
 9493SOL    HW229379   3.499   6.308   4.193
 9494SOL     OW29380   5.704   2.766   2.380
 9494SOL    HW129381   5.690   2.865   2.369
 9494SOL    HW229382   5.653   2.717   2.309
 9495SOL     OW29383   6.976   1.136   2.082
 9495SOL    HW129384   0.023   1.138   2.007
 9495SOL    HW229385   6.895   1.191   2.058
 9496SOL     OW29386   4.410   1.996   2.329
 9496SOL    HW129387   4.413   2.043   2.242
 9496SOL    HW229388   4.486   1.931   2.336
 9497SOL     OW29389   5.442   5.814   5.193
 9497SOL    HW129390   5.399   5.842   5.107
 9497SOL    HW229391   5.527   5.866   5.206
 9498SOL     OW29392   6.793   4.813   4.427
 9498SOL    HW129393   6.848   4.881   4.378
 9498SOL    HW229394   6.703   4.806   4.384
 9499SOL     OW29395   6.859   5.535   5.008
 9499SOL    HW129396   6.947   5.583   5.008
 9499SOL    HW229397   6.859   5.467   5.082
 9500SOL     OW29398   4.255   6.569   1.167
 9500SOL    HW129399   4.201   6.640   1.123
 9500SOL    HW229400   4.215   6.548   1.257
 9501SOL     OW29401   1.604   1.711   4.286
 9501SOL    HW129402   1.689   1.674   4.247
 9501SOL    HW229403   1.571   1.786   4.228
 9502SOL     OW29404   5.587   4.595   4.744
 9502SOL    HW129405   5.668   4.553   4.786
 9502SOL    HW229406   5.599   4.695   4.742
 9503SOL     OW29407   0.551   2.278   0.539
 9503SOL    HW129408   0.620   2.211   0.565
 9503SOL    HW229409   0.595   2.357   0.498
 9504SOL     OW29410   0.050   3.768   1.916
 9504SOL    HW129411   0.088   3.803   2.001
 9504SOL    HW229412   6.988   3.823   1.890
 9505SOL     OW29413   4.763   5.089   5.897
 9505SOL    HW129414   4.781   5.185   5.875
 9505SOL    HW229415   4.782   5.072   5.993
 9506SOL     OW29416   2.385   2.254   0.565
 9506SOL    HW129417   2.412   2.272   0.660
 9506SOL    HW229418   2.393   2.339   0.513
 9507SOL     OW29419   6.041   0.404   1.272
 9507SOL    HW129420   6.075   0.312   1.249
 9507SOL    HW229421   6.065   0.468   1.199
 9508SOL     OW29422   4.748   1.178   2.103
 9508SOL    HW129423   4.684   1.242   2.145
 9508SOL    HW229424   4.757   1.097   2.161
 9509SOL     OW29425   6.630   0.875   3.019
 9509SOL    HW129426   6.615   0.845   2.925
 9509SOL    HW229427   6.542   0.889   3.065
 9510SOL     OW29428   0.697   3.598   3.694
 9510SOL    HW129429   0.772   3.617   3.631
 9510SOL    HW229430   0.723   3.522   3.755
 9511SOL     OW29431   0.785   1.107   1.171
 9511SOL    HW129432   0.806   1.184   1.232
 9511SOL    HW229433   0.695   1.121   1.130
 9512SOL     OW29434   6.633   3.010   1.027
 9512SOL    HW129435   6.654   3.016   0.930
 9512SOL    HW229436   6.533   3.012   1.040
 9513SOL     OW29437   3.554   4.765   5.691
 9513SOL    HW129438   3.634   4.791   5.745
 9513SOL    HW229439   3.516   4.680   5.726
 9514SOL     OW29440   3.233   3.136   6.537
 9514SOL    HW129441   3.211   3.164   6.631
 9514SOL    HW229442   3.206   3.208   6.474
 9515SOL     OW29443   2.646   4.941   3.405
 9515SOL    HW129444   2.689   5.003   3.340
 9515SOL    HW229445   2.714   4.877   3.441
 9516SOL     OW29446   6.355   4.433   0.543
 9516SOL    HW129447   6.323   4.471   0.629
 9516SOL    HW229448   6.312   4.480   0.466
 9517SOL     OW29449   1.295   4.652   1.456
 9517SOL    HW129450   1.207   4.605   1.444
 9517SOL    HW229451   1.301   4.729   1.393
 9518SOL     OW29452   2.769   1.026   0.457
 9518SOL    HW129453   2.672   1.003   0.455
 9518SOL    HW229454   2.801   1.028   0.552
 9519SOL     OW29455   1.130   2.405   5.490
 9519SOL    HW129456   1.122   2.505   5.487
 9519SOL    HW229457   1.226   2.379   5.497
 9520SOL     OW29458   2.316   0.270   2.538
 9520SOL    HW129459   2.330   0.201   2.467
 9520SOL    HW229460   2.221   0.302   2.535
 9521SOL     OW29461   5.928   6.158   4.334
 9521SOL    HW129462   5.967   6.165   4.242
 9521SOL    HW229463   5.949   6.242   4.385
 9522SOL     OW29464   3.402   5.775   0.991
 9522SOL    HW129465   3.335   5.700   0.986
 9522SOL    HW229466   3.380   5.844   0.922
 9523SOL     OW29467   3.542   5.418   4.348
 9523SOL    HW129468   3.641   5.418   4.350
 9523SOL    HW229469   3.508   5.512   4.358
 9524SOL     OW29470   3.471   2.783   1.096
 9524SOL    HW129471   3.429   2.824   1.177
 9524SOL    HW229472   3.556   2.738   1.121
 9525SOL     OW29473   1.909   1.235   6.227
 9525SOL    HW129474   1.968   1.250   6.147
 9525SOL    HW229475   1.815   1.260   6.204
 9526SOL     OW29476   5.658   6.134   3.168
 9526SOL    HW129477   5.602   6.051   3.161
 9526SOL    HW229478   5.643   6.191   3.087
 9527SOL     OW29479   0.880   0.667   2.046
 9527SOL    HW129480   0.890   0.759   2.083
 9527SOL    HW229481   0.922   0.601   2.108
 9528SOL     OW29482   6.567   0.276   0.782
 9528SOL    HW129483   6.619   0.358   0.803
 9528SOL    HW229484   6.518   0.245   0.864
 9529SOL     OW29485   1.155   3.169   6.662
 9529SOL    HW129486   1.212   3.105   6.714
 9529SOL    HW229487   1.148   3.255   6.711
 9530SOL     OW29488   1.981   2.660   2.741
 9530SOL    HW129489   1.951   2.708   2.823
 9530SOL    HW229490   2.027   2.575   2.767
 9531SOL     OW29491   4.023   6.075   2.937
 9531SOL    HW129492   4.039   6.126   2.852
 9531SOL    HW229493   4.044   5.979   2.922
 9532SOL     OW29494   1.594   6.097   1.269
 9532SOL    HW129495   1.629   6.020   1.216
 9532SOL    HW229496   1.665   6.129   1.333
 9533SOL     OW29497   0.375   1.146   4.970
 9533SOL    HW129498   0.339   1.106   4.885
 9533SOL    HW229499   0.307   1.207   5.009
 9534SOL     OW29500   5.258   1.739   4.998
 9534SOL    HW129501   5.328   1.808   4.982
 9534SOL    HW229502   5.170   1.784   5.013
 9535SOL     OW29503   2.634   0.790   5.846
 9535SOL    HW129504   2.669   0.879   5.817
 9535SOL    HW229505   2.709   0.725   5.854
 9536SOL     OW29506   1.919   5.721   5.629
 9536SOL    HW129507   1.876   5.811   5.618
 9536SOL    HW229508   1.855   5.659   5.676
 9537SOL     OW29509   3.351   0.271   2.387
 9537SOL    HW129510   3.368   0.335   2.312
 9537SOL    HW229511   3.410   0.295   2.464
 9538SOL     OW29512   6.369   1.906   4.325
 9538SOL    HW129513   6.385   1.978   4.392
 9538SOL    HW229514   6.370   1.944   4.233
 9539SOL     OW29515   1.497   5.652   6.371
 9539SOL    HW129516   1.419   5.642   6.309
 9539SOL    HW229517   1.466   5.645   6.465
 9540SOL     OW29518   4.660   4.919   5.696
 9540SOL    HW129519   4.708   4.952   5.777
 9540SOL    HW229520   4.622   4.828   5.714
 9541SOL     OW29521   1.662   2.373   5.102
 9541SOL    HW129522   1.731   2.436   5.138
 9541SOL    HW229523   1.667   2.373   5.002
 9542SOL     OW29524   4.986   3.261   4.730
 9542SOL    HW129525   4.998   3.204   4.811
 9542SOL    HW229526   4.949   3.350   4.757
 9543SOL     OW29527   4.619   0.948   4.280
 9543SOL    HW129528   4.535   0.915   4.235
 9543SOL    HW229529   4.685   0.874   4.285
 9544SOL     OW29530   5.808   0.090   2.296
 9544SOL    HW129531   5.878   0.087   2.225
 9544SOL    HW229532   5.718   0.101   2.252
 9545SOL     OW29533   6.400   6.876   3.562
 9545SOL    HW129534   6.485   6.917   3.596
 9545SOL    HW229535   6.419   6.824   3.479
 9546SOL     OW29536   2.562   4.428   6.763
 9546SOL    HW129537   2.516   4.444   6.850
 9546SOL    HW229538   2.642   4.487   6.755
 9547SOL     OW29539   1.329   6.370   4.124
 9547SOL    HW129540   1.353   6.416   4.039
 9547SOL    HW229541   1.242   6.322   4.113
 9548SOL     OW29542   5.805   5.714   4.968
 9548SOL    HW129543   5.720   5.662   4.980
 9548SOL    HW229544   5.783   5.810   4.954
 9549SOL     OW29545   3.473   5.303   0.148
 9549SOL    HW129546   3.491   5.330   0.054
 9549SOL    HW229547   3.378   5.271   0.156
 9550SOL     OW29548   0.335   1.699   0.320
 9550SOL    HW129549   0.334   1.747   0.408
 9550SOL    HW229550   0.422   1.718   0.273
 9551SOL     OW29551   0.472   0.101   4.656
 9551SOL    HW129552   0.503   0.076   4.564
 9551SOL    HW229553   0.377   0.132   4.653
 9552SOL     OW29554   1.338   6.798   3.332
 9552SOL    HW129555   1.245   6.813   3.365
 9552SOL    HW229556   1.346   6.834   3.239
 9553SOL     OW29557   5.643   4.699   6.398
 9553SOL    HW129558   5.672   4.724   6.491
 9553SOL    HW229559   5.546   4.675   6.399
 9554SOL     OW29560   2.655   0.951   2.459
 9554SOL    HW129561   2.694   0.862   2.434
 9554SOL    HW229562   2.583   0.975   2.394
 9555SOL     OW29563   6.343   2.322   0.990
 9555SOL    HW129564   6.307   2.325   1.083
 9555SOL    HW229565   6.273   2.350   0.925
 9556SOL     OW29566   2.080   0.805   1.082
 9556SOL    HW129567   2.110   0.878   1.021
 9556SOL    HW229568   2.002   0.758   1.041
 9557SOL     OW29569   6.385   0.592   2.241
 9557SOL    HW129570   6.323   0.630   2.172
 9557SOL    HW229571   6.467   0.648   2.247
 9558SOL     OW29572   0.002   4.984   3.241
 9558SOL    HW129573   0.017   5.047   3.317
 9558SOL    HW229574   0.016   5.032   3.155
 9559SOL     OW29575   0.226   2.993   2.302
 9559SOL    HW129576   0.246   2.931   2.226
 9559SOL    HW229577   0.309   3.045   2.325
 9560SOL     OW29578   2.640   1.475   3.441
 9560SOL    HW129579   2.713   1.448   3.379
 9560SOL    HW229580   2.618   1.399   3.502
 9561SOL     OW29581   3.223   6.666   0.645
 9561SOL    HW129582   3.224   6.566   0.638
 9561SOL    HW229583   3.156   6.694   0.713
 9562SOL     OW29584   4.643   5.594   2.784
 9562SOL    HW129585   4.711   5.665   2.800
 9562SOL    HW229586   4.575   5.628   2.719
 9563SOL     OW29587   6.962   6.168   5.963
 9563SOL    HW129588   6.993   6.146   6.055
 9563SOL    HW229589   0.007   6.231   5.920
 9564SOL     OW29590   2.861   7.015   6.670
 9564SOL    HW129591   2.772   6.975   6.647
 9564SOL    HW229592   2.926   6.996   6.596
 9565SOL     OW29593   3.809   6.244   4.271
 9565SOL    HW129594   3.771   6.208   4.355
 9565SOL    HW229595   3.888   6.189   4.244
 9566SOL     OW29596   2.891   4.248   5.786
 9566SOL    HW129597   2.836   4.164   5.782
 9566SOL    HW229598   2.898   4.278   5.881
 9567SOL     OW29599   6.478   5.775   6.496
 9567SOL    HW129600   6.492   5.862   6.449
 9567SOL    HW229601   6.553   5.760   6.561
 9568SOL     OW29602   5.678   3.806   6.713
 9568SOL    HW129603   5.641   3.725   6.758
 9568SOL    HW229604   5.641   3.812   6.620
 9569SOL     OW29605   6.378   1.095   0.031
 9569SOL    HW129606   6.339   1.052   6.968
 9569SOL    HW229607   6.472   1.123   0.012
 9570SOL     OW29608   0.025   1.538   0.835
 9570SOL    HW129609   0.065   1.577   0.752
 9570SOL    HW229610   7.006   1.447   0.813
 9571SOL     OW29611   1.850   3.152   0.190
 9571SOL    HW129612   1.948   3.152   0.169
 9571SOL    HW229613   1.837   3.175   0.287
 9572SOL     OW29614   1.373   4.290   1.837
 9572SOL    HW129615   1.448   4.356   1.841
 9572SOL    HW229616   1.298   4.322   1.894
 9573SOL     OW29617   1.686   1.335   0.072
 9573SOL    HW129618   1.661   1.423   0.032
 9573SOL    HW229619   1.606   1.295   0.118
 9574SOL     OW29620   3.589   3.405   5.433
 9574SOL    HW129621   3.538   3.369   5.511
 9574SOL    HW229622   3.574   3.347   5.353
 9575SOL     OW29623   5.307   0.883   2.102
 9575SOL    HW129624   5.363   0.962   2.127
 9575SOL    HW229625   5.216   0.891   2.142
 9576SOL     OW29626   2.958   1.669   4.538
 9576SOL    HW129627   2.914   1.679   4.627
 9576SOL    HW229628   3.008   1.753   4.516
 9577SOL     OW29629   0.438   6.003   2.655
 9577SOL    HW129630   0.438   6.044   2.746
 9577SOL    HW229631   0.492   5.918   2.657
 9578SOL     OW29632   6.413   2.670   2.111
 9578SOL    HW129633   6.386   2.581   2.146
 9578SOL    HW229634   6.339   2.736   2.127
 9579SOL     OW29635   1.484   0.162   2.024
 9579SOL    HW129636   1.509   0.171   2.121
 9579SOL    HW229637   1.561   0.191   1.967
 9580SOL     OW29638   4.073   3.790   6.856
 9580SOL    HW129639   4.110   3.783   6.948
 9580SOL    HW229640   3.977   3.762   6.856
 9581SOL     OW29641   0.911   4.966   6.286
 9581SOL    HW129642   0.955   5.056   6.286
 9581SOL    HW229643   0.822   4.972   6.241
 9582SOL     OW29644   4.218   4.789   4.425
 9582SOL    HW129645   4.267   4.702   4.424
 9582SOL    HW229646   4.175   4.804   4.336
 9583SOL     OW29647   2.044   3.653   2.067
 9583SOL    HW129648   2.077   3.747   2.078
 9583SOL    HW229649   2.121   3.594   2.043
 9584SOL     OW29650   6.270   5.349   6.723
 9584SOL    HW129651   6.225   5.288   6.657
 9584SOL    HW229652   6.335   5.296   6.778
 9585SOL     OW29653   6.105   0.016   3.247
 9585SOL    HW129654   6.193   0.029   3.201
 9585SOL    HW229655   6.113   6.962   3.314
 9586SOL     OW29656   4.965   3.397   3.152
 9586SOL    HW129657   5.059   3.365   3.166
 9586SOL    HW229658   4.927   3.354   3.070
 9587SOL     OW29659   5.579   0.166   2.155
 9587SOL    HW129660   5.587   0.253   2.204
 9587SOL    HW229661   5.500   0.168   2.095
 9588SOL     OW29662   0.417   0.492   1.515
 9588SOL    HW129663   0.516   0.490   1.502
 9588SOL    HW229664   0.372   0.439   1.442
 9589SOL     OW29665   2.742   0.412   5.996
 9589SOL    HW129666   2.781   0.502   5.980
 9589SOL    HW229667   2.815   0.344   6.004
 9590SOL     OW29668   6.665   3.986   3.018
 9590SOL    HW129669   6.672   4.082   3.047
 9590SOL    HW229670   6.673   3.927   3.098
 9591SOL     OW29671   2.188   5.473   0.982
 9591SOL    HW129672   2.226   5.426   0.903
 9591SOL    HW229673   2.154   5.563   0.954
 9592SOL     OW29674   4.426   5.612   2.327
 9592SOL    HW129675   4.348   5.557   2.299
 9592SOL    HW229676   4.414   5.706   2.296
 9593SOL     OW29677   6.719   2.843   4.555
 9593SOL    HW129678   6.754   2.823   4.463
 9593SOL    HW229679   6.765   2.784   4.621
 9594SOL     OW29680   6.574   6.871   2.435
 9594SOL    HW129681   6.568   6.969   2.421
 9594SOL    HW229682   6.642   6.832   2.373
 9595SOL     OW29683   1.729   5.767   4.569
 9595SOL    HW129684   1.659   5.810   4.513
 9595SOL    HW229685   1.722   5.800   4.663
 9596SOL     OW29686   5.784   5.906   5.627
 9596SOL    HW129687   5.766   5.988   5.572
 9596SOL    HW229688   5.839   5.931   5.706
 9597SOL     OW29689   1.398   4.018   1.841
 9597SOL    HW129690   1.384   4.112   1.811
 9597SOL    HW229691   1.465   3.974   1.781
 9598SOL     OW29692   0.286   4.800   5.731
 9598SOL    HW129693   0.262   4.885   5.777
 9598SOL    HW229694   0.213   4.733   5.746
 9599SOL     OW29695   4.361   1.110   5.766
 9599SOL    HW129696   4.339   1.033   5.707
 9599SOL    HW229697   4.280   1.139   5.816
 9600SOL     OW29698   1.368   0.069   6.119
 9600SOL    HW129699   1.392   0.049   6.215
 9600SOL    HW229700   1.406   7.017   6.060
 9601SOL     OW29701   0.503   4.797   5.460
 9601SOL    HW129702   0.596   4.826   5.439
 9601SOL    HW229703   0.506   4.721   5.525
 9602SOL     OW29704   0.996   5.616   6.912
 9602SOL    HW129705   0.997   5.555   6.991
 9602SOL    HW229706   0.906   5.612   6.867
 9603SOL     OW29707   1.912   6.142   4.739
 9603SOL    HW129708   1.862   6.218   4.780
 9603SOL    HW229709   1.879   6.125   4.646
 9604SOL     OW29710   5.353   1.600   6.663
 9604SOL    HW129711   5.431   1.556   6.619
 9604SOL    HW229712   5.269   1.579   6.614
 9605SOL     OW29713   2.143   6.086   6.391
 9605SOL    HW129714   2.109   6.119   6.303
 9605SOL    HW229715   2.130   6.156   6.460
 9606SOL     OW29716   0.336   6.757   3.810
 9606SOL    HW129717   0.358   6.701   3.730
 9606SOL    HW229718   0.240   6.746   3.833
 9607SOL     OW29719   1.214   1.642   2.426
 9607SOL    HW129720   1.152   1.695   2.368
 9607SOL    HW229721   1.161   1.578   2.482
 9608SOL     OW29722   0.134   6.915   2.860
 9608SOL    HW129723   0.191   6.947   2.785
 9608SOL    HW229724   0.057   6.863   2.824
 9609SOL     OW29725   2.295   4.779   4.440
 9609SOL    HW129726   2.259   4.752   4.530
 9609SOL    HW229727   2.228   4.755   4.369
 9610SOL     OW29728   1.899   1.667   6.117
 9610SOL    HW129729   1.892   1.614   6.201
 9610SOL    HW229730   1.911   1.764   6.139
 9611SOL     OW29731   6.081   0.103   1.238
 9611SOL    HW129732   6.007   0.104   1.171
 9611SOL    HW229733   6.064   0.031   1.306
 9612SOL     OW29734   5.808   3.341   1.882
 9612SOL    HW129735   5.721   3.293   1.897
 9612SOL    HW229736   5.789   3.437   1.862
 9613SOL     OW29737   6.428   6.830   5.111
 9613SOL    HW129738   6.525   6.821   5.133
 9613SOL    HW229739   6.391   6.741   5.085
 9614SOL     OW29740   3.446   3.793   2.183
 9614SOL    HW129741   3.421   3.762   2.091
 9614SOL    HW229742   3.381   3.756   2.249
 9615SOL     OW29743   1.350   6.248   2.504
 9615SOL    HW129744   1.378   6.259   2.408
 9615SOL    HW229745   1.431   6.248   2.562
 9616SOL     OW29746   3.646   2.507   0.809
 9616SOL    HW129747   3.722   2.572   0.821
 9616SOL    HW229748   3.673   2.436   0.744
 9617SOL     OW29749   1.164   3.103   3.908
 9617SOL    HW129750   1.188   3.016   3.951
 9617SOL    HW229751   1.241   3.136   3.854
 9618SOL     OW29752   3.293   6.009   6.520
 9618SOL    HW129753   3.199   6.006   6.487
 9618SOL    HW229754   3.351   5.955   6.458
 9619SOL     OW29755   2.895   6.220   0.687
 9619SOL    HW129756   2.855   6.187   0.772
 9619SOL    HW229757   2.915   6.143   0.627
 9620SOL     OW29758   3.384   1.373   6.474
 9620SOL    HW129759   3.362   1.320   6.392
 9620SOL    HW229760   3.459   1.329   6.523
 9621SOL     OW29761   0.506   0.909   1.916
 9621SOL    HW129762   0.599   0.872   1.912
 9621SOL    HW229763   0.440   0.834   1.915
 9622SOL     OW29764   6.006   0.425   6.358
 9622SOL    HW129765   6.001   0.521   6.331
 9622SOL    HW229766   5.930   0.404   6.420
 9623SOL     OW29767   4.575   6.366   6.221
 9623SOL    HW129768   4.575   6.380   6.320
 9623SOL    HW229769   4.666   6.388   6.185
 9624SOL     OW29770   4.348   5.174   5.188
 9624SOL    HW129771   4.268   5.235   5.185
 9624SOL    HW229772   4.328   5.096   5.246
 9625SOL     OW29773   5.350   4.097   6.423
 9625SOL    HW129774   5.343   4.003   6.389
 9625SOL    HW229775   5.371   4.095   6.521
 9626SOL     OW29776   1.865   4.278   6.261
 9626SOL    HW129777   1.902   4.243   6.347
 9626SOL    HW229778   1.778   4.232   6.241
 9627SOL     OW29779   0.882   5.076   6.657
 9627SOL    HW129780   0.966   5.030   6.629
 9627SOL    HW229781   0.804   5.017   6.639
 9628SOL     OW29782   5.924   3.604   6.991
 9628SOL    HW129783   5.935   3.531   6.924
 9628SOL    HW229784   5.940   3.567   0.064
 9629SOL     OW29785   6.962   5.596   2.798
 9629SOL    HW129786   6.976   5.497   2.792
 9629SOL    HW229787   6.989   5.639   2.712
 9630SOL     OW29788   6.496   6.344   5.538
 9630SOL    HW129789   6.523   6.251   5.512
 9630SOL    HW229790   6.408   6.366   5.496
 9631SOL     OW29791   4.205   1.162   0.536
 9631SOL    HW129792   4.127   1.208   0.579
 9631SOL    HW229793   4.247   1.223   0.469
 9632SOL     OW29794   3.493   6.349   1.303
 9632SOL    HW129795   3.488   6.270   1.243
 9632SOL    HW229796   3.501   6.432   1.248
 9633SOL     OW29797   4.048   3.120   2.427
 9633SOL    HW129798   4.060   3.214   2.395
 9633SOL    HW229799   4.038   3.059   2.348
 9634SOL     OW29800   5.206   4.731   2.566
 9634SOL    HW129801   5.137   4.699   2.502
 9634SOL    HW229802   5.193   4.829   2.583
 9635SOL     OW29803   1.286   4.019   3.677
 9635SOL    HW129804   1.224   3.953   3.719
 9635SOL    HW229805   1.280   4.106   3.727
 9636SOL     OW29806   4.373   2.136   4.713
 9636SOL    HW129807   4.420   2.109   4.629
 9636SOL    HW229808   4.402   2.078   4.789
 9637SOL     OW29809   2.264   2.794   0.966
 9637SOL    HW129810   2.198   2.774   0.893
 9637SOL    HW229811   2.320   2.873   0.939
 9638SOL     OW29812   6.954   4.663   5.545
 9638SOL    HW129813   0.013   4.620   5.498
 9638SOL    HW229814   6.885   4.594   5.567
 9639SOL     OW29815   4.552   1.766   1.663
 9639SOL    HW129816   4.602   1.685   1.694
 9639SOL    HW229817   4.558   1.773   1.564
 9640SOL     OW29818   3.518   0.714   2.142
 9640SOL    HW129819   3.464   0.740   2.222
 9640SOL    HW229820   3.583   0.787   2.121
 9641SOL     OW29821   6.042   4.383   2.687
 9641SOL    HW129822   6.072   4.477   2.671
 9641SOL    HW229823   6.021   4.339   2.599
 9642SOL     OW29824   1.777   0.500   3.693
 9642SOL    HW129825   1.757   0.598   3.691
 9642SOL    HW229826   1.820   0.473   3.606
 9643SOL     OW29827   5.396   4.220   3.892
 9643SOL    HW129828   5.302   4.201   3.863
 9643SOL    HW229829   5.429   4.304   3.849
 9644SOL     OW29830   1.543   5.566   4.991
 9644SOL    HW129831   1.606   5.569   5.068
 9644SOL    HW229832   1.531   5.657   4.953
 9645SOL     OW29833   1.641   5.565   5.996
 9645SOL    HW129834   1.673   5.487   6.050
 9645SOL    HW229835   1.547   5.587   6.022
 9646SOL     OW29836   3.131   6.884   5.669
 9646SOL    HW129837   3.045   6.934   5.673
 9646SOL    HW229838   3.205   6.941   5.704
 9647SOL     OW29839   6.225   5.957   3.212
 9647SOL    HW129840   6.156   5.984   3.279
 9647SOL    HW229841   6.186   5.959   3.120
 9648SOL     OW29842   4.637   1.985   1.018
 9648SOL    HW129843   4.570   2.052   1.050
 9648SOL    HW229844   4.688   1.949   1.097
 9649SOL     OW29845   2.413   3.342   0.815
 9649SOL    HW129846   2.427   3.244   0.806
 9649SOL    HW229847   2.444   3.388   0.732
 9650SOL     OW29848   6.970   4.972   4.227
 9650SOL    HW129849   0.033   4.928   4.189
 9650SOL    HW229850   6.964   5.066   4.193
 9651SOL     OW29851   2.628   1.588   0.130
 9651SOL    HW129852   2.697   1.551   0.067
 9651SOL    HW229853   2.622   1.529   0.211
 9652SOL     OW29854   6.874   3.767   0.863
 9652SOL    HW129855   6.961   3.815   0.877
 9652SOL    HW229856   6.823   3.765   0.949
 9653SOL     OW29857   4.932   3.914   6.538
 9653SOL    HW129858   4.879   3.992   6.573
 9653SOL    HW229859   4.934   3.917   6.438
 9654SOL     OW29860   3.573   3.264   3.670
 9654SOL    HW129861   3.500   3.299   3.728
 9654SOL    HW229862   3.551   3.170   3.642
 9655SOL     OW29863   5.555   0.429   2.302
 9655SOL    HW129864   5.544   0.515   2.252
 9655SOL    HW229865   5.580   0.449   2.397
 9656SOL     OW29866   5.857   4.006   1.042
 9656SOL    HW129867   5.914   3.924   1.051
 9656SOL    HW229868   5.873   4.048   0.953
 9657SOL     OW29869   5.986   3.549   3.385
 9657SOL    HW129870   5.887   3.539   3.388
 9657SOL    HW229871   6.012   3.637   3.425
 9658SOL     OW29872   4.830   1.548   2.625
 9658SOL    HW129873   4.774   1.471   2.656
 9658SOL    HW229874   4.784   1.634   2.648
 9659SOL     OW29875   2.964   2.757   1.061
 9659SOL    HW129876   2.870   2.731   1.081
 9659SOL    HW229877   3.023   2.677   1.068
 9660SOL     OW29878   1.063   5.934   0.845
 9660SOL    HW129879   1.066   5.948   0.746
 9660SOL    HW229880   1.114   5.851   0.868
 9661SOL     OW29881   5.180   5.041   1.067
 9661SOL    HW129882   5.255   5.091   1.025
 9661SOL    HW229883   5.120   5.005   0.996
 9662SOL     OW29884   5.270   4.331   6.839
 9662SOL    HW129885   5.356   4.309   6.792
 9662SOL    HW229886   5.273   4.426   6.870
 9663SOL     OW29887   0.544   4.131   3.544
 9663SOL    HW129888   0.589   4.078   3.616
 9663SOL    HW229889   0.582   4.223   3.541
 9664SOL     OW29890   5.180   4.154   3.347
 9664SOL    HW129891   5.280   4.152   3.348
 9664SOL    HW229892   5.146   4.207   3.424
 9665SOL     OW29893   6.285   6.377   6.591
 9665SOL    HW129894   6.238   6.310   6.649
 9665SOL    HW229895   6.226   6.457   6.578
 9666SOL     OW29896   6.117   4.554   1.040
 9666SOL    HW129897   6.022   4.524   1.045
 9666SOL    HW229898   6.175   4.491   1.092
 9667SOL     OW29899   4.984   5.689   1.022
 9667SOL    HW129900   5.079   5.666   1.043
 9667SOL    HW229901   4.929   5.686   1.106
 9668SOL     OW29902   1.205   6.245   5.900
 9668SOL    HW129903   1.138   6.308   5.939
 9668SOL    HW229904   1.160   6.184   5.835
 9669SOL     OW29905   2.998   6.981   0.545
 9669SOL    HW129906   3.017   6.997   0.448
 9669SOL    HW229907   2.974   0.050   0.588
 9670SOL     OW29908   0.002   0.226   5.964
 9670SOL    HW129909   6.993   0.141   6.010
 9670SOL    HW229910   6.990   0.224   5.869
 9671SOL     OW29911   0.921   4.710   6.433
 9671SOL    HW129912   1.004   4.657   6.411
 9671SOL    HW229913   0.921   4.795   6.381
 9672SOL     OW29914   0.796   4.494   4.143
 9672SOL    HW129915   0.855   4.573   4.128
 9672SOL    HW229916   0.849   4.418   4.181
 9673SOL     OW29917   2.843   4.101   1.547
 9673SOL    HW129918   2.843   4.004   1.571
 9673SOL    HW229919   2.754   4.126   1.510
 9674SOL     OW29920   3.243   6.528   2.946
 9674SOL    HW129921   3.325   6.571   2.982
 9674SOL    HW229922   3.260   6.497   2.852
 9675SOL     OW29923   4.653   3.792   1.270
 9675SOL    HW129924   4.717   3.717   1.289
 9675SOL    HW229925   4.684   3.875   1.315
 9676SOL     OW29926   1.381   3.020   6.071
 9676SOL    HW129927   1.444   2.961   6.120
 9676SOL    HW229928   1.348   2.974   5.989
 9677SOL     OW29929   6.291   4.946   0.424
 9677SOL    HW129930   6.342   4.878   0.373
 9677SOL    HW229931   6.211   4.975   0.371
 9678SOL     OW29932   3.207   3.977   4.784
 9678SOL    HW129933   3.217   3.929   4.872
 9678SOL    HW229934   3.116   3.957   4.747
 9679SOL     OW29935   2.298   1.644   4.384
 9679SOL    HW129936   2.322   1.559   4.338
 9679SOL    HW229937   2.199   1.660   4.374
 9680SOL     OW29938   4.652   6.382   3.563
 9680SOL    HW129939   4.711   6.350   3.637
 9680SOL    HW229940   4.667   6.480   3.548
 9681SOL     OW29941   1.906   0.763   1.302
 9681SOL    HW129942   1.836   0.831   1.323
 9681SOL    HW229943   1.964   0.797   1.228
 9682SOL     OW29944   5.685   5.731   4.415
 9682SOL    HW129945   5.622   5.703   4.343
 9682SOL    HW229946   5.779   5.730   4.380
 9683SOL     OW29947   1.683   6.593   0.794
 9683SOL    HW129948   1.706   6.586   0.697
 9683SOL    HW229949   1.750   6.653   0.839
 9684SOL     OW29950   1.629   4.182   5.445
 9684SOL    HW129951   1.564   4.139   5.508
 9684SOL    HW229952   1.695   4.115   5.414
 9685SOL     OW29953   4.424   3.742   0.544
 9685SOL    HW129954   4.424   3.642   0.544
 9685SOL    HW229955   4.330   3.775   0.540
 9686SOL     OW29956   6.315   2.460   6.138
 9686SOL    HW129957   6.300   2.519   6.059
 9686SOL    HW229958   6.396   2.490   6.188
 9687SOL     OW29959   6.233   0.285   2.129
 9687SOL    HW129960   6.143   0.244   2.117
 9687SOL    HW229961   6.224   0.383   2.147
 9688SOL     OW29962   1.874   4.826   1.305
 9688SOL    HW129963   1.898   4.923   1.312
 9688SOL    HW229964   1.775   4.815   1.302
 9689SOL     OW29965   1.177   6.280   6.753
 9689SOL    HW129966   1.137   6.208   6.810
 9689SOL    HW229967   1.277   6.272   6.755
 9690SOL     OW29968   5.356   5.557   4.747
 9690SOL    HW129969   5.446   5.514   4.746
 9690SOL    HW229970   5.340   5.599   4.836
 9691SOL     OW29971   3.164   4.046   1.888
 9691SOL    HW129972   3.099   4.121   1.879
 9691SOL    HW229973   3.160   3.988   1.806
 9692SOL     OW29974   4.299   5.022   0.102
 9692SOL    HW129975   4.203   5.042   0.121
 9692SOL    HW229976   4.307   4.985   0.010
 9693SOL     OW29977   6.042   3.955   3.751
 9693SOL    HW129978   5.986   3.886   3.797
 9693SOL    HW229979   5.983   4.028   3.716
 9694SOL     OW29980   2.734   6.838   2.010
 9694SOL    HW129981   2.766   6.922   1.966
 9694SOL    HW229982   2.649   6.808   1.967
 9695SOL     OW29983   6.973   3.904   3.704
 9695SOL    HW129984   0.038   3.850   3.688
 9695SOL    HW229985   6.986   3.997   3.670
 9696SOL     OW29986   6.052   1.611   2.678
 9696SOL    HW129987   6.098   1.582   2.762
 9696SOL    HW229988   6.046   1.711   2.676
 9697SOL     OW29989   0.330   5.812   0.215
 9697SOL    HW129990   0.371   5.867   0.287
 9697SOL    HW229991   0.242   5.851   0.189
 9698SOL     OW29992   5.300   3.588   0.619
 9698SOL    HW129993   5.201   3.587   0.632
 9698SOL    HW229994   5.325   3.527   0.545
 9699SOL     OW29995   1.250   5.097   0.364
 9699SOL    HW129996   1.262   5.043   0.280
 9699SOL    HW229997   1.172   5.158   0.353
 9700SOL     OW29998   5.836   6.686   3.945
 9700SOL    HW129999   5.864   6.613   3.882
 9700SOL    HW230000   5.774   6.748   3.898
 9701SOL     OW30001   4.838   2.893   6.843
 9701SOL    HW130002   4.795   2.804   6.853
 9701SOL    HW230003   4.897   2.894   6.762
 9702SOL     OW30004   3.335   2.990   0.597
 9702SOL    HW130005   3.307   2.923   0.666
 9702SOL    HW230006   3.274   2.984   0.518
 9703SOL     OW30007   6.185   4.151   5.012
 9703SOL    HW130008   6.155   4.240   5.046
 9703SOL    HW230009   6.245   4.163   4.934
 9704SOL     OW30010   3.284   4.915   2.395
 9704SOL    HW130011   3.239   4.878   2.313
 9704SOL    HW230012   3.382   4.926   2.377
 9705SOL     OW30013   5.857   4.047   5.379
 9705SOL    HW130014   5.946   4.077   5.343
 9705SOL    HW230015   5.840   4.091   5.467
 9706SOL     OW30016   1.379   1.643   2.202
 9706SOL    HW130017   1.286   1.607   2.198
 9706SOL    HW230018   1.430   1.594   2.273
 9707SOL     OW30019   6.339   4.880   2.336
 9707SOL    HW130020   6.421   4.873   2.279
 9707SOL    HW230021   6.328   4.797   2.390
 9708SOL     OW30022   1.734   0.981   2.810
 9708SOL    HW130023   1.786   0.991   2.894
 9708SOL    HW230024   1.797   0.961   2.734
 9709SOL     OW30025   5.989   3.088   2.515
 9709SOL    HW130026   5.922   3.060   2.445
 9709SOL    HW230027   6.068   3.129   2.470
 9710SOL     OW30028   6.137   6.286   6.043
 9710SOL    HW130029   6.213   6.221   6.048
 9710SOL    HW230030   6.162   6.361   5.981
 9711SOL     OW30031   4.032   6.431   6.557
 9711SOL    HW130032   4.012   6.525   6.532
 9711SOL    HW230033   4.094   6.391   6.489
 9712SOL     OW30034   5.908   3.135   0.821
 9712SOL    HW130035   5.817   3.141   0.863
 9712SOL    HW230036   5.955   3.054   0.855
 9713SOL     OW30037   1.816   6.321   3.458
 9713SOL    HW130038   1.717   6.305   3.461
 9713SOL    HW230039   1.838   6.372   3.375
 9714SOL     OW30040   3.790   5.393   4.700
 9714SOL    HW130041   3.867   5.446   4.734
 9714SOL    HW230042   3.705   5.426   4.742
 9715SOL     OW30043   6.201   4.815   1.070
 9715SOL    HW130044   6.209   4.838   1.167
 9715SOL    HW230045   6.168   4.721   1.060
 9716SOL     OW30046   4.151   4.160   6.639
 9716SOL    HW130047   4.160   4.219   6.719
 9716SOL    HW230048   4.054   4.143   6.621
 9717SOL     OW30049   4.461   0.631   5.972
 9717SOL    HW130050   4.389   0.698   5.954
 9717SOL    HW230051   4.431   0.541   5.942
 9718SOL     OW30052   3.308   1.920   0.358
 9718SOL    HW130053   3.379   1.978   0.399
 9718SOL    HW230054   3.238   1.900   0.426
 9719SOL     OW30055   4.936   6.275   4.717
 9719SOL    HW130056   4.957   6.349   4.780
 9719SOL    HW230057   4.964   6.300   4.625
 9720SOL     OW30058   1.824   3.997   2.547
 9720SOL    HW130059   1.855   3.951   2.463
 9720SOL    HW230060   1.818   3.930   2.621
 9721SOL     OW30061   0.611   1.868   0.442
 9721SOL    HW130062   0.558   1.870   0.527
 9721SOL    HW230063   0.597   1.954   0.392
 9722SOL     OW30064   3.416   2.535   5.576
 9722SOL    HW130065   3.432   2.442   5.543
 9722SOL    HW230066   3.357   2.584   5.511
 9723SOL     OW30067   6.080   4.563   4.663
 9723SOL    HW130068   6.111   4.517   4.580
 9723SOL    HW230069   6.152   4.625   4.696
 9724SOL     OW30070   1.626   5.611   6.797
 9724SOL    HW130071   1.654   5.693   6.847
 9724SOL    HW230072   1.687   5.597   6.719
 9725SOL     OW30073   3.821   5.385   5.628
 9725SOL    HW130074   3.734   5.348   5.594
 9725SOL    HW230075   3.814   5.484   5.636
 9726SOL     OW30076   5.624   0.747   4.582
 9726SOL    HW130077   5.586   0.737   4.490
 9726SOL    HW230078   5.688   0.824   4.583
 9727SOL     OW30079   0.134   2.373   0.014
 9727SOL    HW130080   0.170   2.374   0.107
 9727SOL    HW230081   0.135   2.465   6.995
 9728SOL     OW30082   5.996   0.731   5.905
 9728SOL    HW130083   5.983   0.674   5.824
 9728SOL    HW230084   6.090   0.722   5.938
 9729SOL     OW30085   1.032   3.856   3.305
 9729SOL    HW130086   1.103   3.785   3.301
 9729SOL    HW230087   0.942   3.812   3.314
 9730SOL     OW30088   0.661   4.452   3.817
 9730SOL    HW130089   0.711   4.411   3.894
 9730SOL    HW230090   0.602   4.525   3.851
 9731SOL     OW30091   5.158   3.774   2.532
 9731SOL    HW130092   5.087   3.793   2.465
 9731SOL    HW230093   5.183   3.859   2.579
 9732SOL     OW30094   1.437   3.089   2.456
 9732SOL    HW130095   1.464   3.163   2.518
 9732SOL    HW230096   1.509   3.019   2.453
 9733SOL     OW30097   6.136   5.713   2.757
 9733SOL    HW130098   6.191   5.745   2.679
 9733SOL    HW230099   6.138   5.613   2.760
 9734SOL     OW30100   6.541   6.489   6.704
 9734SOL    HW130101   6.474   6.425   6.667
 9734SOL    HW230102   6.585   6.538   6.629
 9735SOL     OW30103   1.221   1.998   3.376
 9735SOL    HW130104   1.249   1.904   3.394
 9735SOL    HW230105   1.184   2.039   3.460
 9736SOL     OW30106   4.806   2.310   5.396
 9736SOL    HW130107   4.873   2.382   5.413
 9736SOL    HW230108   4.848   2.235   5.346
 9737SOL     OW30109   5.741   1.793   2.473
 9737SOL    HW130110   5.832   1.829   2.456
 9737SOL    HW230111   5.678   1.825   2.402
 9738SOL     OW30112   2.134   6.312   0.593
 9738SOL    HW130113   2.173   6.404   0.584
 9738SOL    HW230114   2.208   6.246   0.603
 9739SOL     OW30115   4.433   6.760   6.856
 9739SOL    HW130116   4.498   6.829   6.823
 9739SOL    HW230117   4.368   6.738   6.784
 9740SOL     OW30118   5.473   1.153   2.534
 9740SOL    HW130119   5.525   1.098   2.599
 9740SOL    HW230120   5.375   1.141   2.552
 9741SOL     OW30121   3.017   1.102   3.971
 9741SOL    HW130122   3.099   1.062   3.931
 9741SOL    HW230123   2.939   1.088   3.909
 9742SOL     OW30124   4.211   1.383   6.632
 9742SOL    HW130125   4.227   1.342   6.543
 9742SOL    HW230126   4.222   1.314   6.704
 9743SOL     OW30127   0.436   2.887   3.612
 9743SOL    HW130128   0.444   2.894   3.512
 9743SOL    HW230129   0.424   2.979   3.650
 9744SOL     OW30130   2.165   6.805   2.812
 9744SOL    HW130131   2.143   6.769   2.721
 9744SOL    HW230132   2.250   6.764   2.844
 9745SOL     OW30133   5.730   1.484   5.897
 9745SOL    HW130134   5.651   1.513   5.951
 9745SOL    HW230135   5.789   1.562   5.881
 9746SOL     OW30136   4.769   6.522   6.809
 9746SOL    HW130137   4.675   6.533   6.843
 9746SOL    HW230138   4.768   6.526   6.709
 9747SOL     OW30139   2.524   1.924   1.838
 9747SOL    HW130140   2.496   2.020   1.845
 9747SOL    HW230141   2.599   1.906   1.902
 9748SOL     OW30142   6.954   0.327   3.049
 9748SOL    HW130143   0.030   0.331   3.083
 9748SOL    HW230144   6.943   0.243   2.996
 9749SOL     OW30145   0.559   2.053   1.978
 9749SOL    HW130146   0.599   2.144   1.987
 9749SOL    HW230147   0.459   2.060   1.984
 9750SOL     OW30148   6.431   5.017   4.061
 9750SOL    HW130149   6.518   5.054   4.030
 9750SOL    HW230150   6.358   5.083   4.043
 9751SOL     OW30151   2.291   0.229   1.178
 9751SOL    HW130152   2.212   0.213   1.237
 9751SOL    HW230153   2.259   0.249   1.085
 9752SOL     OW30154   4.242   2.388   0.065
 9752SOL    HW130155   4.182   2.325   0.015
 9752SOL    HW230156   4.209   2.399   0.158
 9753SOL     OW30157   0.769   5.871   6.286
 9753SOL    HW130158   0.776   5.946   6.351
 9753SOL    HW230159   0.714   5.899   6.207
 9754SOL     OW30160   3.659   0.625   0.676
 9754SOL    HW130161   3.630   0.542   0.629
 9754SOL    HW230162   3.759   0.630   0.676
 9755SOL     OW30163   3.337   4.069   5.174
 9755SOL    HW130164   3.421   4.085   5.122
 9755SOL    HW230165   3.326   4.141   5.243
 9756SOL     OW30166   5.713   1.549   6.295
 9756SOL    HW130167   5.617   1.576   6.285
 9756SOL    HW230168   5.770   1.605   6.234
 9757SOL     OW30169   5.780   4.052   4.161
 9757SOL    HW130170   5.735   4.020   4.078
 9757SOL    HW230171   5.766   4.151   4.170
 9758SOL     OW30172   1.152   0.949   0.471
 9758SOL    HW130173   1.054   0.939   0.458
 9758SOL    HW230174   1.187   1.019   0.409
 9759SOL     OW30175   0.824   1.603   0.501
 9759SOL    HW130176   0.829   1.519   0.446
 9759SOL    HW230177   0.759   1.589   0.575
 9760SOL     OW30178   4.920   2.239   0.007
 9760SOL    HW130179   4.842   2.208   0.061
 9760SOL    HW230180   4.892   2.316   6.968
 9761SOL     OW30181   1.502   1.283   2.007
 9761SOL    HW130182   1.586   1.290   1.953
 9761SOL    HW230183   1.442   1.360   1.985
 9762SOL     OW30184   2.899   1.749   4.799
 9762SOL    HW130185   2.908   1.674   4.865
 9762SOL    HW230186   2.802   1.768   4.784
 9763SOL     OW30187   6.517   1.602   2.397
 9763SOL    HW130188   6.534   1.595   2.496
 9763SOL    HW230189   6.509   1.699   2.372
 9764SOL     OW30190   5.835   2.555   2.609
 9764SOL    HW130191   5.876   2.646   2.612
 9764SOL    HW230192   5.744   2.561   2.567
 9765SOL     OW30193   6.016   1.267   2.247
 9765SOL    HW130194   5.926   1.224   2.255
 9765SOL    HW230195   6.022   1.344   2.311
 9766SOL     OW30196   2.824   0.610   3.575
 9766SOL    HW130197   2.775   0.523   3.563
 9766SOL    HW230198   2.793   0.655   3.658
 9767SOL     OW30199   2.427   3.424   5.849
 9767SOL    HW130200   2.332   3.408   5.823
 9767SOL    HW230201   2.486   3.360   5.801
 9768SOL     OW30202   5.648   2.514   0.710
 9768SOL    HW130203   5.622   2.428   0.754
 9768SOL    HW230204   5.573   2.579   0.717
 9769SOL     OW30205   3.204   1.342   5.464
 9769SOL    HW130206   3.252   1.354   5.377
 9769SOL    HW230207   3.258   1.281   5.523
 9770SOL     OW30208   3.445   2.045   6.166
 9770SOL    HW130209   3.356   2.072   6.129
 9770SOL    HW230210   3.514   2.052   6.095
 9771SOL     OW30211   2.291   6.738   1.519
 9771SOL    HW130212   2.242   6.820   1.550
 9771SOL    HW230213   2.272   6.663   1.582
 9772SOL     OW30214   1.572   6.085   1.792
 9772SOL    HW130215   1.640   6.159   1.792
 9772SOL    HW230216   1.577   6.036   1.705
 9773SOL     OW30217   5.705   5.219   2.999
 9773SOL    HW130218   5.676   5.153   2.930
 9773SOL    HW230219   5.691   5.181   3.091
 9774SOL     OW30220   1.092   5.500   3.986
 9774SOL    HW130221   1.092   5.401   3.995
 9774SOL    HW230222   1.144   5.541   4.061
 9775SOL     OW30223   3.117   0.723   3.214
 9775SOL    HW130224   3.041   0.753   3.272
 9775SOL    HW230225   3.082   0.690   3.127
 9776SOL     OW30226   1.618   5.187   6.285
 9776SOL    HW130227   1.629   5.143   6.196
 9776SOL    HW230228   1.707   5.222   6.316
 9777SOL     OW30229   5.150   6.699   6.519
 9777SOL    HW130230   5.237   6.700   6.469
 9777SOL    HW230231   5.094   6.623   6.486
 9778SOL     OW30232   0.217   1.735   4.765
 9778SOL    HW130233   0.126   1.776   4.774
 9778SOL    HW230234   0.241   1.728   4.668
 9779SOL     OW30235   0.550   2.346   3.348
 9779SOL    HW130236   0.565   2.264   3.293
 9779SOL    HW230237   0.485   2.325   3.421
 9780SOL     OW30238   1.458   1.528   1.487
 9780SOL    HW130239   1.556   1.548   1.477
 9780SOL    HW230240   1.444   1.429   1.481
 9781SOL     OW30241   1.331   3.856   4.018
 9781SOL    HW130242   1.274   3.827   3.941
 9781SOL    HW230243   1.349   3.778   4.077
 9782SOL     OW30244   0.213   2.518   0.660
 9782SOL    HW130245   0.267   2.528   0.576
 9782SOL    HW230246   0.207   2.607   0.706
 9783SOL     OW30247   3.749   1.785   3.034
 9783SOL    HW130248   3.834   1.833   3.057
 9783SOL    HW230249   3.671   1.847   3.045
 9784SOL     OW30250   3.129   0.679   6.458
 9784SOL    HW130251   3.190   0.617   6.507
 9784SOL    HW230252   3.034   0.658   6.481
 9785SOL     OW30253   6.726   2.297   4.455
 9785SOL    HW130254   6.786   2.327   4.381
 9785SOL    HW230255   6.697   2.203   4.438
 9786SOL     OW30256   2.974   4.480   0.589
 9786SOL    HW130257   2.985   4.388   0.552
 9786SOL    HW230258   3.020   4.487   0.677
 9787SOL     OW30259   3.541   3.481   4.067
 9787SOL    HW130260   3.447   3.490   4.101
 9787SOL    HW230261   3.583   3.572   4.062
 9788SOL     OW30262   0.729   5.404   1.945
 9788SOL    HW130263   0.765   5.478   2.002
 9788SOL    HW230264   0.728   5.319   1.999
 9789SOL     OW30265   3.036   6.866   6.836
 9789SOL    HW130266   3.007   6.857   6.931
 9789SOL    HW230267   2.967   6.917   6.784
 9790SOL     OW30268   6.428   4.475   5.259
 9790SOL    HW130269   6.498   4.406   5.243
 9790SOL    HW230270   6.350   4.433   5.306
 9791SOL     OW30271   0.503   6.935   0.086
 9791SOL    HW130272   0.555   7.011   0.125
 9791SOL    HW230273   0.474   6.959   7.011
 9792SOL     OW30274   3.593   5.364   0.694
 9792SOL    HW130275   3.666   5.306   0.731
 9792SOL    HW230276   3.512   5.308   0.677
 9793SOL     OW30277   4.099   0.760   0.873
 9793SOL    HW130278   4.139   0.752   0.964
 9793SOL    HW230279   4.076   0.670   0.838
 9794SOL     OW30280   4.894   4.464   4.560
 9794SOL    HW130281   4.874   4.552   4.517
 9794SOL    HW230282   4.979   4.427   4.522
 9795SOL     OW30283   0.886   3.002   4.194
 9795SOL    HW130284   0.905   2.953   4.280
 9795SOL    HW230285   0.805   2.963   4.150
 9796SOL     OW30286   4.028   3.783   4.002
 9796SOL    HW130287   4.100   3.715   3.988
 9796SOL    HW230288   3.977   3.794   3.916
 9797SOL     OW30289   2.855   6.129   6.767
 9797SOL    HW130290   2.810   6.196   6.708
 9797SOL    HW230291   2.791   6.100   6.838
 9798SOL     OW30292   2.523   1.810   1.168
 9798SOL    HW130293   2.482   1.842   1.254
 9798SOL    HW230294   2.610   1.856   1.153
 9799SOL     OW30295   3.083   4.539   6.395
 9799SOL    HW130296   3.079   4.592   6.480
 9799SOL    HW230297   2.990   4.517   6.366
 9800SOL     OW30298   5.874   2.937   4.153
 9800SOL    HW130299   5.967   2.914   4.182
 9800SOL    HW230300   5.862   3.036   4.160
 9801SOL     OW30301   5.156   4.757   0.147
 9801SOL    HW130302   5.139   4.681   0.210
 9801SOL    HW230303   5.172   4.722   0.055
 9802SOL     OW30304   4.137   4.576   0.439
 9802SOL    HW130305   4.179   4.664   0.460
 9802SOL    HW230306   4.179   4.505   0.495
 9803SOL     OW30307   1.742   2.787   6.922
 9803SOL    HW130308   1.744   2.817   6.827
 9803SOL    HW230309   1.830   2.747   6.947
 9804SOL     OW30310   6.568   5.850   3.135
 9804SOL    HW130311   6.595   5.882   3.045
 9804SOL    HW230312   6.480   5.889   3.160
 9805SOL     OW30313   1.031   6.700   3.069
 9805SOL    HW130314   1.022   6.774   3.135
 9805SOL    HW230315   0.967   6.715   2.993
 9806SOL     OW30316   3.262   2.413   6.449
 9806SOL    HW130317   3.287   2.320   6.421
 9806SOL    HW230318   3.212   2.458   6.375
 9807SOL     OW30319   3.462   2.838   2.390
 9807SOL    HW130320   3.446   2.740   2.378
 9807SOL    HW230321   3.492   2.878   2.303
 9808SOL     OW30322   4.435   5.595   3.849
 9808SOL    HW130323   4.454   5.560   3.941
 9808SOL    HW230324   4.370   5.535   3.803
 9809SOL     OW30325   0.624   3.160   0.429
 9809SOL    HW130326   0.536   3.171   0.382
 9809SOL    HW230327   0.669   3.249   0.436
 9810SOL     OW30328   2.797   2.060   5.055
 9810SOL    HW130329   2.815   2.087   4.960
 9810SOL    HW230330   2.883   2.042   5.101
 9811SOL     OW30331   6.530   2.887   3.819
 9811SOL    HW130332   6.436   2.917   3.799
 9811SOL    HW230333   6.540   2.790   3.794
 9812SOL     OW30334   2.943   6.950   4.433
 9812SOL    HW130335   2.981   6.870   4.386
 9812SOL    HW230336   2.933   0.007   4.368
 9813SOL     OW30337   5.894   2.597   0.617
 9813SOL    HW130338   5.969   2.533   0.636
 9813SOL    HW230339   5.808   2.558   0.650
 9814SOL     OW30340   5.650   1.872   0.077
 9814SOL    HW130341   5.629   1.936   0.151
 9814SOL    HW230342   5.633   1.779   0.107
 9815SOL     OW30343   4.442   2.302   3.808
 9815SOL    HW130344   4.515   2.261   3.863
 9815SOL    HW230345   4.468   2.298   3.711
 9816SOL     OW30346   1.076   6.867   5.910
 9816SOL    HW130347   1.114   6.805   5.979
 9816SOL    HW230348   1.142   6.880   5.836
 9817SOL     OW30349   0.739   6.896   3.058
 9817SOL    HW130350   0.651   6.862   3.091
 9817SOL    HW230351   0.766   6.845   2.977
 9818SOL     OW30352   5.908   1.774   4.817
 9818SOL    HW130353   5.957   1.773   4.904
 9818SOL    HW230354   5.938   1.695   4.762
 9819SOL     OW30355   4.734   2.631   3.243
 9819SOL    HW130356   4.737   2.692   3.322
 9819SOL    HW230357   4.758   2.538   3.271
 9820SOL     OW30358   3.522   3.522   6.750
 9820SOL    HW130359   3.526   3.463   6.669
 9820SOL    HW230360   3.459   3.597   6.733
 9821SOL     OW30361   6.212   6.834   6.712
 9821SOL    HW130362   6.209   6.835   6.812
 9821SOL    HW230363   6.142   6.895   6.676
 9822SOL     OW30364   0.626   0.200   2.759
 9822SOL    HW130365   0.665   0.282   2.801
 9822SOL    HW230366   0.562   0.227   2.687
 9823SOL     OW30367   3.204   0.492   1.041
 9823SOL    HW130368   3.274   0.516   1.108
 9823SOL    HW230369   3.242   0.428   0.975
 9824SOL     OW30370   1.327   3.866   5.929
 9824SOL    HW130371   1.291   3.835   5.841
 9824SOL    HW230372   1.347   3.964   5.925
 9825SOL     OW30373   3.472   5.472   5.711
 9825SOL    HW130374   3.457   5.392   5.770
 9825SOL    HW230375   3.529   5.445   5.633
 9826SOL     OW30376   4.055   6.064   6.238
 9826SOL    HW130377   4.080   6.062   6.141
 9826SOL    HW230378   4.053   5.970   6.274
 9827SOL     OW30379   1.955   4.429   4.340
 9827SOL    HW130380   2.025   4.497   4.360
 9827SOL    HW230381   1.897   4.462   4.265
 9828SOL     OW30382   3.465   2.747   6.476
 9828SOL    HW130383   3.521   2.665   6.465
 9828SOL    HW230384   3.406   2.737   6.555
 9829SOL     OW30385   2.921   6.477   0.792
 9829SOL    HW130386   2.992   6.484   0.861
 9829SOL    HW230387   2.904   6.381   0.771
 9830SOL     OW30388   5.719   2.154   1.740
 9830SOL    HW130389   5.761   2.064   1.755
 9830SOL    HW230390   5.709   2.169   1.641
 9831SOL     OW30391   1.490   6.109   0.335
 9831SOL    HW130392   1.577   6.157   0.348
 9831SOL    HW230393   1.438   6.153   0.262
 9832SOL     OW30394   4.807   5.356   2.591
 9832SOL    HW130395   4.740   5.338   2.664
 9832SOL    HW230396   4.759   5.377   2.506
 9833SOL     OW30397   3.303   2.803   5.187
 9833SOL    HW130398   3.250   2.729   5.229
 9833SOL    HW230399   3.255   2.836   5.106
 9834SOL     OW30400   2.447   4.106   5.712
 9834SOL    HW130401   2.409   4.194   5.685
 9834SOL    HW230402   2.426   4.038   5.641
 9835SOL     OW30403   4.562   2.430   5.387
 9835SOL    HW130404   4.643   2.372   5.396
 9835SOL    HW230405   4.515   2.437   5.475
 9836SOL     OW30406   6.196   3.955   3.072
 9836SOL    HW130407   6.241   3.880   3.024
 9836SOL    HW230408   6.253   4.038   3.065
 9837SOL     OW30409   1.987   7.007   2.739
 9837SOL    HW130410   2.003   0.082   2.771
 9837SOL    HW230411   2.062   6.948   2.767
 9838SOL     OW30412   0.393   6.848   5.273
 9838SOL    HW130413   0.419   6.752   5.283
 9838SOL    HW230414   0.330   6.873   5.346
 9839SOL     OW30415   6.599   1.458   2.778
 9839SOL    HW130416   6.659   1.525   2.822
 9839SOL    HW230417   6.652   1.405   2.711
 9840SOL     OW30418   0.142   0.527   0.764
 9840SOL    HW130419   0.059   0.583   0.765
 9840SOL    HW230420   0.118   0.432   0.746
 9841SOL     OW30421   1.248   4.783   4.804
 9841SOL    HW130422   1.288   4.695   4.778
 9841SOL    HW230423   1.283   4.854   4.744
 9842SOL     OW30424   3.575   4.159   3.176
 9842SOL    HW130425   3.510   4.161   3.252
 9842SOL    HW230426   3.529   4.124   3.094
 9843SOL     OW30427   6.869   1.608   1.793
 9843SOL    HW130428   6.865   1.645   1.886
 9843SOL    HW230429   6.943   1.653   1.743
 9844SOL     OW30430   4.719   0.458   3.020
 9844SOL    HW130431   4.771   0.418   2.945
 9844SOL    HW230432   4.744   0.555   3.030
 9845SOL     OW30433   2.279   1.413   4.848
 9845SOL    HW130434   2.315   1.446   4.936
 9845SOL    HW230435   2.231   1.327   4.862
 9846SOL     OW30436   4.070   3.607   2.795
 9846SOL    HW130437   4.145   3.577   2.736
 9846SOL    HW230438   4.014   3.528   2.821
 9847SOL     OW30439   2.626   2.662   6.019
 9847SOL    HW130440   2.698   2.592   6.019
 9847SOL    HW230441   2.563   2.645   5.944
 9848SOL     OW30442   3.563   2.287   6.522
 9848SOL    HW130443   3.477   2.289   6.471
 9848SOL    HW230444   3.543   2.293   6.620
 9849SOL     OW30445   6.148   0.607   0.357
 9849SOL    HW130446   6.153   0.652   0.268
 9849SOL    HW230447   6.164   0.509   0.347
 9850SOL     OW30448   5.132   5.807   2.540
 9850SOL    HW130449   5.123   5.851   2.629
 9850SOL    HW230450   5.222   5.764   2.533
 9851SOL     OW30451   4.354   1.883   5.468
 9851SOL    HW130452   4.411   1.805   5.494
 9851SOL    HW230453   4.349   1.889   5.368
 9852SOL     OW30454   3.921   1.981   3.229
 9852SOL    HW130455   3.865   2.035   3.166
 9852SOL    HW230456   4.015   1.975   3.193
 9853SOL     OW30457   4.638   4.224   3.485
 9853SOL    HW130458   4.718   4.165   3.497
 9853SOL    HW230459   4.617   4.233   3.387
 9854SOL     OW30460   5.872   4.930   5.160
 9854SOL    HW130461   5.954   4.983   5.140
 9854SOL    HW230462   5.834   4.959   5.248
 9855SOL     OW30463   1.754   4.251   1.492
 9855SOL    HW130464   1.797   4.275   1.579
 9855SOL    HW230465   1.657   4.275   1.496
 9856SOL     OW30466   5.038   4.145   0.426
 9856SOL    HW130467   5.006   4.143   0.332
 9856SOL    HW230468   5.105   4.072   0.439
 9857SOL     OW30469   5.166   2.107   3.515
 9857SOL    HW130470   5.124   2.020   3.541
 9857SOL    HW230471   5.099   2.164   3.467
 9858SOL     OW30472   6.202   0.737   1.282
 9858SOL    HW130473   6.288   0.769   1.243
 9858SOL    HW230474   6.142   0.815   1.298
 9859SOL     OW30475   6.304   0.265   1.294
 9859SOL    HW130476   6.285   0.359   1.323
 9859SOL    HW230477   6.218   0.213   1.294
 9860SOL     OW30478   0.087   1.121   1.856
 9860SOL    HW130479   0.094   1.025   1.832
 9860SOL    HW230480   0.179   1.161   1.861
 9861SOL     OW30481   2.961   7.002   3.333
 9861SOL    HW130482   2.945   7.011   3.432
 9861SOL    HW230483   3.014   6.920   3.315
 9862SOL     OW30484   2.839   3.809   0.653
 9862SOL    HW130485   2.746   3.771   0.659
 9862SOL    HW230486   2.895   3.772   0.727
 9863SOL     OW30487   3.306   6.991   3.289
 9863SOL    HW130488   3.282   6.898   3.316
 9863SOL    HW230489   3.225   0.030   3.290
 9864SOL     OW30490   3.933   5.727   3.763
 9864SOL    HW130491   3.992   5.806   3.782
 9864SOL    HW230492   3.964   5.649   3.818
 9865SOL     OW30493   1.374   1.625   4.872
 9865SOL    HW130494   1.386   1.611   4.774
 9865SOL    HW230495   1.314   1.554   4.909
 9866SOL     OW30496   5.164   4.103   4.464
 9866SOL    HW130497   5.178   4.174   4.533
 9866SOL    HW230498   5.155   4.014   4.508
 9867SOL     OW30499   5.537   0.428   1.459
 9867SOL    HW130500   5.469   0.401   1.390
 9867SOL    HW230501   5.614   0.473   1.414
 9868SOL     OW30502   1.340   4.595   5.721
 9868SOL    HW130503   1.276   4.540   5.775
 9868SOL    HW230504   1.401   4.645   5.782
 9869SOL     OW30505   2.106   3.229   2.680
 9869SOL    HW130506   2.061   3.315   2.703
 9869SOL    HW230507   2.170   3.204   2.752
 9870SOL     OW30508   4.105   5.958   2.565
 9870SOL    HW130509   4.033   6.012   2.609
 9870SOL    HW230510   4.074   5.928   2.475
 9871SOL     OW30511   0.753   6.856   5.810
 9871SOL    HW130512   0.836   6.887   5.762
 9871SOL    HW230513   0.678   6.919   5.791
 9872SOL     OW30514   3.404   5.231   4.196
 9872SOL    HW130515   3.448   5.313   4.232
 9872SOL    HW230516   3.311   5.254   4.167
 9873SOL     OW30517   2.334   2.218   1.276
 9873SOL    HW130518   2.373   2.274   1.202
 9873SOL    HW230519   2.300   2.279   1.348
 9874SOL     OW30520   0.565   2.623   4.366
 9874SOL    HW130521   0.592   2.681   4.289
 9874SOL    HW230522   0.526   2.680   4.438
 9875SOL     OW30523   0.111   6.762   2.041
 9875SOL    HW130524   0.018   6.758   2.005
 9875SOL    HW230525   0.112   6.726   2.134
 9876SOL     OW30526   6.653   1.190   2.355
 9876SOL    HW130527   6.621   1.242   2.276
 9876SOL    HW230528   6.701   1.108   2.323
 9877SOL     OW30529   0.670   6.056   3.142
 9877SOL    HW130530   0.618   6.129   3.187
 9877SOL    HW230531   0.711   5.997   3.210
 9878SOL     OW30532   2.839   5.493   4.550
 9878SOL    HW130533   2.817   5.487   4.648
 9878SOL    HW230534   2.818   5.406   4.506
 9879SOL     OW30535   5.602   5.245   4.900
 9879SOL    HW130536   5.688   5.193   4.905
 9879SOL    HW230537   5.590   5.282   4.808
 9880SOL     OW30538   1.963   1.908   5.482
 9880SOL    HW130539   1.917   1.997   5.485
 9880SOL    HW230540   2.010   1.891   5.568
 9881SOL     OW30541   1.965   1.044   4.770
 9881SOL    HW130542   1.922   1.117   4.717
 9881SOL    HW230543   1.895   0.993   4.820
 9882SOL     OW30544   0.483   2.119   3.513
 9882SOL    HW130545   0.564   2.070   3.480
 9882SOL    HW230546   0.502   2.156   3.604
 9883SOL     OW30547   1.745   5.245   6.924
 9883SOL    HW130548   1.817   5.197   6.974
 9883SOL    HW230549   1.766   5.246   6.827
 9884SOL     OW30550   3.972   1.609   2.991
 9884SOL    HW130551   3.886   1.641   3.029
 9884SOL    HW230552   4.033   1.687   2.976
 9885SOL     OW30553   0.144   3.196   5.360
 9885SOL    HW130554   0.176   3.117   5.307
 9885SOL    HW230555   0.206   3.273   5.346
 9886SOL     OW30556   0.682   4.485   1.678
 9886SOL    HW130557   0.778   4.467   1.701
 9886SOL    HW230558   0.641   4.540   1.750
 9887SOL     OW30559   3.078   1.246   6.139
 9887SOL    HW130560   3.025   1.198   6.068
 9887SOL    HW230561   3.108   1.335   6.104
 9888SOL     OW30562   6.571   4.047   1.800
 9888SOL    HW130563   6.543   4.059   1.705
 9888SOL    HW230564   6.614   4.131   1.833
 9889SOL     OW30565   6.510   5.185   1.633
 9889SOL    HW130566   6.420   5.167   1.670
 9889SOL    HW230567   6.543   5.274   1.666
 9890SOL     OW30568   1.636   2.262   0.291
 9890SOL    HW130569   1.654   2.222   0.201
 9890SOL    HW230570   1.592   2.193   0.349
 9891SOL     OW30571   5.720   3.273   1.130
 9891SOL    HW130572   5.795   3.225   1.175
 9891SOL    HW230573   5.680   3.214   1.060
 9892SOL     OW30574   6.874   5.221   0.562
 9892SOL    HW130575   6.837   5.228   0.654
 9892SOL    HW230576   6.863   5.127   0.529
 9893SOL     OW30577   0.982   7.008   1.340
 9893SOL    HW130578   0.978   6.909   1.345
 9893SOL    HW230579   1.047   0.018   1.270
 9894SOL     OW30580   1.969   2.583   2.011
 9894SOL    HW130581   2.027   2.502   2.021
 9894SOL    HW230582   2.016   2.662   2.051
 9895SOL     OW30583   6.507   3.677   5.476
 9895SOL    HW130584   6.533   3.614   5.548
 9895SOL    HW230585   6.413   3.706   5.489
 9896SOL     OW30586   6.131   0.394   6.712
 9896SOL    HW130587   6.135   0.469   6.779
 9896SOL    HW230588   6.207   0.403   6.647
 9897SOL     OW30589   6.449   5.547   3.312
 9897SOL    HW130590   6.484   5.571   3.221
 9897SOL    HW230591   6.371   5.605   3.335
 9898SOL     OW30592   1.949   6.391   5.140
 9898SOL    HW130593   1.955   6.390   5.240
 9898SOL    HW230594   2.036   6.424   5.102
 9899SOL     OW30595   0.831   5.577   6.643
 9899SOL    HW130596   0.845   5.568   6.544
 9899SOL    HW230597   0.818   5.486   6.683
 9900SOL     OW30598   1.928   3.818   3.112
 9900SOL    HW130599   1.891   3.739   3.063
 9900SOL    HW230600   1.857   3.860   3.167
 9901SOL     OW30601   2.892   1.086   6.040
 9901SOL    HW130602   2.831   1.131   5.975
 9901SOL    HW230603   2.848   1.081   6.130
 9902SOL     OW30604   3.343   4.802   0.511
 9902SOL    HW130605   3.440   4.826   0.518
 9902SOL    HW230606   3.327   4.754   0.425
 9903SOL     OW30607   4.852   1.172   1.513
 9903SOL    HW130608   4.876   1.225   1.431
 9903SOL    HW230609   4.795   1.094   1.486
 9904SOL     OW30610   1.263   4.234   0.243
 9904SOL    HW130611   1.204   4.192   0.312
 9904SOL    HW230612   1.341   4.278   0.288
 9905SOL     OW30613   2.542   0.247   6.243
 9905SOL    HW130614   2.626   0.193   6.242
 9905SOL    HW230615   2.512   0.262   6.149
 9906SOL     OW30616   2.632   3.117   1.757
 9906SOL    HW130617   2.663   3.191   1.697
 9906SOL    HW230618   2.700   3.044   1.756
 9907SOL     OW30619   6.610   6.935   0.891
 9907SOL    HW130620   6.547   6.883   0.833
 9907SOL    HW230621   6.582   0.012   0.895
 9908SOL     OW30622   4.879   1.860   4.322
 9908SOL    HW130623   4.937   1.807   4.260
 9908SOL    HW230624   4.924   1.871   4.410
 9909SOL     OW30625   4.158   0.438   3.961
 9909SOL    HW130626   4.082   0.395   4.010
 9909SOL    HW230627   4.203   0.504   4.020
 9910SOL     OW30628   1.841   3.807   2.754
 9910SOL    HW130629   1.907   3.769   2.690
 9910SOL    HW230630   1.826   3.742   2.829
 9911SOL     OW30631   2.662   6.563   1.872
 9911SOL    HW130632   2.623   6.476   1.841
 9911SOL    HW230633   2.625   6.585   1.963
 9912SOL     OW30634   3.965   0.842   1.459
 9912SOL    HW130635   3.912   0.910   1.510
 9912SOL    HW230636   3.955   0.858   1.361
 9913SOL     OW30637   6.359   4.480   1.182
 9913SOL    HW130638   6.431   4.549   1.180
 9913SOL    HW230639   6.287   4.509   1.245
 9914SOL     OW30640   5.624   2.028   4.483
 9914SOL    HW130641   5.616   1.940   4.436
 9914SOL    HW230642   5.678   2.017   4.566
 9915SOL     OW30643   5.021   0.821   4.286
 9915SOL    HW130644   5.055   0.729   4.265
 9915SOL    HW230645   4.980   0.861   4.204
 9916SOL     OW30646   1.866   2.724   3.344
 9916SOL    HW130647   1.840   2.632   3.314
 9916SOL    HW230648   1.965   2.728   3.359
 9917SOL     OW30649   5.645   4.060   0.190
 9917SOL    HW130650   5.580   4.087   0.261
 9917SOL    HW230651   5.684   3.971   0.212
 9918SOL     OW30652   3.455   0.982   3.572
 9918SOL    HW130653   3.449   0.959   3.669
 9918SOL    HW230654   3.449   1.081   3.560
 9919SOL     OW30655   6.608   5.037   1.384
 9919SOL    HW130656   6.569   5.081   1.465
 9919SOL    HW230657   6.675   5.099   1.342
 9920SOL     OW30658   4.791   0.946   2.238
 9920SOL    HW130659   4.790   0.904   2.329
 9920SOL    HW230660   4.698   0.946   2.201
 9921SOL     OW30661   4.073   0.078   5.552
 9921SOL    HW130662   4.055   0.004   5.487
 9921SOL    HW230663   4.100   0.039   5.640
 9922SOL     OW30664   2.720   4.343   0.340
 9922SOL    HW130665   2.700   4.439   0.323
 9922SOL    HW230666   2.807   4.319   0.296
 9923SOL     OW30667   5.079   4.548   6.943
 9923SOL    HW130668   4.986   4.534   6.907
 9923SOL    HW230669   5.090   4.498   0.010
 9924SOL     OW30670   6.349   1.892   5.238
 9924SOL    HW130671   6.327   1.808   5.286
 9924SOL    HW230672   6.306   1.969   5.284
 9925SOL     OW30673   6.675   3.305   4.456
 9925SOL    HW130674   6.771   3.326   4.473
 9925SOL    HW230675   6.639   3.249   4.530
 9926SOL     OW30676   3.834   2.687   0.905
 9926SOL    HW130677   3.806   2.775   0.945
 9926SOL    HW230678   3.934   2.682   0.902
 9927SOL     OW30679   6.853   6.638   0.394
 9927SOL    HW130680   6.910   6.718   0.412
 9927SOL    HW230681   6.785   6.661   0.324
 9928SOL     OW30682   5.304   4.982   2.248
 9928SOL    HW130683   5.310   4.988   2.348
 9928SOL    HW230684   5.212   5.009   2.219
 9929SOL     OW30685   2.817   4.753   5.549
 9929SOL    HW130686   2.740   4.752   5.485
 9929SOL    HW230687   2.903   4.759   5.499
 9930SOL     OW30688   6.883   6.814   4.463
 9930SOL    HW130689   6.826   6.790   4.542
 9930SOL    HW230690   6.825   6.827   4.383
 9931SOL     OW30691   0.705   5.374   3.938
 9931SOL    HW130692   0.784   5.427   3.905
 9931SOL    HW230693   0.666   5.420   4.018
 9932SOL     OW30694   2.760   5.079   6.539
 9932SOL    HW130695   2.833   5.064   6.605
 9932SOL    HW230696   2.722   4.991   6.511
 9933SOL     OW30697   0.261   5.987   3.658
 9933SOL    HW130698   0.245   5.889   3.642
 9933SOL    HW230699   0.350   5.999   3.702
 9934SOL     OW30700   4.957   2.008   5.657
 9934SOL    HW130701   4.942   1.974   5.750
 9934SOL    HW230702   4.906   2.093   5.644
 9935SOL     OW30703   2.480   6.644   0.100
 9935SOL    HW130704   2.396   6.592   0.112
 9935SOL    HW230705   2.538   6.600   0.031
 9936SOL     OW30706   6.622   5.308   6.818
 9936SOL    HW130707   6.665   5.359   6.893
 9936SOL    HW230708   6.583   5.372   6.752
 9937SOL     OW30709   6.797   1.572   0.601
 9937SOL    HW130710   6.790   1.577   0.701
 9937SOL    HW230711   6.706   1.582   0.561
 9938SOL     OW30712   6.877   5.227   2.431
 9938SOL    HW130713   6.826   5.313   2.421
 9938SOL    HW230714   6.852   5.165   2.357
 9939SOL     OW30715   4.254   2.419   0.899
 9939SOL    HW130716   4.202   2.419   0.984
 9939SOL    HW230717   4.348   2.447   0.916
 9940SOL     OW30718   1.084   0.431   1.180
 9940SOL    HW130719   1.125   0.373   1.109
 9940SOL    HW230720   1.005   0.385   1.219
 9941SOL     OW30721   3.142   3.965   5.724
 9941SOL    HW130722   3.184   3.892   5.670
 9941SOL    HW230723   3.045   3.944   5.738
 9942SOL     OW30724   2.433   5.434   2.066
 9942SOL    HW130725   2.445   5.335   2.061
 9942SOL    HW230726   2.503   5.472   2.127
 9943SOL     OW30727   6.658   5.145   5.369
 9943SOL    HW130728   6.691   5.052   5.351
 9943SOL    HW230729   6.699   5.179   5.453
 9944SOL     OW30730   1.585   4.537   6.306
 9944SOL    HW130731   1.504   4.576   6.349
 9944SOL    HW230732   1.565   4.445   6.274
 9945SOL     OW30733   5.781   5.547   6.408
 9945SOL    HW130734   5.696   5.558   6.459
 9945SOL    HW230735   5.761   5.517   6.315
 9946SOL     OW30736   4.648   1.146   3.497
 9946SOL    HW130737   4.578   1.083   3.530
 9946SOL    HW230738   4.738   1.105   3.509
 9947SOL     OW30739   1.791   2.875   4.970
 9947SOL    HW130740   1.815   2.780   4.954
 9947SOL    HW230741   1.845   2.934   4.910
 9948SOL     OW30742   5.412   4.069   4.760
 9948SOL    HW130743   5.467   4.142   4.799
 9948SOL    HW230744   5.334   4.108   4.712
 9949SOL     OW30745   6.519   5.058   4.426
 9949SOL    HW130746   6.573   5.008   4.358
 9949SOL    HW230747   6.505   5.152   4.395
 9950SOL     OW30748   5.763   5.981   4.958
 9950SOL    HW130749   5.710   6.020   4.882
 9950SOL    HW230750   5.815   6.054   5.003
 9951SOL     OW30751   6.589   0.603   4.794
 9951SOL    HW130752   6.673   0.554   4.817
 9951SOL    HW230753   6.513   0.564   4.845
 9952SOL     OW30754   0.710   3.539   1.444
 9952SOL    HW130755   0.790   3.497   1.401
 9952SOL    HW230756   0.705   3.635   1.416
 9953SOL     OW30757   5.888   2.797   4.442
 9953SOL    HW130758   5.886   2.727   4.370
 9953SOL    HW230759   5.895   2.888   4.401
 9954SOL     OW30760   6.471   0.398   5.911
 9954SOL    HW130761   6.458   0.334   5.987
 9954SOL    HW230762   6.504   0.348   5.830
 9955SOL     OW30763   6.305   3.695   5.211
 9955SOL    HW130764   6.304   3.600   5.179
 9955SOL    HW230765   6.280   3.755   5.135
 9956SOL     OW30766   0.982   0.207   2.276
 9956SOL    HW130767   1.009   0.111   2.266
 9956SOL    HW230768   0.967   0.227   2.372
 9957SOL     OW30769   5.000   5.353   2.250
 9957SOL    HW130770   5.085   5.405   2.250
 9957SOL    HW230771   5.021   5.255   2.240
 9958SOL     OW30772   3.727   5.621   1.011
 9958SOL    HW130773   3.674   5.540   0.983
 9958SOL    HW230774   3.698   5.700   0.956
 9959SOL     OW30775   4.129   3.639   5.010
 9959SOL    HW130776   4.168   3.725   4.978
 9959SOL    HW230777   4.147   3.567   4.943
 9960SOL     OW30778   6.944   6.727   2.443
 9960SOL    HW130779   6.915   6.692   2.354
 9960SOL    HW230780   0.024   6.745   2.441
 9961SOL     OW30781   1.742   5.205   4.208
 9961SOL    HW130782   1.784   5.184   4.119
 9961SOL    HW230783   1.748   5.124   4.266
 9962SOL     OW30784   6.527   6.952   2.958
 9962SOL    HW130785   6.441   6.997   2.983
 9962SOL    HW230786   6.535   6.865   3.006
 9963SOL     OW30787   2.995   2.693   6.605
 9963SOL    HW130788   2.959   2.785   6.591
 9963SOL    HW230789   2.920   2.630   6.624
 9964SOL     OW30790   5.076   4.859   5.481
 9964SOL    HW130791   5.024   4.939   5.509
 9964SOL    HW230792   5.061   4.841   5.384
 9965SOL     OW30793   3.581   6.613   6.281
 9965SOL    HW130794   3.593   6.657   6.191
 9965SOL    HW230795   3.596   6.680   6.353
 9966SOL     OW30796   1.527   5.597   1.922
 9966SOL    HW130797   1.584   5.560   1.848
 9966SOL    HW230798   1.538   5.696   1.925
 9967SOL     OW30799   0.523   6.570   2.157
 9967SOL    HW130800   0.461   6.556   2.234
 9967SOL    HW230801   0.511   6.498   2.089
 9968SOL     OW30802   3.610   3.842   1.487
 9968SOL    HW130803   3.625   3.859   1.390
 9968SOL    HW230804   3.528   3.891   1.517
 9969SOL     OW30805   1.972   2.828   2.173
 9969SOL    HW130806   2.044   2.892   2.198
 9969SOL    HW230807   1.887   2.879   2.156
 9970SOL     OW30808   5.164   3.707   2.809
 9970SOL    HW130809   5.127   3.776   2.871
 9970SOL    HW230810   5.143   3.731   2.715
 9971SOL     OW30811   1.908   5.094   1.599
 9971SOL    HW130812   2.005   5.091   1.623
 9971SOL    HW230813   1.853   5.084   1.682
 9972SOL     OW30814   5.236   5.043   1.338
 9972SOL    HW130815   5.238   5.017   1.242
 9972SOL    HW230816   5.328   5.035   1.377
 9973SOL     OW30817   5.676   1.970   4.055
 9973SOL    HW130818   5.693   1.989   3.959
 9973SOL    HW230819   5.693   2.052   4.109
 9974SOL     OW30820   0.872   2.712   2.825
 9974SOL    HW130821   0.855   2.799   2.779
 9974SOL    HW230822   0.911   2.647   2.760
 9975SOL     OW30823   6.328   4.095   0.077
 9975SOL    HW130824   6.382   4.123   7.016
 9975SOL    HW230825   6.259   4.029   0.049
 9976SOL     OW30826   1.220   6.309   5.523
 9976SOL    HW130827   1.168   6.372   5.465
 9976SOL    HW230828   1.158   6.265   5.588
 9977SOL     OW30829   6.863   5.342   5.256
 9977SOL    HW130830   6.950   5.292   5.250
 9977SOL    HW230831   6.788   5.276   5.261
 9978SOL     OW30832   0.370   2.472   4.260
 9978SOL    HW130833   0.276   2.477   4.293
 9978SOL    HW230834   0.415   2.560   4.274
 9979SOL     OW30835   6.018   5.103   5.505
 9979SOL    HW130836   6.024   5.200   5.529
 9979SOL    HW230837   5.928   5.084   5.467
 9980SOL     OW30838   1.917   0.682   6.264
 9980SOL    HW130839   1.843   0.629   6.222
 9980SOL    HW230840   2.002   0.630   6.262
 9981SOL     OW30841   2.460   1.434   3.048
 9981SOL    HW130842   2.478   1.390   3.136
 9981SOL    HW230843   2.382   1.390   3.004
 9982SOL     OW30844   6.407   6.205   4.734
 9982SOL    HW130845   6.447   6.257   4.810
 9982SOL    HW230846   6.402   6.263   4.653
 9983SOL     OW30847   6.466   2.001   2.869
 9983SOL    HW130848   6.423   2.060   2.800
 9983SOL    HW230849   6.565   2.017   2.870
 9984SOL     OW30850   2.316   0.878   0.106
 9984SOL    HW130851   2.415   0.880   0.118
 9984SOL    HW230852   2.291   0.803   0.044
 9985SOL     OW30853   1.147   0.669   0.860
 9985SOL    HW130854   1.199   0.737   0.808
 9985SOL    HW230855   1.050   0.677   0.836
 9986SOL     OW30856   5.545   4.676   5.992
 9986SOL    HW130857   5.497   4.718   6.069
 9986SOL    HW230858   5.546   4.577   6.003
 9987SOL     OW30859   0.163   2.830   4.118
 9987SOL    HW130860   0.153   2.736   4.086
 9987SOL    HW230861   0.232   2.877   4.062
 9988SOL     OW30862   0.015   6.044   3.779
 9988SOL    HW130863   0.023   6.128   3.833
 9988SOL    HW230864   0.106   6.015   3.748
 9989SOL     OW30865   6.823   3.471   3.853
 9989SOL    HW130866   6.859   3.407   3.785
 9989SOL    HW230867   6.745   3.429   3.899
 9990SOL     OW30868   2.220   5.416   2.492
 9990SOL    HW130869   2.302   5.360   2.507
 9990SOL    HW230870   2.218   5.449   2.398
 9991SOL     OW30871   2.295   2.209   3.610
 9991SOL    HW130872   2.347   2.127   3.631
 9991SOL    HW230873   2.280   2.262   3.694
 9992SOL     OW30874   5.525   5.422   6.926
 9992SOL    HW130875   5.615   5.386   6.899
 9992SOL    HW230876   5.467   5.347   6.957
 9993SOL     OW30877   2.898   1.253   0.345
 9993SOL    HW130878   2.955   1.241   0.426
 9993SOL    HW230879   2.833   1.177   0.338
 9994SOL     OW30880   6.396   4.322   3.279
 9994SOL    HW130881   6.321   4.343   3.216
 9994SOL    HW230882   6.417   4.224   3.275
 9995SOL     OW30883   4.604   1.401   2.702
 9995SOL    HW130884   4.555   1.430   2.784
 9995SOL    HW230885   4.539   1.356   2.640
 9996SOL     OW30886   3.233   3.741   0.470
 9996SOL    HW130887   3.231   3.649   0.508
 9996SOL    HW230888   3.314   3.751   0.412
 9997SOL     OW30889   2.988   1.543   6.049
 9997SOL    HW130890   3.009   1.626   5.997
 9997SOL    HW230891   3.046   1.539   6.130
 9998SOL     OW30892   5.765   4.843   6.016
 9998SOL    HW130893   5.812   4.798   6.092
 9998SOL    HW230894   5.686   4.788   5.989
 9999SOL     OW30895   6.341   2.796   5.683
 9999SOL    HW130896   6.386   2.840   5.605
 9999SOL    HW230897   6.242   2.799   5.669
10000SOL     OW30898   0.282   4.772   6.988
10000SOL    HW130899   0.314   4.689   0.015
10000SOL    HW230900   0.314   4.852   0.020
10001SOL     OW30901   4.958   6.888   2.019
10001SOL    HW130902   4.895   6.819   1.985
10001SOL    HW230903   5.039   6.844   2.058
10002SOL     OW30904   1.067   6.642   2.623
10002SOL    HW130905   1.102   6.704   2.693
10002SOL    HW230906   1.128   6.562   2.616
10003SOL     OW30907   3.773   2.028   3.573
10003SOL    HW130908   3.773   1.931   3.550
10003SOL    HW230909   3.770   2.039   3.673
10004SOL     OW30910   0.119   2.581   4.048
10004SOL    HW130911   0.141   2.503   3.990
10004SOL    HW230912   0.144   2.560   4.143
10005SOL     OW30913   5.601   0.388   4.387
10005SOL    HW130914   5.701   0.391   4.381
10005SOL    HW230915   5.561   0.417   4.300
10006SOL     OW30916   5.043   5.726   4.812
10006SOL    HW130917   5.062   5.733   4.715
10006SOL    HW230918   5.123   5.757   4.864
10007SOL     OW30919   6.920   4.284   5.003
10007SOL    HW130920   6.898   4.266   5.099
10007SOL    HW230921   6.866   4.362   4.971
10008SOL     OW30922   3.997   1.626   4.923
10008SOL    HW130923   4.025   1.722   4.914
10008SOL    HW230924   3.910   1.621   4.972
10009SOL     OW30925   1.922   3.893   1.858
10009SOL    HW130926   1.984   3.868   1.932
10009SOL    HW230927   1.971   3.950   1.792
10010SOL     OW30928   2.345   0.914   5.913
10010SOL    HW130929   2.302   0.861   5.840
10010SOL    HW230930   2.279   0.928   5.987
10011SOL     OW30931   6.361   0.925   5.925
10011SOL    HW130932   6.377   0.826   5.920
10011SOL    HW230933   6.406   0.970   5.848
10012SOL     OW30934   5.379   1.233   2.899
10012SOL    HW130935   5.418   1.148   2.935
10012SOL    HW230936   5.445   1.276   2.837
10013SOL     OW30937   0.343   1.085   3.411
10013SOL    HW130938   0.355   1.156   3.480
10013SOL    HW230939   0.329   1.127   3.321
10014SOL     OW30940   0.290   4.251   0.204
10014SOL    HW130941   0.355   4.222   0.275
10014SOL    HW230942   0.274   4.176   0.141
10015SOL     OW30943   2.886   5.120   0.552
10015SOL    HW130944   2.795   5.082   0.535
10015SOL    HW230945   2.896   5.206   0.502
10016SOL     OW30946   0.768   1.433   6.475
10016SOL    HW130947   0.701   1.361   6.493
10016SOL    HW230948   0.728   1.522   6.498
10017SOL     OW30949   3.217   1.882   3.169
10017SOL    HW130950   3.146   1.825   3.211
10017SOL    HW230951   3.191   1.979   3.176
10018SOL     OW30952   4.963   0.636   6.698
10018SOL    HW130953   4.917   0.721   6.724
10018SOL    HW230954   5.049   0.628   6.749
10019SOL     OW30955   0.415   1.613   2.684
10019SOL    HW130956   0.473   1.553   2.738
10019SOL    HW230957   0.321   1.610   2.719
10020SOL     OW30958   1.896   2.097   1.429
10020SOL    HW130959   1.915   2.046   1.513
10020SOL    HW230960   1.920   2.193   1.442
10021SOL     OW30961   6.778   2.831   1.172
10021SOL    HW130962   6.875   2.854   1.167
10021SOL    HW230963   6.725   2.893   1.114
10022SOL     OW30964   2.134   1.246   6.024
10022SOL    HW130965   2.110   1.328   5.971
10022SOL    HW230966   2.135   1.166   5.964
10023SOL     OW30967   6.906   4.898   0.651
10023SOL    HW130968   7.004   4.881   0.662
10023SOL    HW230969   6.855   4.821   0.689
10024SOL     OW30970   1.917   6.223   2.862
10024SOL    HW130971   1.848   6.158   2.832
10024SOL    HW230972   1.982   6.178   2.924
10025SOL     OW30973   1.563   0.668   0.792
10025SOL    HW130974   1.551   0.702   0.885
10025SOL    HW230975   1.610   0.737   0.737
10026SOL     OW30976   4.980   0.002   3.712
10026SOL    HW130977   5.051   0.012   3.642
10026SOL    HW230978   4.901   6.973   3.674
10027SOL     OW30979   5.812   3.248   4.600
10027SOL    HW130980   5.757   3.239   4.683
10027SOL    HW230981   5.795   3.169   4.541
10028SOL     OW30982   0.743   6.940   1.487
10028SOL    HW130983   0.799   6.999   1.429
10028SOL    HW230984   0.698   6.995   1.557
10029SOL     OW30985   5.247   2.479   3.756
10029SOL    HW130986   5.201   2.554   3.803
10029SOL    HW230987   5.293   2.514   3.674
10030SOL     OW30988   1.851   0.658   3.090
10030SOL    HW130989   1.873   0.660   2.992
10030SOL    HW230990   1.816   0.567   3.114
10031SOL     OW30991   5.587   4.945   4.132
10031SOL    HW130992   5.570   4.896   4.047
10031SOL    HW230993   5.506   4.940   4.191
10032SOL     OW30994   2.943   1.101   5.381
10032SOL    HW130995   2.956   1.120   5.284
10032SOL    HW230996   3.012   1.150   5.435
10033SOL     OW30997   6.789   3.675   4.303
10033SOL    HW130998   6.752   3.696   4.394
10033SOL    HW230999   6.850   3.596   4.309
10034SOL     OW31000   3.694   0.367   4.394
10034SOL    HW131001   3.780   0.320   4.375
10034SOL    HW231002   3.626   0.300   4.423
10035SOL     OW31003   6.422   5.376   2.079
10035SOL    HW131004   6.430   5.279   2.055
10035SOL    HW231005   6.356   5.420   2.018
10036SOL     OW31006   6.541   1.913   1.013
10036SOL    HW131007   6.635   1.900   1.046
10036SOL    HW231008   6.515   1.836   0.955
10037SOL     OW31009   7.002   1.518   6.444
10037SOL    HW131010   0.047   1.481   6.376
10037SOL    HW231011   6.954   1.597   6.405
10038SOL     OW31012   6.230   0.326   0.009
10038SOL    HW131013   6.295   0.401   7.014
10038SOL    HW231014   6.274   0.239   7.004
10039SOL     OW31015   3.359   0.278   3.524
10039SOL    HW131016   3.341   0.363   3.572
10039SOL    HW231017   3.277   0.248   3.477
10040SOL     OW31018   5.859   4.584   6.861
10040SOL    HW131019   5.865   4.554   6.956
10040SOL    HW231020   5.847   4.505   6.802
10041SOL     OW31021   3.582   6.055   0.365
10041SOL    HW131022   3.485   6.039   0.386
10041SOL    HW231023   3.636   5.978   0.398
10042SOL     OW31024   6.739   2.289   3.288
10042SOL    HW131025   6.780   2.372   3.250
10042SOL    HW231026   6.804   2.244   3.349
10043SOL     OW31027   6.450   2.086   5.770
10043SOL    HW131028   6.422   2.059   5.862
10043SOL    HW231029   6.537   2.134   5.773
10044SOL     OW31030   2.697   3.402   5.523
10044SOL    HW131031   2.664   3.320   5.572
10044SOL    HW231032   2.795   3.393   5.506
10045SOL     OW31033   4.129   0.986   0.328
10045SOL    HW131034   4.115   0.963   0.425
10045SOL    HW231035   4.071   1.064   0.304
10046SOL     OW31036   1.518   3.891   1.338
10046SOL    HW131037   1.536   3.821   1.269
10046SOL    HW231038   1.603   3.912   1.387
10047SOL     OW31039   0.750   3.471   6.293
10047SOL    HW131040   0.827   3.420   6.254
10047SOL    HW231041   0.699   3.516   6.220
10048SOL     OW31042   6.826   6.601   3.200
10048SOL    HW131043   6.864   6.663   3.268
10048SOL    HW231044   6.861   6.508   3.216
10049SOL     OW31045   0.581   2.910   6.164
10049SOL    HW131046   0.645   2.872   6.096
10049SOL    HW231047   0.553   2.839   6.228
10050SOL     OW31048   5.043   3.413   5.126
10050SOL    HW131049   5.126   3.362   5.102
10050SOL    HW231050   4.964   3.366   5.088
10051SOL     OW31051   0.880   4.248   4.718
10051SOL    HW131052   0.968   4.208   4.694
10051SOL    HW231053   0.864   4.238   4.817
10052SOL     OW31054   1.147   0.870   3.186
10052SOL    HW131055   1.117   0.907   3.273
10052SOL    HW231056   1.187   0.779   3.200
10053SOL     OW31057   5.142   5.582   4.329
10053SOL    HW131058   5.084   5.501   4.335
10053SOL    HW231059   5.198   5.577   4.247
10054SOL     OW31060   5.707   3.708   4.640
10054SOL    HW131061   5.694   3.619   4.598
10054SOL    HW231062   5.726   3.776   4.568
10055SOL     OW31063   6.561   2.338   6.762
10055SOL    HW131064   6.495   2.367   6.832
10055SOL    HW231065   6.629   2.278   6.803
10056SOL     OW31066   5.218   3.301   3.197
10056SOL    HW131067   5.285   3.350   3.141
10056SOL    HW231068   5.262   3.221   3.239
10057SOL     OW31069   5.706   4.078   6.171
10057SOL    HW131070   5.619   4.029   6.163
10057SOL    HW231071   5.754   4.046   6.253
10058SOL     OW31072   6.570   3.409   4.991
10058SOL    HW131073   6.484   3.390   4.943
10058SOL    HW231074   6.550   3.455   5.078
10059SOL     OW31075   6.487   1.211   0.279
10059SOL    HW131076   6.416   1.165   0.226
10059SOL    HW231077   6.474   1.191   0.376
10060SOL     OW31078   2.967   1.817   2.508
10060SOL    HW131079   2.919   1.893   2.552
10060SOL    HW231080   2.919   1.791   2.424
10061SOL     OW31081   4.168   1.063   3.638
10061SOL    HW131082   4.080   1.109   3.631
10061SOL    HW231083   4.238   1.129   3.666
10062SOL     OW31084   0.746   6.963   3.954
10062SOL    HW131085   0.817   6.959   4.024
10062SOL    HW231086   0.671   0.002   3.986
10063SOL     OW31087   1.784   2.349   4.861
10063SOL    HW131088   1.808   2.255   4.885
10063SOL    HW231089   1.809   2.410   4.936
10064SOL     OW31090   3.319   6.310   6.899
10064SOL    HW131091   3.296   6.407   6.903
10064SOL    HW231092   3.371   6.285   6.980
10065SOL     OW31093   1.006   0.513   1.816
10065SOL    HW131094   0.958   0.563   1.888
10065SOL    HW231095   0.984   0.416   1.822
10066SOL     OW31096   6.938   3.524   4.964
10066SOL    HW131097   6.979   3.434   4.983
10066SOL    HW231098   6.925   3.573   5.051
10067SOL     OW31099   0.894   2.929   6.430
10067SOL    HW131100   0.869   2.850   6.486
10067SOL    HW231101   0.958   2.900   6.359
10068SOL     OW31102   2.305   2.796   2.452
10068SOL    HW131103   2.310   2.896   2.457
10068SOL    HW231104   2.314   2.758   2.544
10069SOL     OW31105   3.704   5.054   1.818
10069SOL    HW131106   3.792   5.088   1.854
10069SOL    HW231107   3.632   5.076   1.884
10070SOL     OW31108   3.061   5.567   4.923
10070SOL    HW131109   3.014   5.612   4.999
10070SOL    HW231110   3.032   5.609   4.837
10071SOL     OW31111   0.632   6.556   3.269
10071SOL    HW131112   0.722   6.592   3.244
10071SOL    HW231113   0.633   6.528   3.365
10072SOL     OW31114   6.810   1.279   2.530
10072SOL    HW131115   6.902   1.243   2.512
10072SOL    HW231116   6.750   1.255   2.453
10073SOL     OW31117   6.148   2.842   4.182
10073SOL    HW131118   6.189   2.757   4.214
10073SOL    HW231119   6.172   2.916   4.245
10074SOL     OW31120   2.641   5.051   0.479
10074SOL    HW131121   2.627   4.995   0.398
10074SOL    HW231122   2.615   5.000   0.561
10075SOL     OW31123   2.115   1.883   2.332
10075SOL    HW131124   2.040   1.937   2.295
10075SOL    HW231125   2.089   1.787   2.336
10076SOL     OW31126   5.217   5.390   3.393
10076SOL    HW131127   5.198   5.471   3.448
10076SOL    HW231128   5.158   5.390   3.313
10077SOL     OW31129   6.240   3.385   6.722
10077SOL    HW131130   6.208   3.323   6.794
10077SOL    HW231131   6.340   3.384   6.719
10078SOL     OW31132   0.040   6.182   4.544
10078SOL    HW131133   6.961   6.207   4.540
10078SOL    HW231134   0.071   6.187   4.639
10079SOL     OW31135   5.217   2.874   3.117
10079SOL    HW131136   5.309   2.838   3.132
10079SOL    HW231137   5.213   2.918   3.028
10080SOL     OW31138   5.478   0.872   5.839
10080SOL    HW131139   5.486   0.893   5.742
10080SOL    HW231140   5.397   0.816   5.855
10081SOL     OW31141   1.913   1.919   0.318
10081SOL    HW131142   2.012   1.910   0.333
10081SOL    HW231143   1.896   1.970   0.234
10082SOL     OW31144   1.556   4.645   2.746
10082SOL    HW131145   1.508   4.655   2.659
10082SOL    HW231146   1.571   4.736   2.786
10083SOL     OW31147   3.860   5.272   3.874
10083SOL    HW131148   3.828   5.255   3.967
10083SOL    HW231149   3.892   5.187   3.833
10084SOL     OW31150   1.074   0.147   5.269
10084SOL    HW131151   1.046   0.198   5.187
10084SOL    HW231152   1.088   0.211   5.345
10085SOL     OW31153   4.003   6.536   0.535
10085SOL    HW131154   3.906   6.520   0.550
10085SOL    HW231155   4.018   6.563   0.440
10086SOL     OW31156   6.250   6.293   1.938
10086SOL    HW131157   6.264   6.340   1.851
10086SOL    HW231158   6.308   6.212   1.942
10087SOL     OW31159   1.720   6.371   4.377
10087SOL    HW131160   1.711   6.455   4.431
10087SOL    HW231161   1.630   6.343   4.345
10088SOL     OW31162   6.809   2.854   6.617
10088SOL    HW131163   6.774   2.852   6.710
10088SOL    HW231164   6.857   2.768   6.598
10089SOL     OW31165   4.335   1.741   2.099
10089SOL    HW131166   4.343   1.775   2.005
10089SOL    HW231167   4.239   1.720   2.118
10090SOL     OW31168   1.448   5.374   1.144
10090SOL    HW131169   1.516   5.395   1.074
10090SOL    HW231170   1.482   5.402   1.234
10091SOL     OW31171   6.181   4.962   5.680
10091SOL    HW131172   6.248   5.021   5.725
10091SOL    HW231173   6.123   5.018   5.621
10092SOL     OW31174   0.194   2.786   5.373
10092SOL    HW131175   0.106   2.749   5.403
10092SOL    HW231176   0.214   2.869   5.424
10093SOL     OW31177   5.687   3.977   5.916
10093SOL    HW131178   5.694   4.039   5.995
10093SOL    HW231179   5.675   4.030   5.833
10094SOL     OW31180   3.073   0.721   0.928
10094SOL    HW131181   3.061   0.728   0.829
10094SOL    HW231182   3.104   0.628   0.951
10095SOL     OW31183   5.180   2.891   5.644
10095SOL    HW131184   5.204   2.794   5.649
10095SOL    HW231185   5.113   2.905   5.572
10096SOL     OW31186   5.066   0.797   2.586
10096SOL    HW131187   4.983   0.818   2.533
10096SOL    HW231188   5.071   0.699   2.601
10097SOL     OW31189   1.271   1.782   6.829
10097SOL    HW131190   1.341   1.772   6.758
10097SOL    HW231191   1.228   1.693   6.845
10098SOL     OW31192   3.592   5.528   4.841
10098SOL    HW131193   3.526   5.506   4.770
10098SOL    HW231194   3.623   5.622   4.830
10099SOL     OW31195   6.820   4.597   2.247
10099SOL    HW131196   6.870   4.658   2.186
10099SOL    HW231197   6.871   4.586   2.333
10100SOL     OW31198   5.286   5.221   4.388
10100SOL    HW131199   5.200   5.270   4.369
10100SOL    HW231200   5.265   5.131   4.427
10101SOL     OW31201   1.180   1.856   1.232
10101SOL    HW131202   1.096   1.801   1.220
10101SOL    HW231203   1.228   1.825   1.314
10102SOL     OW31204   6.454   6.632   1.440
10102SOL    HW131205   6.463   6.674   1.530
10102SOL    HW231206   6.445   6.703   1.370
10103SOL     OW31207   0.037   6.608   5.828
10103SOL    HW131208   0.084   6.564   5.904
10103SOL    HW231209   6.959   6.580   5.827
10104SOL     OW31210   1.869   0.697   5.567
10104SOL    HW131211   1.947   0.670   5.622
10104SOL    HW231212   1.899   0.759   5.494
10105SOL     OW31213   2.376   0.688   5.536
10105SOL    HW131214   2.382   0.788   5.535
10105SOL    HW231215   2.401   0.654   5.627
10106SOL     OW31216   4.991   6.075   1.290
10106SOL    HW131217   4.917   6.008   1.292
10106SOL    HW231218   5.076   6.029   1.263
10107SOL     OW31219   5.512   4.245   6.728
10107SOL    HW131220   5.578   4.228   6.655
10107SOL    HW231221   5.545   4.202   6.813
10108SOL     OW31222   1.233   2.000   0.557
10108SOL    HW131223   1.278   1.917   0.592
10108SOL    HW231224   1.189   2.048   0.632
10109SOL     OW31225   0.770   1.284   0.569
10109SOL    HW131226   0.798   1.205   0.624
10109SOL    HW231227   0.739   1.358   0.630
10110SOL     OW31228   4.871   6.428   2.931
10110SOL    HW131229   4.824   6.515   2.915
10110SOL    HW231230   4.835   6.359   2.868
10111SOL     OW31231   1.319   1.891   2.464
10111SOL    HW131232   1.298   1.799   2.498
10111SOL    HW231233   1.399   1.927   2.512
10112SOL     OW31234   6.137   2.115   3.865
10112SOL    HW131235   6.224   2.154   3.834
10112SOL    HW231236   6.066   2.185   3.861
10113SOL     OW31237   5.773   1.159   6.701
10113SOL    HW131238   5.711   1.230   6.668
10113SOL    HW231239   5.868   1.191   6.691
10114SOL     OW31240   3.931   1.526   2.404
10114SOL    HW131241   3.898   1.620   2.415
10114SOL    HW231242   4.021   1.518   2.447
10115SOL     OW31243   3.347   2.157   5.188
10115SOL    HW131244   3.311   2.114   5.105
10115SOL    HW231245   3.303   2.245   5.202
10116SOL     OW31246   6.215   0.608   4.692
10116SOL    HW131247   6.281   0.598   4.766
10116SOL    HW231248   6.123   0.590   4.727
10117SOL     OW31249   6.513   5.357   3.881
10117SOL    HW131250   6.438   5.392   3.937
10117SOL    HW231251   6.580   5.312   3.939
10118SOL     OW31252   3.537   4.951   4.834
10118SOL    HW131253   3.608   4.981   4.896
10118SOL    HW231254   3.570   4.874   4.779
10119SOL     OW31255   0.283   5.079   4.822
10119SOL    HW131256   0.329   5.151   4.768
10119SOL    HW231257   0.346   5.047   4.893
10120SOL     OW31258   2.278   2.813   2.028
10120SOL    HW131259   2.247   2.870   2.104
10120SOL    HW231260   2.376   2.795   2.038
10121SOL     OW31261   6.206   4.112   0.769
10121SOL    HW131262   6.114   4.135   0.803
10121SOL    HW231263   6.209   4.015   0.745
10122SOL     OW31264   1.012   1.212   4.010
10122SOL    HW131265   0.987   1.118   3.986
10122SOL    HW231266   1.016   1.222   4.109
10123SOL     OW31267   6.003   5.928   0.781
10123SOL    HW131268   6.024   5.910   0.684
10123SOL    HW231269   6.089   5.936   0.832
10124SOL     OW31270   1.579   3.905   2.722
10124SOL    HW131271   1.676   3.882   2.711
10124SOL    HW231272   1.565   3.946   2.812
10125SOL     OW31273   1.043   1.856   6.542
10125SOL    HW131274   1.004   1.880   6.631
10125SOL    HW231275   1.141   1.878   6.542
10126SOL     OW31276   6.814   6.705   6.571
10126SOL    HW131277   6.861   6.779   6.521
10126SOL    HW231278   6.729   6.682   6.524
10127SOL     OW31279   2.027   5.352   6.186
10127SOL    HW131280   2.109   5.334   6.131
10127SOL    HW231281   2.002   5.449   6.178
10128SOL     OW31282   3.432   0.320   6.832
10128SOL    HW131283   3.485   0.309   6.916
10128SOL    HW231284   3.430   0.234   6.781
10129SOL     OW31285   6.107   1.270   4.046
10129SOL    HW131286   6.071   1.341   4.105
10129SOL    HW231287   6.121   1.306   3.954
10130SOL     OW31288   1.577   2.201   3.100
10130SOL    HW131289   1.531   2.113   3.094
10130SOL    HW231290   1.597   2.235   3.008
10131SOL     OW31291   2.131   0.599   4.532
10131SOL    HW131292   2.121   0.659   4.612
10131SOL    HW231293   2.041   0.582   4.492
10132SOL     OW31294   6.926   0.774   2.637
10132SOL    HW131295   7.008   0.720   2.616
10132SOL    HW231296   6.850   0.743   2.580
10133SOL     OW31297   5.018   6.609   0.372
10133SOL    HW131298   4.942   6.560   0.329
10133SOL    HW231299   5.103   6.558   0.360
10134SOL     OW31300   6.163   0.899   2.096
10134SOL    HW131301   6.087   0.864   2.151
10134SOL    HW231302   6.230   0.943   2.156
10135SOL     OW31303   5.926   6.975   2.824
10135SOL    HW131304   6.016   6.934   2.837
10135SOL    HW231305   5.907   6.984   2.726
10136SOL     OW31306   5.031   1.389   2.923
10136SOL    HW131307   5.050   1.468   2.981
10136SOL    HW231308   4.934   1.388   2.899
10137SOL     OW31309   6.563   5.597   5.679
10137SOL    HW131310   6.597   5.520   5.733
10137SOL    HW231311   6.480   5.634   5.723
10138SOL     OW31312   6.318   1.387   0.588
10138SOL    HW131313   6.376   1.313   0.554
10138SOL    HW231314   6.237   1.396   0.531
10139SOL     OW31315   3.361   3.586   5.339
10139SOL    HW131316   3.353   3.680   5.307
10139SOL    HW231317   3.454   3.570   5.374
10140SOL     OW31318   0.022   5.906   5.900
10140SOL    HW131319   6.958   5.860   5.866
10140SOL    HW231320   7.017   5.999   5.926
10141SOL     OW31321   2.571   1.788   4.065
10141SOL    HW131322   2.649   1.744   4.022
10141SOL    HW231323   2.564   1.757   4.160
10142SOL     OW31324   5.923   6.657   4.251
10142SOL    HW131325   5.974   6.643   4.166
10142SOL    HW231326   5.982   6.702   4.318
10143SOL     OW31327   5.619   3.304   0.094
10143SOL    HW131328   5.710   3.336   0.066
10143SOL    HW231329   5.549   3.350   0.040
10144SOL     OW31330   3.955   6.368   5.608
10144SOL    HW131331   3.944   6.408   5.699
10144SOL    HW231332   3.995   6.277   5.616
10145SOL     OW31333   5.270   6.362   6.847
10145SOL    HW131334   5.343   6.322   6.793
10145SOL    HW231335   5.265   6.461   6.829
10146SOL     OW31336   0.071   2.143   4.430
10146SOL    HW131337   0.088   2.236   4.399
10146SOL    HW231338   0.065   2.141   4.530
10147SOL     OW31339   4.888   5.904   6.231
10147SOL    HW131340   4.865   5.907   6.329
10147SOL    HW231341   4.821   5.957   6.180
10148SOL     OW31342   0.691   4.566   6.472
10148SOL    HW131343   0.774   4.622   6.466
10148SOL    HW231344   0.714   4.470   6.460
10149SOL     OW31345   4.421   4.156   0.520
10149SOL    HW131346   4.508   4.188   0.483
10149SOL    HW231347   4.438   4.099   0.601
10150SOL     OW31348   4.158   4.385   6.796
10150SOL    HW131349   4.178   4.355   6.889
10150SOL    HW231350   4.070   4.434   6.794
10151SOL     OW31351   6.574   6.674   5.415
10151SOL    HW131352   6.562   6.575   5.412
10151SOL    HW231353   6.489   6.717   5.447
10152SOL     OW31354   5.380   6.497   2.838
10152SOL    HW131355   5.288   6.518   2.805
10152SOL    HW231356   5.380   6.407   2.882
10153SOL     OW31357   5.040   4.242   3.546
10153SOL    HW131358   5.061   4.261   3.642
10153SOL    HW231359   4.979   4.313   3.511
10154SOL     OW31360   5.185   5.180   4.875
10154SOL    HW131361   5.263   5.134   4.918
10154SOL    HW231362   5.175   5.271   4.914
10155SOL     OW31363   4.534   2.146   4.978
10155SOL    HW131364   4.503   2.052   4.995
10155SOL    HW231365   4.560   2.189   5.064
10156SOL     OW31366   5.384   1.818   0.329
10156SOL    HW131367   5.450   1.743   0.327
10156SOL    HW231368   5.341   1.827   0.239
10157SOL     OW31369   0.017   2.918   1.163
10157SOL    HW131370   0.092   2.862   1.126
10157SOL    HW231371   0.051   2.970   1.242
10158SOL     OW31372   5.897   5.659   1.212
10158SOL    HW131373   5.824   5.700   1.156
10158SOL    HW231374   5.982   5.710   1.197
10159SOL     OW31375   3.628   3.236   2.453
10159SOL    HW131376   3.531   3.227   2.471
10159SOL    HW231377   3.648   3.331   2.428
10160SOL     OW31378   1.967   4.945   3.392
10160SOL    HW131379   2.028   4.883   3.442
10160SOL    HW231380   1.940   4.902   3.306
10161SOL     OW31381   4.950   3.625   5.803
10161SOL    HW131382   5.043   3.589   5.812
10161SOL    HW231383   4.889   3.574   5.863
10162SOL     OW31384   1.228   3.479   2.699
10162SOL    HW131385   1.273   3.543   2.762
10162SOL    HW231386   1.276   3.480   2.611
10163SOL     OW31387   1.131   6.084   5.005
10163SOL    HW131388   1.139   6.120   5.098
10163SOL    HW231389   1.127   6.160   4.940
10164SOL     OW31390   0.272   3.248   2.813
10164SOL    HW131391   0.257   3.285   2.905
10164SOL    HW231392   0.204   3.177   2.794
10165SOL     OW31393   6.710   3.319   4.186
10165SOL    HW131394   6.688   3.343   4.280
10165SOL    HW231395   6.667   3.386   4.124
10166SOL     OW31396   0.947   1.169   0.962
10166SOL    HW131397   1.037   1.126   0.969
10166SOL    HW231398   0.890   1.141   1.039
10167SOL     OW31399   1.551   0.085   6.714
10167SOL    HW131400   1.458   0.051   6.728
10167SOL    HW231401   1.610   0.008   6.688
10168SOL     OW31402   6.344   0.992   0.629
10168SOL    HW131403   6.332   0.948   0.540
10168SOL    HW231404   6.386   0.927   0.693
10169SOL     OW31405   6.358   2.253   3.805
10169SOL    HW131406   6.435   2.290   3.856
10169SOL    HW231407   6.392   2.206   3.723
10170SOL     OW31408   6.109   5.604   6.160
10170SOL    HW131409   6.156   5.630   6.245
10170SOL    HW231410   6.057   5.682   6.125
10171SOL     OW31411   2.193   3.650   6.157
10171SOL    HW131412   2.287   3.624   6.181
10171SOL    HW231413   2.193   3.699   6.070
10172SOL     OW31414   6.571   0.787   2.770
10172SOL    HW131415   6.546   0.698   2.732
10172SOL    HW231416   6.625   0.838   2.703
10173SOL     OW31417   3.192   4.463   5.884
10173SOL    HW131418   3.161   4.415   5.802
10173SOL    HW231419   3.123   4.531   5.911
10174SOL     OW31420   5.115   6.016   2.308
10174SOL    HW131421   5.081   5.980   2.221
10174SOL    HW231422   5.101   5.947   2.380
10175SOL     OW31423   0.491   1.472   4.246
10175SOL    HW131424   0.561   1.408   4.278
10175SOL    HW231425   0.535   1.541   4.187
10176SOL     OW31426   6.236   2.545   5.896
10176SOL    HW131427   6.155   2.541   5.837
10176SOL    HW231428   6.305   2.481   5.863
10177SOL     OW31429   2.458   0.744   2.737
10177SOL    HW131430   2.473   0.650   2.708
10177SOL    HW231431   2.544   0.794   2.733
10178SOL     OW31432   1.857   1.203   6.924
10178SOL    HW131433   1.802   1.257   6.988
10178SOL    HW231434   1.954   1.220   6.941
10179SOL     OW31435   0.852   4.072   1.320
10179SOL    HW131436   0.798   3.996   1.358
10179SOL    HW231437   0.790   4.144   1.288
10180SOL     OW31438   4.119   6.712   5.815
10180SOL    HW131439   4.046   6.669   5.868
10180SOL    HW231440   4.203   6.715   5.870
10181SOL     OW31441   6.952   3.517   2.093
10181SOL    HW131442   6.965   3.423   2.063
10181SOL    HW231443   0.008   3.574   2.057
10182SOL     OW31444   5.823   2.081   6.993
10182SOL    HW131445   5.776   2.090   6.905
10182SOL    HW231446   5.821   1.985   0.003
10183SOL     OW31447   6.568   2.827   6.375
10183SOL    HW131448   6.471   2.847   6.364
10183SOL    HW231449   6.594   2.838   6.471
10184SOL     OW31450   5.708   3.276   5.841
10184SOL    HW131451   5.802   3.292   5.813
10184SOL    HW231452   5.649   3.347   5.804
10185SOL     OW31453   4.117   5.521   2.472
10185SOL    HW131454   4.183   5.485   2.538
10185SOL    HW231455   4.061   5.591   2.515
10186SOL     OW31456   4.433   3.207   6.020
10186SOL    HW131457   4.486   3.220   5.937
10186SOL    HW231458   4.376   3.125   6.011
10187SOL     OW31459   1.776   5.339   6.071
10187SOL    HW131460   1.745   5.245   6.052
10187SOL    HW231461   1.863   5.336   6.119
10188SOL     OW31462   3.034   0.229   6.979
10188SOL    HW131463   3.033   0.135   6.945
10188SOL    HW231464   3.120   0.246   0.010
10189SOL     OW31465   0.837   2.105   5.980
10189SOL    HW131466   0.930   2.068   5.975
10189SOL    HW231467   0.774   2.043   5.934
10190SOL     OW31468   3.504   5.119   1.976
10190SOL    HW131469   3.551   5.204   2.003
10190SOL    HW231470   3.416   5.114   2.023
10191SOL     OW31471   5.812   5.571   0.175
10191SOL    HW131472   5.816   5.503   0.248
10191SOL    HW231473   5.732   5.630   0.189
10192SOL     OW31474   2.293   1.828   4.813
10192SOL    HW131475   2.358   1.787   4.876
10192SOL    HW231476   2.268   1.762   4.742
10193SOL     OW31477   3.974   3.909   3.084
10193SOL    HW131478   3.892   3.939   3.133
10193SOL    HW231479   4.028   3.849   3.143
10194SOL     OW31480   3.509   6.996   3.805
10194SOL    HW131481   3.565   6.957   3.877
10194SOL    HW231482   3.566   7.018   3.726
10195SOL     OW31483   4.323   6.613   2.092
10195SOL    HW131484   4.303   6.708   2.068
10195SOL    HW231485   4.371   6.569   2.017
10196SOL     OW31486   5.724   1.575   2.999
10196SOL    HW131487   5.636   1.530   3.016
10196SOL    HW231488   5.741   1.579   2.901
10197SOL     OW31489   5.998   0.797   2.574
10197SOL    HW131490   6.013   0.797   2.673
10197SOL    HW231491   5.940   0.719   2.549
10198SOL     OW31492   2.663   0.150   1.643
10198SOL    HW131493   2.638   0.162   1.739
10198SOL    HW231494   2.581   0.161   1.586
10199SOL     OW31495   0.366   1.421   6.903
10199SOL    HW131496   0.303   1.353   6.941
10199SOL    HW231497   0.443   1.434   6.966
10200SOL     OW31498   5.143   4.297   5.243
10200SOL    HW131499   5.119   4.207   5.279
10200SOL    HW231500   5.224   4.331   5.290
10201SOL     OW31501   0.935   4.998   2.299
10201SOL    HW131502   0.843   5.013   2.336
10201SOL    HW231503   0.996   4.974   2.374
10202SOL     OW31504   1.124   3.102   2.026
10202SOL    HW131505   1.103   3.084   2.122
10202SOL    HW231506   1.189   3.177   2.019
10203SOL     OW31507   2.174   3.047   2.489
10203SOL    HW131508   2.161   3.138   2.528
10203SOL    HW231509   2.122   2.980   2.542
10204SOL     OW31510   3.109   4.727   5.286
10204SOL    HW131511   3.070   4.635   5.281
10204SOL    HW231512   3.158   4.747   5.201
10205SOL     OW31513   5.234   2.411   3.285
10205SOL    HW131514   5.190   2.432   3.197
10205SOL    HW231515   5.163   2.391   3.353
10206SOL     OW31516   5.330   6.853   6.010
10206SOL    HW131517   5.333   6.944   5.968
10206SOL    HW231518   5.328   6.783   5.939
10207SOL     OW31519   3.755   1.086   3.152
10207SOL    HW131520   3.757   1.150   3.075
10207SOL    HW231521   3.664   1.089   3.195
10208SOL     OW31522   6.282   3.947   5.858
10208SOL    HW131523   6.217   3.929   5.932
10208SOL    HW231524   6.234   3.985   5.779
10209SOL     OW31525   6.601   6.565   6.436
10209SOL    HW131526   6.555   6.638   6.387
10209SOL    HW231527   6.578   6.477   6.395
10210SOL     OW31528   5.498   5.833   2.325
10210SOL    HW131529   5.490   5.862   2.230
10210SOL    HW231530   5.587   5.792   2.340
10211SOL     OW31531   3.664   5.993   5.306
10211SOL    HW131532   3.667   6.092   5.292
10211SOL    HW231533   3.568   5.962   5.307
10212SOL     OW31534   0.235   0.788   4.155
10212SOL    HW131535   0.187   0.785   4.243
10212SOL    HW231536   0.332   0.768   4.170
10213SOL     OW31537   6.054   1.580   3.625
10213SOL    HW131538   6.078   1.606   3.532
10213SOL    HW231539   6.002   1.654   3.668
10214SOL     OW31540   6.541   1.205   2.100
10214SOL    HW131541   6.447   1.236   2.111
10214SOL    HW231542   6.542   1.115   2.057
10215SOL     OW31543   3.574   3.891   6.760
10215SOL    HW131544   3.588   3.886   6.859
10215SOL    HW231545   3.516   3.815   6.732
10216SOL     OW31546   5.270   0.396   1.337
10216SOL    HW131547   5.228   0.427   1.422
10216SOL    HW231548   5.204   0.344   1.284
10217SOL     OW31549   2.259   1.926   4.406
10217SOL    HW131550   2.280   1.835   4.442
10217SOL    HW231551   2.289   1.995   4.473
10218SOL     OW31552   1.730   0.834   0.653
10218SOL    HW131553   1.801   0.803   0.589
10218SOL    HW231554   1.752   0.927   0.683
10219SOL     OW31555   0.714   2.425   1.489
10219SOL    HW131556   0.783   2.368   1.534
10219SOL    HW231557   0.696   2.390   1.398
10220SOL     OW31558   4.446   1.659   1.029
10220SOL    HW131559   4.383   1.691   1.100
10220SOL    HW231560   4.436   1.560   1.017
10221SOL     OW31561   2.895   0.492   5.133
10221SOL    HW131562   2.888   0.402   5.176
10221SOL    HW231563   2.813   0.510   5.079
10222SOL     OW31564   1.110   4.377   5.391
10222SOL    HW131565   1.102   4.474   5.370
10222SOL    HW231566   1.072   4.359   5.481
10223SOL     OW31567   1.792   4.239   0.181
10223SOL    HW131568   1.857   4.222   0.255
10223SOL    HW231569   1.815   4.181   0.103
10224SOL     OW31570   1.261   0.283   4.315
10224SOL    HW131571   1.335   0.221   4.287
10224SOL    HW231572   1.173   0.246   4.285
10225SOL     OW31573   6.894   6.346   4.936
10225SOL    HW131574   6.895   6.247   4.950
10225SOL    HW231575   6.983   6.376   4.901
10226SOL     OW31576   2.047   0.857   6.473
10226SOL    HW131577   1.995   0.891   6.551
10226SOL    HW231578   1.989   0.795   6.420
10227SOL     OW31579   4.792   4.669   6.958
10227SOL    HW131580   4.837   4.743   6.909
10227SOL    HW231581   4.693   4.676   6.946
10228SOL     OW31582   1.430   5.412   3.752
10228SOL    HW131583   1.500   5.484   3.751
10228SOL    HW231584   1.340   5.452   3.740
10229SOL     OW31585   1.223   0.535   3.119
10229SOL    HW131586   1.315   0.558   3.149
10229SOL    HW231587   1.158   0.556   3.191
10230SOL     OW31588   5.943   0.331   3.715
10230SOL    HW131589   5.857   0.325   3.664
10230SOL    HW231590   6.019   0.304   3.656
10231SOL     OW31591   5.501   6.460   4.803
10231SOL    HW131592   5.596   6.459   4.832
10231SOL    HW231593   5.467   6.367   4.794
10232SOL     OW31594   3.528   1.940   4.821
10232SOL    HW131595   3.458   1.961   4.752
10232SOL    HW231596   3.561   1.846   4.806
10233SOL     OW31597   4.607   2.605   5.826
10233SOL    HW131598   4.525   2.615   5.882
10233SOL    HW231599   4.664   2.531   5.863
10234SOL     OW31600   5.729   6.876   1.215
10234SOL    HW131601   5.809   6.907   1.164
10234SOL    HW231602   5.715   6.936   1.293
10235SOL     OW31603   4.694   1.662   0.062
10235SOL    HW131604   4.748   1.618   7.009
10235SOL    HW231605   4.601   1.624   0.061
10236SOL     OW31606   2.095   5.963   1.971
10236SOL    HW131607   2.102   6.022   2.052
10236SOL    HW231608   2.055   6.015   1.895
10237SOL     OW31609   6.165   3.962   2.516
10237SOL    HW131610   6.264   3.975   2.506
10237SOL    HW231611   6.147   3.885   2.577
10238SOL     OW31612   4.392   4.670   5.531
10238SOL    HW131613   4.336   4.626   5.461
10238SOL    HW231614   4.426   4.601   5.595
10239SOL     OW31615   0.362   4.181   4.736
10239SOL    HW131616   0.370   4.088   4.773
10239SOL    HW231617   0.276   4.222   4.768
10240SOL     OW31618   1.198   4.030   3.082
10240SOL    HW131619   1.268   4.093   3.117
10240SOL    HW231620   1.135   4.006   3.156
10241SOL     OW31621   1.056   1.811   2.603
10241SOL    HW131622   1.117   1.756   2.659
10241SOL    HW231623   1.108   1.883   2.558
10242SOL     OW31624   0.108   1.257   6.090
10242SOL    HW131625   0.130   1.255   5.992
10242SOL    HW231626   0.133   1.170   6.132
10243SOL     OW31627   0.800   5.658   1.582
10243SOL    HW131628   0.807   5.623   1.489
10243SOL    HW231629   0.889   5.653   1.627
10244SOL     OW31630   2.544   5.205   0.195
10244SOL    HW131631   2.459   5.158   0.172
10244SOL    HW231632   2.526   5.271   0.267
10245SOL     OW31633   1.337   2.696   6.850
10245SOL    HW131634   1.428   2.671   6.886
10245SOL    HW231635   1.271   2.693   6.925
10246SOL     OW31636   3.025   3.710   4.708
10246SOL    HW131637   2.973   3.736   4.789
10246SOL    HW231638   3.019   3.783   4.640
10247SOL     OW31639   6.744   5.182   6.009
10247SOL    HW131640   6.769   5.105   5.950
10247SOL    HW231641   6.787   5.169   6.099
10248SOL     OW31642   2.308   0.280   2.075
10248SOL    HW131643   2.282   0.309   1.983
10248SOL    HW231644   2.408   0.275   2.081
10249SOL     OW31645   4.609   1.145   5.859
10249SOL    HW131646   4.510   1.135   5.849
10249SOL    HW231647   4.647   1.184   5.775
10250SOL     OW31648   6.003   0.944   1.280
10250SOL    HW131649   6.041   1.037   1.275
10250SOL    HW231650   5.903   0.948   1.275
10251SOL     OW31651   2.974   2.741   6.903
10251SOL    HW131652   3.023   2.779   6.824
10251SOL    HW231653   2.987   2.642   6.904
10252SOL     OW31654   6.100   6.817   0.867
10252SOL    HW131655   6.165   6.828   0.942
10252SOL    HW231656   6.112   6.727   0.825
10253SOL     OW31657   5.096   4.365   0.136
10253SOL    HW131658   5.170   4.399   0.194
10253SOL    HW231659   5.121   4.276   0.098
10254SOL     OW31660   2.707   1.214   5.357
10254SOL    HW131661   2.783   1.161   5.395
10254SOL    HW231662   2.716   1.309   5.384
10255SOL     OW31663   2.099   5.201   2.228
10255SOL    HW131664   2.154   5.122   2.257
10255SOL    HW231665   2.154   5.284   2.236
10256SOL     OW31666   4.650   0.392   0.081
10256SOL    HW131667   4.725   0.454   0.105
10256SOL    HW231668   4.595   0.373   0.162
10257SOL     OW31669   1.361   5.320   5.945
10257SOL    HW131670   1.442   5.267   5.972
10257SOL    HW231671   1.304   5.336   6.025
10258SOL     OW31672   4.285   6.831   3.438
10258SOL    HW131673   4.338   6.748   3.421
10258SOL    HW231674   4.228   6.852   3.358
10259SOL     OW31675   0.374   4.158   4.137
10259SOL    HW131676   0.437   4.236   4.127
10259SOL    HW231677   0.387   4.096   4.060
10260SOL     OW31678   0.903   6.753   2.435
10260SOL    HW131679   0.961   6.701   2.498
10260SOL    HW231680   0.826   6.695   2.406
10261SOL     OW31681   0.407   5.153   1.897
10261SOL    HW131682   0.422   5.077   1.835
10261SOL    HW231683   0.309   5.168   1.910
10262SOL     OW31684   3.146   4.907   4.171
10262SOL    HW131685   3.113   4.967   4.098
10262SOL    HW231686   3.081   4.833   4.186
10263SOL     OW31687   5.257   1.923   6.106
10263SOL    HW131688   5.326   1.924   6.034
10263SOL    HW231689   5.285   1.986   6.179
10264SOL     OW31690   6.189   0.828   6.122
10264SOL    HW131691   6.212   0.909   6.069
10264SOL    HW231692   6.273   0.782   6.151
10265SOL     OW31693   3.502   1.125   3.261
10265SOL    HW131694   3.492   1.194   3.190
10265SOL    HW231695   3.445   1.046   3.239
10266SOL     OW31696   3.350   3.543   6.216
10266SOL    HW131697   3.438   3.588   6.226
10266SOL    HW231698   3.364   3.449   6.185
10267SOL     OW31699   6.729   1.588   6.700
10267SOL    HW131700   6.696   1.646   6.626
10267SOL    HW231701   6.651   1.554   6.753
10268SOL     OW31702   5.385   5.494   1.372
10268SOL    HW131703   5.355   5.417   1.428
10268SOL    HW231704   5.413   5.460   1.282
10269SOL     OW31705   1.964   2.351   6.143
10269SOL    HW131706   2.031   2.320   6.210
10269SOL    HW231707   2.010   2.404   6.072
10270SOL     OW31708   1.961   6.066   0.645
10270SOL    HW131709   1.973   6.034   0.739
10270SOL    HW231710   2.027   6.139   0.626
10271SOL     OW31711   3.973   3.384   1.444
10271SOL    HW131712   3.915   3.304   1.428
10271SOL    HW231713   4.066   3.353   1.464
10272SOL     OW31714   0.479   0.595   4.217
10272SOL    HW131715   0.452   0.657   4.291
10272SOL    HW231716   0.421   0.514   4.219
10273SOL     OW31717   3.963   5.868   4.610
10273SOL    HW131718   3.987   5.899   4.702
10273SOL    HW231719   3.902   5.934   4.567
10274SOL     OW31720   0.922   5.047   5.904
10274SOL    HW131721   0.834   5.021   5.865
10274SOL    HW231722   0.939   5.144   5.887
10275SOL     OW31723   0.914   6.274   3.068
10275SOL    HW131724   0.956   6.185   3.086
10275SOL    HW231725   0.970   6.324   3.002
10276SOL     OW31726   0.176   5.539   5.278
10276SOL    HW131727   0.145   5.444   5.280
10276SOL    HW231728   0.131   5.587   5.203
10277SOL     OW31729   3.262   6.523   4.085
10277SOL    HW131730   3.294   6.431   4.110
10277SOL    HW231731   3.207   6.518   4.002
10278SOL     OW31732   6.163   0.142   6.776
10278SOL    HW131733   6.148   0.241   6.768
10278SOL    HW231734   6.197   0.120   6.867
10279SOL     OW31735   2.976   0.096   4.669
10279SOL    HW131736   2.952   0.183   4.624
10279SOL    HW231737   2.956   0.020   4.607
10280SOL     OW31738   1.687   4.144   1.106
10280SOL    HW131739   1.613   4.079   1.086
10280SOL    HW231740   1.746   4.153   1.026
10281SOL     OW31741   4.430   1.365   2.499
10281SOL    HW131742   4.409   1.425   2.422
10281SOL    HW231743   4.346   1.347   2.551
10282SOL     OW31744   0.780   1.805   3.768
10282SOL    HW131745   0.829   1.814   3.682
10282SOL    HW231746   0.688   1.844   3.759
10283SOL     OW31747   1.160   3.195   0.674
10283SOL    HW131748   1.141   3.286   0.712
10283SOL    HW231749   1.214   3.142   0.739
10284SOL     OW31750   5.430   3.637   4.970
10284SOL    HW131751   5.466   3.694   4.896
10284SOL    HW231752   5.504   3.617   5.035
10285SOL     OW31753   4.643   0.822   0.796
10285SOL    HW131754   4.645   0.918   0.824
10285SOL    HW231755   4.550   0.798   0.766
10286SOL     OW31756   4.086   0.798   2.893
10286SOL    HW131757   4.085   0.737   2.972
10286SOL    HW231758   4.057   0.890   2.921
10287SOL     OW31759   1.586   7.004   1.420
10287SOL    HW131760   1.507   0.044   1.400
10287SOL    HW231761   1.586   6.981   1.518
10288SOL     OW31762   5.581   5.793   2.904
10288SOL    HW131763   5.680   5.805   2.912
10288SOL    HW231764   5.539   5.879   2.877
10289SOL     OW31765   2.885   1.479   1.643
10289SOL    HW131766   2.808   1.543   1.634
10289SOL    HW231767   2.868   1.399   1.585
10290SOL     OW31768   4.014   3.768   2.516
10290SOL    HW131769   3.955   3.688   2.519
10290SOL    HW231770   4.022   3.808   2.607
10291SOL     OW31771   3.313   0.573   3.933
10291SOL    HW131772   3.299   0.510   4.009
10291SOL    HW231773   3.233   0.632   3.923
10292SOL     OW31774   0.374   2.092   4.804
10292SOL    HW131775   0.406   2.117   4.713
10292SOL    HW231776   0.437   2.128   4.873
10293SOL     OW31777   2.200   5.949   3.229
10293SOL    HW131778   2.264   6.022   3.252
10293SOL    HW231779   2.122   5.952   3.292
10294SOL     OW31780   4.412   1.660   2.552
10294SOL    HW131781   4.374   1.686   2.641
10294SOL    HW231782   4.450   1.567   2.558
10295SOL     OW31783   6.941   4.907   5.632
10295SOL    HW131784   6.846   4.929   5.653
10295SOL    HW231785   6.952   4.808   5.626
10296SOL     OW31786   6.092   4.067   6.285
10296SOL    HW131787   6.007   4.027   6.318
10296SOL    HW231788   6.129   4.011   6.210
10297SOL     OW31789   1.489   6.067   3.891
10297SOL    HW131790   1.479   6.028   3.982
10297SOL    HW231791   1.556   6.141   3.893
10298SOL     OW31792   5.046   3.955   3.875
10298SOL    HW131793   5.050   3.872   3.820
10298SOL    HW231794   5.099   3.942   3.958
10299SOL     OW31795   4.245   4.676   3.623
10299SOL    HW131796   4.266   4.768   3.657
10299SOL    HW231797   4.326   4.638   3.578
10300SOL     OW31798   1.032   3.389   1.933
10300SOL    HW131799   0.982   3.336   1.864
10300SOL    HW231800   0.969   3.450   1.981
10301SOL     OW31801   5.890   1.540   3.208
10301SOL    HW131802   5.803   1.519   3.254
10301SOL    HW231803   5.872   1.578   3.118
10302SOL     OW31804   1.519   5.823   2.677
10302SOL    HW131805   1.448   5.760   2.645
10302SOL    HW231806   1.478   5.892   2.736
10303SOL     OW31807   3.747   3.444   1.111
10303SOL    HW131808   3.659   3.466   1.153
10303SOL    HW231809   3.752   3.346   1.090
10304SOL     OW31810   6.959   6.696   3.415
10304SOL    HW131811   0.016   6.657   3.362
10304SOL    HW231812   6.987   6.784   3.452
10305SOL     OW31813   1.945   6.052   6.923
10305SOL    HW131814   1.915   6.098   7.007
10305SOL    HW231815   1.931   5.954   6.933
10306SOL     OW31816   4.446   5.766   0.561
10306SOL    HW131817   4.348   5.765   0.581
10306SOL    HW231818   4.494   5.708   0.626
10307SOL     OW31819   1.055   1.089   6.510
10307SOL    HW131820   1.048   1.173   6.564
10307SOL    HW231821   1.139   1.091   6.456
10308SOL     OW31822   3.302   5.679   3.920
10308SOL    HW131823   3.361   5.746   3.874
10308SOL    HW231824   3.347   5.647   4.003
10309SOL     OW31825   6.271   6.201   3.105
10309SOL    HW131826   6.306   6.140   3.177
10309SOL    HW231827   6.295   6.164   3.015
10310SOL     OW31828   3.146   3.727   2.580
10310SOL    HW131829   3.110   3.633   2.577
10310SOL    HW231830   3.082   3.788   2.534
10311SOL     OW31831   0.334   5.699   0.506
10311SOL    HW131832   0.417   5.656   0.542
10311SOL    HW231833   0.356   5.792   0.475
10312SOL     OW31834   3.245   4.816   0.815
10312SOL    HW131835   3.166   4.805   0.754
10312SOL    HW231836   3.329   4.820   0.760
10313SOL     OW31837   5.032   0.167   2.316
10313SOL    HW131838   5.009   0.072   2.296
10313SOL    HW231839   5.086   0.172   2.400
10314SOL     OW31840   6.462   0.092   0.610
10314SOL    HW131841   6.390   0.142   0.564
10314SOL    HW231842   6.515   0.155   0.668
10315SOL     OW31843   6.205   5.843   5.065
10315SOL    HW131844   6.138   5.784   5.110
10315SOL    HW231845   6.160   5.893   4.991
10316SOL     OW31846   0.549   3.707   4.818
10316SOL    HW131847   0.582   3.701   4.724
10316SOL    HW231848   0.608   3.652   4.877
10317SOL     OW31849   4.431   5.047   6.265
10317SOL    HW131850   4.341   5.080   6.237
10317SOL    HW231851   4.491   5.125   6.283
10318SOL     OW31852   6.314   5.196   1.401
10318SOL    HW131853   6.381   5.239   1.340
10318SOL    HW231854   6.313   5.245   1.488
10319SOL     OW31855   7.014   5.367   3.618
10319SOL    HW131856   0.051   5.320   3.687
10319SOL    HW231857   6.919   5.372   3.649
10320SOL     OW31858   0.508   5.952   0.854
10320SOL    HW131859   0.532   5.998   0.939
10320SOL    HW231860   0.464   6.017   0.792
10321SOL     OW31861   4.577   5.216   4.572
10321SOL    HW131862   4.608   5.275   4.497
10321SOL    HW231863   4.477   5.209   4.569
10322SOL     OW31864   6.759   4.697   0.751
10322SOL    HW131865   6.804   4.620   0.798
10322SOL    HW231866   6.677   4.723   0.802
10323SOL     OW31867   5.323   3.038   6.102
10323SOL    HW131868   5.385   3.062   6.027
10323SOL    HW231869   5.245   3.100   6.101
10324SOL     OW31870   3.197   4.076   3.705
10324SOL    HW131871   3.286   4.120   3.690
10324SOL    HW231872   3.148   4.071   3.617
10325SOL     OW31873   0.300   3.022   3.113
10325SOL    HW131874   0.223   3.085   3.126
10325SOL    HW231875   0.285   2.967   3.032
10326SOL     OW31876   5.207   2.598   0.416
10326SOL    HW131877   5.153   2.591   0.331
10326SOL    HW231878   5.146   2.592   0.495
10327SOL     OW31879   0.444   0.652   3.168
10327SOL    HW131880   0.389   0.710   3.229
10327SOL    HW231881   0.383   0.606   3.103
10328SOL     OW31882   6.168   3.529   2.536
10328SOL    HW131883   6.168   3.594   2.612
10328SOL    HW231884   6.089   3.468   2.543
10329SOL     OW31885   2.881   0.252   2.897
10329SOL    HW131886   2.903   0.207   2.810
10329SOL    HW231887   2.837   0.186   2.958
10330SOL     OW31888   4.122   5.048   2.456
10330SOL    HW131889   4.129   5.119   2.527
10330SOL    HW231890   4.025   5.025   2.443
10331SOL     OW31891   5.310   1.119   3.820
10331SOL    HW131892   5.361   1.196   3.860
10331SOL    HW231893   5.373   1.061   3.769
10332SOL     OW31894   0.021   1.898   6.780
10332SOL    HW131895   6.996   1.917   6.869
10332SOL    HW231896   0.005   1.802   6.755
10333SOL     OW31897   5.932   5.460   4.434
10333SOL    HW131898   5.842   5.501   4.418
10333SOL    HW231899   5.999   5.533   4.451
10334SOL     OW31900   2.120   4.710   4.251
10334SOL    HW131901   2.023   4.713   4.229
10334SOL    HW231902   2.173   4.716   4.166
10335SOL     OW31903   2.422   5.408   1.153
10335SOL    HW131904   2.431   5.327   1.095
10335SOL    HW231905   2.348   5.466   1.118
10336SOL     OW31906   4.282   6.905   2.037
10336SOL    HW131907   4.272   6.935   1.942
10336SOL    HW231908   4.271   6.983   2.098
10337SOL     OW31909   0.359   5.334   5.054
10337SOL    HW131910   0.286   5.268   5.071
10337SOL    HW231911   0.318   5.424   5.037
10338SOL     OW31912   2.489   6.657   2.482
10338SOL    HW131913   2.568   6.703   2.521
10338SOL    HW231914   2.510   6.560   2.468
10339SOL     OW31915   2.560   6.270   1.473
10339SOL    HW131916   2.561   6.171   1.462
10339SOL    HW231917   2.488   6.309   1.417
10340SOL     OW31918   2.051   6.036   0.264
10340SOL    HW131919   2.139   6.077   0.287
10340SOL    HW231920   2.066   5.942   0.231
10341SOL     OW31921   2.509   1.445   2.257
10341SOL    HW131922   2.477   1.535   2.225
10341SOL    HW231923   2.554   1.397   2.181
10342SOL     OW31924   2.114   0.604   5.659
10342SOL    HW131925   2.142   0.523   5.710
10342SOL    HW231926   2.189   0.634   5.600
10343SOL     OW31927   2.882   3.858   5.790
10343SOL    HW131928   2.821   3.936   5.801
10343SOL    HW231929   2.938   3.847   5.872
10344SOL     OW31930   4.124   3.679   4.728
10344SOL    HW131931   4.139   3.582   4.742
10344SOL    HW231932   4.168   3.708   4.643
10345SOL     OW31933   2.008   1.557   6.635
10345SOL    HW131934   2.078   1.612   6.589
10345SOL    HW231935   1.917   1.588   6.606
10346SOL     OW31936   5.112   0.016   6.798
10346SOL    HW131937   5.019   0.047   6.822
10346SOL    HW231938   5.168   0.013   6.881
10347SOL     OW31939   5.563   1.648   1.527
10347SOL    HW131940   5.604   1.578   1.586
10347SOL    HW231941   5.469   1.665   1.558
10348SOL     OW31942   6.371   0.664   5.995
10348SOL    HW131943   6.280   0.631   6.022
10348SOL    HW231944   6.416   0.595   5.940
10349SOL     OW31945   6.458   1.322   1.441
10349SOL    HW131946   6.509   1.344   1.524
10349SOL    HW231947   6.521   1.321   1.363
10350SOL     OW31948   2.644   5.773   3.908
10350SOL    HW131949   2.711   5.789   3.836
10350SOL    HW231950   2.660   5.837   3.983
10351SOL     OW31951   5.496   5.106   5.441
10351SOL    HW131952   5.447   5.175   5.388
10351SOL    HW231953   5.462   5.106   5.535
10352SOL     OW31954   6.131   1.937   0.062
10352SOL    HW131955   6.204   1.995   0.026
10352SOL    HW231956   6.099   1.875   7.009
10353SOL     OW31957   0.174   2.557   3.217
10353SOL    HW131958   0.259   2.573   3.268
10353SOL    HW231959   0.133   2.472   3.246
10354SOL     OW31960   0.567   3.879   0.484
10354SOL    HW131961   0.483   3.840   0.521
10354SOL    HW231962   0.585   3.839   0.393
10355SOL     OW31963   1.378   0.203   0.723
10355SOL    HW131964   1.425   0.114   0.725
10355SOL    HW231965   1.331   0.213   0.635
10356SOL     OW31966   0.116   4.181   6.753
10356SOL    HW131967   0.178   4.207   6.680
10356SOL    HW231968   0.081   4.262   6.799
10357SOL     OW31969   0.859   3.254   5.947
10357SOL    HW131970   0.902   3.258   6.037
10357SOL    HW231971   0.898   3.325   5.888
10358SOL     OW31972   0.787   2.281   2.965
10358SOL    HW131973   0.769   2.252   3.059
10358SOL    HW231974   0.752   2.213   2.901
10359SOL     OW31975   5.210   2.002   2.172
10359SOL    HW131976   5.212   1.925   2.109
10359SOL    HW231977   5.247   2.083   2.127
10360SOL     OW31978   6.045   4.676   2.652
10360SOL    HW131979   5.973   4.745   2.649
10360SOL    HW231980   6.096   4.684   2.737
10361SOL     OW31981   0.351   1.588   1.309
10361SOL    HW131982   0.256   1.619   1.306
10361SOL    HW231983   0.354   1.491   1.334
10362SOL     OW31984   1.813   4.499   2.853
10362SOL    HW131985   1.780   4.526   2.944
10362SOL    HW231986   1.748   4.532   2.784
10363SOL     OW31987   5.054   4.093   1.076
10363SOL    HW131988   5.086   4.094   0.981
10363SOL    HW231989   4.959   4.061   1.079
10364SOL     OW31990   5.397   4.568   2.245
10364SOL    HW131991   5.487   4.556   2.286
10364SOL    HW231992   5.407   4.609   2.155
10365SOL     OW31993   6.149   5.563   0.478
10365SOL    HW131994   6.197   5.631   0.423
10365SOL    HW231995   6.064   5.602   0.513
10366SOL     OW31996   3.258   6.369   2.666
10366SOL    HW131997   3.196   6.325   2.601
10366SOL    HW231998   3.283   6.303   2.738
10367SOL     OW31999   6.229   2.091   0.669
10367SOL    HW132000   6.283   2.160   0.620
10367SOL    HW232001   6.258   2.088   0.765
10368SOL     OW32002   1.913   0.340   2.277
10368SOL    HW132003   1.922   0.326   2.375
10368SOL    HW232004   1.873   0.259   2.235
10369SOL     OW32005   3.295   6.349   5.562
10369SOL    HW132006   3.345   6.410   5.500
10369SOL    HW232007   3.355   6.319   5.635
10370SOL     OW32008   0.397   1.763   4.501
10370SOL    HW132009   0.356   1.672   4.501
10370SOL    HW232010   0.334   1.828   4.458
10371SOL     OW32011   3.373   6.130   3.149
10371SOL    HW132012   3.293   6.102   3.095
10371SOL    HW232013   3.351   6.211   3.202
10372SOL     OW32014   2.453   0.099   1.487
10372SOL    HW132015   2.494   0.089   1.396
10372SOL    HW232016   2.369   0.153   1.480
10373SOL     OW32017   6.994   1.891   5.649
10373SOL    HW132018   0.045   1.960   5.627
10373SOL    HW232019   6.997   1.871   5.746
10374SOL     OW32020   3.365   6.992   4.559
10374SOL    HW132021   3.457   6.998   4.596
10374SOL    HW232022   3.327   6.902   4.577
10375SOL     OW32023   4.028   2.903   0.177
10375SOL    HW132024   4.072   2.815   0.195
10375SOL    HW232025   3.951   2.890   0.115
10376SOL     OW32026   1.869   5.672   2.687
10376SOL    HW132027   1.903   5.580   2.706
10376SOL    HW232028   1.933   5.740   2.721
10377SOL     OW32029   0.536   1.694   2.044
10377SOL    HW132030   0.575   1.690   1.951
10377SOL    HW232031   0.451   1.746   2.042
10378SOL     OW32032   0.224   4.731   5.292
10378SOL    HW132033   0.307   4.737   5.347
10378SOL    HW232034   0.248   4.723   5.195
10379SOL     OW32035   2.437   6.881   4.175
10379SOL    HW132036   2.518   6.846   4.221
10379SOL    HW232037   2.413   6.970   4.213
10380SOL     OW32038   1.622   2.629   4.684
10380SOL    HW132039   1.710   2.673   4.667
10380SOL    HW232040   1.589   2.655   4.775
10381SOL     OW32041   4.197   4.408   1.638
10381SOL    HW132042   4.292   4.375   1.637
10381SOL    HW232043   4.135   4.334   1.611
10382SOL     OW32044   3.274   4.737   1.777
10382SOL    HW132045   3.341   4.665   1.793
10382SOL    HW232046   3.320   4.824   1.762
10383SOL     OW32047   2.252   4.247   0.430
10383SOL    HW132048   2.327   4.194   0.469
10383SOL    HW232049   2.288   4.312   0.363
10384SOL     OW32050   6.046   6.259   1.461
10384SOL    HW132051   5.954   6.263   1.423
10384SOL    HW232052   6.079   6.164   1.458
10385SOL     OW32053   3.575   4.661   6.116
10385SOL    HW132054   3.545   4.629   6.027
10385SOL    HW232055   3.499   4.707   6.163
10386SOL     OW32056   6.548   0.982   6.126
10386SOL    HW132057   6.474   0.974   6.058
10386SOL    HW232058   6.530   0.918   6.201
10387SOL     OW32059   4.875   3.318   2.890
10387SOL    HW132060   4.964   3.272   2.878
10387SOL    HW232061   4.883   3.413   2.862
10388SOL     OW32062   2.918   0.669   5.552
10388SOL    HW132063   2.933   0.726   5.633
10388SOL    HW232064   2.820   0.660   5.535
10389SOL     OW32065   0.011   3.656   0.141
10389SOL    HW132066   0.089   3.706   0.105
10389SOL    HW232067   0.040   3.598   0.218
10390SOL     OW32068   2.505   2.093   1.010
10390SOL    HW132069   2.574   2.047   1.065
10390SOL    HW232070   2.419   2.098   1.061
10391SOL     OW32071   0.405   6.384   2.974
10391SOL    HW132072   0.390   6.477   3.007
10391SOL    HW232073   0.502   6.362   2.978
10392SOL     OW32074   0.182   5.451   4.845
10392SOL    HW132075   0.248   5.415   4.779
10392SOL    HW232076   0.224   5.527   4.896
10393SOL     OW32077   2.198   3.953   3.967
10393SOL    HW132078   2.279   3.914   4.010
10393SOL    HW232079   2.133   3.981   4.038
10394SOL     OW32080   3.252   6.165   4.269
10394SOL    HW132081   3.318   6.236   4.294
10394SOL    HW232082   3.222   6.180   4.175
10395SOL     OW32083   6.932   6.055   0.892
10395SOL    HW132084   6.954   6.080   0.798
10395SOL    HW232085   6.953   6.132   0.952
10396SOL     OW32086   3.210   2.148   3.803
10396SOL    HW132087   3.202   2.247   3.791
10396SOL    HW232088   3.215   2.104   3.713
10397SOL     OW32089   3.266   2.003   2.282
10397SOL    HW132090   3.358   2.037   2.263
10397SOL    HW232091   3.202   2.039   2.215
10398SOL     OW32092   0.137   3.297   1.685
10398SOL    HW132093   0.217   3.268   1.632
10398SOL    HW232094   0.155   3.385   1.728
10399SOL     OW32095   5.930   2.559   3.011
10399SOL    HW132096   5.904   2.639   2.957
10399SOL    HW232097   5.900   2.476   2.963
10400SOL     OW32098   4.012   6.864   0.241
10400SOL    HW132099   3.960   6.812   0.173
10400SOL    HW232100   4.081   6.805   0.282
10401SOL     OW32101   6.248   0.674   3.498
10401SOL    HW132102   6.340   0.712   3.489
10401SOL    HW232103   6.249   0.602   3.568
10402SOL     OW32104   6.324   3.128   4.749
10402SOL    HW132105   6.368   3.199   4.694
10402SOL    HW232106   6.234   3.108   4.711
10403SOL     OW32107   3.520   0.766   3.899
10403SOL    HW132108   3.618   0.747   3.890
10403SOL    HW232109   3.468   0.681   3.888
10404SOL     OW32110   5.580   0.111   4.953
10404SOL    HW132111   5.540   0.020   4.951
10404SOL    HW232112   5.636   0.124   4.871
10405SOL     OW32113   0.637   1.952   5.868
10405SOL    HW132114   0.648   1.853   5.874
10405SOL    HW232115   0.613   1.988   5.958
10406SOL     OW32116   3.471   5.160   2.428
10406SOL    HW132117   3.412   5.236   2.453
10406SOL    HW232118   3.554   5.195   2.384
10407SOL     OW32119   3.307   5.818   5.876
10407SOL    HW132120   3.303   5.767   5.790
10407SOL    HW232121   3.215   5.841   5.906
10408SOL     OW32122   4.464   1.154   0.701
10408SOL    HW132123   4.536   1.113   0.645
10408SOL    HW232124   4.385   1.174   0.643
10409SOL     OW32125   0.309   4.732   1.082
10409SOL    HW132126   0.304   4.668   1.159
10409SOL    HW232127   0.228   4.791   1.083
10410SOL     OW32128   5.760   0.802   6.989
10410SOL    HW132129   5.799   0.892   6.973
10410SOL    HW232130   5.693   0.782   6.917
10411SOL     OW32131   3.679   6.828   2.871
10411SOL    HW132132   3.774   6.796   2.860
10411SOL    HW232133   3.665   6.909   2.815
10412SOL     OW32134   6.037   0.396   0.713
10412SOL    HW132135   6.007   0.303   0.738
10412SOL    HW232136   5.956   0.455   0.705
10413SOL     OW32137   6.154   2.341   1.206
10413SOL    HW132138   6.219   2.278   1.247
10413SOL    HW232139   6.100   2.386   1.278
10414SOL     OW32140   4.284   4.203   5.312
10414SOL    HW132141   4.291   4.281   5.250
10414SOL    HW232142   4.190   4.192   5.342
10415SOL     OW32143   0.317   4.309   5.301
10415SOL    HW132144   0.345   4.396   5.341
10415SOL    HW232145   0.351   4.303   5.207
10416SOL     OW32146   6.369   0.987   3.468
10416SOL    HW132147   6.299   1.037   3.518
10416SOL    HW232148   6.459   1.012   3.502
10417SOL     OW32149   3.822   5.412   4.405
10417SOL    HW132150   3.871   5.499   4.391
10417SOL    HW232151   3.829   5.386   4.502
10418SOL     OW32152   6.844   4.684   6.115
10418SOL    HW132153   6.766   4.626   6.091
10418SOL    HW232154   6.924   4.658   6.060
10419SOL     OW32155   1.381   0.465   6.426
10419SOL    HW132156   1.427   0.416   6.501
10419SOL    HW232157   1.450   0.509   6.368
10420SOL     OW32158   6.491   3.026   2.389
10420SOL    HW132159   6.523   2.931   2.378
10420SOL    HW232160   6.495   3.073   2.301
10421SOL     OW32161   0.201   1.701   3.478
10421SOL    HW132162   0.179   1.794   3.448
10421SOL    HW232163   0.297   1.696   3.505
10422SOL     OW32164   6.037   2.528   5.679
10422SOL    HW132165   6.055   2.468   5.601
10422SOL    HW232166   5.943   2.514   5.711
10423SOL     OW32167   5.244   4.957   4.464
10423SOL    HW132168   5.316   4.920   4.406
10423SOL    HW232169   5.189   4.882   4.502
10424SOL     OW32170   5.358   3.255   0.287
10424SOL    HW132171   5.431   3.260   0.220
10424SOL    HW232172   5.279   3.208   0.248
10425SOL     OW32173   1.971   6.842   2.052
10425SOL    HW132174   2.040   6.856   1.981
10425SOL    HW232175   1.911   6.922   2.057
10426SOL     OW32176   6.514   4.229   0.656
10426SOL    HW132177   6.558   4.183   0.579
10426SOL    HW232178   6.442   4.290   0.623
10427SOL     OW32179   3.996   1.544   0.205
10427SOL    HW132180   3.926   1.549   0.133
10427SOL    HW232181   4.000   1.632   0.253
10428SOL     OW32182   2.885   1.559   4.279
10428SOL    HW132183   2.909   1.589   4.371
10428SOL    HW232184   2.872   1.640   4.220
10429SOL     OW32185   0.383   5.450   1.233
10429SOL    HW132186   0.431   5.517   1.177
10429SOL    HW232187   0.449   5.382   1.267
10430SOL     OW32188   4.438   6.628   3.704
10430SOL    HW132189   4.456   6.722   3.677
10430SOL    HW232190   4.477   6.612   3.795
10431SOL     OW32191   3.511   6.596   4.894
10431SOL    HW132192   3.546   6.618   4.803
10431SOL    HW232193   3.562   6.518   4.931
10432SOL     OW32194   6.151   0.336   4.389
10432SOL    HW132195   6.245   0.366   4.376
10432SOL    HW232196   6.141   0.295   4.480
10433SOL     OW32197   1.923   6.893   1.512
10433SOL    HW132198   1.855   6.955   1.550
10433SOL    HW232199   2.012   6.939   1.507
10434SOL     OW32200   4.222   6.655   3.011
10434SOL    HW132201   4.295   6.620   3.070
10434SOL    HW232202   4.257   6.732   2.958
10435SOL     OW32203   6.757   0.293   4.757
10435SOL    HW132204   6.827   0.222   4.767
10435SOL    HW232205   6.784   0.374   4.809
10436SOL     OW32206   0.438   5.422   5.634
10436SOL    HW132207   0.394   5.462   5.554
10436SOL    HW232208   0.413   5.474   5.716
10437SOL     OW32209   5.823   4.651   5.252
10437SOL    HW132210   5.917   4.627   5.275
10437SOL    HW232211   5.820   4.747   5.221
10438SOL     OW32212   5.393   6.615   6.710
10438SOL    HW132213   5.302   6.614   6.668
10438SOL    HW232214   5.424   6.710   6.721
10439SOL     OW32215   3.871   1.687   6.044
10439SOL    HW132216   3.794   1.627   6.025
10439SOL    HW232217   3.876   1.759   5.974
10440SOL     OW32218   1.370   6.271   0.155
10440SOL    HW132219   1.407   6.328   0.081
10440SOL    HW232220   1.272   6.257   0.138
10441SOL     OW32221   5.054   1.410   0.090
10441SOL    HW132222   5.062   1.472   0.012
10441SOL    HW232223   5.007   1.457   0.165
10442SOL     OW32224   2.930   5.689   5.383
10442SOL    HW132225   2.956   5.595   5.402
10442SOL    HW232226   2.883   5.727   5.462
10443SOL     OW32227   5.238   3.482   4.713
10443SOL    HW132228   5.198   3.570   4.736
10443SOL    HW232229   5.166   3.413   4.706
10444SOL     OW32230   4.074   6.129   4.824
10444SOL    HW132231   3.984   6.170   4.812
10444SOL    HW232232   4.144   6.200   4.820
10445SOL     OW32233   0.624   5.149   4.073
10445SOL    HW132234   0.672   5.221   4.023
10445SOL    HW232235   0.525   5.166   4.070
10446SOL     OW32236   1.015   3.610   5.987
10446SOL    HW132237   1.098   3.633   6.037
10446SOL    HW232238   0.944   3.677   6.008
10447SOL     OW32239   6.800   1.351   1.823
10447SOL    HW132240   6.828   1.443   1.795
10447SOL    HW232241   6.776   1.351   1.920
10448SOL     OW32242   4.052   2.740   1.227
10448SOL    HW132243   3.958   2.704   1.220
10448SOL    HW232244   4.050   2.828   1.275
10449SOL     OW32245   2.643   5.650   4.399
10449SOL    HW132246   2.606   5.590   4.470
10449SOL    HW232247   2.737   5.625   4.379
10450SOL     OW32248   0.391   2.616   0.410
10450SOL    HW132249   0.483   2.594   0.443
10450SOL    HW232250   0.387   2.714   0.389
10451SOL     OW32251   2.883   5.104   2.589
10451SOL    HW132252   2.851   5.095   2.683
10451SOL    HW232253   2.938   5.024   2.564
10452SOL     OW32254   6.432   3.341   3.638
10452SOL    HW132255   6.419   3.282   3.558
10452SOL    HW232256   6.482   3.423   3.611
10453SOL     OW32257   5.146   6.395   1.576
10453SOL    HW132258   5.169   6.436   1.664
10453SOL    HW232259   5.229   6.387   1.521
10454SOL     OW32260   5.556   2.772   1.603
10454SOL    HW132261   5.561   2.745   1.507
10454SOL    HW232262   5.479   2.835   1.616
10455SOL     OW32263   0.757   4.774   3.316
10455SOL    HW132264   0.833   4.831   3.283
10455SOL    HW232265   0.690   4.764   3.243
10456SOL     OW32266   3.020   6.257   1.476
10456SOL    HW132267   2.987   6.210   1.558
10456SOL    HW232268   3.120   6.262   1.479
10457SOL     OW32269   3.349   3.260   3.172
10457SOL    HW132270   3.432   3.253   3.117
10457SOL    HW232271   3.272   3.222   3.122
10458SOL     OW32272   0.380   0.248   0.011
10458SOL    HW132273   0.287   0.262   0.046
10458SOL    HW232274   0.445   0.300   0.067
10459SOL     OW32275   5.535   5.434   2.931
10459SOL    HW132276   5.577   5.345   2.946
10459SOL    HW232277   5.513   5.446   2.835
10460SOL     OW32278   1.650   5.564   1.581
10460SOL    HW132279   1.661   5.469   1.611
10460SOL    HW232280   1.731   5.594   1.532
10461SOL     OW32281   1.022   6.154   5.684
10461SOL    HW132282   0.986   6.061   5.692
10461SOL    HW232283   0.948   6.219   5.704
10462SOL     OW32284   5.427   1.529   2.329
10462SOL    HW132285   5.386   1.478   2.404
10462SOL    HW232286   5.388   1.499   2.242
10463SOL     OW32287   3.648   4.095   5.757
10463SOL    HW132288   3.733   4.083   5.705
10463SOL    HW232289   3.582   4.026   5.728
10464SOL     OW32290   4.615   0.533   0.484
10464SOL    HW132291   4.610   0.628   0.513
10464SOL    HW232292   4.711   0.506   0.474
10465SOL     OW32293   6.543   0.247   6.842
10465SOL    HW132294   6.570   0.204   6.755
10465SOL    HW232295   6.603   0.215   6.915
10466SOL     OW32296   4.823   5.248   4.930
10466SOL    HW132297   4.877   5.312   4.874
10466SOL    HW232298   4.880   5.213   5.004
10467SOL     OW32299   1.648   1.450   5.504
10467SOL    HW132300   1.712   1.499   5.445
10467SOL    HW232301   1.683   1.449   5.598
10468SOL     OW32302   3.805   6.279   3.749
10468SOL    HW132303   3.864   6.348   3.706
10468SOL    HW232304   3.740   6.324   3.810
10469SOL     OW32305   3.466   3.906   0.818
10469SOL    HW132306   3.434   3.889   0.724
10469SOL    HW232307   3.522   3.830   0.848
10470SOL     OW32308   2.090   2.060   3.138
10470SOL    HW132309   2.032   2.141   3.144
10470SOL    HW232310   2.150   2.067   3.058
10471SOL     OW32311   1.856   3.399   1.158
10471SOL    HW132312   1.829   3.378   1.251
10471SOL    HW232313   1.939   3.348   1.134
10472SOL     OW32314   4.003   6.446   1.797
10472SOL    HW132315   4.032   6.542   1.798
10472SOL    HW232316   3.979   6.420   1.703
10473SOL     OW32317   5.461   0.097   0.867
10473SOL    HW132318   5.528   0.067   0.799
10473SOL    HW232319   5.507   0.113   0.954
10474SOL     OW32320   4.367   0.468   4.637
10474SOL    HW132321   4.444   0.485   4.698
10474SOL    HW232322   4.330   0.376   4.654
10475SOL     OW32323   4.813   5.917   1.131
10475SOL    HW132324   4.806   5.842   1.196
10475SOL    HW232325   4.779   5.887   1.042
10476SOL     OW32326   6.768   5.559   6.688
10476SOL    HW132327   6.684   5.534   6.641
10476SOL    HW232328   6.847   5.527   6.634
10477SOL     OW32329   6.218   3.428   5.090
10477SOL    HW132330   6.173   3.432   5.179
10477SOL    HW232331   6.262   3.339   5.079
10478SOL     OW32332   0.836   6.817   6.699
10478SOL    HW132333   0.753   6.769   6.726
10478SOL    HW232334   0.843   6.903   6.751
10479SOL     OW32335   1.180   2.122   1.982
10479SOL    HW132336   1.179   2.151   1.887
10479SOL    HW232337   1.238   2.041   1.992
10480SOL     OW32338   5.176   6.835   1.247
10480SOL    HW132339   5.259   6.891   1.246
10480SOL    HW232340   5.116   6.862   1.171
10481SOL     OW32341   2.387   1.187   4.535
10481SOL    HW132342   2.467   1.243   4.557
10481SOL    HW232343   2.344   1.158   4.620
10482SOL     OW32344   0.781   6.483   4.229
10482SOL    HW132345   0.730   6.508   4.147
10482SOL    HW232346   0.802   6.565   4.282
10483SOL     OW32347   6.522   5.112   0.498
10483SOL    HW132348   6.544   5.209   0.492
10483SOL    HW232349   6.428   5.097   0.468
10484SOL     OW32350   6.956   0.566   1.089
10484SOL    HW132351   6.880   0.612   1.043
10484SOL    HW232352   6.985   0.620   1.169
10485SOL     OW32353   3.910   3.803   2.829
10485SOL    HW132354   3.922   3.846   2.918
10485SOL    HW232355   3.972   3.724   2.821
10486SOL     OW32356   6.451   0.111   5.587
10486SOL    HW132357   6.524   0.043   5.595
10486SOL    HW232358   6.489   0.202   5.601
10487SOL     OW32359   5.101   1.742   1.772
10487SOL    HW132360   5.042   1.693   1.836
10487SOL    HW232361   5.065   1.732   1.679
10488SOL     OW32362   0.638   2.225   5.408
10488SOL    HW132363   0.622   2.321   5.428
10488SOL    HW232364   0.562   2.170   5.443
10489SOL     OW32365   6.135   5.825   3.813
10489SOL    HW132366   6.124   5.740   3.864
10489SOL    HW232367   6.049   5.849   3.769
10490SOL     OW32368   5.467   0.453   0.340
10490SOL    HW132369   5.461   0.423   0.435
10490SOL    HW232370   5.460   0.553   0.336
10491SOL     OW32371   1.866   2.752   6.311
10491SOL    HW132372   1.843   2.706   6.225
10491SOL    HW232373   1.954   2.798   6.301
10492SOL     OW32374   4.503   6.574   0.558
10492SOL    HW132375   4.551   6.594   0.473
10492SOL    HW232376   4.461   6.658   0.593
10493SOL     OW32377   4.218   5.721   0.999
10493SOL    HW132378   4.149   5.792   0.981
10493SOL    HW232379   4.214   5.695   1.096
10494SOL     OW32380   0.826   4.683   6.017
10494SOL    HW132381   0.790   4.608   5.961
10494SOL    HW232382   0.924   4.692   6.001
10495SOL     OW32383   6.920   6.274   6.551
10495SOL    HW132384   6.941   6.350   6.613
10495SOL    HW232385   6.992   6.266   6.483
10496SOL     OW32386   0.013   3.864   5.636
10496SOL    HW132387   6.958   3.864   5.568
10496SOL    HW232388   0.074   3.786   5.620
10497SOL     OW32389   2.126   6.779   1.814
10497SOL    HW132390   2.151   6.683   1.830
10497SOL    HW232391   2.155   6.806   1.722
10498SOL     OW32392   5.185   5.612   0.653
10498SOL    HW132393   5.115   5.541   0.665
10498SOL    HW232394   5.151   5.698   0.692
10499SOL     OW32395   5.959   5.668   1.513
10499SOL    HW132396   5.929   5.601   1.581
10499SOL    HW232397   5.901   5.662   1.432
10500SOL     OW32398   5.474   3.817   4.770
10500SOL    HW132399   5.552   3.786   4.716
10500SOL    HW232400   5.468   3.916   4.767
10501SOL     OW32401   2.668   5.524   2.469
10501SOL    HW132402   2.648   5.429   2.491
10501SOL    HW232403   2.761   5.547   2.499
10502SOL     OW32404   3.043   3.125   2.561
10502SOL    HW132405   3.014   3.131   2.465
10502SOL    HW232406   3.134   3.085   2.565
10503SOL     OW32407   6.980   3.885   6.213
10503SOL    HW132408   6.899   3.937   6.183
10503SOL    HW232409   7.013   3.921   6.300
10504SOL     OW32410   1.944   3.226   6.326
10504SOL    HW132411   1.852   3.188   6.327
10504SOL    HW232412   1.940   3.324   6.343
10505SOL     OW32413   5.472   5.991   2.103
10505SOL    HW132414   5.546   6.009   2.039
10505SOL    HW232415   5.439   6.078   2.141
10506SOL     OW32416   0.586   3.173   0.010
10506SOL    HW132417   0.565   3.244   6.961
10506SOL    HW232418   0.677   3.136   7.012
10507SOL     OW32419   2.435   4.338   0.235
10507SOL    HW132420   2.405   4.423   0.192
10507SOL    HW232421   2.517   4.355   0.290
10508SOL     OW32422   0.736   5.798   4.874
10508SOL    HW132423   0.711   5.723   4.813
10508SOL    HW232424   0.691   5.785   4.963
10509SOL     OW32425   4.953   3.231   4.108
10509SOL    HW132426   5.035   3.177   4.088
10509SOL    HW232427   4.959   3.267   4.200
10510SOL     OW32428   5.021   6.559   5.362
10510SOL    HW132429   5.091   6.562   5.433
10510SOL    HW232430   5.008   6.651   5.324
10511SOL     OW32431   2.587   0.809   1.998
10511SOL    HW132432   2.599   0.797   1.900
10511SOL    HW232433   2.651   0.878   2.032
10512SOL     OW32434   4.137   0.331   5.997
10512SOL    HW132435   4.149   0.312   6.095
10512SOL    HW232436   4.093   0.420   5.986
10513SOL     OW32437   5.701   3.073   2.406
10513SOL    HW132438   5.764   3.140   2.368
10513SOL    HW232439   5.654   3.112   2.485
10514SOL     OW32440   1.415   2.271   1.794
10514SOL    HW132441   1.449   2.181   1.765
10514SOL    HW232442   1.330   2.292   1.746
10515SOL     OW32443   2.122   2.232   4.514
10515SOL    HW132444   2.212   2.231   4.559
10515SOL    HW232445   2.122   2.301   4.441
10516SOL     OW32446   3.154   1.990   0.127
10516SOL    HW132447   3.219   1.961   0.198
10516SOL    HW232448   3.081   2.044   0.169
10517SOL     OW32449   1.613   3.387   3.284
10517SOL    HW132450   1.592   3.480   3.312
10517SOL    HW232451   1.535   3.348   3.235
10518SOL     OW32452   0.535   5.233   2.157
10518SOL    HW132453   0.502   5.311   2.211
10518SOL    HW232454   0.479   5.225   2.074
10519SOL     OW32455   2.828   5.650   1.796
10519SOL    HW132456   2.851   5.652   1.893
10519SOL    HW232457   2.743   5.701   1.781
10520SOL     OW32458   6.523   2.021   6.265
10520SOL    HW132459   6.493   2.000   6.358
10520SOL    HW232460   6.573   1.943   6.228
10521SOL     OW32461   5.865   3.465   1.357
10521SOL    HW132462   5.776   3.482   1.314
10521SOL    HW232463   5.859   3.386   1.417
10522SOL     OW32464   6.255   2.607   3.061
10522SOL    HW132465   6.208   2.636   2.977
10522SOL    HW232466   6.353   2.596   3.042
10523SOL     OW32467   0.535   4.390   4.119
10523SOL    HW132468   0.628   4.425   4.113
10523SOL    HW232469   0.488   4.433   4.197
10524SOL     OW32470   0.294   5.446   3.419
10524SOL    HW132471   0.302   5.352   3.387
10524SOL    HW232472   0.210   5.486   3.385
10525SOL     OW32473   4.252   1.031   4.947
10525SOL    HW132474   4.345   1.001   4.964
10525SOL    HW232475   4.189   0.955   4.962
10526SOL     OW32476   0.646   5.878   0.613
10526SOL    HW132477   0.717   5.940   0.582
10526SOL    HW232478   0.634   5.887   0.711
10527SOL     OW32479   0.423   1.410   5.698
10527SOL    HW132480   0.503   1.450   5.655
10527SOL    HW232481   0.347   1.475   5.693
10528SOL     OW32482   0.565   4.761   6.829
10528SOL    HW132483   0.601   4.781   6.920
10528SOL    HW232484   0.632   4.788   6.760
10529SOL     OW32485   1.645   6.092   6.064
10529SOL    HW132486   1.700   6.029   6.009
10529SOL    HW232487   1.561   6.047   6.093
10530SOL     OW32488   1.075   0.195   5.579
10530SOL    HW132489   0.998   0.250   5.546
10530SOL    HW232490   1.043   0.103   5.602
10531SOL     OW32491   3.072   2.325   5.944
10531SOL    HW132492   3.113   2.282   5.864
10531SOL    HW232493   3.102   2.277   6.027
10532SOL     OW32494   5.911   6.713   6.167
10532SOL    HW132495   5.880   6.622   6.194
10532SOL    HW232496   5.877   6.733   6.075
10533SOL     OW32497   3.605   5.805   4.257
10533SOL    HW132498   3.543   5.876   4.226
10533SOL    HW232499   3.662   5.774   4.180
10534SOL     OW32500   0.651   5.506   2.807
10534SOL    HW132501   0.627   5.540   2.898
10534SOL    HW232502   0.737   5.547   2.778
10535SOL     OW32503   2.833   1.598   2.240
10535SOL    HW132504   2.795   1.689   2.251
10535SOL    HW232505   2.808   1.541   2.318
10536SOL     OW32506   4.724   0.547   3.723
10536SOL    HW132507   4.683   0.518   3.637
10536SOL    HW232508   4.652   0.555   3.793
10537SOL     OW32509   5.031   6.930   3.269
10537SOL    HW132510   4.999   6.836   3.286
10537SOL    HW232511   4.972   6.973   3.201
10538SOL     OW32512   5.827   3.700   2.387
10538SOL    HW132513   5.796   3.613   2.347
10538SOL    HW232514   5.905   3.734   2.335
10539SOL     OW32515   5.875   5.781   2.779
10539SOL    HW132516   5.853   5.773   2.682
10539SOL    HW232517   5.972   5.763   2.793
10540SOL     OW32518   2.219   4.026   6.348
10540SOL    HW132519   2.313   4.020   6.382
10540SOL    HW232520   2.219   4.060   6.254
10541SOL     OW32521   2.987   3.293   4.656
10541SOL    HW132522   2.963   3.385   4.685
10541SOL    HW232523   2.959   3.279   4.561
10542SOL     OW32524   6.129   0.251   4.651
10542SOL    HW132525   6.196   0.291   4.713
10542SOL    HW232526   6.075   0.183   4.701
10543SOL     OW32527   6.848   2.569   5.787
10543SOL    HW132528   6.910   2.510   5.837
10543SOL    HW232529   6.848   2.544   5.690
10544SOL     OW32530   1.172   0.941   4.419
10544SOL    HW132531   1.254   0.898   4.382
10544SOL    HW232532   1.180   1.040   4.412
10545SOL     OW32533   1.611   2.696   2.631
10545SOL    HW132534   1.653   2.786   2.619
10545SOL    HW232535   1.512   2.706   2.638
10546SOL     OW32536   3.017   6.533   1.113
10546SOL    HW132537   2.950   6.554   1.185
10546SOL    HW232538   3.089   6.603   1.114
10547SOL     OW32539   4.937   0.097   4.806
10547SOL    HW132540   4.869   0.139   4.745
10547SOL    HW232541   4.982   0.021   4.759
10548SOL     OW32542   0.859   4.561   4.808
10548SOL    HW132543   0.921   4.575   4.731
10548SOL    HW232544   0.766   4.581   4.779
10549SOL     OW32545   0.429   1.280   0.644
10549SOL    HW132546   0.409   1.287   0.742
10549SOL    HW232547   0.345   1.295   0.592
10550SOL     OW32548   3.642   6.238   2.916
10550SOL    HW132549   3.659   6.240   3.014
10550SOL    HW232550   3.681   6.320   2.874
10551SOL     OW32551   2.678   2.001   5.982
10551SOL    HW132552   2.611   2.056   5.932
10551SOL    HW232553   2.706   1.923   5.926
10552SOL     OW32554   3.405   0.845   4.143
10552SOL    HW132555   3.463   0.793   4.080
10552SOL    HW232556   3.447   0.933   4.163
10553SOL     OW32557   0.143   5.127   0.523
10553SOL    HW132558   0.051   5.166   0.526
10553SOL    HW232559   0.149   5.062   0.447
10554SOL     OW32560   6.586   4.918   2.874
10554SOL    HW132561   6.532   4.954   2.950
10554SOL    HW232562   6.536   4.930   2.788
10555SOL     OW32563   3.054   1.924   0.546
10555SOL    HW132564   2.976   1.874   0.508
10555SOL    HW232565   3.021   1.997   0.606
10556SOL     OW32566   2.237   1.386   2.893
10556SOL    HW132567   2.202   1.297   2.863
10556SOL    HW232568   2.286   1.429   2.818
10557SOL     OW32569   1.718   3.870   4.480
10557SOL    HW132570   1.685   3.782   4.514
10557SOL    HW232571   1.674   3.944   4.530
10558SOL     OW32572   3.180   4.981   5.058
10558SOL    HW132573   3.210   5.001   4.965
10558SOL    HW232574   3.098   4.924   5.055
10559SOL     OW32575   3.617   0.084   0.594
10559SOL    HW132576   3.576   0.020   0.530
10559SOL    HW232577   3.635   0.038   0.681
10560SOL     OW32578   4.207   5.909   1.799
10560SOL    HW132579   4.198   5.995   1.849
10560SOL    HW232580   4.272   5.922   1.724
10561SOL     OW32581   4.885   4.428   1.878
10561SOL    HW132582   4.940   4.512   1.874
10561SOL    HW232583   4.788   4.451   1.874
10562SOL     OW32584   3.150   6.892   1.486
10562SOL    HW132585   3.104   6.845   1.561
10562SOL    HW232586   3.111   6.863   1.399
10563SOL     OW32587   0.436   0.025   0.954
10563SOL    HW132588   0.386   0.101   0.914
10563SOL    HW232589   0.384   7.006   1.031
10564SOL     OW32590   6.806   5.644   4.165
10564SOL    HW132591   6.834   5.585   4.090
10564SOL    HW232592   6.855   5.617   4.248
10565SOL     OW32593   6.616   6.906   5.587
10565SOL    HW132594   6.608   6.924   5.489
10565SOL    HW232595   6.700   6.853   5.604
10566SOL     OW32596   2.800   2.499   6.622
10566SOL    HW132597   2.722   2.444   6.592
10566SOL    HW232598   2.854   2.445   6.687
10567SOL     OW32599   1.749   2.243   6.029
10567SOL    HW132600   1.832   2.275   6.073
10567SOL    HW232601   1.754   2.145   6.014
10568SOL     OW32602   5.250   2.944   6.683
10568SOL    HW132603   5.283   2.924   6.776
10568SOL    HW232604   5.258   3.043   6.666
10569SOL     OW32605   5.403   0.104   1.913
10569SOL    HW132606   5.430   0.008   1.916
10569SOL    HW232607   5.307   0.113   1.937
10570SOL     OW32608   0.904   5.011   3.599
10570SOL    HW132609   0.997   5.045   3.611
10570SOL    HW232610   0.901   4.914   3.621
10571SOL     OW32611   6.705   4.810   6.381
10571SOL    HW132612   6.739   4.802   6.287
10571SOL    HW232613   6.655   4.727   6.405
10572SOL     OW32614   6.422   4.379   1.676
10572SOL    HW132615   6.476   4.322   1.614
10572SOL    HW232616   6.336   4.404   1.631
10573SOL     OW32617   5.595   0.499   4.122
10573SOL    HW132618   5.546   0.547   4.049
10573SOL    HW232619   5.691   0.526   4.121
10574SOL     OW32620   6.390   0.646   3.822
10574SOL    HW132621   6.396   0.548   3.844
10574SOL    HW232622   6.480   0.680   3.797
10575SOL     OW32623   5.365   0.884   2.841
10575SOL    HW132624   5.336   0.937   2.762
10575SOL    HW232625   5.436   0.934   2.890
10576SOL     OW32626   2.110   4.863   2.972
10576SOL    HW132627   2.154   4.813   2.898
10576SOL    HW232628   2.179   4.911   3.026
10577SOL     OW32629   3.347   5.885   0.699
10577SOL    HW132630   3.249   5.893   0.718
10577SOL    HW232631   3.363   5.808   0.638
10578SOL     OW32632   5.975   2.318   3.856
10578SOL    HW132633   5.900   2.365   3.808
10578SOL    HW232634   5.945   2.295   3.949
10579SOL     OW32635   3.087   3.740   1.093
10579SOL    HW132636   3.049   3.831   1.079
10579SOL    HW232637   3.098   3.723   1.191
10580SOL     OW32638   6.543   6.789   6.777
10580SOL    HW132639   6.476   6.807   6.849
10580SOL    HW232640   6.571   6.693   6.780
10581SOL     OW32641   5.497   6.813   3.171
10581SOL    HW132642   5.517   6.861   3.256
10581SOL    HW232643   5.582   6.794   3.122
10582SOL     OW32644   5.669   4.740   6.676
10582SOL    HW132645   5.588   4.794   6.699
10582SOL    HW232646   5.697   4.688   6.756
10583SOL     OW32647   2.888   6.501   3.674
10583SOL    HW132648   2.926   6.520   3.584
10583SOL    HW232649   2.830   6.420   3.669
10584SOL     OW32650   6.508   0.367   5.432
10584SOL    HW132651   6.490   0.464   5.418
10584SOL    HW232652   6.600   0.346   5.398
10585SOL     OW32653   0.359   1.797   6.385
10585SOL    HW132654   0.380   1.724   6.450
10585SOL    HW232655   0.391   1.884   6.422
10586SOL     OW32656   4.866   4.636   5.526
10586SOL    HW132657   4.928   4.563   5.496
10586SOL    HW232658   4.908   4.725   5.507
10587SOL     OW32659   0.640   6.089   5.297
10587SOL    HW132660   0.665   6.007   5.348
10587SOL    HW232661   0.606   6.064   5.207
10588SOL     OW32662   1.413   3.124   3.784
10588SOL    HW132663   1.467   3.049   3.820
10588SOL    HW232664   1.458   3.161   3.702
10589SOL     OW32665   5.561   6.125   4.845
10589SOL    HW132666   5.557   6.159   4.751
10589SOL    HW232667   5.486   6.165   4.898
10590SOL     OW32668   0.962   5.914   1.517
10590SOL    HW132669   0.948   5.821   1.483
10590SOL    HW232670   0.874   5.962   1.518
10591SOL     OW32671   0.866   1.384   1.588
10591SOL    HW132672   0.903   1.440   1.663
10591SOL    HW232673   0.868   1.288   1.615
10592SOL     OW32674   5.880   2.168   4.923
10592SOL    HW132675   5.874   2.262   4.890
10592SOL    HW232676   5.976   2.138   4.923
10593SOL     OW32677   2.751   5.937   1.070
10593SOL    HW132678   2.767   5.855   1.016
10593SOL    HW232679   2.689   5.916   1.146
10594SOL     OW32680   3.771   0.832   3.506
10594SOL    HW132681   3.704   0.793   3.443
10594SOL    HW232682   3.771   0.780   3.591
10595SOL     OW32683   5.793   0.474   0.869
10595SOL    HW132684   5.796   0.404   0.941
10595SOL    HW232685   5.820   0.562   0.906
10596SOL     OW32686   5.036   1.846   0.041
10596SOL    HW132687   4.954   1.884   0.084
10596SOL    HW232688   5.013   1.817   6.966
10597SOL     OW32689   2.445   0.606   5.783
10597SOL    HW132690   2.517   0.536   5.779
10597SOL    HW232691   2.478   0.684   5.836
10598SOL     OW32692   2.146   1.768   5.940
10598SOL    HW132693   2.243   1.755   5.957
10598SOL    HW232694   2.095   1.688   5.972
10599SOL     OW32695   6.246   4.303   5.842
10599SOL    HW132696   6.320   4.315   5.907
10599SOL    HW232697   6.167   4.359   5.870
10600SOL     OW32698   2.659   1.151   1.696
10600SOL    HW132699   2.726   1.161   1.623
10600SOL    HW232700   2.635   1.241   1.732
10601SOL     OW32701   0.226   6.603   6.235
10601SOL    HW132702   0.294   6.612   6.308
10601SOL    HW232703   0.157   6.675   6.245
10602SOL     OW32704   0.537   0.274   6.814
10602SOL    HW132705   0.475   0.268   6.892
10602SOL    HW232706   0.484   0.270   6.729
10603SOL     OW32707   4.483   6.875   1.564
10603SOL    HW132708   4.499   6.912   1.472
10603SOL    HW232709   4.562   6.819   1.591
10604SOL     OW32710   0.034   6.807   4.688
10604SOL    HW132711   6.974   6.813   4.625
10604SOL    HW232712   0.112   6.767   4.641
10605SOL     OW32713   2.182   6.971   0.633
10605SOL    HW132714   2.230   0.024   0.684
10605SOL    HW232715   2.192   6.988   0.535
10606SOL     OW32716   5.710   0.638   1.691
10606SOL    HW132717   5.635   0.576   1.710
10606SOL    HW232718   5.795   0.600   1.726
10607SOL     OW32719   4.479   4.071   6.789
10607SOL    HW132720   4.537   3.990   6.795
10607SOL    HW232721   4.395   4.049   6.738
10608SOL     OW32722   6.467   2.892   3.223
10608SOL    HW132723   6.377   2.887   3.180
10608SOL    HW232724   6.470   2.969   3.287
10609SOL     OW32725   4.216   6.766   0.417
10609SOL    HW132726   4.275   6.756   0.497
10609SOL    HW232727   4.271   6.757   0.334
10610SOL     OW32728   6.886   1.573   4.593
10610SOL    HW132729   6.831   1.572   4.676
10610SOL    HW232730   6.910   1.667   4.570
10611SOL     OW32731   2.806   5.440   4.824
10611SOL    HW132732   2.878   5.372   4.835
10611SOL    HW232733   2.723   5.396   4.789
10612SOL     OW32734   5.377   1.423   3.707
10612SOL    HW132735   5.318   1.377   3.640
10612SOL    HW232736   5.367   1.522   3.696
10613SOL     OW32737   6.364   6.002   4.447
10613SOL    HW132738   6.404   6.094   4.448
10613SOL    HW232739   6.386   5.957   4.361
10614SOL     OW32740   5.213   0.802   5.761
10614SOL    HW132741   5.158   0.790   5.678
10614SOL    HW232742   5.156   0.787   5.842
10615SOL     OW32743   2.803   1.845   6.179
10615SOL    HW132744   2.794   1.906   6.258
10615SOL    HW232745   2.754   1.884   6.101
10616SOL     OW32746   3.035   6.023   6.433
10616SOL    HW132747   3.040   6.115   6.393
10616SOL    HW232748   2.939   5.997   6.444
10617SOL     OW32749   2.539   3.630   1.704
10617SOL    HW132750   2.479   3.701   1.667
10617SOL    HW232751   2.495   3.585   1.781
10618SOL     OW32752   0.375   5.660   5.430
10618SOL    HW132753   0.322   5.723   5.487
10618SOL    HW232754   0.312   5.611   5.369
10619SOL     OW32755   0.451   2.144   2.973
10619SOL    HW132756   0.375   2.086   3.004
10619SOL    HW232757   0.510   2.091   2.911
10620SOL     OW32758   2.135   7.005   5.330
10620SOL    HW132759   2.092   6.918   5.354
10620SOL    HW232760   2.137   0.046   5.411
10621SOL     OW32761   1.203   3.981   2.595
10621SOL    HW132762   1.157   3.893   2.601
10621SOL    HW232763   1.291   3.970   2.549
10622SOL     OW32764   4.221   2.904   0.997
10622SOL    HW132765   4.144   2.857   1.040
10622SOL    HW232766   4.206   2.909   0.898
10623SOL     OW32767   5.876   6.316   5.475
10623SOL    HW132768   5.854   6.404   5.434
10623SOL    HW232769   5.890   6.327   5.573
10624SOL     OW32770   0.748   2.968   4.854
10624SOL    HW132771   0.835   2.929   4.824
10624SOL    HW232772   0.755   3.068   4.851
10625SOL     OW32773   0.208   3.244   6.643
10625SOL    HW132774   0.133   3.227   6.579
10625SOL    HW232775   0.262   3.322   6.611
10626SOL     OW32776   3.918   2.958   1.838
10626SOL    HW132777   3.995   2.995   1.786
10626SOL    HW232778   3.900   2.865   1.808
10627SOL     OW32779   6.250   0.296   6.285
10627SOL    HW132780   6.155   0.326   6.290
10627SOL    HW232781   6.273   0.246   6.369
10628SOL     OW32782   4.015   0.463   0.263
10628SOL    HW132783   3.937   0.434   0.319
10628SOL    HW232784   4.093   0.404   0.282
10629SOL     OW32785   3.315   5.215   5.113
10629SOL    HW132786   3.301   5.118   5.093
10629SOL    HW232787   3.389   5.250   5.055
10630SOL     OW32788   4.660   0.254   2.514
10630SOL    HW132789   4.727   0.323   2.541
10630SOL    HW232790   4.660   0.179   2.580
10631SOL     OW32791   4.377   5.133   6.548
10631SOL    HW132792   4.451   5.122   6.615
10631SOL    HW232793   4.348   5.229   6.547
10632SOL     OW32794   4.973   5.750   3.613
10632SOL    HW132795   5.006   5.844   3.615
10632SOL    HW232796   5.050   5.687   3.622
10633SOL     OW32797   2.068   2.673   1.587
10633SOL    HW132798   1.984   2.708   1.546
10633SOL    HW232799   2.102   2.740   1.653
10634SOL     OW32800   1.367   5.103   6.672
10634SOL    HW132801   1.395   5.191   6.633
10634SOL    HW232802   1.443   5.039   6.666
10635SOL     OW32803   1.962   3.544   0.510
10635SOL    HW132804   2.029   3.501   0.449
10635SOL    HW232805   1.911   3.613   0.459
10636SOL     OW32806   6.537   1.887   0.396
10636SOL    HW132807   6.538   1.823   0.319
10636SOL    HW232808   6.630   1.913   0.421
10637SOL     OW32809   2.691   5.841   6.719
10637SOL    HW132810   2.733   5.916   6.769
10637SOL    HW232811   2.591   5.849   6.725
10638SOL     OW32812   6.617   6.220   2.127
10638SOL    HW132813   6.654   6.251   2.039
10638SOL    HW232814   6.550   6.287   2.160
10639SOL     OW32815   2.224   3.670   1.729
10639SOL    HW132816   2.265   3.589   1.772
10639SOL    HW232817   2.285   3.748   1.740
10640SOL     OW32818   3.987   0.872   3.271
10640SOL    HW132819   3.912   0.917   3.319
10640SOL    HW232820   4.046   0.941   3.229
10641SOL     OW32821   1.319   1.157   3.495
10641SOL    HW132822   1.398   1.139   3.553
10641SOL    HW232823   1.344   1.223   3.424
10642SOL     OW32824   6.340   2.327   0.560
10642SOL    HW132825   6.422   2.385   0.556
10642SOL    HW232826   6.300   2.321   0.469
10643SOL     OW32827   2.602   5.845   4.922
10643SOL    HW132828   2.549   5.885   4.996
10643SOL    HW232829   2.693   5.888   4.919
10644SOL     OW32830   5.955   3.092   1.882
10644SOL    HW132831   5.895   3.171   1.892
10644SOL    HW232832   5.912   3.012   1.923
10645SOL     OW32833   2.257   2.990   3.689
10645SOL    HW132834   2.353   2.966   3.677
10645SOL    HW232835   2.246   3.046   3.771
10646SOL     OW32836   5.308   1.491   4.902
10646SOL    HW132837   5.277   1.580   4.936
10646SOL    HW232838   5.255   1.418   4.946
10647SOL     OW32839   4.496   5.289   5.545
10647SOL    HW132840   4.537   5.239   5.470
10647SOL    HW232841   4.507   5.237   5.630
10648SOL     OW32842   6.057   5.346   6.093
10648SOL    HW132843   6.069   5.340   5.994
10648SOL    HW232844   6.086   5.436   6.125
10649SOL     OW32845   0.947   2.811   3.716
10649SOL    HW132846   1.042   2.780   3.725
10649SOL    HW232847   0.893   2.741   3.669
10650SOL     OW32848   6.828   0.240   3.994
10650SOL    HW132849   6.738   0.222   4.032
10650SOL    HW232850   6.826   0.326   3.943
10651SOL     OW32851   5.275   6.427   6.123
10651SOL    HW132852   5.319   6.487   6.056
10651SOL    HW232853   5.335   6.415   6.202
10652SOL     OW32854   1.702   6.911   6.247
10652SOL    HW132855   1.674   6.978   6.315
10652SOL    HW232856   1.662   6.822   6.268
10653SOL     OW32857   3.812   6.206   4.753
10653SOL    HW132858   3.768   6.287   4.794
10653SOL    HW232859   3.801   6.128   4.815
10654SOL     OW32860   4.853   1.896   3.906
10654SOL    HW132861   4.890   1.935   3.990
10654SOL    HW232862   4.774   1.839   3.929
10655SOL     OW32863   2.264   4.830   1.297
10655SOL    HW132864   2.172   4.838   1.334
10655SOL    HW232865   2.260   4.822   1.198
10656SOL     OW32866   5.981   1.445   2.443
10656SOL    HW132867   6.009   1.519   2.505
10656SOL    HW232868   5.941   1.370   2.495
10657SOL     OW32869   5.971   1.164   4.696
10657SOL    HW132870   5.876   1.191   4.709
10657SOL    HW232871   6.028   1.245   4.682
10658SOL     OW32872   5.933   3.759   5.321
10658SOL    HW132873   5.911   3.855   5.340
10658SOL    HW232874   5.960   3.749   5.226
10659SOL     OW32875   1.387   4.762   1.033
10659SOL    HW132876   1.329   4.714   0.967
10659SOL    HW232877   1.480   4.725   1.029
10660SOL     OW32878   6.239   3.635   5.478
10660SOL    HW132879   6.161   3.574   5.492
10660SOL    HW232880   6.257   3.643   5.380
10661SOL     OW32881   1.349   5.028   0.885
10661SOL    HW132882   1.378   5.012   0.790
10661SOL    HW232883   1.339   4.941   0.932
10662SOL     OW32884   3.717   1.034   2.308
10662SOL    HW132885   3.700   0.939   2.337
10662SOL    HW232886   3.784   1.034   2.233
10663SOL     OW32887   0.615   1.500   3.516
10663SOL    HW132888   0.700   1.545   3.488
10663SOL    HW232889   0.635   1.405   3.542
10664SOL     OW32890   0.688   5.323   4.536
10664SOL    HW132891   0.665   5.246   4.476
10664SOL    HW232892   0.622   5.396   4.522
10665SOL     OW32893   2.425   2.628   6.649
10665SOL    HW132894   2.429   2.689   6.569
10665SOL    HW232895   2.351   2.562   6.636
10666SOL     OW32896   3.708   3.540   1.749
10666SOL    HW132897   3.764   3.623   1.751
10666SOL    HW232898   3.758   3.466   1.794
10667SOL     OW32899   4.652   1.422   3.421
10667SOL    HW132900   4.651   1.495   3.490
10667SOL    HW232901   4.697   1.341   3.460
10668SOL     OW32902   3.354   1.964   5.441
10668SOL    HW132903   3.366   2.030   5.366
10668SOL    HW232904   3.262   1.926   5.436
10669SOL     OW32905   5.727   0.308   0.659
10669SOL    HW132906   5.752   0.368   0.736
10669SOL    HW232907   5.636   0.332   0.627
10670SOL     OW32908   5.647   4.276   4.568
10670SOL    HW132909   5.577   4.230   4.512
10670SOL    HW232910   5.687   4.351   4.516
10671SOL     OW32911   1.170   1.431   4.580
10671SOL    HW132912   1.169   1.347   4.635
10671SOL    HW232913   1.120   1.502   4.628
10672SOL     OW32914   6.274   4.112   1.766
10672SOL    HW132915   6.364   4.156   1.776
10672SOL    HW232916   6.251   4.062   1.849
10673SOL     OW32917   1.717   6.632   0.505
10673SOL    HW132918   1.661   6.672   0.432
10673SOL    HW232919   1.813   6.631   0.476
10674SOL     OW32920   4.164   3.579   4.453
10674SOL    HW132921   4.248   3.581   4.398
10674SOL    HW232922   4.094   3.635   4.409
10675SOL     OW32923   3.118   0.738   6.195
10675SOL    HW132924   3.136   0.734   6.293
10675SOL    HW232925   3.195   0.696   6.146
10676SOL     OW32926   6.781   5.812   4.627
10676SOL    HW132927   6.682   5.807   4.621
10676SOL    HW232928   6.809   5.811   4.723
10677SOL     OW32929   1.370   1.046   1.403
10677SOL    HW132930   1.287   1.043   1.457
10677SOL    HW232931   1.360   0.987   1.322
10678SOL     OW32932   4.134   4.751   3.940
10678SOL    HW132933   4.188   4.805   3.875
10678SOL    HW232934   4.157   4.655   3.930
10679SOL     OW32935   3.846   5.571   6.594
10679SOL    HW132936   3.883   5.612   6.511
10679SOL    HW232937   3.898   5.489   6.617
10680SOL     OW32938   3.612   1.641   4.026
10680SOL    HW132939   3.537   1.598   3.975
10680SOL    HW232940   3.679   1.679   3.961
10681SOL     OW32941   0.103   3.263   6.910
10681SOL    HW132942   0.127   3.251   6.814
10681SOL    HW232943   0.165   3.209   6.967
10682SOL     OW32944   0.251   3.026   5.176
10682SOL    HW132945   0.272   3.056   5.082
10682SOL    HW232946   0.233   2.928   5.176
10683SOL     OW32947   4.365   0.635   3.551
10683SOL    HW132948   4.308   0.705   3.508
10683SOL    HW232949   4.443   0.614   3.493
10684SOL     OW32950   4.365   5.430   1.833
10684SOL    HW132951   4.401   5.337   1.835
10684SOL    HW232952   4.294   5.437   1.762
10685SOL     OW32953   0.117   5.800   0.698
10685SOL    HW132954   0.020   5.819   0.685
10685SOL    HW232955   0.140   5.713   0.655
10686SOL     OW32956   2.288   4.393   6.356
10686SOL    HW132957   2.197   4.392   6.398
10686SOL    HW232958   2.280   4.413   6.258
10687SOL     OW32959   6.581   4.498   3.839
10687SOL    HW132960   6.587   4.408   3.881
10687SOL    HW232961   6.657   4.510   3.775
10688SOL     OW32962   5.159   2.156   2.674
10688SOL    HW132963   5.167   2.111   2.585
10688SOL    HW232964   5.097   2.233   2.667
10689SOL     OW32965   6.864   0.000   1.923
10689SOL    HW132966   6.812   0.080   1.955
10689SOL    HW232967   6.870   0.002   1.823
10690SOL     OW32968   0.424   5.009   3.064
10690SOL    HW132969   0.446   5.043   3.155
10690SOL    HW232970   0.339   4.956   3.068
10691SOL     OW32971   1.879   1.621   1.721
10691SOL    HW132972   1.867   1.690   1.793
10691SOL    HW232973   1.976   1.600   1.711
10692SOL     OW32974   2.741   0.502   4.175
10692SOL    HW132975   2.771   0.502   4.079
10692SOL    HW232976   2.683   0.422   4.191
10693SOL     OW32977   1.091   6.041   1.287
10693SOL    HW132978   1.033   6.002   1.216
10693SOL    HW232979   1.060   6.011   1.377
10694SOL     OW32980   5.406   6.670   6.347
10694SOL    HW132981   5.417   6.721   6.262
10694SOL    HW232982   5.458   6.585   6.341
10695SOL     OW32983   1.320   2.290   1.493
10695SOL    HW132984   1.260   2.260   1.419
10695SOL    HW232985   1.335   2.388   1.486
10696SOL     OW32986   6.690   3.780   4.553
10696SOL    HW132987   6.742   3.713   4.607
10696SOL    HW232988   6.663   3.856   4.612
10697SOL     OW32989   6.961   7.013   5.749
10697SOL    HW132990   6.899   6.969   5.815
10697SOL    HW232991   6.908   0.028   5.671
10698SOL     OW32992   4.964   4.065   0.172
10698SOL    HW132993   4.943   4.113   0.087
10698SOL    HW232994   5.052   4.019   0.164
10699SOL     OW32995   3.838   4.963   1.130
10699SOL    HW132996   3.862   4.919   1.043
10699SOL    HW232997   3.806   4.893   1.194
10700SOL     OW32998   5.388   6.497   0.832
10700SOL    HW132999   5.312   6.435   0.809
10700SOL    HW233000   5.474   6.457   0.800
10701SOL     OW33001   3.256   6.811   6.054
10701SOL    HW133002   3.185   6.878   6.032
10701SOL    HW233003   3.260   6.741   5.983
10702SOL     OW33004   5.052   3.437   2.417
10702SOL    HW133005   5.039   3.344   2.382
10702SOL    HW233006   5.148   3.452   2.440
10703SOL     OW33007   2.384   2.846   5.613
10703SOL    HW133008   2.436   2.842   5.528
10703SOL    HW233009   2.313   2.915   5.607
10704SOL     OW33010   0.190   4.825   2.233
10704SOL    HW133011   0.093   4.826   2.210
10704SOL    HW233012   0.236   4.754   2.180
10705SOL     OW33013   6.062   5.296   1.420
10705SOL    HW133014   6.007   5.305   1.337
10705SOL    HW233015   6.154   5.264   1.396
10706SOL     OW33016   3.639   0.196   2.096
10706SOL    HW133017   3.683   0.181   2.007
10706SOL    HW233018   3.541   0.213   2.082
10707SOL     OW33019   0.760   6.951   3.519
10707SOL    HW133020   0.802   6.987   3.435
10707SOL    HW233021   0.819   6.972   3.597
10708SOL     OW33022   3.851   1.574   1.296
10708SOL    HW133023   3.757   1.550   1.273
10708SOL    HW233024   3.891   1.629   1.223
10709SOL     OW33025   5.094   5.104   4.641
10709SOL    HW133026   5.143   5.132   4.724
10709SOL    HW233027   5.149   5.037   4.591
10710SOL     OW33028   6.028   0.963   3.690
10710SOL    HW133029   5.930   0.986   3.690
10710SOL    HW233030   6.080   1.039   3.651
10711SOL     OW33031   1.846   6.829   3.757
10711SOL    HW133032   1.895   6.875   3.830
10711SOL    HW233033   1.822   6.895   3.686
10712SOL     OW33034   2.941   0.548   2.843
10712SOL    HW133035   2.913   0.460   2.882
10712SOL    HW233036   2.896   0.622   2.893
10713SOL     OW33037   0.804   3.350   0.801
10713SOL    HW133038   0.763   3.440   0.801
10713SOL    HW233039   0.904   3.358   0.810
10714SOL     OW33040   4.523   3.312   5.758
10714SOL    HW133041   4.576   3.253   5.697
10714SOL    HW233042   4.464   3.371   5.703
10715SOL     OW33043   4.658   0.484   2.213
10715SOL    HW133044   4.662   0.518   2.119
10715SOL    HW233045   4.678   0.386   2.214
10716SOL     OW33046   5.981   2.849   3.527
10716SOL    HW133047   5.890   2.809   3.539
10716SOL    HW233048   5.994   2.873   3.430
10717SOL     OW33049   1.851   2.810   1.464
10717SOL    HW133050   1.755   2.803   1.491
10717SOL    HW233051   1.863   2.772   1.372
10718SOL     OW33052   0.816   3.701   0.112
10718SOL    HW133053   0.860   3.692   0.023
10718SOL    HW233054   0.788   3.611   0.145
10719SOL     OW33055   0.092   5.629   2.489
10719SOL    HW133056   0.146   5.549   2.516
10719SOL    HW233057   0.152   5.707   2.473
10720SOL     OW33058   6.909   4.851   5.273
10720SOL    HW133059   6.944   4.778   5.214
10720SOL    HW233060   6.979   4.878   5.339
10721SOL     OW33061   5.153   3.695   5.532
10721SOL    HW133062   5.061   3.657   5.541
10721SOL    HW233063   5.219   3.620   5.533
10722SOL     OW33064   1.284   4.945   0.618
10722SOL    HW133065   1.285   4.871   0.550
10722SOL    HW233066   1.286   5.033   0.571
10723SOL     OW33067   0.167   2.588   6.640
10723SOL    HW133068   0.193   2.616   6.733
10723SOL    HW233069   0.210   2.649   6.574
10724SOL     OW33070   6.263   0.112   6.511
10724SOL    HW133071   6.265   0.098   6.610
10724SOL    HW233072   6.213   0.036   6.468
10725SOL     OW33073   1.681   5.969   5.255
10725SOL    HW133074   1.596   5.992   5.207
10725SOL    HW233075   1.667   5.979   5.353
10726SOL     OW33076   5.543   0.721   4.324
10726SOL    HW133077   5.519   0.793   4.259
10726SOL    HW233078   5.570   0.639   4.273
10727SOL     OW33079   0.320   5.858   5.621
10727SOL    HW133080   0.325   5.957   5.613
10727SOL    HW233081   0.281   5.833   5.710
10728SOL     OW33082   1.551   4.870   6.484
10728SOL    HW133083   1.637   4.828   6.455
10728SOL    HW233084   1.571   4.945   6.547
10729SOL     OW33085   4.764   1.178   2.752
10729SOL    HW133086   4.763   1.253   2.685
10729SOL    HW233087   4.685   1.119   2.736
10730SOL     OW33088   1.328   0.864   1.217
10730SOL    HW133089   1.237   0.824   1.208
10730SOL    HW233090   1.396   0.800   1.182
10731SOL     OW33091   3.342   0.989   0.856
10731SOL    HW133092   3.312   0.970   0.950
10731SOL    HW233093   3.385   0.907   0.818
10732SOL     OW33094   6.269   4.708   4.813
10732SOL    HW133095   6.329   4.781   4.781
10732SOL    HW233096   6.290   4.687   4.908
10733SOL     OW33097   6.956   1.298   6.593
10733SOL    HW133098   6.973   1.384   6.545
10733SOL    HW233099   6.858   1.286   6.605
10734SOL     OW33100   0.875   1.075   0.234
10734SOL    HW133101   0.839   1.040   0.320
10734SOL    HW233102   0.915   1.000   0.181
10735SOL     OW33103   0.388   2.842   2.539
10735SOL    HW133104   0.425   2.923   2.493
10735SOL    HW233105   0.372   2.863   2.636
10736SOL     OW33106   1.029   0.577   3.308
10736SOL    HW133107   0.941   0.624   3.309
10736SOL    HW233108   1.071   0.583   3.399
10737SOL     OW33109   1.207   1.825   0.214
10737SOL    HW133110   1.302   1.795   0.221
10737SOL    HW233111   1.145   1.747   0.225
10738SOL     OW33112   2.342   0.276   2.826
10738SOL    HW133113   2.439   0.300   2.839
10738SOL    HW233114   2.319   0.282   2.729
10739SOL     OW33115   1.656   1.035   1.020
10739SOL    HW133116   1.672   1.084   1.105
10739SOL    HW233117   1.743   1.020   0.973
10740SOL     OW33118   7.017   5.149   4.966
10740SOL    HW133119   0.088   5.166   4.924
10740SOL    HW233120   7.011   5.054   4.996
10741SOL     OW33121   4.276   0.787   1.096
10741SOL    HW133122   4.366   0.747   1.115
10741SOL    HW233123   4.287   0.872   1.044
10742SOL     OW33124   5.512   6.933   1.459
10742SOL    HW133125   5.482   6.890   1.374
10742SOL    HW233126   5.461   7.017   1.474
10743SOL     OW33127   1.450   1.698   5.646
10743SOL    HW133128   1.384   1.718   5.718
10743SOL    HW233129   1.437   1.604   5.613
10744SOL     OW33130   3.234   1.485   0.774
10744SOL    HW133131   3.235   1.385   0.772
10744SOL    HW233132   3.328   1.518   0.784
10745SOL     OW33133   0.483   5.990   6.319
10745SOL    HW133134   0.419   5.958   6.249
10745SOL    HW233135   0.443   5.977   6.409
10746SOL     OW33136   2.753   4.796   1.273
10746SOL    HW133137   2.794   4.714   1.314
10746SOL    HW233138   2.724   4.858   1.346
10747SOL     OW33139   4.364   1.422   4.793
10747SOL    HW133140   4.296   1.492   4.770
10747SOL    HW233141   4.319   1.345   4.838
10748SOL     OW33142   5.879   1.145   0.757
10748SOL    HW133143   5.813   1.117   0.686
10748SOL    HW233144   5.885   1.244   0.758
10749SOL     OW33145   0.203   5.728   3.656
10749SOL    HW133146   0.190   5.673   3.573
10749SOL    HW233147   0.129   5.711   3.720
10750SOL     OW33148   4.684   6.010   4.203
10750SOL    HW133149   4.684   6.083   4.135
10750SOL    HW233150   4.631   6.039   4.283
10751SOL     OW33151   1.817   4.889   4.702
10751SOL    HW133152   1.798   4.818   4.770
10751SOL    HW233153   1.752   4.965   4.714
10752SOL     OW33154   6.215   4.320   5.424
10752SOL    HW133155   6.148   4.332   5.497
10752SOL    HW233156   6.192   4.238   5.371
10753SOL     OW33157   5.228   4.514   4.542
10753SOL    HW133158   5.206   4.595   4.596
10753SOL    HW233159   5.326   4.512   4.523
10754SOL     OW33160   0.579   0.523   3.366
10754SOL    HW133161   0.622   0.464   3.297
10754SOL    HW233162   0.535   0.600   3.321
10755SOL     OW33163   0.040   0.695   0.490
10755SOL    HW133164   6.968   0.720   0.457
10755SOL    HW233165   0.084   0.774   0.531
10756SOL     OW33166   6.500   5.012   6.721
10756SOL    HW133167   6.460   5.075   6.788
10756SOL    HW233168   6.454   4.923   6.727
10757SOL     OW33169   1.508   2.599   0.489
10757SOL    HW133170   1.572   2.578   0.563
10757SOL    HW233171   1.417   2.564   0.513
10758SOL     OW33172   1.040   6.414   4.314
10758SOL    HW133173   1.070   6.350   4.385
10758SOL    HW233174   0.942   6.403   4.298
10759SOL     OW33175   2.286   3.082   1.569
10759SOL    HW133176   2.316   3.172   1.536
10759SOL    HW233177   2.234   3.093   1.653
10760SOL     OW33178   5.450   6.962   2.289
10760SOL    HW133179   5.491   0.012   2.228
10760SOL    HW233180   5.459   6.993   2.384
10761SOL     OW33181   0.948   6.328   5.967
10761SOL    HW133182   0.948   6.351   5.869
10761SOL    HW233183   0.932   6.230   5.978
10762SOL     OW33184   3.298   2.082   4.253
10762SOL    HW133185   3.253   2.102   4.340
10762SOL    HW233186   3.397   2.088   4.264
10763SOL     OW33187   4.849   0.025   3.108
10763SOL    HW133188   4.897   0.091   3.050
10763SOL    HW233189   4.751   0.030   3.088
10764SOL     OW33190   4.791   2.635   6.257
10764SOL    HW133191   4.806   2.725   6.216
10764SOL    HW233192   4.868   2.576   6.234
10765SOL     OW33193   4.751   2.552   1.237
10765SOL    HW133194   4.774   2.649   1.240
10765SOL    HW233195   4.798   2.505   1.312
10766SOL     OW33196   4.547   4.988   0.767
10766SOL    HW133197   4.476   4.939   0.817
10766SOL    HW233198   4.555   4.949   0.675
10767SOL     OW33199   1.840   0.293   0.662
10767SOL    HW133200   1.744   0.320   0.671
10767SOL    HW233201   1.846   0.193   0.669
10768SOL     OW33202   4.893   5.188   1.604
10768SOL    HW133203   4.813   5.147   1.647
10768SOL    HW233204   4.897   5.161   1.508
10769SOL     OW33205   2.245   4.094   5.356
10769SOL    HW133206   2.289   4.040   5.284
10769SOL    HW233207   2.215   4.182   5.318
10770SOL     OW33208   5.512   6.238   4.587
10770SOL    HW133209   5.525   6.178   4.507
10770SOL    HW233210   5.459   6.318   4.561
10771SOL     OW33211   5.475   0.423   3.327
10771SOL    HW133212   5.460   0.380   3.416
10771SOL    HW233213   5.537   0.501   3.337
10772SOL     OW33214   5.902   0.143   3.924
10772SOL    HW133215   5.964   0.065   3.918
10772SOL    HW233216   5.905   0.194   3.838
10773SOL     OW33217   5.790   5.091   6.387
10773SOL    HW133218   5.696   5.123   6.394
10773SOL    HW233219   5.825   5.108   6.295
10774SOL     OW33220   2.423   1.758   5.986
10774SOL    HW133221   2.439   1.763   6.084
10774SOL    HW233222   2.502   1.714   5.942
10775SOL     OW33223   0.252   4.405   2.151
10775SOL    HW133224   0.348   4.403   2.178
10775SOL    HW233225   0.195   4.398   2.233
10776SOL     OW33226   0.362   0.868   6.319
10776SOL    HW133227   0.390   0.782   6.364
10776SOL    HW233228   0.399   0.945   6.371
10777SOL     OW33229   4.183   5.508   2.229
10777SOL    HW133230   4.156   5.510   2.325
10777SOL    HW233231   4.152   5.423   2.187
10778SOL     OW33232   4.991   6.614   4.001
10778SOL    HW133233   4.939   6.626   4.086
10778SOL    HW233234   5.081   6.656   4.011
10779SOL     OW33235   6.454   2.809   3.512
10779SOL    HW133236   6.405   2.786   3.428
10779SOL    HW233237   6.484   2.725   3.557
10780SOL     OW33238   1.712   0.845   4.160
10780SOL    HW133239   1.790   0.904   4.139
10780SOL    HW233240   1.680   0.801   4.076
10781SOL     OW33241   4.522   1.200   4.071
10781SOL    HW133242   4.604   1.177   4.018
10781SOL    HW233243   4.524   1.298   4.093
10782SOL     OW33244   0.055   1.252   2.651
10782SOL    HW133245   0.090   1.209   2.568
10782SOL    HW233246   0.022   1.181   2.713
10783SOL     OW33247   0.748   2.088   2.775
10783SOL    HW133248   0.830   2.142   2.752
10783SOL    HW233249   0.688   2.083   2.695
10784SOL     OW33250   4.074   6.834   3.969
10784SOL    HW133251   4.107   6.747   3.932
10784SOL    HW233252   4.142   6.873   4.031
10785SOL     OW33253   0.480   4.370   0.544
10785SOL    HW133254   0.515   4.422   0.622
10785SOL    HW233255   0.459   4.433   0.469
10786SOL     OW33256   6.441   4.756   3.469
10786SOL    HW133257   6.489   4.675   3.438
10786SOL    HW233258   6.460   4.772   3.566
10787SOL     OW33259   1.428   1.424   6.014
10787SOL    HW133260   1.340   1.465   5.987
10787SOL    HW233261   1.432   1.415   6.113
10788SOL     OW33262   1.848   4.380   0.482
10788SOL    HW133263   1.887   4.288   0.470
10788SOL    HW233264   1.888   4.442   0.414
10789SOL     OW33265   6.396   3.313   6.406
10789SOL    HW133266   6.416   3.280   6.498
10789SOL    HW233267   6.305   3.355   6.404
10790SOL     OW33268   0.397   0.645   1.892
10790SOL    HW133269   0.334   0.621   1.818
10790SOL    HW233270   0.487   0.607   1.871
10791SOL     OW33271   0.165   6.436   1.862
10791SOL    HW133272   0.208   6.409   1.948
10791SOL    HW233273   0.087   6.376   1.842
10792SOL     OW33274   3.295   3.062   4.906
10792SOL    HW133275   3.216   3.039   4.851
10792SOL    HW233276   3.308   3.162   4.907
10793SOL     OW33277   6.149   3.081   5.682
10793SOL    HW133278   6.227   3.096   5.742
10793SOL    HW233279   6.111   2.990   5.700
10794SOL     OW33280   4.131   3.258   4.498
10794SOL    HW133281   4.065   3.319   4.540
10794SOL    HW233282   4.179   3.305   4.424
10795SOL     OW33283   0.303   5.421   2.614
10795SOL    HW133284   0.392   5.412   2.568
10795SOL    HW233285   0.236   5.361   2.570
10796SOL     OW33286   6.824   6.431   5.559
10796SOL    HW133287   6.909   6.439   5.507
10796SOL    HW233288   6.758   6.377   5.508
10797SOL     OW33289   2.831   2.264   1.222
10797SOL    HW133290   2.786   2.296   1.306
10797SOL    HW233291   2.769   2.202   1.173
10798SOL     OW33292   2.991   0.924   0.323
10798SOL    HW133293   2.907   0.969   0.353
10798SOL    HW233294   2.987   0.827   0.348
10799SOL     OW33295   4.134   1.364   2.104
10799SOL    HW133296   4.182   1.397   2.023
10799SOL    HW233297   4.046   1.324   2.077
10800SOL     OW33298   0.779   6.608   5.141
10800SOL    HW133299   0.737   6.525   5.177
10800SOL    HW233300   0.713   6.657   5.085
10801SOL     OW33301   1.286   0.390   0.006
10801SOL    HW133302   1.197   0.423   0.037
10801SOL    HW233303   1.331   0.342   0.081
10802SOL     OW33304   0.201   0.283   2.505
10802SOL    HW133305   0.194   0.290   2.405
10802SOL    HW233306   0.142   0.352   2.547
10803SOL     OW33307   1.670   5.593   5.730
10803SOL    HW133308   1.655   5.567   5.825
10803SOL    HW233309   1.632   5.523   5.670
10804SOL     OW33310   5.737   3.377   2.740
10804SOL    HW133311   5.683   3.440   2.796
10804SOL    HW233312   5.756   3.294   2.792
10805SOL     OW33313   4.754   0.243   5.322
10805SOL    HW133314   4.691   0.319   5.339
10805SOL    HW233315   4.785   0.246   5.227
10806SOL     OW33316   3.934   4.121   6.188
10806SOL    HW133317   4.011   4.085   6.135
10806SOL    HW233318   3.884   4.188   6.133
10807SOL     OW33319   1.791   6.734   3.452
10807SOL    HW133320   1.765   6.644   3.417
10807SOL    HW233321   1.741   6.805   3.403
10808SOL     OW33322   0.449   3.148   6.223
10808SOL    HW133323   0.481   3.053   6.223
10808SOL    HW233324   0.486   3.196   6.143
10809SOL     OW33325   2.229   4.351   3.892
10809SOL    HW133326   2.149   4.309   3.849
10809SOL    HW233327   2.298   4.371   3.822
10810SOL     OW33328   0.142   6.932   4.180
10810SOL    HW133329   0.116   6.837   4.165
10810SOL    HW233330   0.239   6.938   4.203
10811SOL     OW33331   4.701   4.635   5.769
10811SOL    HW133332   4.752   4.611   5.686
10811SOL    HW233333   4.614   4.585   5.770
10812SOL     OW33334   6.937   3.746   0.593
10812SOL    HW133335   6.905   3.828   0.546
10812SOL    HW233336   6.906   3.748   0.688
10813SOL     OW33337   0.940   3.912   5.761
10813SOL    HW133338   1.003   3.842   5.727
10813SOL    HW233339   0.851   3.902   5.716
10814SOL     OW33340   1.865   0.127   6.624
10814SOL    HW133341   1.841   0.053   6.687
10814SOL    HW233342   1.879   0.211   6.675
10815SOL     OW33343   4.818   3.075   3.053
10815SOL    HW133344   4.827   3.157   2.996
10815SOL    HW233345   4.824   3.100   3.149
10816SOL     OW33346   3.001   3.096   2.825
10816SOL    HW133347   2.929   3.030   2.849
10816SOL    HW233348   2.993   3.119   2.728
10817SOL     OW33349   3.790   0.319   3.465
10817SOL    HW133350   3.777   0.412   3.429
10817SOL    HW233351   3.886   0.293   3.454
10818SOL     OW33352   4.682   3.925   5.265
10818SOL    HW133353   4.682   3.825   5.273
10818SOL    HW233354   4.595   3.961   5.297
10819SOL     OW33355   6.159   5.153   6.557
10819SOL    HW133356   6.095   5.229   6.560
10819SOL    HW233357   6.115   5.074   6.513
10820SOL     OW33358   0.396   5.343   4.229
10820SOL    HW133359   0.316   5.398   4.253
10820SOL    HW233360   0.464   5.400   4.185
10821SOL     OW33361   4.541   6.960   3.270
10821SOL    HW133362   4.462   0.001   3.281
10821SOL    HW233363   4.512   6.864   3.278
10822SOL     OW33364   6.266   2.033   2.340
10822SOL    HW133365   6.247   2.010   2.245
10822SOL    HW233366   6.275   1.949   2.394
10823SOL     OW33367   0.769   0.718   2.454
10823SOL    HW133368   0.738   0.635   2.408
10823SOL    HW233369   0.860   0.743   2.421
10824SOL     OW33370   0.252   0.586   2.380
10824SOL    HW133371   0.260   0.557   2.476
10824SOL    HW233372   0.334   0.637   2.354
10825SOL     OW33373   2.136   1.896   0.470
10825SOL    HW133374   2.134   1.869   0.566
10825SOL    HW233375   2.166   1.819   0.414
10826SOL     OW33376   0.811   1.251   2.755
10826SOL    HW133377   0.836   1.342   2.723
10826SOL    HW233378   0.893   1.195   2.763
10827SOL     OW33379   0.282   3.606   4.763
10827SOL    HW133380   0.263   3.564   4.852
10827SOL    HW233381   0.373   3.647   4.764
10828SOL     OW33382   2.066   4.532   0.953
10828SOL    HW133383   2.058   4.433   0.937
10828SOL    HW233384   2.024   4.555   1.041
10829SOL     OW33385   5.185   2.909   0.240
10829SOL    HW133386   5.264   2.847   0.244
10829SOL    HW233387   5.101   2.855   0.235
10830SOL     OW33388   4.193   1.764   3.073
10830SOL    HW133389   4.285   1.797   3.095
10830SOL    HW233390   4.186   1.667   3.096
10831SOL     OW33391   2.853   6.157   2.085
10831SOL    HW133392   2.944   6.141   2.124
10831SOL    HW233393   2.818   6.071   2.048
10832SOL     OW33394   0.129   3.655   6.210
10832SOL    HW133395   0.203   3.647   6.143
10832SOL    HW233396   0.081   3.742   6.197
10833SOL     OW33397   0.578   1.819   0.923
10833SOL    HW133398   0.560   1.908   0.965
10833SOL    HW233399   0.571   1.747   0.992
10834SOL     OW33400   6.168   1.392   0.353
10834SOL    HW133401   6.171   1.312   0.294
10834SOL    HW233402   6.080   1.396   0.400
10835SOL     OW33403   6.027   3.532   0.230
10835SOL    HW133404   6.051   3.439   0.203
10835SOL    HW233405   5.989   3.532   0.322
10836SOL     OW33406   0.513   1.536   3.244
10836SOL    HW133407   0.609   1.529   3.214
10836SOL    HW233408   0.508   1.527   3.343
10837SOL     OW33409   6.689   4.889   1.980
10837SOL    HW133410   6.613   4.841   2.024
10837SOL    HW233411   6.672   4.896   1.882
10838SOL     OW33412   6.135   6.533   4.040
10838SOL    HW133413   6.144   6.568   3.946
10838SOL    HW233414   6.057   6.471   4.045
10839SOL     OW33415   4.240   3.956   0.949
10839SOL    HW133416   4.239   3.858   0.929
10839SOL    HW233417   4.150   3.995   0.929
10840SOL     OW33418   3.432   6.360   2.076
10840SOL    HW133419   3.337   6.389   2.087
10840SOL    HW233420   3.492   6.439   2.081
10841SOL     OW33421   5.849   4.437   4.800
10841SOL    HW133422   5.895   4.354   4.832
10841SOL    HW233423   5.882   4.459   4.708
10842SOL     OW33424   5.171   2.494   1.472
10842SOL    HW133425   5.194   2.535   1.561
10842SOL    HW233426   5.216   2.546   1.399
10843SOL     OW33427   1.505   1.241   1.503
10843SOL    HW133428   1.538   1.207   1.591
10843SOL    HW233429   1.444   1.173   1.462
10844SOL     OW33430   0.202   4.919   2.955
10844SOL    HW133431   0.180   5.009   2.991
10844SOL    HW233432   0.213   4.924   2.856
10845SOL     OW33433   4.040   6.216   5.348
10845SOL    HW133434   4.025   6.175   5.258
10845SOL    HW233435   4.035   6.316   5.339
10846SOL     OW33436   5.484   0.566   6.407
10846SOL    HW133437   5.463   0.468   6.398
10846SOL    HW233438   5.496   0.605   6.316
10847SOL     OW33439   3.252   2.452   0.054
10847SOL    HW133440   3.207   2.371   0.017
10847SOL    HW233441   3.322   2.484   7.008
10848SOL     OW33442   1.246   4.473   1.059
10848SOL    HW133443   1.318   4.443   0.996
10848SOL    HW233444   1.218   4.566   1.035
10849SOL     OW33445   2.633   4.635   4.118
10849SOL    HW133446   2.603   4.540   4.110
10849SOL    HW233447   2.622   4.681   4.030
10850SOL     OW33448   3.550   6.343   5.998
10850SOL    HW133449   3.479   6.294   6.049
10850SOL    HW233450   3.637   6.336   6.047
10851SOL     OW33451   3.401   3.988   0.562
10851SOL    HW133452   3.350   3.902   0.552
10851SOL    HW233453   3.444   4.012   0.475
10852SOL     OW33454   1.469   0.879   6.771
10852SOL    HW133455   1.443   0.819   6.695
10852SOL    HW233456   1.481   0.973   6.737
10853SOL     OW33457   2.506   3.204   5.673
10853SOL    HW133458   2.555   3.161   5.749
10853SOL    HW233459   2.415   3.165   5.665
10854SOL     OW33460   4.583   5.101   5.349
10854SOL    HW133461   4.568   5.004   5.368
10854SOL    HW233462   4.539   5.125   5.262
10855SOL     OW33463   3.990   0.841   6.967
10855SOL    HW133464   3.998   0.800   0.039
10855SOL    HW233465   4.072   0.821   6.914
10856SOL     OW33466   5.905   1.375   0.466
10856SOL    HW133467   5.875   1.347   0.557
10856SOL    HW233468   5.888   1.473   0.455
10857SOL     OW33469   1.063   2.534   2.338
10857SOL    HW133470   1.135   2.484   2.290
10857SOL    HW233471   1.087   2.541   2.435
10858SOL     OW33472   0.717   0.687   0.492
10858SOL    HW133473   0.633   0.741   0.499
10858SOL    HW233474   0.731   0.637   0.578
10859SOL     OW33475   0.579   4.693   4.417
10859SOL    HW133476   0.655   4.627   4.418
10859SOL    HW233477   0.552   4.714   4.510
10860SOL     OW33478   0.383   3.054   4.696
10860SOL    HW133479   0.292   3.024   4.670
10860SOL    HW233480   0.434   2.977   4.735
10861SOL     OW33481   3.481   3.589   3.279
10861SOL    HW133482   3.530   3.611   3.195
10861SOL    HW233483   3.386   3.617   3.271
10862SOL     OW33484   0.910   1.070   6.051
10862SOL    HW133485   0.955   1.137   6.110
10862SOL    HW233486   0.963   0.986   6.050
10863SOL     OW33487   2.073   0.409   4.868
10863SOL    HW133488   2.005   0.483   4.859
10863SOL    HW233489   2.162   0.443   4.840
10864SOL     OW33490   3.204   5.943   0.071
10864SOL    HW133491   3.267   5.871   0.099
10864SOL    HW233492   3.232   5.981   7.002
10865SOL     OW33493   6.539   1.225   0.936
10865SOL    HW133494   6.487   1.242   0.852
10865SOL    HW233495   6.534   1.128   0.959
10866SOL     OW33496   5.425   4.767   0.910
10866SOL    HW133497   5.379   4.697   0.965
10866SOL    HW233498   5.367   4.791   0.833
10867SOL     OW33499   3.150   4.433   0.823
10867SOL    HW133500   3.205   4.471   0.898
10867SOL    HW233501   3.210   4.384   0.759
10868SOL     OW33502   4.804   1.629   3.531
10868SOL    HW133503   4.816   1.586   3.441
10868SOL    HW233504   4.865   1.587   3.597
10869NA      NA33505   6.598   2.985   5.088
10870NA      NA33506   4.576   4.451   5.102
10871NA      NA33507   1.367   2.759   1.683
10872NA      NA33508   5.038   3.670   5.104
10873NA      NA33509   4.124   2.375   5.295
10874NA      NA33510   3.643   4.832   1.707
10875NA      NA33511   6.722   5.106   6.741
10876NA      NA33512   3.312   3.112   4.613
10877NA      NA33513   4.370   5.851   0.009
10878NA      NA33514   4.330   6.414   4.947
10879NA      NA33515   6.457   5.232   2.530
10880NA      NA33516   2.229   7.006   3.787
10881NA      NA33517   4.099   5.720   2.157
10882NA      NA33518   3.569   4.010   2.181
   7.01847   7.01847   7.01847
