Generated by trjconv : CNT in water t= 218.00000
33518
    1C        C    1   2.848   2.775   4.753
    1C        C    2   2.901   2.720   4.872
    1C        C    3   2.848   2.777   4.988
    1C        C    4   2.853   2.780   4.264
    1C        C    5   2.905   2.735   4.388
    1C        C    6   2.852   2.779   4.511
    1C        C    7   3.022   2.650   4.631
    1C        C    8   2.905   2.729   4.632
    1C        C    9   3.084   2.609   4.751
    1C        C   10   3.013   2.634   4.871
    1C        C   11   3.186   2.498   4.980
    1C        C   12   3.067   2.571   4.984
    1C        C   13   2.854   2.778   3.777
    1C        C   14   2.906   2.731   3.900
    1C        C   15   2.857   2.782   4.022
    1C        C   16   3.028   2.655   4.143
    1C        C   17   2.910   2.733   4.144
    1C        C   18   3.087   2.622   4.268
    1C        C   19   3.020   2.653   4.388
    1C        C   20   3.216   2.564   4.508
    1C        C   21   3.086   2.619   4.509
    1C        C   22   3.287   2.540   4.628
    1C        C   23   3.215   2.554   4.749
    1C        C   24   3.416   2.483   4.869
    1C        C   25   3.276   2.508   4.869
    1C        C   26   3.494   2.485   4.985
    1C        C   27   2.857   2.776   3.287
    1C        C   28   2.914   2.733   3.409
    1C        C   29   2.860   2.779   3.531
    1C        C   30   3.028   2.655   3.653
    1C        C   31   2.912   2.735   3.655
    1C        C   32   3.085   2.614   3.776
    1C        C   33   3.022   2.651   3.897
    1C        C   34   3.214   2.562   4.021
    1C        C   35   3.083   2.615   4.020
    1C        C   36   3.282   2.541   4.143
    1C        C   37   3.218   2.570   4.265
    1C        C   38   3.423   2.514   4.383
    1C        C   39   3.284   2.542   4.387
    1C        C   40   3.492   2.506   4.506
    1C        C   41   3.424   2.505   4.630
    1C        C   42   3.635   2.478   4.750
    1C        C   43   3.493   2.476   4.749
    1C        C   44   3.710   2.483   4.870
    1C        C   45   3.633   2.480   4.987
    1C        C   46   2.841   2.760   2.799
    1C        C   47   2.900   2.717   2.920
    1C        C   48   2.852   2.772   3.041
    1C        C   49   3.021   2.645   3.164
    1C        C   50   2.905   2.726   3.164
    1C        C   51   3.087   2.614   3.285
    1C        C   52   3.030   2.652   3.408
    1C        C   53   3.218   2.558   3.532
    1C        C   54   3.088   2.615   3.531
    1C        C   55   3.285   2.540   3.655
    1C        C   56   3.215   2.559   3.776
    1C        C   57   3.420   2.511   3.898
    1C        C   58   3.282   2.540   3.899
    1C        C   59   3.491   2.501   4.020
    1C        C   60   3.420   2.508   4.141
    1C        C   61   3.634   2.494   4.263
    1C        C   62   3.493   2.501   4.261
    1C        C   63   3.706   2.502   4.385
    1C        C   64   3.633   2.501   4.506
    1C        C   65   3.840   2.538   4.625
    1C        C   66   3.704   2.501   4.628
    1C        C   67   3.910   2.558   4.746
    1C        C   68   3.844   2.527   4.867
    1C        C   69   4.056   2.586   4.981
    1C        C   70   3.928   2.529   4.979
    1C        C   71   2.828   2.739   2.314
    1C        C   72   2.889   2.699   2.435
    1C        C   73   2.837   2.751   2.556
    1C        C   74   3.010   2.630   2.677
    1C        C   75   2.892   2.707   2.678
    1C        C   76   3.077   2.601   2.798
    1C        C   77   3.018   2.640   2.920
    1C        C   78   3.213   2.554   3.040
    1C        C   79   3.082   2.608   3.042
    1C        C   80   3.279   2.535   3.164
    1C        C   81   3.217   2.559   3.288
    1C        C   82   3.422   2.500   3.407
    1C        C   83   3.285   2.534   3.410
    1C        C   84   3.493   2.496   3.529
    1C        C   85   3.424   2.511   3.651
    1C        C   86   3.632   2.502   3.773
    1C        C   87   3.491   2.505   3.776
    1C        C   88   3.701   2.505   3.896
    1C        C   89   3.633   2.499   4.020
    1C        C   90   3.841   2.541   4.140
    1C        C   91   3.705   2.502   4.141
    1C        C   92   3.909   2.565   4.261
    1C        C   93   3.843   2.536   4.383
    1C        C   94   4.034   2.630   4.502
    1C        C   95   3.910   2.563   4.505
    1C        C   96   4.093   2.671   4.624
    1C        C   97   4.035   2.625   4.745
    1C        C   98   4.196   2.765   4.866
    1C        C   99   4.101   2.658   4.866
    1C        C  100   4.218   2.843   4.980
    1C        C  101   2.825   2.730   2.076
    1C        C  102   2.992   2.592   2.194
    1C        C  103   2.877   2.679   2.195
    1C        C  104   3.069   2.581   2.313
    1C        C  105   3.007   2.621   2.434
    1C        C  106   3.205   2.543   2.556
    1C        C  107   3.074   2.594   2.555
    1C        C  108   3.275   2.523   2.677
    1C        C  109   3.208   2.546   2.799
    1C        C  110   3.419   2.501   2.917
    1C        C  111   3.280   2.526   2.919
    1C        C  112   3.488   2.495   3.040
    1C        C  113   3.417   2.504   3.162
    1C        C  114   3.630   2.498   3.281
    1C        C  115   3.489   2.495   3.283
    1C        C  116   3.700   2.507   3.404
    1C        C  117   3.634   2.496   3.529
    1C        C  118   3.840   2.543   3.650
    1C        C  119   3.704   2.505   3.651
    1C        C  120   3.901   2.573   3.774
    1C        C  121   3.838   2.537   3.895
    1C        C  122   4.028   2.633   4.014
    1C        C  123   3.907   2.562   4.016
    1C        C  124   4.091   2.670   4.135
    1C        C  125   4.036   2.626   4.258
    1C        C  126   4.198   2.763   4.380
    1C        C  127   4.093   2.668   4.380
    1C        C  128   4.246   2.819   4.500
    1C        C  129   4.199   2.764   4.622
    1C        C  130   4.323   2.938   4.743
    1C        C  131   4.244   2.820   4.744
    1C        C  132   4.358   3.006   4.861
    1C        C  133   4.287   2.964   4.975
    1C        C  134   3.176   2.475   2.085
    1C        C  135   3.039   2.506   2.091
    1C        C  136   3.263   2.484   2.194
    1C        C  137   3.199   2.523   2.313
    1C        C  138   3.407   2.477   2.434
    1C        C  139   3.270   2.510   2.435
    1C        C  140   3.483   2.476   2.554
    1C        C  141   3.412   2.488   2.675
    1C        C  142   3.629   2.489   2.794
    1C        C  143   3.488   2.484   2.795
    1C        C  144   3.698   2.506   2.916
    1C        C  145   3.629   2.495   3.039
    1C        C  146   3.840   2.535   3.157
    1C        C  147   3.703   2.502   3.160
    1C        C  148   3.904   2.562   3.280
    1C        C  149   3.838   2.537   3.402
    1C        C  150   4.027   2.630   3.525
    1C        C  151   3.903   2.562   3.525
    1C        C  152   4.087   2.669   3.647
    1C        C  153   4.028   2.634   3.771
    1C        C  154   4.197   2.763   3.890
    1C        C  155   4.088   2.673   3.893
    1C        C  156   4.247   2.814   4.012
    1C        C  157   4.196   2.766   4.135
    1C        C  158   4.331   2.927   4.256
    1C        C  159   4.245   2.815   4.257
    1C        C  160   4.369   2.990   4.377
    1C        C  161   4.328   2.934   4.500
    1C        C  162   4.434   3.119   4.621
    1C        C  163   4.364   2.996   4.621
    1C        C  164   4.463   3.191   4.739
    1C        C  165   4.429   3.128   4.861
    1C        C  166   4.512   3.330   4.976
    1C        C  167   4.477   3.195   4.974
    1C        C  168   3.477   2.437   2.079
    1C        C  169   3.403   2.462   2.195
    1C        C  170   3.622   2.470   2.310
    1C        C  171   3.480   2.466   2.313
    1C        C  172   3.693   2.490   2.430
    1C        C  173   3.624   2.483   2.553
    1C        C  174   3.834   2.537   2.670
    1C        C  175   3.699   2.495   2.672
    1C        C  176   3.899   2.566   2.792
    1C        C  177   3.835   2.540   2.915
    1C        C  178   4.034   2.622   3.035
    1C        C  179   3.908   2.558   3.035
    1C        C  180   4.090   2.662   3.158
    1C        C  181   4.029   2.627   3.281
    1C        C  182   4.200   2.751   3.400
    1C        C  183   4.090   2.662   3.403
    1C        C  184   4.250   2.805   3.521
    1C        C  185   4.195   2.760   3.643
    1C        C  186   4.337   2.917   3.767
    1C        C  187   4.244   2.810   3.765
    1C        C  188   4.379   2.979   3.887
    1C        C  189   4.335   2.924   4.010
    1C        C  190   4.438   3.108   4.132
    1C        C  191   4.373   2.983   4.133
    1C        C  192   4.467   3.177   4.253
    1C        C  193   4.438   3.114   4.376
    1C        C  194   4.502   3.317   4.494
    1C        C  195   4.460   3.182   4.497
    1C        C  196   4.517   3.391   4.614
    1C        C  197   4.508   3.325   4.738
    1C        C  198   4.556   3.541   4.854
    1C        C  199   4.530   3.401   4.857
    1C        C  200   4.588   3.624   4.966
    1C        C  201   3.617   2.424   2.078
    1C        C  202   3.831   2.516   2.187
    1C        C  203   3.696   2.468   2.188
    1C        C  204   3.902   2.539   2.308
    1C        C  205   3.830   2.525   2.428
    1C        C  206   4.026   2.622   2.547
    1C        C  207   3.901   2.556   2.547
    1C        C  208   4.088   2.661   2.668
    1C        C  209   4.026   2.628   2.791
    1C        C  210   4.203   2.748   2.911
    1C        C  211   4.088   2.666   2.912
    1C        C  212   4.253   2.799   3.033
    1C        C  213   4.198   2.753   3.155
    1C        C  214   4.339   2.911   3.275
    1C        C  215   4.252   2.800   3.277
    1C        C  216   4.368   2.975   3.398
    1C        C  217   4.335   2.918   3.522
    1C        C  218   4.434   3.105   3.644
    1C        C  219   4.375   2.976   3.645
    1C        C  220   4.460   3.173   3.765
    1C        C  221   4.441   3.106   3.887
    1C        C  222   4.500   3.309   4.007
    1C        C  223   4.466   3.172   4.010
    1C        C  224   4.515   3.383   4.127
    1C        C  225   4.506   3.312   4.248
    1C        C  226   4.520   3.524   4.369
    1C        C  227   4.520   3.382   4.370
    1C        C  228   4.524   3.600   4.488
    1C        C  229   4.534   3.532   4.612
    1C        C  230   4.509   3.747   4.726
    1C        C  231   4.542   3.609   4.730
    1C        C  232   4.501   3.821   4.846
    1C        C  233   4.549   3.759   4.962
    1C        C  234   4.022   2.610   2.066
    1C        C  235   3.901   2.541   2.068
    1C        C  236   4.088   2.647   2.184
    1C        C  237   4.027   2.608   2.305
    1C        C  238   4.202   2.738   2.423
    1C        C  239   4.088   2.653   2.424
    1C        C  240   4.253   2.791   2.544
    1C        C  241   4.201   2.746   2.667
    1C        C  242   4.340   2.905   2.785
    1C        C  243   4.257   2.791   2.788
    1C        C  244   4.379   2.964   2.907
    1C        C  245   4.340   2.910   3.032
    1C        C  246   4.436   3.099   3.154
    1C        C  247   4.378   2.971   3.153
    1C        C  248   4.457   3.167   3.276
    1C        C  249   4.436   3.100   3.399
    1C        C  250   4.496   3.304   3.518
    1C        C  251   4.462   3.167   3.520
    1C        C  252   4.510   3.376   3.638
    1C        C  253   4.501   3.308   3.762
    1C        C  254   4.528   3.518   3.879
    1C        C  255   4.515   3.377   3.884
    1C        C  256   4.522   3.591   4.000
    1C        C  257   4.516   3.524   4.125
    1C        C  258   4.491   3.734   4.243
    1C        C  259   4.512   3.594   4.247
    1C        C  260   4.476   3.806   4.364
    1C        C  261   4.499   3.739   4.486
    1C        C  262   4.430   3.945   4.606
    1C        C  263   4.482   3.813   4.604
    1C        C  264   4.406   4.014   4.726
    1C        C  265   4.444   3.951   4.846
    1C        C  266   4.331   4.137   4.959
    1C        C  267   4.403   4.019   4.962
    1C        C  268   4.274   2.772   2.068
    1C        C  269   4.197   2.737   2.180
    1C        C  270   4.347   2.891   2.301
    1C        C  271   4.253   2.785   2.300
    1C        C  272   4.381   2.961   2.419
    1C        C  273   4.338   2.904   2.541
    1C        C  274   4.441   3.091   2.666
    1C        C  275   4.374   2.967   2.662
    1C        C  276   4.471   3.155   2.789
    1C        C  277   4.446   3.088   2.911
    1C        C  278   4.505   3.296   3.028
    1C        C  279   4.469   3.160   3.030
    1C        C  280   4.512   3.368   3.149
    1C        C  281   4.496   3.302   3.273
    1C        C  282   4.517   3.514   3.392
    1C        C  283   4.511   3.373   3.395
    1C        C  284   4.520   3.586   3.513
    1C        C  285   4.521   3.517   3.637
    1C        C  286   4.501   3.730   3.756
    1C        C  287   4.519   3.589   3.758
    1C        C  288   4.485   3.800   3.877
    1C        C  289   4.501   3.731   4.000
    1C        C  290   4.433   3.935   4.117
    1C        C  291   4.478   3.801   4.120
    1C        C  292   4.403   4.003   4.237
    1C        C  293   4.427   3.939   4.361
    1C        C  294   4.328   4.127   4.482
    1C        C  295   4.400   4.006   4.482
    1C        C  296   4.287   4.192   4.601
    1C        C  297   4.335   4.137   4.722
    1C        C  298   4.206   4.317   4.842
    1C        C  299   4.287   4.199   4.841
    1C        C  300   4.175   4.404   4.951
    1C        C  301   4.354   2.885   2.063
    1C        C  302   4.470   3.070   2.180
    1C        C  303   4.402   2.944   2.181
    1C        C  304   4.478   3.149   2.298
    1C        C  305   4.447   3.086   2.421
    1C        C  306   4.513   3.288   2.538
    1C        C  307   4.472   3.152   2.543
    1C        C  308   4.522   3.359   2.659
    1C        C  309   4.506   3.292   2.783
    1C        C  310   4.527   3.503   2.901
    1C        C  311   4.521   3.362   2.904
    1C        C  312   4.519   3.576   3.022
    1C        C  313   4.518   3.509   3.147
    1C        C  314   4.492   3.721   3.266
    1C        C  315   4.511   3.581   3.268
    1C        C  316   4.482   3.792   3.388
    1C        C  317   4.495   3.725   3.511
    1C        C  318   4.430   3.928   3.629
    1C        C  319   4.478   3.795   3.633
    1C        C  320   4.402   3.994   3.751
    1C        C  321   4.432   3.931   3.874
    1C        C  322   4.327   4.119   3.994
    1C        C  323   4.404   4.000   3.994
    1C        C  324   4.284   4.176   4.115
    1C        C  325   4.330   4.124   4.238
    1C        C  326   4.193   4.287   4.355
    1C        C  327   4.290   4.185   4.359
    1C        C  328   4.141   4.340   4.475
    1C        C  329   4.192   4.296   4.600
    1C        C  330   4.029   4.437   4.716
    1C        C  331   4.143   4.353   4.720
    1C        C  332   3.973   4.492   4.833
    1C        C  333   4.056   4.478   4.945
    1C        C  334   4.552   3.270   2.063
    1C        C  335   4.538   3.131   2.070
    1C        C  336   4.545   3.352   2.176
    1C        C  337   4.520   3.284   2.297
    1C        C  338   4.531   3.499   2.415
    1C        C  339   4.535   3.357   2.417
    1C        C  340   4.523   3.570   2.537
    1C        C  341   4.523   3.501   2.660
    1C        C  342   4.496   3.714   2.778
    1C        C  343   4.520   3.575   2.780
    1C        C  344   4.483   3.786   2.899
    1C        C  345   4.497   3.716   3.021
    1C        C  346   4.427   3.919   3.142
    1C        C  347   4.479   3.787   3.141
    1C        C  348   4.396   3.983   3.264
    1C        C  349   4.434   3.925   3.387
    1C        C  350   4.327   4.111   3.504
    1C        C  351   4.406   3.994   3.507
    1C        C  352   4.281   4.168   3.626
    1C        C  353   4.326   4.113   3.748
    1C        C  354   4.183   4.269   3.871
    1C        C  355   4.284   4.170   3.870
    1C        C  356   4.129   4.321   3.990
    1C        C  357   4.183   4.275   4.112
    1C        C  358   4.013   4.402   4.234
    1C        C  359   4.131   4.324   4.234
    1C        C  360   3.954   4.446   4.354
    1C        C  361   4.024   4.420   4.474
    1C        C  362   3.831   4.514   4.596
    1C        C  363   3.963   4.464   4.593
    1C        C  364   3.765   4.546   4.716
    1C        C  365   3.841   4.542   4.835
    1C        C  366   3.633   4.598   4.953
    1C        C  367   3.770   4.579   4.951
    1C        C  368   4.512   3.566   2.057
    1C        C  369   4.531   3.493   2.175
    1C        C  370   4.511   3.710   2.291
    1C        C  371   4.523   3.569   2.293
    1C        C  372   4.492   3.780   2.413
    1C        C  373   4.512   3.711   2.535
    1C        C  374   4.431   3.912   2.653
    1C        C  375   4.486   3.782   2.654
    1C        C  376   4.400   3.976   2.775
    1C        C  377   4.434   3.918   2.899
    1C        C  378   4.323   4.102   3.015
    1C        C  379   4.402   3.985   3.020
    1C        C  380   4.276   4.156   3.137
    1C        C  381   4.321   4.102   3.260
    1C        C  382   4.175   4.257   3.380
    1C        C  383   4.278   4.160   3.381
    1C        C  384   4.124   4.309   3.501
    1C        C  385   4.181   4.268   3.624
    1C        C  386   4.009   4.387   3.746
    1C        C  387   4.130   4.313   3.747
    1C        C  388   3.948   4.427   3.867
    1C        C  389   4.010   4.398   3.990
    1C        C  390   3.822   4.496   4.111
    1C        C  391   3.951   4.438   4.112
    1C        C  392   3.755   4.520   4.232
    1C        C  393   3.825   4.504   4.354
    1C        C  394   3.621   4.558   4.479
    1C        C  395   3.760   4.534   4.476
    1C        C  396   3.551   4.571   4.600
    1C        C  397   3.625   4.567   4.720
    1C        C  398   3.412   4.555   4.840
    1C        C  399   3.552   4.579   4.840
    1C        C  400   3.348   4.513   4.957
    1C        C  401   4.507   3.705   2.053
    1C        C  402   4.456   3.917   2.168
    1C        C  403   4.495   3.781   2.170
    1C        C  404   4.414   3.978   2.288
    1C        C  405   4.442   3.912   2.410
    1C        C  406   4.333   4.098   2.529
    1C        C  407   4.408   3.978   2.530
    1C        C  408   4.284   4.153   2.649
    1C        C  409   4.319   4.092   2.772
    1C        C  410   4.177   4.253   2.890
    1C        C  411   4.278   4.154   2.891
    1C        C  412   4.125   4.300   3.012
    1C        C  413   4.178   4.257   3.136
    1C        C  414   4.006   4.384   3.256
    1C        C  415   4.123   4.304   3.257
    1C        C  416   3.944   4.414   3.379
    1C        C  417   4.005   4.385   3.503
    1C        C  418   3.815   4.478   3.622
    1C        C  419   3.944   4.420   3.625
    1C        C  420   3.752   4.503   3.745
    1C        C  421   3.819   4.484   3.868
    1C        C  422   3.613   4.537   3.989
    1C        C  423   3.752   4.514   3.989
    1C        C  424   3.545   4.544   4.113
    1C        C  425   3.616   4.547   4.235
    1C        C  426   3.408   4.551   4.359
    1C        C  427   3.548   4.563   4.357
    1C        C  428   3.335   4.548   4.480
    1C        C  429   3.410   4.558   4.599
    1C        C  430   3.198   4.522   4.725
    1C        C  431   3.337   4.550   4.720
    1C        C  432   3.131   4.500   4.848
    1C        C  433   3.210   4.499   4.964
    1C        C  434   4.390   4.124   2.055
    1C        C  435   4.449   3.997   2.054
    1C        C  436   4.308   4.165   2.165
    1C        C  437   4.337   4.098   2.286
    1C        C  438   4.186   4.249   2.403
    1C        C  439   4.289   4.153   2.407
    1C        C  440   4.127   4.295   2.522
    1C        C  441   4.182   4.251   2.645
    1C        C  442   4.012   4.379   2.770
    1C        C  443   4.127   4.299   2.766
    1C        C  444   3.947   4.414   2.891
    1C        C  445   4.007   4.378   3.014
    1C        C  446   3.814   4.473   3.133
    1C        C  447   3.943   4.416   3.134
    1C        C  448   3.747   4.497   3.256
    1C        C  449   3.814   4.471   3.377
    1C        C  450   3.611   4.530   3.499
    1C        C  451   3.748   4.498   3.499
    1C        C  452   3.544   4.543   3.623
    1C        C  453   3.613   4.532   3.745
    1C        C  454   3.401   4.547   3.868
    1C        C  455   3.542   4.546   3.867
    1C        C  456   3.335   4.541   3.993
    1C        C  457   3.404   4.550   4.115
    1C        C  458   3.198   4.509   4.236
    1C        C  459   3.335   4.543   4.238
    1C        C  460   3.134   4.489   4.361
    1C        C  461   3.196   4.522   4.483
    1C        C  462   3.000   4.440   4.604
    1C        C  463   3.126   4.503   4.605
    1C        C  464   2.935   4.403   4.724
    1C        C  465   2.996   4.452   4.843
    1C        C  466   2.806   4.344   4.960
    1C        C  467   2.910   4.437   4.957
    1C        C  468   4.127   4.286   2.044
    1C        C  469   4.192   4.250   2.162
    1C        C  470   4.011   4.374   2.283
    1C        C  471   4.131   4.297   2.282
    1C        C  472   3.946   4.406   2.403
    1C        C  473   4.008   4.371   2.525
    1C        C  474   3.819   4.467   2.648
    1C        C  475   3.947   4.407   2.648
    1C        C  476   3.748   4.492   2.767
    1C        C  477   3.816   4.468   2.889
    1C        C  478   3.610   4.524   3.011
    1C        C  479   3.747   4.491   3.010
    1C        C  480   3.539   4.535   3.133
    1C        C  481   3.609   4.526   3.255
    1C        C  482   3.398   4.538   3.379
    1C        C  483   3.539   4.540   3.377
    1C        C  484   3.330   4.530   3.503
    1C        C  485   3.403   4.541   3.624
    1C        C  486   3.193   4.511   3.748
    1C        C  487   3.331   4.543   3.746
    1C        C  488   3.129   4.484   3.871
    1C        C  489   3.198   4.506   3.993
    1C        C  490   3.006   4.418   4.116
    1C        C  491   3.130   4.485   4.115
    1C        C  492   2.948   4.385   4.241
    1C        C  493   3.006   4.428   4.362
    1C        C  494   2.836   4.303   4.485
    1C        C  495   2.941   4.397   4.484
    1C        C  496   2.781   4.256   4.606
    1C        C  497   2.826   4.312   4.727
    1C        C  498   2.668   4.168   4.851
    1C        C  499   2.759   4.277   4.847
    1C        C  500   2.595   4.122   4.961
    1C        C  501   4.007   4.355   2.044
    1C        C  502   3.819   4.464   2.157
    1C        C  503   3.947   4.405   2.161
    1C        C  504   3.749   4.480   2.279
    1C        C  505   3.812   4.453   2.402
    1C        C  506   3.610   4.505   2.524
    1C        C  507   3.749   4.480   2.526
    1C        C  508   3.538   4.520   2.644
    1C        C  509   3.609   4.517   2.767
    1C        C  510   3.398   4.531   2.891
    1C        C  511   3.539   4.523   2.889
    1C        C  512   3.325   4.524   3.011
    1C        C  513   3.398   4.536   3.132
    1C        C  514   3.194   4.492   3.260
    1C        C  515   3.330   4.532   3.256
    1C        C  516   3.127   4.471   3.382
    1C        C  517   3.192   4.499   3.504
    1C        C  518   3.001   4.415   3.628
    1C        C  519   3.127   4.479   3.628
    1C        C  520   2.944   4.378   3.752
    1C        C  521   3.005   4.417   3.873
    1C        C  522   2.837   4.286   4.000
    1C        C  523   2.948   4.374   3.995
    1C        C  524   2.793   4.237   4.125
    1C        C  525   2.841   4.293   4.245
    1C        C  526   2.696   4.136   4.368
    1C        C  527   2.784   4.247   4.366
    1C        C  528   2.657   4.077   4.491
    1C        C  529   2.694   4.144   4.610
    1C        C  530   2.589   3.964   4.735
    1C        C  531   2.644   4.095   4.732
    1C        C  532   2.548   3.904   4.857
    1C        C  533   2.527   4.000   4.961
    1C        C  534   3.623   4.560   2.045
    1C        C  535   3.755   4.512   2.042
    1C        C  536   3.541   4.538   2.160
    1C        C  537   3.610   4.509   2.281
    1C        C  538   3.399   4.515   2.403
    1C        C  539   3.540   4.520   2.402
    1C        C  540   3.326   4.508   2.524
    1C        C  541   3.397   4.520   2.645
    1C        C  542   3.190   4.489   2.769
    1C        C  543   3.328   4.520   2.769
    1C        C  544   3.124   4.466   2.892
    1C        C  545   3.189   4.488   3.016
    1C        C  546   2.997   4.407   3.137
    1C        C  547   3.124   4.468   3.140
    1C        C  548   2.940   4.373   3.262
    1C        C  549   3.000   4.409   3.385
    1C        C  550   2.832   4.281   3.508
    1C        C  551   2.940   4.373   3.508
    1C        C  552   2.784   4.236   3.633
    1C        C  553   2.836   4.287   3.754
    1C        C  554   2.711   4.118   3.880
    1C        C  555   2.793   4.233   3.877
    1C        C  556   2.673   4.060   4.003
    1C        C  557   2.706   4.125   4.124
    1C        C  558   2.602   3.944   4.248
    1C        C  559   2.664   4.071   4.248
    1C        C  560   2.575   3.880   4.371
    1C        C  561   2.595   3.951   4.492
    1C        C  562   2.536   3.752   4.616
    1C        C  563   2.568   3.890   4.616
    1C        C  564   2.523   3.685   4.740
    1C        C  565   2.526   3.762   4.859
    1C        C  566   2.531   3.551   4.982
    1C        C  567   2.528   3.690   4.979
    1C        C  568   3.331   4.473   2.045
    1C        C  569   3.401   4.510   2.160
    1C        C  570   3.188   4.479   2.283
    1C        C  571   3.328   4.508   2.281
    1C        C  572   3.120   4.458   2.405
    1C        C  573   3.187   4.482   2.527
    1C        C  574   2.993   4.402   2.651
    1C        C  575   3.118   4.466   2.649
    1C        C  576   2.934   4.364   2.774
    1C        C  577   2.998   4.403   2.894
    1C        C  578   2.827   4.279   3.018
    1C        C  579   2.936   4.369   3.016
    1C        C  580   2.782   4.227   3.141
    1C        C  581   2.834   4.278   3.262
    1C        C  582   2.702   4.115   3.390
    1C        C  583   2.789   4.226   3.386
    1C        C  584   2.669   4.055   3.514
    1C        C  585   2.704   4.120   3.634
    1C        C  586   2.604   3.935   3.759
    1C        C  587   2.671   4.059   3.758
    1C        C  588   2.576   3.872   3.882
    1C        C  589   2.604   3.937   4.004
    1C        C  590   2.543   3.737   4.131
    1C        C  591   2.574   3.875   4.128
    1C        C  592   2.526   3.671   4.254
    1C        C  593   2.540   3.743   4.375
    1C        C  594   2.513   3.535   4.502
    1C        C  595   2.523   3.676   4.498
    1C        C  596   2.517   3.468   4.626
    1C        C  597   2.519   3.543   4.746
    1C        C  598   2.531   3.330   4.869
    1C        C  599   2.524   3.471   4.867
    1C        C  600   2.536   3.253   4.986
    1C        C  601   3.197   4.438   2.046
    1C        C  602   2.987   4.392   2.163
    1C        C  603   3.122   4.439   2.164
    1C        C  604   2.927   4.361   2.288
    1C        C  605   2.992   4.397   2.408
    1C        C  606   2.819   4.275   2.534
    1C        C  607   2.931   4.362   2.530
    1C        C  608   2.770   4.222   2.655
    1C        C  609   2.828   4.271   2.774
    1C        C  610   2.691   4.111   2.898
    1C        C  611   2.778   4.223   2.898
    1C        C  612   2.657   4.055   3.023
    1C        C  613   2.701   4.111   3.145
    1C        C  614   2.598   3.929   3.268
    1C        C  615   2.660   4.056   3.269
    1C        C  616   2.570   3.868   3.392
    1C        C  617   2.601   3.931   3.514
    1C        C  618   2.535   3.732   3.642
    1C        C  619   2.573   3.868   3.638
    1C        C  620   2.517   3.664   3.764
    1C        C  621   2.534   3.737   3.884
    1C        C  622   2.508   3.530   4.012
    1C        C  623   2.525   3.670   4.008
    1C        C  624   2.520   3.460   4.135
    1C        C  625   2.515   3.530   4.258
    1C        C  626   2.536   3.322   4.384
    1C        C  627   2.512   3.462   4.381
    1C        C  628   2.557   3.255   4.507
    1C        C  629   2.541   3.329   4.626
    1C        C  630   2.596   3.124   4.752
    1C        C  631   2.550   3.259   4.749
    1C        C  632   2.618   3.052   4.873
    1C        C  633   2.565   3.116   4.989
    1C        C  634   2.785   4.310   2.061
    1C        C  635   2.898   4.392   2.051
    1C        C  636   2.749   4.233   2.172
    1C        C  637   2.814   4.275   2.290
    1C        C  638   2.680   4.112   2.413
    1C        C  639   2.769   4.222   2.413
    1C        C  640   2.643   4.050   2.534
    1C        C  641   2.684   4.110   2.655
    1C        C  642   2.584   3.925   2.780
    1C        C  643   2.647   4.051   2.778
    1C        C  644   2.566   3.859   2.903
    1C        C  645   2.595   3.928   3.023
    1C        C  646   2.533   3.727   3.151
    1C        C  647   2.574   3.862   3.146
    1C        C  648   2.518   3.660   3.274
    1C        C  649   2.532   3.732   3.395
    1C        C  650   2.513   3.524   3.525
    1C        C  651   2.521   3.665   3.519
    1C        C  652   2.516   3.453   3.647
    1C        C  653   2.507   3.523   3.770
    1C        C  654   2.527   3.315   3.893
    1C        C  655   2.506   3.454   3.893
    1C        C  656   2.546   3.248   4.016
    1C        C  657   2.540   3.320   4.138
    1C        C  658   2.606   3.123   4.261
    1C        C  659   2.554   3.254   4.262
    1C        C  660   2.642   3.063   4.384
    1C        C  661   2.607   3.123   4.507
    1C        C  662   2.717   2.948   4.631
    1C        C  663   2.633   3.061   4.631
    1C        C  664   2.758   2.885   4.751
    1C        C  665   2.707   2.940   4.872
    1C        C  666   2.755   2.880   4.989
    1C        C  667   2.687   4.025   2.058
    1C        C  668   2.687   4.106   2.172
    1C        C  669   2.588   3.917   2.295
    1C        C  670   2.641   4.049   2.293
    1C        C  671   2.559   3.851   2.416
    1C        C  672   2.585   3.921   2.536
    1C        C  673   2.523   3.720   2.663
    1C        C  674   2.560   3.856   2.659
    1C        C  675   2.515   3.650   2.786
    1C        C  676   2.526   3.723   2.906
    1C        C  677   2.505   3.515   3.033
    1C        C  678   2.516   3.656   3.030
    1C        C  679   2.507   3.446   3.157
    1C        C  680   2.508   3.519   3.278
    1C        C  681   2.534   3.312   3.404
    1C        C  682   2.514   3.452   3.403
    1C        C  683   2.555   3.246   3.527
    1C        C  684   2.537   3.314   3.650
    1C        C  685   2.597   3.112   3.775
    1C        C  686   2.544   3.243   3.772
    1C        C  687   2.636   3.052   3.897
    1C        C  688   2.601   3.118   4.017
    1C        C  689   2.719   2.944   4.145
    1C        C  690   2.636   3.057   4.140
    1C        C  691   2.760   2.886   4.268
    1C        C  692   2.718   2.944   4.389
    1C        C  693   2.761   2.887   4.511
    1C        C  694   2.639   3.894   2.064
    1C        C  695   2.525   3.708   2.178
    1C        C  696   2.576   3.840   2.177
    1C        C  697   2.504   3.643   2.302
    1C        C  698   2.518   3.716   2.422
    1C        C  699   2.489   3.505   2.545
    1C        C  700   2.506   3.646   2.544
    1C        C  701   2.501   3.438   2.668
    1C        C  702   2.510   3.509   2.790
    1C        C  703   2.527   3.300   2.915
    1C        C  704   2.511   3.440   2.914
    1C        C  705   2.546   3.234   3.038
    1C        C  706   2.531   3.307   3.158
    1C        C  707   2.601   3.110   3.284
    1C        C  708   2.550   3.242   3.283
    1C        C  709   2.636   3.049   3.406
    1C        C  710   2.609   3.115   3.528
    1C        C  711   2.710   2.934   3.653
    1C        C  712   2.632   3.051   3.653
    1C        C  713   2.759   2.882   3.775
    1C        C  714   2.720   2.938   3.898
    1C        C  715   2.763   2.887   4.023
    1C        C  716   2.456   3.503   2.066
    1C        C  717   2.485   3.640   2.062
    1C        C  718   2.467   3.425   2.186
    1C        C  719   2.480   3.503   2.304
    1C        C  720   2.514   3.292   2.427
    1C        C  721   2.486   3.430   2.425
    1C        C  722   2.536   3.226   2.550
    1C        C  723   2.526   3.299   2.670
    1C        C  724   2.593   3.098   2.792
    1C        C  725   2.541   3.230   2.793
    1C        C  726   2.624   3.037   2.916
    1C        C  727   2.595   3.101   3.038
    1C        C  728   2.709   2.928   3.164
    1C        C  729   2.627   3.043   3.163
    1C        C  730   2.758   2.876   3.286
    1C        C  731   2.719   2.935   3.409
    1C        C  732   2.763   2.882   3.532
    1C        C  733   2.501   3.201   2.073
    1C        C  734   2.487   3.284   2.186
    1C        C  735   2.575   3.086   2.309
    1C        C  736   2.524   3.219   2.307
    1C        C  737   2.609   3.022   2.430
    1C        C  738   2.576   3.090   2.550
    1C        C  739   2.695   2.912   2.673
    1C        C  740   2.620   3.032   2.670
    1C        C  741   2.744   2.862   2.796
    1C        C  742   2.705   2.921   2.918
    1C        C  743   2.751   2.871   3.042
    1C        C  744   2.547   3.070   2.076
    1C        C  745   2.687   2.900   2.191
    1C        C  746   2.607   3.017   2.191
    1C        C  747   2.730   2.842   2.312
    1C        C  748   2.685   2.902   2.431
    1C        C  749   2.739   2.853   2.552
    1C        C  750   2.741   2.841   2.076
    1C        C  751   3.665   2.332   1.972
    1C        O  752   3.684   2.211   2.000
    1C        O  753   3.624   2.347   1.839
    1C        C  754   4.637   3.057   1.988
    1C        O  755   4.619   3.044   1.864
    1C        O  756   4.776   3.061   2.001
    1C        C  757   4.454   4.222   1.964
    1C        O  758   4.576   4.245   1.983
    1C        O  759   4.431   4.213   1.826
    1C        C  760   3.592   4.675   1.958
    1C        O  761   3.600   4.796   1.994
    1C        O  762   3.575   4.664   1.819
    1C        C  763   2.880   4.521   1.980
    1C        O  764   2.877   4.513   1.854
    1C        O  765   2.785   4.618   2.015
    1C        C  766   2.392   3.467   1.937
    1C        O  767   2.451   3.467   1.825
    1C        O  768   2.253   3.448   1.937
    1C        C  769   4.680   3.587   5.076
    1C        O  770   4.643   3.590   5.196
    1C        O  771   4.819   3.600   5.067
    1C        C  772   4.252   4.419   5.077
    1C        O  773   4.221   4.349   5.178
    1C        O  774   4.389   4.444   5.072
    1C        C  775   4.143   2.542   5.093
    1C        O  776   4.222   2.445   5.075
    1C        O  777   4.094   2.535   5.224
    1C        C  778   2.869   4.549   5.044
    1C        O  779   2.818   4.652   4.992
    1C        O  780   2.906   4.554   5.179
    1C        C  781   2.471   3.044   5.078
    1C        O  782   2.391   2.951   5.048
    1C        O  783   2.512   3.005   5.205
    1C        C  784   2.407   4.002   5.047
    1C        O  785   2.301   4.064   5.018
    1C        O  786   2.421   3.970   5.182
    1C        C  787   2.954   2.445   1.986
    1C        O  788   2.950   2.486   1.867
    1C        O  789   2.883   2.326   1.999
    1C        C  790   3.191   2.383   5.073
    1C        O  791   3.136   2.273   5.042
    1C        O  792   3.168   2.396   5.211
    1C        H  793   4.314   3.005   5.070
    1C        H  794   4.152   2.831   5.062
    1C        H  795   4.505   3.130   5.055
    1C        H  796   4.491   3.388   5.064
    1C        H  797   4.604   3.824   5.026
    1C        H  798   4.430   3.983   5.059
    1C        H  799   4.286   4.157   5.054
    1C        H  800   4.044   4.554   5.019
    1C        H  801   3.824   4.590   5.043
    1C        H  802   3.594   4.666   5.026
    1C        H  803   3.408   4.474   5.037
    1C        H  804   3.168   4.479   5.060
    1C        H  805   3.885   2.526   5.077
    1C        H  806   3.677   2.458   5.082
    1C        H  807   2.988   2.530   5.043
    1C        H  808   3.451   2.500   5.082
    1C        H  809   2.867   2.734   5.085
    1C        H  810   2.735   2.930   5.082
    1C        H  811   2.562   3.306   5.076
    1C        H  812   2.493   3.512   5.074
    1C        H  813   2.546   3.736   5.073
    1C        H  814   2.597   4.179   5.052
    1C        H  815   2.752   4.337   5.052
    1C        H  816   2.680   2.846   1.988
    1C        H  817   2.806   2.661   1.997
    1C        H  818   3.217   2.446   1.990
    1C        H  819   3.445   2.489   1.991
    1C        H  820   3.861   2.514   1.972
    1C        H  821   4.074   2.611   1.973
    1C        H  822   4.283   2.706   1.984
    1C        H  823   4.403   2.908   1.971
    1C        H  824   4.572   3.314   1.967
    1C        H  825   4.505   3.517   1.962
    1C        H  826   4.573   3.749   1.981
    1C        H  827   3.809   4.536   1.954
    1C        H  828   3.945   4.340   1.958
    1C        H  829   4.167   4.269   1.946
    1C        H  830   4.502   3.963   1.967
    1C        H  831   2.698   3.823   2.010
    1C        H  832   2.666   4.077   1.967
    1C        H  833   2.709   4.336   1.990
    1C        H  834   3.375   4.503   1.952
    1C        H  835   3.157   4.400   1.954
    1C        H  836   2.506   3.006   2.001
    1C        H  837   2.486   3.247   1.978
    1C        H  838   2.508   3.685   1.968
    2V3OU   H29  839   2.814   3.545   1.987
    2V3OU   C27  840   2.789   3.506   2.089
    2V3OU   H27  841   2.731   3.573   2.158
    2V3OU   H28  842   2.735   3.408   2.077
    2V3OU   O11  843   2.911   3.482   2.159
    2V3OU   C15  844   2.925   3.401   2.270
    2V3OU   C13  845   3.053   3.381   2.327
    2V3OU   C14  846   3.078   3.274   2.412
    2V3OU   C16  847   2.977   3.190   2.460
    2V3OU    H6  848   2.998   3.100   2.519
    2V3OU   C12  849   3.216   3.234   2.449
    2V3OU    O2  850   3.235   3.125   2.508
    2V3OU   C10  851   3.332   3.312   2.405
    2V3OU    C8  852   3.461   3.275   2.440
    2V3OU   O10  853   3.494   3.161   2.506
    2V3OU   H26  854   3.409   3.123   2.534
    2V3OU    C6  855   3.570   3.355   2.393
    2V3OU    C5  856   3.543   3.472   2.322
    2V3OU    C4  857   3.708   3.299   2.395
    2V3OU    H4  858   3.724   3.235   2.486
    2V3OU    H5  859   3.713   3.232   2.304
    2V3OU    C2  860   3.819   3.404   2.387
    2V3OU    O6  861   3.815   3.481   2.508
    2V3OU   H21  862   3.764   3.562   2.494
    2V3OU    C3  863   3.788   3.499   2.272
    2V3OU    H2  864   3.870   3.574   2.264
    2V3OU    H3  865   3.787   3.439   2.177
    2V3OU   C25  866   3.953   3.332   2.375
    2V3OU    O7  867   4.003   3.298   2.268
    2V3OU   C26  868   4.036   3.297   2.498
    2V3OU   H22  869   4.076   3.389   2.548
    2V3OU   H23  870   4.121   3.232   2.468
    2V3OU    O8  871   3.969   3.213   2.589
    2V3OU   H24  872   3.933   3.272   2.658
    2V3OU    C1  873   3.653   3.568   2.290
    2V3OU    H1  874   3.629   3.622   2.194
    2V3OU    O3  875   3.658   3.657   2.402
    2V3OU   C19  876   3.625   3.796   2.397
    2V3OU    H9  877   3.527   3.804   2.341
    2V3OU    O4  878   3.720   3.856   2.312
    2V3OU   C20  879   3.849   3.878   2.369
    2V3OU   H10  880   3.895   3.776   2.382
    2V3OU   C24  881   3.616   3.855   2.538
    2V3OU   H16  882   3.551   3.788   2.601
    2V3OU   H17  883   3.564   3.953   2.523
    2V3OU   C23  884   3.752   3.885   2.601
    2V3OU   H15  885   3.797   3.786   2.635
    2V3OU    N1  886   3.744   3.965   2.722
    2V3OU   H19  887   3.817   3.931   2.782
    2V3OU   H20  888   3.657   3.945   2.767
    2V3OU   C21  889   3.856   3.949   2.504
    2V3OU   H11  890   3.958   3.930   2.549
    2V3OU    O5  891   3.836   4.090   2.508
    2V3OU   H18  892   3.781   4.102   2.587
    2V3OU   C22  893   3.915   3.951   2.253
    2V3OU   H12  894   3.857   4.044   2.231
    2V3OU   H13  895   3.907   3.890   2.160
    2V3OU   H14  896   4.024   3.966   2.275
    2V3OU   C11  897   3.164   3.474   2.303
    2V3OU    O1  898   3.145   3.588   2.255
    2V3OU    C9  899   3.303   3.428   2.327
    2V3OU    C7  900   3.409   3.507   2.286
    2V3OU    O9  901   3.392   3.627   2.220
    2V3OU   H25  902   3.296   3.629   2.203
    2V3OU   C17  903   2.829   3.310   2.317
    2V3OU    H7  904   2.728   3.346   2.294
    2V3OU   C18  905   2.848   3.212   2.414
    2V3OU    H8  906   2.773   3.168   2.481
    3SOL     OW  907   2.817   5.064   0.893
    3SOL    HW1  908   2.754   5.134   0.860
    3SOL    HW2  909   2.895   5.107   0.938
    4SOL     OW  910   6.596   6.229   1.682
    4SOL    HW1  911   6.587   6.305   1.746
    4SOL    HW2  912   6.526   6.236   1.611
    5SOL     OW  913   4.694   1.550   2.804
    5SOL    HW1  914   4.661   1.512   2.890
    5SOL    HW2  915   4.774   1.498   2.773
    6SOL     OW  916   4.105   0.858   0.755
    6SOL    HW1  917   4.181   0.807   0.797
    6SOL    HW2  918   4.105   0.843   0.656
    7SOL     OW  919   6.798   3.646   2.121
    7SOL    HW1  920   6.872   3.645   2.055
    7SOL    HW2  921   6.815   3.578   2.193
    8SOL     OW  922   2.845   0.291   6.934
    8SOL    HW1  923   2.781   0.279   7.010
    8SOL    HW2  924   2.912   0.361   6.957
    9SOL     OW  925   6.349   6.760   6.279
    9SOL    HW1  926   6.312   6.825   6.213
    9SOL    HW2  927   6.275   6.721   6.334
   10SOL     OW  928   1.826   5.032   6.479
   10SOL    HW1  929   1.806   5.081   6.394
   10SOL    HW2  930   1.915   4.987   6.472
   11SOL     OW  931   2.519   0.385   6.149
   11SOL    HW1  932   2.586   0.323   6.110
   11SOL    HW2  933   2.506   0.464   6.088
   12SOL     OW  934   4.079   6.409   3.569
   12SOL    HW1  935   4.138   6.459   3.632
   12SOL    HW2  936   4.117   6.413   3.477
   13SOL     OW  937   3.962   5.586   3.855
   13SOL    HW1  938   3.978   5.682   3.880
   13SOL    HW2  939   3.958   5.531   3.939
   14SOL     OW  940   3.762   5.567   6.028
   14SOL    HW1  941   3.794   5.657   5.998
   14SOL    HW2  942   3.773   5.501   5.954
   15SOL     OW  943   1.698   6.510   1.454
   15SOL    HW1  944   1.764   6.497   1.381
   15SOL    HW2  945   1.743   6.500   1.543
   16SOL     OW  946   5.233   2.903   5.630
   16SOL    HW1  947   5.152   2.854   5.662
   16SOL    HW2  948   5.226   3.000   5.656
   17SOL     OW  949   5.287   5.700   5.837
   17SOL    HW1  950   5.371   5.661   5.798
   17SOL    HW2  951   5.301   5.798   5.853
   18SOL     OW  952   3.340   0.673   6.002
   18SOL    HW1  953   3.402   0.616   5.949
   18SOL    HW2  954   3.342   0.645   6.098
   19SOL     OW  955   0.684   0.165   3.355
   19SOL    HW1  956   0.643   0.220   3.282
   19SOL    HW2  957   0.766   0.119   3.321
   20SOL     OW  958   5.331   2.462   4.991
   20SOL    HW1  959   5.368   2.436   5.080
   20SOL    HW2  960   5.406   2.493   4.932
   21SOL     OW  961   3.840   2.166   2.673
   21SOL    HW1  962   3.808   2.101   2.604
   21SOL    HW2  963   3.936   2.188   2.658
   22SOL     OW  964   2.031   6.028   0.475
   22SOL    HW1  965   1.969   6.068   0.406
   22SOL    HW2  966   2.117   6.080   0.475
   23SOL     OW  967   5.437   6.276   3.167
   23SOL    HW1  968   5.484   6.189   3.184
   23SOL    HW2  969   5.502   6.351   3.173
   24SOL     OW  970   4.623   1.371   3.012
   24SOL    HW1  971   4.705   1.381   3.069
   24SOL    HW2  972   4.544   1.407   3.060
   25SOL     OW  973   3.211   0.251   5.031
   25SOL    HW1  974   3.203   0.350   5.019
   25SOL    HW2  975   3.120   0.212   5.044
   26SOL     OW  976   6.628   0.671   0.186
   26SOL    HW1  977   6.571   0.664   0.105
   26SOL    HW2  978   6.660   0.766   0.196
   27SOL     OW  979   1.200   2.234   2.154
   27SOL    HW1  980   1.165   2.274   2.238
   27SOL    HW2  981   1.237   2.144   2.173
   28SOL     OW  982   3.178   2.017   5.880
   28SOL    HW1  983   3.180   2.062   5.792
   28SOL    HW2  984   3.085   1.986   5.901
   29SOL     OW  985   4.778   2.244   1.992
   29SOL    HW1  986   4.789   2.292   2.080
   29SOL    HW2  987   4.731   2.304   1.927
   30SOL     OW  988   3.415   1.196   4.550
   30SOL    HW1  989   3.460   1.279   4.581
   30SOL    HW2  990   3.451   1.117   4.601
   31SOL     OW  991   1.362   2.800   6.473
   31SOL    HW1  992   1.441   2.828   6.418
   31SOL    HW2  993   1.377   2.707   6.506
   32SOL     OW  994   0.416   1.558   2.831
   32SOL    HW1  995   0.327   1.544   2.874
   32SOL    HW2  996   0.430   1.488   2.760
   33SOL     OW  997   2.204   4.175   6.720
   33SOL    HW1  998   2.108   4.179   6.749
   33SOL    HW2  999   2.208   4.153   6.623
   34SOL     OW 1000   2.653   0.786   4.428
   34SOL    HW1 1001   2.719   0.832   4.369
   34SOL    HW2 1002   2.562   0.827   4.415
   35SOL     OW 1003   2.898   3.793   0.046
   35SOL    HW1 1004   2.803   3.784   0.074
   35SOL    HW2 1005   2.910   3.758   6.983
   36SOL     OW 1006   6.301   0.925   4.812
   36SOL    HW1 1007   6.263   0.986   4.881
   36SOL    HW2 1008   6.365   0.975   4.754
   37SOL     OW 1009   0.898   1.370   0.656
   37SOL    HW1 1010   0.959   1.379   0.577
   37SOL    HW2 1011   0.833   1.296   0.639
   38SOL     OW 1012   6.824   4.350   2.762
   38SOL    HW1 1013   6.868   4.321   2.677
   38SOL    HW2 1014   6.891   4.390   2.823
   39SOL     OW 1015   0.208   4.806   6.861
   39SOL    HW1 1016   0.168   4.856   6.938
   39SOL    HW2 1017   0.138   4.786   6.794
   40SOL     OW 1018   5.307   1.807   0.856
   40SOL    HW1 1019   5.377   1.760   0.803
   40SOL    HW2 1020   5.237   1.742   0.885
   41SOL     OW 1021   0.065   5.921   3.796
   41SOL    HW1 1022   7.010   5.904   3.847
   41SOL    HW2 1023   0.047   5.985   3.721
   42SOL     OW 1024   2.869   5.158   5.436
   42SOL    HW1 1025   2.826   5.217   5.368
   42SOL    HW2 1026   2.817   5.073   5.445
   43SOL     OW 1027   6.002   6.239   5.377
   43SOL    HW1 1028   5.917   6.289   5.360
   43SOL    HW2 1029   5.989   6.143   5.353
   44SOL     OW 1030   5.048   1.633   6.436
   44SOL    HW1 1031   5.139   1.595   6.454
   44SOL    HW2 1032   4.979   1.578   6.482
   45SOL     OW 1033   4.545   6.320   3.051
   45SOL    HW1 1034   4.450   6.305   3.025
   45SOL    HW2 1035   4.578   6.406   3.011
   46SOL     OW 1036   0.742   2.857   3.075
   46SOL    HW1 1037   0.739   2.773   3.130
   46SOL    HW2 1038   0.652   2.901   3.076
   47SOL     OW 1039   4.983   4.337   0.630
   47SOL    HW1 1040   5.053   4.375   0.691
   47SOL    HW2 1041   5.024   4.265   0.573
   48SOL     OW 1042   0.027   2.714   5.449
   48SOL    HW1 1043   0.107   2.694   5.506
   48SOL    HW2 1044   6.992   2.769   5.501
   49SOL     OW 1045   5.337   3.979   1.549
   49SOL    HW1 1046   5.301   3.886   1.546
   49SOL    HW2 1047   5.379   3.996   1.639
   50SOL     OW 1048   5.629   0.821   4.702
   50SOL    HW1 1049   5.563   0.797   4.631
   50SOL    HW2 1050   5.712   0.767   4.690
   51SOL     OW 1051   2.813   6.658   3.359
   51SOL    HW1 1052   2.826   6.757   3.348
   51SOL    HW2 1053   2.725   6.632   3.319
   52SOL     OW 1054   5.707   2.049   3.149
   52SOL    HW1 1055   5.684   2.142   3.176
   52SOL    HW2 1056   5.763   2.051   3.066
   53SOL     OW 1057   3.469   6.689   4.609
   53SOL    HW1 1058   3.536   6.741   4.557
   53SOL    HW2 1059   3.459   6.598   4.568
   54SOL     OW 1060   3.645   5.328   1.037
   54SOL    HW1 1061   3.744   5.325   1.051
   54SOL    HW2 1062   3.604   5.244   1.072
   55SOL     OW 1063   2.849   2.445   6.622
   55SOL    HW1 1064   2.910   2.371   6.595
   55SOL    HW2 1065   2.815   2.491   6.540
   56SOL     OW 1066   0.038   6.897   1.226
   56SOL    HW1 1067   0.045   6.973   1.162
   56SOL    HW2 1068   0.123   6.890   1.279
   57SOL     OW 1069   5.083   1.386   0.902
   57SOL    HW1 1070   5.097   1.382   0.803
   57SOL    HW2 1071   5.170   1.373   0.949
   58SOL     OW 1072   6.520   6.430   5.549
   58SOL    HW1 1073   6.446   6.438   5.616
   58SOL    HW2 1074   6.522   6.336   5.514
   59SOL     OW 1075   1.030   1.661   5.190
   59SOL    HW1 1076   1.020   1.753   5.152
   59SOL    HW2 1077   1.115   1.656   5.242
   60SOL     OW 1078   5.298   2.118   5.952
   60SOL    HW1 1079   5.394   2.115   5.922
   60SOL    HW2 1080   5.265   2.025   5.964
   61SOL     OW 1081   5.470   2.387   5.209
   61SOL    HW1 1082   5.479   2.407   5.306
   61SOL    HW2 1083   5.561   2.375   5.169
   62SOL     OW 1084   0.830   1.047   1.553
   62SOL    HW1 1085   0.803   1.085   1.464
   62SOL    HW2 1086   0.845   0.949   1.544
   63SOL     OW 1087   5.109   1.461   3.361
   63SOL    HW1 1088   5.057   1.376   3.369
   63SOL    HW2 1089   5.207   1.440   3.365
   64SOL     OW 1090   0.094   3.459   5.471
   64SOL    HW1 1091   0.120   3.386   5.408
   64SOL    HW2 1092   0.167   3.475   5.538
   65SOL     OW 1093   0.603   5.095   6.475
   65SOL    HW1 1094   0.653   5.018   6.437
   65SOL    HW2 1095   0.562   5.069   6.562
   66SOL     OW 1096   3.990   1.019   5.670
   66SOL    HW1 1097   4.052   1.097   5.665
   66SOL    HW2 1098   3.920   1.028   5.599
   67SOL     OW 1099   5.216   4.178   6.080
   67SOL    HW1 1100   5.143   4.244   6.096
   67SOL    HW2 1101   5.303   4.217   6.108
   68SOL     OW 1102   5.850   1.247   6.501
   68SOL    HW1 1103   5.805   1.310   6.565
   68SOL    HW2 1104   5.924   1.199   6.548
   69SOL     OW 1105   0.702   3.347   5.810
   69SOL    HW1 1106   0.694   3.440   5.775
   69SOL    HW2 1107   0.668   3.344   5.904
   70SOL     OW 1108   5.576   3.822   5.031
   70SOL    HW1 1109   5.636   3.744   5.013
   70SOL    HW2 1110   5.482   3.799   5.005
   71SOL     OW 1111   4.325   1.879   3.099
   71SOL    HW1 1112   4.304   1.968   3.059
   71SOL    HW2 1113   4.354   1.891   3.194
   72SOL     OW 1114   1.963   6.211   4.234
   72SOL    HW1 1115   1.880   6.210   4.290
   72SOL    HW2 1116   1.955   6.143   4.161
   73SOL     OW 1117   3.294   0.847   1.302
   73SOL    HW1 1118   3.372   0.907   1.286
   73SOL    HW2 1119   3.210   0.892   1.271
   74SOL     OW 1120   4.912   6.962   6.966
   74SOL    HW1 1121   4.865   6.970   6.878
   74SOL    HW2 1122   4.960   6.874   6.970
   75SOL     OW 1123   4.234   0.681   0.981
   75SOL    HW1 1124   4.202   0.743   1.052
   75SOL    HW2 1125   4.318   0.635   1.013
   76SOL     OW 1126   3.529   3.358   0.665
   76SOL    HW1 1127   3.444   3.389   0.707
   76SOL    HW2 1128   3.539   3.259   0.679
   77SOL     OW 1129   6.644   0.109   3.534
   77SOL    HW1 1130   6.701   0.038   3.576
   77SOL    HW2 1131   6.665   0.197   3.575
   78SOL     OW 1132   5.821   1.856   0.131
   78SOL    HW1 1133   5.794   1.920   0.204
   78SOL    HW2 1134   5.907   1.888   0.090
   79SOL     OW 1135   3.159   6.290   0.741
   79SOL    HW1 1136   3.224   6.227   0.699
   79SOL    HW2 1137   3.199   6.381   0.745
   80SOL     OW 1138   5.661   1.068   4.773
   80SOL    HW1 1139   5.634   0.973   4.760
   80SOL    HW2 1140   5.716   1.099   4.695
   81SOL     OW 1141   1.727   6.940   2.718
   81SOL    HW1 1142   1.661   6.990   2.775
   81SOL    HW2 1143   1.721   6.842   2.738
   82SOL     OW 1144   5.984   4.783   1.092
   82SOL    HW1 1145   5.955   4.723   1.166
   82SOL    HW2 1146   6.050   4.735   1.035
   83SOL     OW 1147   0.744   0.785   0.150
   83SOL    HW1 1148   0.658   0.786   0.201
   83SOL    HW2 1149   0.793   0.701   0.171
   84SOL     OW 1150   5.715   2.270   3.304
   84SOL    HW1 1151   5.785   2.340   3.298
   84SOL    HW2 1152   5.687   2.258   3.399
   85SOL     OW 1153   1.783   1.093   4.075
   85SOL    HW1 1154   1.807   0.997   4.058
   85SOL    HW2 1155   1.828   1.151   4.007
   86SOL     OW 1156   6.652   0.966   4.845
   86SOL    HW1 1157   6.638   1.045   4.785
   86SOL    HW2 1158   6.617   0.986   4.936
   87SOL     OW 1159   4.704   3.442   0.660
   87SOL    HW1 1160   4.785   3.499   0.675
   87SOL    HW2 1161   4.630   3.471   0.720
   88SOL     OW 1162   3.250   1.874   5.320
   88SOL    HW1 1163   3.247   1.819   5.236
   88SOL    HW2 1164   3.344   1.882   5.351
   89SOL     OW 1165   1.310   2.578   5.780
   89SOL    HW1 1166   1.294   2.479   5.773
   89SOL    HW2 1167   1.409   2.595   5.782
   90SOL     OW 1168   3.639   5.125   2.384
   90SOL    HW1 1169   3.608   5.198   2.323
   90SOL    HW2 1170   3.568   5.055   2.390
   91SOL     OW 1171   5.186   4.441   5.356
   91SOL    HW1 1172   5.237   4.384   5.421
   91SOL    HW2 1173   5.088   4.422   5.365
   92SOL     OW 1174   3.866   4.678   0.480
   92SOL    HW1 1175   3.813   4.627   0.413
   92SOL    HW2 1176   3.895   4.765   0.442
   93SOL     OW 1177   3.041   4.044   6.726
   93SOL    HW1 1178   3.071   4.039   6.821
   93SOL    HW2 1179   2.958   4.098   6.720
   94SOL     OW 1180   1.897   5.800   6.799
   94SOL    HW1 1181   1.939   5.759   6.880
   94SOL    HW2 1182   1.816   5.748   6.773
   95SOL     OW 1183   1.521   0.524   3.695
   95SOL    HW1 1184   1.427   0.495   3.707
   95SOL    HW2 1185   1.574   0.501   3.777
   96SOL     OW 1186   3.400   0.448   5.213
   96SOL    HW1 1187   3.356   0.413   5.296
   96SOL    HW2 1188   3.330   0.471   5.145
   97SOL     OW 1189   2.270   3.453   5.794
   97SOL    HW1 1190   2.257   3.356   5.813
   97SOL    HW2 1191   2.235   3.475   5.702
   98SOL     OW 1192   0.331   3.893   0.837
   98SOL    HW1 1193   0.286   3.945   0.910
   98SOL    HW2 1194   0.277   3.899   0.753
   99SOL     OW 1195   3.710   2.996   0.818
   99SOL    HW1 1196   3.802   3.034   0.811
   99SOL    HW2 1197   3.674   3.016   0.909
  100SOL     OW 1198   6.929   6.847   4.927
  100SOL    HW1 1199   6.854   6.903   4.961
  100SOL    HW2 1200   6.894   6.780   4.861
  101SOL     OW 1201   1.594   4.915   1.955
  101SOL    HW1 1202   1.583   4.816   1.965
  101SOL    HW2 1203   1.638   4.935   1.867
  102SOL     OW 1204   4.046   5.535   2.513
  102SOL    HW1 1205   4.021   5.587   2.594
  102SOL    HW2 1206   3.983   5.458   2.502
  103SOL     OW 1207   2.333   1.732   1.774
  103SOL    HW1 1208   2.398   1.759   1.845
  103SOL    HW2 1209   2.302   1.638   1.791
  104SOL     OW 1210   0.914   5.504   2.402
  104SOL    HW1 1211   0.921   5.546   2.493
  104SOL    HW2 1212   0.836   5.543   2.354
  105SOL     OW 1213   6.551   2.264   6.392
  105SOL    HW1 1214   6.477   2.199   6.412
  105SOL    HW2 1215   6.639   2.216   6.395
  106SOL     OW 1216   3.386   6.251   4.817
  106SOL    HW1 1217   3.360   6.337   4.861
  106SOL    HW2 1218   3.360   6.253   4.721
  107SOL     OW 1219   1.960   1.615   1.436
  107SOL    HW1 1220   2.050   1.590   1.401
  107SOL    HW2 1221   1.968   1.645   1.531
  108SOL     OW 1222   2.652   5.828   5.635
  108SOL    HW1 1223   2.654   5.901   5.703
  108SOL    HW2 1224   2.639   5.740   5.680
  109SOL     OW 1225   6.802   0.099   1.608
  109SOL    HW1 1226   6.747   0.026   1.649
  109SOL    HW2 1227   6.842   0.067   1.522
  110SOL     OW 1228   3.563   6.019   4.768
  110SOL    HW1 1229   3.526   6.107   4.797
  110SOL    HW2 1230   3.520   5.991   4.683
  111SOL     OW 1231   1.983   1.039   4.754
  111SOL    HW1 1232   1.977   0.950   4.710
  111SOL    HW2 1233   2.078   1.057   4.780
  112SOL     OW 1234   3.567   6.622   6.754
  112SOL    HW1 1235   3.472   6.593   6.758
  112SOL    HW2 1236   3.627   6.544   6.774
  113SOL     OW 1237   0.324   5.805   3.478
  113SOL    HW1 1238   0.424   5.811   3.469
  113SOL    HW2 1239   0.301   5.786   3.574
  114SOL     OW 1240   0.719   0.049   1.861
  114SOL    HW1 1241   0.682   0.139   1.883
  114SOL    HW2 1242   0.698   0.026   1.766
  115SOL     OW 1243   4.181   1.715   2.932
  115SOL    HW1 1244   4.190   1.624   2.973
  115SOL    HW2 1245   4.254   1.774   2.967
  116SOL     OW 1246   5.707   5.412   1.654
  116SOL    HW1 1247   5.762   5.329   1.664
  116SOL    HW2 1248   5.767   5.492   1.653
  117SOL     OW 1249   1.832   1.870   0.519
  117SOL    HW1 1250   1.886   1.795   0.480
  117SOL    HW2 1251   1.843   1.871   0.618
  118SOL     OW 1252   1.584   0.781   2.669
  118SOL    HW1 1253   1.518   0.817   2.735
  118SOL    HW2 1254   1.582   0.681   2.670
  119SOL     OW 1255   0.570   0.587   6.811
  119SOL    HW1 1256   0.523   0.530   6.744
  119SOL    HW2 1257   0.510   0.603   6.889
  120SOL     OW 1258   5.849   6.788   6.747
  120SOL    HW1 1259   5.858   6.819   6.841
  120SOL    HW2 1260   5.903   6.846   6.687
  121SOL     OW 1261   1.004   3.770   6.036
  121SOL    HW1 1262   1.049   3.823   6.107
  121SOL    HW2 1263   1.052   3.782   5.949
  122SOL     OW 1264   1.869   3.228   5.549
  122SOL    HW1 1265   1.958   3.189   5.571
  122SOL    HW2 1266   1.871   3.266   5.457
  123SOL     OW 1267   0.709   1.399   2.934
  123SOL    HW1 1268   0.740   1.345   2.856
  123SOL    HW2 1269   0.691   1.493   2.904
  124SOL     OW 1270   4.095   2.941   0.508
  124SOL    HW1 1271   4.011   2.938   0.454
  124SOL    HW2 1272   4.099   2.861   0.568
  125SOL     OW 1273   3.121   1.852   0.656
  125SOL    HW1 1274   3.022   1.868   0.664
  125SOL    HW2 1275   3.170   1.928   0.699
  126SOL     OW 1276   1.756   4.387   0.935
  126SOL    HW1 1277   1.851   4.364   0.955
  126SOL    HW2 1278   1.744   4.487   0.940
  127SOL     OW 1279   0.741   5.496   0.285
  127SOL    HW1 1280   0.791   5.434   0.224
  127SOL    HW2 1281   0.663   5.534   0.236
  128SOL     OW 1282   5.322   2.281   1.431
  128SOL    HW1 1283   5.303   2.246   1.523
  128SOL    HW2 1284   5.240   2.269   1.374
  129SOL     OW 1285   1.996   3.291   6.413
  129SOL    HW1 1286   1.925   3.353   6.379
  129SOL    HW2 1287   2.007   3.214   6.349
  130SOL     OW 1288   1.197   1.954   4.523
  130SOL    HW1 1289   1.265   2.017   4.486
  130SOL    HW2 1290   1.238   1.901   4.597
  131SOL     OW 1291   5.375   1.399   3.314
  131SOL    HW1 1292   5.342   1.326   3.253
  131SOL    HW2 1293   5.474   1.409   3.303
  132SOL     OW 1294   2.786   2.944   1.171
  132SOL    HW1 1295   2.686   2.939   1.169
  132SOL    HW2 1296   2.821   2.887   1.246
  133SOL     OW 1297   5.231   0.248   4.268
  133SOL    HW1 1298   5.137   0.228   4.297
  133SOL    HW2 1299   5.265   0.173   4.212
  134SOL     OW 1300   6.539   0.612   2.753
  134SOL    HW1 1301   6.502   0.674   2.684
  134SOL    HW2 1302   6.639   0.610   2.746
  135SOL     OW 1303   5.438   3.776   3.629
  135SOL    HW1 1304   5.343   3.745   3.626
  135SOL    HW2 1305   5.472   3.772   3.723
  136SOL     OW 1306   2.776   4.107   5.965
  136SOL    HW1 1307   2.736   4.190   6.003
  136SOL    HW2 1308   2.759   4.030   6.027
  137SOL     OW 1309   5.691   2.178   3.844
  137SOL    HW1 1310   5.777   2.202   3.801
  137SOL    HW2 1311   5.689   2.079   3.863
  138SOL     OW 1312   1.069   4.235   2.163
  138SOL    HW1 1313   1.139   4.168   2.136
  138SOL    HW2 1314   1.104   4.290   2.239
  139SOL     OW 1315   1.697   0.072   5.077
  139SOL    HW1 1316   1.729   7.010   5.099
  139SOL    HW2 1317   1.673   0.077   4.980
  140SOL     OW 1318   1.325   6.209   3.041
  140SOL    HW1 1319   1.414   6.253   3.028
  140SOL    HW2 1320   1.271   6.216   2.957
  141SOL     OW 1321   0.215   2.421   5.387
  141SOL    HW1 1322   0.123   2.391   5.414
  141SOL    HW2 1323   0.275   2.421   5.467
  142SOL     OW 1324   0.997   3.680   1.538
  142SOL    HW1 1325   1.018   3.604   1.476
  142SOL    HW2 1326   0.910   3.721   1.511
  143SOL     OW 1327   5.999   4.624   0.780
  143SOL    HW1 1328   6.072   4.613   0.847
  143SOL    HW2 1329   5.940   4.543   0.780
  144SOL     OW 1330   1.354   5.168   5.944
  144SOL    HW1 1331   1.367   5.193   5.848
  144SOL    HW2 1332   1.423   5.213   6.000
  145SOL     OW 1333   6.872   5.691   0.279
  145SOL    HW1 1334   6.876   5.594   0.304
  145SOL    HW2 1335   6.797   5.735   0.327
  146SOL     OW 1336   4.801   0.487   5.971
  146SOL    HW1 1337   4.784   0.475   5.873
  146SOL    HW2 1338   4.818   0.398   6.013
  147SOL     OW 1339   5.673   3.620   6.936
  147SOL    HW1 1340   5.636   3.592   7.024
  147SOL    HW2 1341   5.773   3.631   6.944
  148SOL     OW 1342   6.813   5.674   6.849
  148SOL    HW1 1343   6.757   5.593   6.865
  148SOL    HW2 1344   6.779   5.724   6.769
  149SOL     OW 1345   3.660   2.118   3.958
  149SOL    HW1 1346   3.593   2.167   3.903
  149SOL    HW2 1347   3.721   2.066   3.898
  150SOL     OW 1348   5.865   6.725   0.816
  150SOL    HW1 1349   5.845   6.793   0.745
  150SOL    HW2 1350   5.964   6.714   0.823
  151SOL     OW 1351   2.902   2.754   0.958
  151SOL    HW1 1352   2.861   2.663   0.972
  151SOL    HW2 1353   2.854   2.821   1.015
  152SOL     OW 1354   0.687   0.720   1.584
  152SOL    HW1 1355   0.605   0.754   1.630
  152SOL    HW2 1356   0.753   0.690   1.653
  153SOL     OW 1357   2.659   0.819   2.474
  153SOL    HW1 1358   2.676   0.914   2.447
  153SOL    HW2 1359   2.714   0.797   2.554
  154SOL     OW 1360   0.301   2.477   1.959
  154SOL    HW1 1361   0.303   2.512   1.865
  154SOL    HW2 1362   0.395   2.463   1.991
  155SOL     OW 1363   0.310   1.605   3.692
  155SOL    HW1 1364   0.235   1.598   3.758
  155SOL    HW2 1365   0.301   1.689   3.640
  156SOL     OW 1366   7.012   1.813   0.576
  156SOL    HW1 1367   0.060   1.836   0.633
  156SOL    HW2 1368   6.930   1.803   0.633
  157SOL     OW 1369   5.480   3.711   1.836
  157SOL    HW1 1370   5.535   3.780   1.884
  157SOL    HW2 1371   5.384   3.725   1.856
  158SOL     OW 1372   2.138   4.689   2.518
  158SOL    HW1 1373   2.223   4.730   2.485
  158SOL    HW2 1374   2.157   4.601   2.561
  159SOL     OW 1375   4.919   4.147   2.448
  159SOL    HW1 1376   4.876   4.063   2.482
  159SOL    HW2 1377   4.857   4.192   2.384
  160SOL     OW 1378   5.121   5.306   1.154
  160SOL    HW1 1379   5.063   5.282   1.231
  160SOL    HW2 1380   5.150   5.402   1.162
  161SOL     OW 1381   1.880   5.953   4.036
  161SOL    HW1 1382   1.868   5.862   3.997
  161SOL    HW2 1383   1.955   6.000   3.991
  162SOL     OW 1384   3.891   6.031   0.062
  162SOL    HW1 1385   3.925   6.073   0.147
  162SOL    HW2 1386   3.968   5.990   0.013
  163SOL     OW 1387   6.014   5.464   0.735
  163SOL    HW1 1388   5.993   5.436   0.828
  163SOL    HW2 1389   6.016   5.564   0.729
  164SOL     OW 1390   6.870   4.542   1.479
  164SOL    HW1 1391   6.831   4.457   1.516
  164SOL    HW2 1392   6.845   4.551   1.383
  165SOL     OW 1393   4.971   3.138   1.274
  165SOL    HW1 1394   4.992   3.120   1.371
  165SOL    HW2 1395   4.873   3.158   1.265
  166SOL     OW 1396   0.535   3.985   2.731
  166SOL    HW1 1397   0.578   3.900   2.703
  166SOL    HW2 1398   0.605   4.048   2.765
  167SOL     OW 1399   5.046   2.897   6.925
  167SOL    HW1 1400   5.058   2.956   6.845
  167SOL    HW2 1401   5.055   2.952   7.008
  168SOL     OW 1402   3.016   3.283   1.302
  168SOL    HW1 1403   2.970   3.272   1.390
  168SOL    HW2 1404   3.067   3.200   1.280
  169SOL     OW 1405   5.119   1.885   1.870
  169SOL    HW1 1406   5.072   1.797   1.879
  169SOL    HW2 1407   5.216   1.873   1.890
  170SOL     OW 1408   0.866   0.676   2.757
  170SOL    HW1 1409   0.898   0.618   2.832
  170SOL    HW2 1410   0.770   0.701   2.774
  171SOL     OW 1411   3.213   4.850   6.304
  171SOL    HW1 1412   3.287   4.915   6.323
  171SOL    HW2 1413   3.138   4.866   6.369
  172SOL     OW 1414   6.642   1.503   2.886
  172SOL    HW1 1415   6.543   1.489   2.877
  172SOL    HW2 1416   6.682   1.426   2.936
  173SOL     OW 1417   5.581   1.570   4.144
  173SOL    HW1 1418   5.537   1.646   4.191
  173SOL    HW2 1419   5.679   1.586   4.139
  174SOL     OW 1420   3.893   5.013   3.296
  174SOL    HW1 1421   3.915   5.109   3.279
  174SOL    HW2 1422   3.970   4.969   3.342
  175SOL     OW 1423   3.049   0.285   1.644
  175SOL    HW1 1424   3.082   0.379   1.636
  175SOL    HW2 1425   3.042   0.244   1.553
  176SOL     OW 1426   0.717   4.537   0.495
  176SOL    HW1 1427   0.806   4.517   0.536
  176SOL    HW2 1428   0.673   4.612   0.544
  177SOL     OW 1429   5.360   3.002   2.692
  177SOL    HW1 1430   5.444   3.055   2.687
  177SOL    HW2 1431   5.299   3.029   2.617
  178SOL     OW 1432   2.306   3.038   6.401
  178SOL    HW1 1433   2.218   3.002   6.434
  178SOL    HW2 1434   2.296   3.136   6.382
  179SOL     OW 1435   3.861   1.318   5.645
  179SOL    HW1 1436   3.778   1.357   5.608
  179SOL    HW2 1437   3.848   1.220   5.662
  180SOL     OW 1438   2.245   6.683   6.844
  180SOL    HW1 1439   2.317   6.669   6.912
  180SOL    HW2 1440   2.191   6.599   6.834
  181SOL     OW 1441   3.099   3.117   6.124
  181SOL    HW1 1442   3.199   3.112   6.114
  181SOL    HW2 1443   3.076   3.185   6.194
  182SOL     OW 1444   3.658   1.736   5.537
  182SOL    HW1 1445   3.718   1.667   5.499
  182SOL    HW2 1446   3.590   1.692   5.596
  183SOL     OW 1447   4.178   2.248   3.604
  183SOL    HW1 1448   4.221   2.304   3.533
  183SOL    HW2 1449   4.247   2.214   3.667
  184SOL     OW 1450   1.257   6.217   4.622
  184SOL    HW1 1451   1.184   6.189   4.559
  184SOL    HW2 1452   1.227   6.297   4.674
  185SOL     OW 1453   0.919   1.315   6.034
  185SOL    HW1 1454   0.912   1.229   6.084
  185SOL    HW2 1455   0.891   1.301   5.939
  186SOL     OW 1456   5.999   0.311   4.144
  186SOL    HW1 1457   6.006   0.384   4.212
  186SOL    HW2 1458   6.035   0.226   4.183
  187SOL     OW 1459   4.537   0.074   2.294
  187SOL    HW1 1460   4.588   0.159   2.304
  187SOL    HW2 1461   4.450   0.093   2.248
  188SOL     OW 1462   0.914   2.037   3.749
  188SOL    HW1 1463   0.940   2.106   3.817
  188SOL    HW2 1464   0.962   2.055   3.664
  189SOL     OW 1465   2.103   5.441   1.599
  189SOL    HW1 1466   2.177   5.476   1.656
  189SOL    HW2 1467   2.015   5.466   1.640
  190SOL     OW 1468   5.101   2.321   4.913
  190SOL    HW1 1469   5.122   2.223   4.908
  190SOL    HW2 1470   5.165   2.365   4.977
  191SOL     OW 1471   6.019   0.333   6.889
  191SOL    HW1 1472   6.026   0.307   6.792
  191SOL    HW2 1473   5.989   0.255   6.942
  192SOL     OW 1474   1.394   5.536   1.783
  192SOL    HW1 1475   1.493   5.547   1.782
  192SOL    HW2 1476   1.357   5.564   1.872
  193SOL     OW 1477   4.221   3.563   5.449
  193SOL    HW1 1478   4.275   3.551   5.533
  193SOL    HW2 1479   4.280   3.547   5.370
  194SOL     OW 1480   3.970   0.931   2.943
  194SOL    HW1 1481   4.069   0.919   2.940
  194SOL    HW2 1482   3.930   0.901   2.856
  195SOL     OW 1483   2.032   0.403   5.206
  195SOL    HW1 1484   2.010   0.495   5.239
  195SOL    HW2 1485   1.949   0.360   5.171
  196SOL     OW 1486   2.679   0.618   0.872
  196SOL    HW1 1487   2.684   0.680   0.951
  196SOL    HW2 1488   2.765   0.622   0.821
  197SOL     OW 1489   2.726   0.143   1.314
  197SOL    HW1 1490   2.643   0.177   1.358
  197SOL    HW2 1491   2.717   0.046   1.294
  198SOL     OW 1492   4.973   0.681   1.929
  198SOL    HW1 1493   4.964   0.607   1.996
  198SOL    HW2 1494   4.882   0.711   1.901
  199SOL     OW 1495   6.762   1.518   3.686
  199SOL    HW1 1496   6.662   1.511   3.681
  199SOL    HW2 1497   6.797   1.558   3.602
  200SOL     OW 1498   1.228   4.591   1.559
  200SOL    HW1 1499   1.260   4.576   1.652
  200SOL    HW2 1500   1.159   4.663   1.558
  201SOL     OW 1501   6.604   0.064   5.579
  201SOL    HW1 1502   6.580   7.004   5.544
  201SOL    HW2 1503   6.681   0.101   5.527
  202SOL     OW 1504   4.529   1.503   6.735
  202SOL    HW1 1505   4.550   1.427   6.674
  202SOL    HW2 1506   4.472   1.470   6.810
  203SOL     OW 1507   5.376   2.103   5.424
  203SOL    HW1 1508   5.414   2.168   5.490
  203SOL    HW2 1509   5.387   2.010   5.459
  204SOL     OW 1510   0.581   0.645   5.205
  204SOL    HW1 1511   0.560   0.686   5.293
  204SOL    HW2 1512   0.542   0.699   5.132
  205SOL     OW 1513   0.764   1.525   2.688
  205SOL    HW1 1514   0.859   1.552   2.672
  205SOL    HW2 1515   0.754   1.427   2.668
  206SOL     OW 1516   0.690   4.346   0.923
  206SOL    HW1 1517   0.772   4.326   0.870
  206SOL    HW2 1518   0.619   4.279   0.899
  207SOL     OW 1519   6.224   1.748   3.437
  207SOL    HW1 1520   6.159   1.673   3.435
  207SOL    HW2 1521   6.223   1.791   3.527
  208SOL     OW 1522   6.023   3.271   5.062
  208SOL    HW1 1523   5.994   3.302   5.153
  208SOL    HW2 1524   6.054   3.349   5.009
  209SOL     OW 1525   0.843   5.015   3.728
  209SOL    HW1 1526   0.764   5.075   3.745
  209SOL    HW2 1527   0.843   4.985   3.633
  210SOL     OW 1528   4.161   2.265   0.677
  210SOL    HW1 1529   4.134   2.278   0.582
  210SOL    HW2 1530   4.170   2.354   0.722
  211SOL     OW 1531   2.232   6.423   2.644
  211SOL    HW1 1532   2.214   6.501   2.584
  211SOL    HW2 1533   2.152   6.406   2.702
  212SOL     OW 1534   1.248   3.952   1.710
  212SOL    HW1 1535   1.317   4.010   1.666
  212SOL    HW2 1536   1.180   4.010   1.757
  213SOL     OW 1537   3.415   0.889   0.581
  213SOL    HW1 1538   3.410   0.848   0.490
  213SOL    HW2 1539   3.351   0.966   0.586
  214SOL     OW 1540   4.431   4.664   1.593
  214SOL    HW1 1541   4.434   4.576   1.642
  214SOL    HW2 1542   4.356   4.719   1.628
  215SOL     OW 1543   2.250   4.212   0.904
  215SOL    HW1 1544   2.180   4.253   0.847
  215SOL    HW2 1545   2.340   4.231   0.866
  216SOL     OW 1546   2.106   6.132   3.942
  216SOL    HW1 1547   2.193   6.127   3.992
  216SOL    HW2 1548   2.063   6.221   3.960
  217SOL     OW 1549   0.942   1.827   4.121
  217SOL    HW1 1550   1.001   1.802   4.045
  217SOL    HW2 1551   0.846   1.822   4.093
  218SOL     OW 1552   0.227   3.690   4.371
  218SOL    HW1 1553   0.163   3.757   4.333
  218SOL    HW2 1554   0.217   3.686   4.470
  219SOL     OW 1555   4.506   0.153   6.402
  219SOL    HW1 1556   4.472   0.206   6.324
  219SOL    HW2 1557   4.435   0.150   6.473
  220SOL     OW 1558   3.234   6.862   1.380
  220SOL    HW1 1559   3.250   6.790   1.447
  220SOL    HW2 1560   3.203   6.945   1.427
  221SOL     OW 1561   6.931   3.582   0.828
  221SOL    HW1 1562   6.865   3.515   0.862
  221SOL    HW2 1563   7.007   3.590   0.893
  222SOL     OW 1564   1.827   4.906   5.683
  222SOL    HW1 1565   1.786   4.996   5.701
  222SOL    HW2 1566   1.837   4.857   5.770
  223SOL     OW 1567   5.799   3.392   6.674
  223SOL    HW1 1568   5.792   3.325   6.600
  223SOL    HW2 1569   5.717   3.449   6.675
  224SOL     OW 1570   1.898   1.409   4.234
  224SOL    HW1 1571   1.943   1.493   4.204
  224SOL    HW2 1572   1.810   1.431   4.277
  225SOL     OW 1573   3.950   3.806   6.334
  225SOL    HW1 1574   3.864   3.768   6.368
  225SOL    HW2 1575   3.944   3.906   6.330
  226SOL     OW 1576   2.007   1.534   5.709
  226SOL    HW1 1577   2.097   1.538   5.665
  226SOL    HW2 1578   2.001   1.450   5.763
  227SOL     OW 1579   1.648   3.641   2.147
  227SOL    HW1 1580   1.662   3.545   2.170
  227SOL    HW2 1581   1.713   3.698   2.198
  228SOL     OW 1582   3.191   6.585   3.949
  228SOL    HW1 1583   3.179   6.677   3.912
  228SOL    HW2 1584   3.126   6.571   4.024
  229SOL     OW 1585   6.067   6.302   0.085
  229SOL    HW1 1586   6.079   6.399   0.066
  229SOL    HW2 1587   5.980   6.288   0.132
  230SOL     OW 1588   3.396   5.181   3.727
  230SOL    HW1 1589   3.445   5.099   3.758
  230SOL    HW2 1590   3.384   5.243   3.805
  231SOL     OW 1591   6.371   2.099   6.143
  231SOL    HW1 1592   6.348   2.194   6.119
  231SOL    HW2 1593   6.376   2.044   6.060
  232SOL     OW 1594   0.511   3.423   6.660
  232SOL    HW1 1595   0.454   3.496   6.698
  232SOL    HW2 1596   0.491   3.337   6.707
  233SOL     OW 1597   3.080   1.636   2.760
  233SOL    HW1 1598   3.120   1.707   2.702
  233SOL    HW2 1599   3.148   1.605   2.827
  234SOL     OW 1600   5.420   0.465   5.664
  234SOL    HW1 1601   5.404   0.561   5.642
  234SOL    HW2 1602   5.333   0.419   5.679
  235SOL     OW 1603   3.380   2.557   1.433
  235SOL    HW1 1604   3.406   2.473   1.479
  235SOL    HW2 1605   3.455   2.622   1.436
  236SOL     OW 1606   5.146   3.331   6.322
  236SOL    HW1 1607   5.145   3.242   6.278
  236SOL    HW2 1608   5.196   3.396   6.265
  237SOL     OW 1609   6.039   4.326   1.681
  237SOL    HW1 1610   6.078   4.290   1.765
  237SOL    HW2 1611   6.100   4.394   1.641
  238SOL     OW 1612   5.168   2.354   0.364
  238SOL    HW1 1613   5.187   2.438   0.312
  238SOL    HW2 1614   5.250   2.297   0.367
  239SOL     OW 1615   0.703   5.317   6.989
  239SOL    HW1 1616   0.784   5.316   0.018
  239SOL    HW2 1617   0.719   5.258   6.910
  240SOL     OW 1618   6.785   2.446   3.341
  240SOL    HW1 1619   6.841   2.375   3.384
  240SOL    HW2 1620   6.843   2.523   3.314
  241SOL     OW 1621   2.565   1.519   5.422
  241SOL    HW1 1622   2.486   1.532   5.481
  241SOL    HW2 1623   2.557   1.578   5.342
  242SOL     OW 1624   3.455   3.616   4.238
  242SOL    HW1 1625   3.541   3.579   4.203
  242SOL    HW2 1626   3.455   3.610   4.338
  243SOL     OW 1627   3.928   0.549   6.195
  243SOL    HW1 1628   3.934   0.464   6.142
  243SOL    HW2 1629   3.929   0.627   6.133
  244SOL     OW 1630   6.071   2.858   4.935
  244SOL    HW1 1631   5.988   2.803   4.934
  244SOL    HW2 1632   6.083   2.899   5.025
  245SOL     OW 1633   5.757   3.745   4.181
  245SOL    HW1 1634   5.780   3.804   4.104
  245SOL    HW2 1635   5.816   3.765   4.258
  246SOL     OW 1636   4.570   2.605   3.853
  246SOL    HW1 1637   4.593   2.543   3.928
  246SOL    HW2 1638   4.515   2.556   3.785
  247SOL     OW 1639   3.008   1.979   1.736
  247SOL    HW1 1640   3.094   1.933   1.714
  247SOL    HW2 1641   3.022   2.044   1.810
  248SOL     OW 1642   3.581   1.535   2.417
  248SOL    HW1 1643   3.639   1.455   2.402
  248SOL    HW2 1644   3.519   1.517   2.494
  249SOL     OW 1645   4.197   0.444   4.987
  249SOL    HW1 1646   4.114   0.395   5.012
  249SOL    HW2 1647   4.181   0.496   4.903
  250SOL     OW 1648   4.930   2.823   0.921
  250SOL    HW1 1649   5.000   2.756   0.947
  250SOL    HW2 1650   4.962   2.915   0.943
  251SOL     OW 1651   4.449   4.163   5.920
  251SOL    HW1 1652   4.374   4.158   5.853
  251SOL    HW2 1653   4.491   4.073   5.931
  252SOL     OW 1654   6.246   5.765   0.179
  252SOL    HW1 1655   6.209   5.745   0.088
  252SOL    HW2 1656   6.269   5.862   0.184
  253SOL     OW 1657   2.637   5.793   6.703
  253SOL    HW1 1658   2.676   5.843   6.781
  253SOL    HW2 1659   2.623   5.697   6.728
  254SOL     OW 1660   5.503   3.055   3.543
  254SOL    HW1 1661   5.446   3.136   3.528
  254SOL    HW2 1662   5.472   3.007   3.625
  255SOL     OW 1663   1.371   3.654   5.168
  255SOL    HW1 1664   1.358   3.700   5.255
  255SOL    HW2 1665   1.343   3.714   5.093
  256SOL     OW 1666   6.561   3.761   6.322
  256SOL    HW1 1667   6.552   3.682   6.383
  256SOL    HW2 1668   6.583   3.842   6.376
  257SOL     OW 1669   4.654   0.218   3.422
  257SOL    HW1 1670   4.750   0.232   3.447
  257SOL    HW2 1671   4.623   0.294   3.365
  258SOL     OW 1672   2.068   5.057   5.057
  258SOL    HW1 1673   2.158   5.024   5.084
  258SOL    HW2 1674   2.011   4.979   5.029
  259SOL     OW 1675   0.625   1.975   2.043
  259SOL    HW1 1676   0.716   2.014   2.061
  259SOL    HW2 1677   0.632   1.910   1.967
  260SOL     OW 1678   4.585   0.824   0.983
  260SOL    HW1 1679   4.599   0.798   0.887
  260SOL    HW2 1680   4.642   0.904   1.004
  261SOL     OW 1681   6.730   3.407   0.846
  261SOL    HW1 1682   6.643   3.417   0.797
  261SOL    HW2 1683   6.746   3.310   0.867
  262SOL     OW 1684   0.271   3.918   0.503
  262SOL    HW1 1685   0.326   4.001   0.498
  262SOL    HW2 1686   0.232   3.898   0.413
  263SOL     OW 1687   1.885   0.887   3.309
  263SOL    HW1 1688   1.842   0.937   3.384
  263SOL    HW2 1689   1.984   0.892   3.318
  264SOL     OW 1690   6.019   3.040   6.389
  264SOL    HW1 1691   6.109   3.054   6.349
  264SOL    HW2 1692   5.959   3.116   6.364
  265SOL     OW 1693   5.340   5.811   2.453
  265SOL    HW1 1694   5.289   5.868   2.387
  265SOL    HW2 1695   5.283   5.735   2.482
  266SOL     OW 1696   3.066   2.939   5.264
  266SOL    HW1 1697   3.093   2.928   5.169
  266SOL    HW2 1698   3.144   2.970   5.318
  267SOL     OW 1699   0.469   1.258   6.546
  267SOL    HW1 1700   0.388   1.212   6.582
  267SOL    HW2 1701   0.539   1.263   6.617
  268SOL     OW 1702   3.656   0.797   5.931
  268SOL    HW1 1703   3.740   0.763   5.889
  268SOL    HW2 1704   3.627   0.735   6.003
  269SOL     OW 1705   0.906   3.602   2.076
  269SOL    HW1 1706   0.944   3.594   1.984
  269SOL    HW2 1707   0.963   3.551   2.141
  270SOL     OW 1708   0.667   0.073   0.569
  270SOL    HW1 1709   0.713   7.023   0.607
  270SOL    HW2 1710   0.734   0.138   0.534
  271SOL     OW 1711   0.815   1.399   6.828
  271SOL    HW1 1712   0.825   1.340   6.747
  271SOL    HW2 1713   0.825   1.494   6.801
  272SOL     OW 1714   3.416   5.449   4.391
  272SOL    HW1 1715   3.418   5.376   4.459
  272SOL    HW2 1716   3.501   5.502   4.394
  273SOL     OW 1717   1.887   4.351   4.890
  273SOL    HW1 1718   1.902   4.423   4.822
  273SOL    HW2 1719   1.848   4.391   4.973
  274SOL     OW 1720   4.277   2.072   3.302
  274SOL    HW1 1721   4.221   2.145   3.263
  274SOL    HW2 1722   4.339   2.110   3.370
  275SOL     OW 1723   5.785   4.166   5.253
  275SOL    HW1 1724   5.698   4.129   5.286
  275SOL    HW2 1725   5.771   4.260   5.221
  276SOL     OW 1726   0.589   6.371   2.443
  276SOL    HW1 1727   0.645   6.428   2.382
  276SOL    HW2 1728   0.615   6.387   2.538
  277SOL     OW 1729   1.131   4.094   0.963
  277SOL    HW1 1730   1.227   4.110   0.988
  277SOL    HW2 1731   1.111   3.996   0.970
  278SOL     OW 1732   6.149   5.039   2.211
  278SOL    HW1 1733   6.093   5.100   2.154
  278SOL    HW2 1734   6.127   5.053   2.307
  279SOL     OW 1735   6.836   2.881   4.355
  279SOL    HW1 1736   6.850   2.789   4.320
  279SOL    HW2 1737   6.887   2.946   4.299
  280SOL     OW 1738   2.920   0.016   3.124
  280SOL    HW1 1739   2.949   0.069   3.045
  280SOL    HW2 1740   3.001   7.021   3.178
  281SOL     OW 1741   2.608   4.753   2.449
  281SOL    HW1 1742   2.604   4.838   2.501
  281SOL    HW2 1743   2.645   4.771   2.358
  282SOL     OW 1744   3.154   1.898   5.573
  282SOL    HW1 1745   3.221   1.932   5.639
  282SOL    HW2 1746   3.194   1.899   5.481
  283SOL     OW 1747   6.297   1.682   6.665
  283SOL    HW1 1748   6.243   1.762   6.692
  283SOL    HW2 1749   6.370   1.710   6.602
  284SOL     OW 1750   1.608   3.834   3.851
  284SOL    HW1 1751   1.595   3.919   3.903
  284SOL    HW2 1752   1.616   3.757   3.913
  285SOL     OW 1753   5.887   4.352   5.639
  285SOL    HW1 1754   5.821   4.411   5.592
  285SOL    HW2 1755   5.979   4.390   5.628
  286SOL     OW 1756   3.921   6.049   5.315
  286SOL    HW1 1757   3.935   6.002   5.401
  286SOL    HW2 1758   3.869   5.991   5.253
  287SOL     OW 1759   0.381   4.583   6.862
  287SOL    HW1 1760   0.331   4.670   6.860
  287SOL    HW2 1761   0.479   4.600   6.867
  288SOL     OW 1762   3.896   1.763   6.142
  288SOL    HW1 1763   3.953   1.739   6.064
  288SOL    HW2 1764   3.814   1.812   6.111
  289SOL     OW 1765   6.917   4.430   4.815
  289SOL    HW1 1766   6.935   4.337   4.846
  289SOL    HW2 1767   6.910   4.432   4.715
  290SOL     OW 1768   6.160   1.865   4.502
  290SOL    HW1 1769   6.105   1.784   4.482
  290SOL    HW2 1770   6.253   1.851   4.467
  291SOL     OW 1771   1.625   2.454   4.694
  291SOL    HW1 1772   1.588   2.531   4.643
  291SOL    HW2 1773   1.559   2.378   4.692
  292SOL     OW 1774   1.482   1.775   3.146
  292SOL    HW1 1775   1.401   1.721   3.169
  292SOL    HW2 1776   1.472   1.811   3.053
  293SOL     OW 1777   4.210   4.798   1.676
  293SOL    HW1 1778   4.191   4.825   1.770
  293SOL    HW2 1779   4.125   4.768   1.632
  294SOL     OW 1780   0.076   5.435   6.368
  294SOL    HW1 1781   0.113   5.343   6.357
  294SOL    HW2 1782   0.133   5.487   6.431
  295SOL     OW 1783   3.187   1.970   4.453
  295SOL    HW1 1784   3.116   1.901   4.437
  295SOL    HW2 1785   3.238   1.986   4.369
  296SOL     OW 1786   4.514   1.778   2.742
  296SOL    HW1 1787   4.572   1.732   2.810
  296SOL    HW2 1788   4.435   1.720   2.722
  297SOL     OW 1789   2.116   4.570   2.903
  297SOL    HW1 1790   2.068   4.573   2.991
  297SOL    HW2 1791   2.209   4.535   2.917
  298SOL     OW 1792   4.089   6.387   0.903
  298SOL    HW1 1793   3.992   6.414   0.902
  298SOL    HW2 1794   4.132   6.423   0.986
  299SOL     OW 1795   4.272   4.052   6.398
  299SOL    HW1 1796   4.226   4.117   6.458
  299SOL    HW2 1797   4.302   4.099   6.315
  300SOL     OW 1798   6.124   0.902   1.356
  300SOL    HW1 1799   6.028   0.882   1.376
  300SOL    HW2 1800   6.129   0.981   1.294
  301SOL     OW 1801   5.212   3.383   1.548
  301SOL    HW1 1802   5.144   3.455   1.532
  301SOL    HW2 1803   5.189   3.332   1.630
  302SOL     OW 1804   1.110   0.486   3.577
  302SOL    HW1 1805   1.171   0.433   3.518
  302SOL    HW2 1806   1.018   0.447   3.573
  303SOL     OW 1807   6.021   6.910   1.328
  303SOL    HW1 1808   6.040   6.859   1.412
  303SOL    HW2 1809   6.092   6.889   1.260
  304SOL     OW 1810   2.767   0.502   4.033
  304SOL    HW1 1811   2.759   0.436   3.958
  304SOL    HW2 1812   2.680   0.551   4.043
  305SOL     OW 1813   0.547   3.091   0.109
  305SOL    HW1 1814   0.600   3.015   0.072
  305SOL    HW2 1815   0.589   3.123   0.193
  306SOL     OW 1816   2.505   0.832   3.695
  306SOL    HW1 1817   2.483   0.844   3.598
  306SOL    HW2 1818   2.440   0.883   3.751
  307SOL     OW 1819   4.970   0.071   0.301
  307SOL    HW1 1820   4.872   0.058   0.289
  307SOL    HW2 1821   4.994   0.165   0.276
  308SOL     OW 1822   5.553   3.257   5.132
  308SOL    HW1 1823   5.542   3.356   5.126
  308SOL    HW2 1824   5.622   3.236   5.202
  309SOL     OW 1825   3.112   5.042   6.903
  309SOL    HW1 1826   3.135   5.049   6.806
  309SOL    HW2 1827   3.020   5.078   6.918
  310SOL     OW 1828   6.144   6.686   4.903
  310SOL    HW1 1829   6.108   6.672   4.995
  310SOL    HW2 1830   6.228   6.633   4.891
  311SOL     OW 1831   5.532   4.472   2.239
  311SOL    HW1 1832   5.498   4.380   2.222
  311SOL    HW2 1833   5.632   4.471   2.242
  312SOL     OW 1834   4.166   1.650   5.638
  312SOL    HW1 1835   4.120   1.719   5.583
  312SOL    HW2 1836   4.140   1.558   5.607
  313SOL     OW 1837   3.494   4.195   1.931
  313SOL    HW1 1838   3.434   4.115   1.938
  313SOL    HW2 1839   3.564   4.189   2.002
  314SOL     OW 1840   3.624   5.068   6.942
  314SOL    HW1 1841   3.570   5.146   6.974
  314SOL    HW2 1842   3.604   4.988   6.999
  315SOL     OW 1843   1.629   2.662   3.454
  315SOL    HW1 1844   1.724   2.671   3.424
  315SOL    HW2 1845   1.612   2.725   3.529
  316SOL     OW 1846   3.138   1.302   3.975
  316SOL    HW1 1847   3.060   1.364   3.978
  316SOL    HW2 1848   3.223   1.354   3.982
  317SOL     OW 1849   0.581   0.377   0.855
  317SOL    HW1 1850   0.502   0.438   0.862
  317SOL    HW2 1851   0.664   0.431   0.840
  318SOL     OW 1852   1.612   6.320   0.082
  318SOL    HW1 1853   1.556   6.241   0.108
  318SOL    HW2 1854   1.630   6.317   7.014
  319SOL     OW 1855   6.757   0.670   3.943
  319SOL    HW1 1856   6.801   0.582   3.957
  319SOL    HW2 1857   6.810   0.724   3.877
  320SOL     OW 1858   5.936   2.292   0.437
  320SOL    HW1 1859   5.975   2.288   0.345
  320SOL    HW2 1860   5.837   2.310   0.430
  321SOL     OW 1861   4.058   1.417   0.877
  321SOL    HW1 1862   4.122   1.471   0.931
  321SOL    HW2 1863   4.093   1.323   0.870
  322SOL     OW 1864   3.600   4.165   4.410
  322SOL    HW1 1865   3.539   4.085   4.404
  322SOL    HW2 1866   3.545   4.246   4.430
  323SOL     OW 1867   0.965   3.314   6.308
  323SOL    HW1 1868   0.930   3.402   6.276
  323SOL    HW2 1869   0.922   3.292   6.396
  324SOL     OW 1870   2.577   2.016   4.151
  324SOL    HW1 1871   2.662   2.000   4.201
  324SOL    HW2 1872   2.587   1.983   4.057
  325SOL     OW 1873   1.121   2.959   1.644
  325SOL    HW1 1874   1.216   2.928   1.636
  325SOL    HW2 1875   1.060   2.887   1.609
  326SOL     OW 1876   1.133   5.063   0.128
  326SOL    HW1 1877   1.086   5.074   0.041
  326SOL    HW2 1878   1.065   5.056   0.202
  327SOL     OW 1879   1.205   5.449   3.740
  327SOL    HW1 1880   1.225   5.475   3.834
  327SOL    HW2 1881   1.247   5.361   3.719
  328SOL     OW 1882   1.450   6.233   1.579
  328SOL    HW1 1883   1.371   6.188   1.535
  328SOL    HW2 1884   1.443   6.332   1.566
  329SOL     OW 1885   3.827   4.082   4.275
  329SOL    HW1 1886   3.744   4.123   4.312
  329SOL    HW2 1887   3.884   4.048   4.349
  330SOL     OW 1888   2.867   0.176   1.007
  330SOL    HW1 1889   2.810   0.119   1.066
  330SOL    HW2 1890   2.809   0.229   0.945
  331SOL     OW 1891   3.539   5.911   0.399
  331SOL    HW1 1892   3.474   5.896   0.473
  331SOL    HW2 1893   3.606   5.837   0.397
  332SOL     OW 1894   2.819   1.661   4.571
  332SOL    HW1 1895   2.911   1.691   4.548
  332SOL    HW2 1896   2.819   1.562   4.587
  333SOL     OW 1897   3.619   6.608   6.480
  333SOL    HW1 1898   3.630   6.524   6.533
  333SOL    HW2 1899   3.581   6.679   6.539
  334SOL     OW 1900   2.815   0.419   1.451
  334SOL    HW1 1901   2.873   0.412   1.370
  334SOL    HW2 1902   2.802   0.328   1.491
  335SOL     OW 1903   3.671   0.120   4.273
  335SOL    HW1 1904   3.619   0.170   4.343
  335SOL    HW2 1905   3.613   0.051   4.232
  336SOL     OW 1906   2.270   0.973   3.832
  336SOL    HW1 1907   2.279   1.071   3.850
  336SOL    HW2 1908   2.249   0.959   3.735
  337SOL     OW 1909   0.108   3.123   0.165
  337SOL    HW1 1910   0.043   3.173   0.107
  337SOL    HW2 1911   0.163   3.189   0.216
  338SOL     OW 1912   3.194   2.988   1.602
  338SOL    HW1 1913   3.205   2.899   1.646
  338SOL    HW2 1914   3.097   3.012   1.597
  339SOL     OW 1915   3.049   6.640   4.606
  339SOL    HW1 1916   3.045   6.687   4.694
  339SOL    HW2 1917   3.026   6.544   4.617
  340SOL     OW 1918   4.932   4.470   5.881
  340SOL    HW1 1919   4.994   4.507   5.950
  340SOL    HW2 1920   4.842   4.453   5.922
  341SOL     OW 1921   6.797   0.752   4.454
  341SOL    HW1 1922   6.706   0.764   4.415
  341SOL    HW2 1923   6.866   0.763   4.383
  342SOL     OW 1924   6.102   3.844   0.065
  342SOL    HW1 1925   6.151   3.885   7.018
  342SOL    HW2 1926   6.123   3.895   0.148
  343SOL     OW 1927   1.921   5.395   0.709
  343SOL    HW1 1928   1.828   5.417   0.737
  343SOL    HW2 1929   1.976   5.479   0.706
  344SOL     OW 1930   1.183   4.903   2.098
  344SOL    HW1 1931   1.090   4.871   2.085
  344SOL    HW2 1932   1.243   4.858   2.033
  345SOL     OW 1933   5.989   0.915   4.547
  345SOL    HW1 1934   5.967   0.830   4.596
  345SOL    HW2 1935   6.044   0.974   4.605
  346SOL     OW 1936   2.046   0.711   3.043
  346SOL    HW1 1937   2.087   0.691   2.953
  346SOL    HW2 1938   1.950   0.736   3.031
  347SOL     OW 1939   3.112   5.493   6.082
  347SOL    HW1 1940   3.089   5.481   6.179
  347SOL    HW2 1941   3.195   5.547   6.074
  348SOL     OW 1942   5.433   5.084   1.666
  348SOL    HW1 1943   5.463   5.021   1.738
  348SOL    HW2 1944   5.432   5.177   1.701
  349SOL     OW 1945   6.996   4.300   0.910
  349SOL    HW1 1946   6.953   4.210   0.920
  349SOL    HW2 1947   7.006   4.341   1.001
  350SOL     OW 1948   3.802   2.737   0.761
  350SOL    HW1 1949   3.782   2.833   0.781
  350SOL    HW2 1950   3.740   2.678   0.813
  351SOL     OW 1951   2.053   2.846   0.311
  351SOL    HW1 1952   2.095   2.756   0.293
  351SOL    HW2 1953   2.010   2.880   0.228
  352SOL     OW 1954   3.410   0.196   4.808
  352SOL    HW1 1955   3.341   0.148   4.862
  352SOL    HW2 1956   3.501   0.174   4.844
  353SOL     OW 1957   2.713   6.882   0.581
  353SOL    HW1 1958   2.691   6.818   0.654
  353SOL    HW2 1959   2.666   6.969   0.598
  354SOL     OW 1960   3.311   2.774   0.003
  354SOL    HW1 1961   3.245   2.775   6.958
  354SOL    HW2 1962   3.279   2.713   0.075
  355SOL     OW 1963   0.001   2.999   2.723
  355SOL    HW1 1964   6.983   2.960   2.644
  355SOL    HW2 1965   0.015   3.097   2.708
  356SOL     OW 1966   3.691   6.273   5.358
  356SOL    HW1 1967   3.622   6.250   5.426
  356SOL    HW2 1968   3.767   6.208   5.364
  357SOL     OW 1969   6.587   6.621   5.254
  357SOL    HW1 1970   6.549   6.532   5.232
  357SOL    HW2 1971   6.543   6.657   5.337
  358SOL     OW 1972   5.358   0.158   1.901
  358SOL    HW1 1973   5.323   0.066   1.915
  358SOL    HW2 1974   5.292   0.225   1.935
  359SOL     OW 1975   1.245   2.433   1.973
  359SOL    HW1 1976   1.228   2.351   2.029
  359SOL    HW2 1977   1.265   2.510   2.033
  360SOL     OW 1978   1.269   5.933   6.435
  360SOL    HW1 1979   1.201   5.870   6.470
  360SOL    HW2 1980   1.268   5.930   6.335
  361SOL     OW 1981   5.701   5.992   3.207
  361SOL    HW1 1982   5.673   5.958   3.297
  361SOL    HW2 1983   5.778   6.056   3.218
  362SOL     OW 1984   3.690   4.235   1.135
  362SOL    HW1 1985   3.728   4.326   1.155
  362SOL    HW2 1986   3.591   4.240   1.138
  363SOL     OW 1987   5.058   4.392   3.942
  363SOL    HW1 1988   5.024   4.461   4.006
  363SOL    HW2 1989   4.981   4.338   3.908
  364SOL     OW 1990   6.742   5.812   6.068
  364SOL    HW1 1991   6.654   5.857   6.083
  364SOL    HW2 1992   6.811   5.854   6.126
  365SOL     OW 1993   5.464   4.744   2.014
  365SOL    HW1 1994   5.393   4.768   2.080
  365SOL    HW2 1995   5.486   4.646   2.022
  366SOL     OW 1996   6.330   0.747   0.070
  366SOL    HW1 1997   6.358   0.821   0.008
  366SOL    HW2 1998   6.394   0.671   0.061
  367SOL     OW 1999   4.978   3.077   0.991
  367SOL    HW1 2000   4.894   3.131   0.984
  367SOL    HW2 2001   5.020   3.093   1.081
  368SOL     OW 2002   0.444   3.606   4.833
  368SOL    HW1 2003   0.404   3.516   4.812
  368SOL    HW2 2004   0.536   3.594   4.870
  369SOL     OW 2005   6.869   5.072   1.715
  369SOL    HW1 2006   6.781   5.080   1.762
  369SOL    HW2 2007   6.944   5.090   1.780
  370SOL     OW 2008   3.038   1.638   5.571
  370SOL    HW1 2009   2.938   1.638   5.562
  370SOL    HW2 2010   3.071   1.732   5.566
  371SOL     OW 2011   2.623   3.576   6.738
  371SOL    HW1 2012   2.617   3.648   6.669
  371SOL    HW2 2013   2.533   3.535   6.752
  372SOL     OW 2014   0.450   0.145   5.459
  372SOL    HW1 2015   0.478   0.236   5.428
  372SOL    HW2 2016   0.376   0.153   5.525
  373SOL     OW 2017   6.653   6.080   5.165
  373SOL    HW1 2018   6.725   6.123   5.111
  373SOL    HW2 2019   6.639   5.986   5.132
  374SOL     OW 2020   3.032   1.365   2.231
  374SOL    HW1 2021   3.033   1.319   2.320
  374SOL    HW2 2022   3.084   1.311   2.165
  375SOL     OW 2023   1.341   4.323   3.099
  375SOL    HW1 2024   1.355   4.233   3.140
  375SOL    HW2 2025   1.262   4.319   3.038
  376SOL     OW 2026   1.831   2.003   4.734
  376SOL    HW1 2027   1.836   1.961   4.824
  376SOL    HW2 2028   1.916   1.985   4.684
  377SOL     OW 2029   7.007   3.102   1.995
  377SOL    HW1 2030   0.013   3.122   1.904
  377SOL    HW2 2031   6.930   3.039   1.988
  378SOL     OW 2032   3.571   2.787   5.436
  378SOL    HW1 2033   3.580   2.833   5.348
  378SOL    HW2 2034   3.632   2.831   5.502
  379SOL     OW 2035   6.138   4.026   1.378
  379SOL    HW1 2036   6.077   4.092   1.336
  379SOL    HW2 2037   6.227   4.068   1.394
  380SOL     OW 2038   2.841   1.688   1.594
  380SOL    HW1 2039   2.750   1.677   1.554
  380SOL    HW2 2040   2.832   1.702   1.693
  381SOL     OW 2041   1.664   4.325   2.713
  381SOL    HW1 2042   1.643   4.387   2.638
  381SOL    HW2 2043   1.703   4.376   2.789
  382SOL     OW 2044   5.749   6.348   5.837
  382SOL    HW1 2045   5.833   6.303   5.869
  382SOL    HW2 2046   5.720   6.307   5.751
  383SOL     OW 2047   5.600   3.302   5.863
  383SOL    HW1 2048   5.569   3.306   5.768
  383SOL    HW2 2049   5.686   3.351   5.872
  384SOL     OW 2050   6.464   4.663   4.215
  384SOL    HW1 2051   6.431   4.577   4.252
  384SOL    HW2 2052   6.556   4.651   4.179
  385SOL     OW 2053   4.425   6.350   6.216
  385SOL    HW1 2054   4.489   6.274   6.216
  385SOL    HW2 2055   4.332   6.316   6.228
  386SOL     OW 2056   3.282   6.426   5.632
  386SOL    HW1 2057   3.253   6.345   5.580
  386SOL    HW2 2058   3.364   6.465   5.591
  387SOL     OW 2059   6.819   6.677   2.954
  387SOL    HW1 2060   6.866   6.637   3.032
  387SOL    HW2 2061   6.870   6.657   2.870
  388SOL     OW 2062   1.010   2.496   3.933
  388SOL    HW1 2063   1.084   2.488   4.000
  388SOL    HW2 2064   0.927   2.453   3.968
  389SOL     OW 2065   4.233   4.129   1.664
  389SOL    HW1 2066   4.272   4.101   1.576
  389SOL    HW2 2067   4.304   4.173   1.719
  390SOL     OW 2068   3.927   1.333   0.015
  390SOL    HW1 2069   3.897   1.360   0.107
  390SOL    HW2 2070   3.963   1.413   6.997
  391SOL     OW 2071   2.240   4.049   5.357
  391SOL    HW1 2072   2.159   3.990   5.353
  391SOL    HW2 2073   2.297   4.033   5.277
  392SOL     OW 2074   1.825   3.655   1.798
  392SOL    HW1 2075   1.730   3.685   1.812
  392SOL    HW2 2076   1.832   3.609   1.710
  393SOL     OW 2077   1.378   5.166   0.579
  393SOL    HW1 2078   1.305   5.230   0.556
  393SOL    HW2 2079   1.459   5.185   0.525
  394SOL     OW 2080   0.823   2.823   0.046
  394SOL    HW1 2081   0.826   2.732   0.004
  394SOL    HW2 2082   0.880   2.886   7.023
  395SOL     OW 2083   5.263   4.447   2.848
  395SOL    HW1 2084   5.318   4.530   2.847
  395SOL    HW2 2085   5.244   4.421   2.943
  396SOL     OW 2086   2.414   2.811   1.885
  396SOL    HW1 2087   2.418   2.713   1.905
  396SOL    HW2 2088   2.346   2.854   1.943
  397SOL     OW 2089   5.444   2.015   6.676
  397SOL    HW1 2090   5.441   1.925   6.719
  397SOL    HW2 2091   5.537   2.033   6.643
  398SOL     OW 2092   1.589   5.984   3.648
  398SOL    HW1 2093   1.684   6.012   3.653
  398SOL    HW2 2094   1.534   6.043   3.707
  399SOL     OW 2095   5.722   6.531   4.335
  399SOL    HW1 2096   5.700   6.437   4.359
  399SOL    HW2 2097   5.646   6.591   4.362
  400SOL     OW 2098   6.217   6.420   5.276
  400SOL    HW1 2099   6.149   6.348   5.267
  400SOL    HW2 2100   6.305   6.381   5.303
  401SOL     OW 2101   5.550   6.992   6.283
  401SOL    HW1 2102   5.459   6.981   6.242
  401SOL    HW2 2103   5.609   6.917   6.254
  402SOL     OW 2104   6.159   6.673   3.132
  402SOL    HW1 2105   6.102   6.745   3.172
  402SOL    HW2 2106   6.101   6.596   3.106
  403SOL     OW 2107   3.733   0.481   5.765
  403SOL    HW1 2108   3.778   0.550   5.709
  403SOL    HW2 2109   3.767   0.488   5.859
  404SOL     OW 2110   1.990   5.170   5.578
  404SOL    HW1 2111   2.044   5.094   5.614
  404SOL    HW2 2112   1.977   5.157   5.480
  405SOL     OW 2113   2.137   3.848   3.276
  405SOL    HW1 2114   2.130   3.750   3.260
  405SOL    HW2 2115   2.156   3.865   3.373
  406SOL     OW 2116   0.509   4.562   4.461
  406SOL    HW1 2117   0.452   4.584   4.541
  406SOL    HW2 2118   0.452   4.560   4.379
  407SOL     OW 2119   2.126   2.102   4.398
  407SOL    HW1 2120   2.186   2.028   4.428
  407SOL    HW2 2121   2.092   2.151   4.478
  408SOL     OW 2122   3.276   2.112   3.032
  408SOL    HW1 2123   3.183   2.096   3.067
  408SOL    HW2 2124   3.284   2.074   2.940
  409SOL     OW 2125   6.808   3.194   1.657
  409SOL    HW1 2126   6.843   3.247   1.580
  409SOL    HW2 2127   6.850   3.103   1.657
  410SOL     OW 2128   1.286   2.232   1.215
  410SOL    HW1 2129   1.305   2.136   1.233
  410SOL    HW2 2130   1.198   2.257   1.256
  411SOL     OW 2131   6.296   1.025   1.505
  411SOL    HW1 2132   6.225   0.970   1.460
  411SOL    HW2 2133   6.342   1.082   1.437
  412SOL     OW 2134   3.298   4.983   3.051
  412SOL    HW1 2135   3.357   5.053   3.091
  412SOL    HW2 2136   3.241   5.025   2.980
  413SOL     OW 2137   4.646   4.435   1.429
  413SOL    HW1 2138   4.715   4.475   1.489
  413SOL    HW2 2139   4.606   4.355   1.473
  414SOL     OW 2140   3.594   0.029   3.852
  414SOL    HW1 2141   3.666   0.021   3.783
  414SOL    HW2 2142   3.616   7.001   3.931
  415SOL     OW 2143   0.448   0.824   6.878
  415SOL    HW1 2144   0.410   0.765   6.949
  415SOL    HW2 2145   0.509   0.771   6.819
  416SOL     OW 2146   5.108   5.220   5.000
  416SOL    HW1 2147   5.194   5.172   5.017
  416SOL    HW2 2148   5.105   5.304   5.053
  417SOL     OW 2149   2.104   1.216   6.864
  417SOL    HW1 2150   2.179   1.239   6.803
  417SOL    HW2 2151   2.035   1.288   6.861
  418SOL     OW 2152   2.530   6.786   5.648
  418SOL    HW1 2153   2.525   6.711   5.582
  418SOL    HW2 2154   2.619   6.832   5.639
  419SOL     OW 2155   0.376   6.845   3.460
  419SOL    HW1 2156   0.397   6.747   3.465
  419SOL    HW2 2157   0.460   6.896   3.443
  420SOL     OW 2158   5.543   1.275   6.182
  420SOL    HW1 2159   5.614   1.307   6.120
  420SOL    HW2 2160   5.554   1.177   6.199
  421SOL     OW 2161   5.822   3.681   5.389
  421SOL    HW1 2162   5.852   3.775   5.371
  421SOL    HW2 2163   5.899   3.628   5.424
  422SOL     OW 2164   5.379   2.920   0.646
  422SOL    HW1 2165   5.313   2.845   0.637
  422SOL    HW2 2166   5.343   3.001   0.601
  423SOL     OW 2167   2.696   1.407   6.980
  423SOL    HW1 2168   2.692   1.478   0.020
  423SOL    HW2 2169   2.771   1.344   7.000
  424SOL     OW 2170   1.875   4.964   3.031
  424SOL    HW1 2171   1.832   4.874   3.045
  424SOL    HW2 2172   1.958   4.970   3.086
  425SOL     OW 2173   5.124   1.056   4.588
  425SOL    HW1 2174   5.102   1.052   4.685
  425SOL    HW2 2175   5.192   1.128   4.572
  426SOL     OW 2176   2.414   2.722   4.953
  426SOL    HW1 2177   2.411   2.816   4.988
  426SOL    HW2 2178   2.407   2.658   5.030
  427SOL     OW 2179   5.408   0.462   3.501
  427SOL    HW1 2180   5.319   0.460   3.455
  427SOL    HW2 2181   5.481   0.471   3.433
  428SOL     OW 2182   3.301   0.290   3.012
  428SOL    HW1 2183   3.320   0.259   3.105
  428SOL    HW2 2184   3.384   0.327   2.971
  429SOL     OW 2185   0.672   5.101   3.934
  429SOL    HW1 2186   0.636   5.143   4.017
  429SOL    HW2 2187   0.673   5.002   3.944
  430SOL     OW 2188   1.677   6.830   3.470
  430SOL    HW1 2189   1.700   6.878   3.385
  430SOL    HW2 2190   1.641   6.740   3.449
  431SOL     OW 2191   2.499   2.063   0.555
  431SOL    HW1 2192   2.422   2.099   0.504
  431SOL    HW2 2193   2.536   2.133   0.615
  432SOL     OW 2194   6.270   1.922   0.484
  432SOL    HW1 2195   6.302   1.834   0.450
  432SOL    HW2 2196   6.170   1.922   0.488
  433SOL     OW 2197   2.735   6.080   5.756
  433SOL    HW1 2198   2.711   6.169   5.720
  433SOL    HW2 2199   2.828   6.056   5.727
  434SOL     OW 2200   4.399   5.774   4.330
  434SOL    HW1 2201   4.315   5.775   4.277
  434SOL    HW2 2202   4.384   5.725   4.416
  435SOL     OW 2203   3.934   1.604   5.403
  435SOL    HW1 2204   3.941   1.511   5.438
  435SOL    HW2 2205   3.914   1.602   5.305
  436SOL     OW 2206   3.368   6.067   2.630
  436SOL    HW1 2207   3.396   5.971   2.636
  436SOL    HW2 2208   3.442   6.126   2.662
  437SOL     OW 2209   6.842   1.264   5.169
  437SOL    HW1 2210   6.859   1.360   5.149
  437SOL    HW2 2211   6.920   1.226   5.219
  438SOL     OW 2212   2.088   3.910   3.526
  438SOL    HW1 2213   1.998   3.923   3.569
  438SOL    HW2 2214   2.133   3.999   3.517
  439SOL     OW 2215   6.173   0.016   2.341
  439SOL    HW1 2216   6.108   0.089   2.363
  439SOL    HW2 2217   6.210   7.009   2.426
  440SOL     OW 2218   3.678   1.441   6.460
  440SOL    HW1 2219   3.585   1.476   6.474
  440SOL    HW2 2220   3.678   1.341   6.462
  441SOL     OW 2221   5.801   4.117   3.084
  441SOL    HW1 2222   5.784   4.055   3.161
  441SOL    HW2 2223   5.779   4.069   2.999
  442SOL     OW 2224   4.230   4.518   5.605
  442SOL    HW1 2225   4.132   4.520   5.584
  442SOL    HW2 2226   4.259   4.424   5.621
  443SOL     OW 2227   5.738   4.468   4.037
  443SOL    HW1 2228   5.660   4.530   4.050
  443SOL    HW2 2229   5.807   4.487   4.107
  444SOL     OW 2230   3.927   1.372   6.535
  444SOL    HW1 2231   4.008   1.423   6.504
  444SOL    HW2 2232   3.845   1.417   6.501
  445SOL     OW 2233   2.178   5.616   3.176
  445SOL    HW1 2234   2.238   5.693   3.198
  445SOL    HW2 2235   2.131   5.585   3.259
  446SOL     OW 2236   4.316   5.565   2.979
  446SOL    HW1 2237   4.322   5.534   2.884
  446SOL    HW2 2238   4.301   5.487   3.039
  447SOL     OW 2239   6.288   3.122   5.077
  447SOL    HW1 2240   6.207   3.174   5.051
  447SOL    HW2 2241   6.262   3.038   5.123
  448SOL     OW 2242   1.833   1.444   2.682
  448SOL    HW1 2243   1.904   1.374   2.686
  448SOL    HW2 2244   1.743   1.401   2.694
  449SOL     OW 2245   2.595   2.034   3.217
  449SOL    HW1 2246   2.630   2.120   3.253
  449SOL    HW2 2247   2.506   2.050   3.173
  450SOL     OW 2248   1.731   4.645   3.713
  450SOL    HW1 2249   1.740   4.719   3.647
  450SOL    HW2 2250   1.710   4.684   3.803
  451SOL     OW 2251   1.284   2.538   4.068
  451SOL    HW1 2252   1.293   2.585   3.980
  451SOL    HW2 2253   1.342   2.456   4.067
  452SOL     OW 2254   3.855   0.715   1.491
  452SOL    HW1 2255   3.775   0.715   1.431
  452SOL    HW2 2256   3.859   0.801   1.542
  453SOL     OW 2257   3.570   6.891   6.817
  453SOL    HW1 2258   3.571   6.795   6.789
  453SOL    HW2 2259   3.478   6.927   6.804
  454SOL     OW 2260   6.707   4.254   6.669
  454SOL    HW1 2261   6.793   4.212   6.641
  454SOL    HW2 2262   6.639   4.183   6.685
  455SOL     OW 2263   6.369   3.513   5.274
  455SOL    HW1 2264   6.417   3.436   5.231
  455SOL    HW2 2265   6.373   3.593   5.215
  456SOL     OW 2266   1.619   0.625   4.275
  456SOL    HW1 2267   1.605   0.691   4.348
  456SOL    HW2 2268   1.717   0.613   4.259
  457SOL     OW 2269   0.763   5.049   4.703
  457SOL    HW1 2270   0.755   4.993   4.620
  457SOL    HW2 2271   0.810   4.997   4.774
  458SOL     OW 2272   3.388   0.750   2.961
  458SOL    HW1 2273   3.438   0.823   2.914
  458SOL    HW2 2274   3.335   0.698   2.894
  459SOL     OW 2275   2.252   0.780   5.421
  459SOL    HW1 2276   2.256   0.802   5.323
  459SOL    HW2 2277   2.170   0.821   5.461
  460SOL     OW 2278   1.294   1.376   5.409
  460SOL    HW1 2279   1.374   1.317   5.397
  460SOL    HW2 2280   1.315   1.448   5.475
  461SOL     OW 2281   6.496   4.997   5.718
  461SOL    HW1 2282   6.485   5.072   5.783
  461SOL    HW2 2283   6.582   4.950   5.735
  462SOL     OW 2284   4.092   3.816   4.819
  462SOL    HW1 2285   4.039   3.870   4.885
  462SOL    HW2 2286   4.139   3.742   4.867
  463SOL     OW 2287   6.758   0.092   3.022
  463SOL    HW1 2288   6.732   7.028   3.000
  463SOL    HW2 2289   6.789   0.097   3.117
  464SOL     OW 2290   3.191   6.946   6.013
  464SOL    HW1 2291   3.209   0.012   5.988
  464SOL    HW2 2292   3.203   6.935   6.112
  465SOL     OW 2293   0.561   2.635   6.877
  465SOL    HW1 2294   0.569   2.730   6.849
  465SOL    HW2 2295   0.607   2.621   6.964
  466SOL     OW 2296   2.713   6.651   3.941
  466SOL    HW1 2297   2.790   6.605   3.983
  466SOL    HW2 2298   2.745   6.729   3.888
  467SOL     OW 2299   0.464   2.000   2.531
  467SOL    HW1 2300   0.365   2.015   2.521
  467SOL    HW2 2301   0.481   1.901   2.539
  468SOL     OW 2302   4.711   6.460   6.370
  468SOL    HW1 2303   4.776   6.407   6.425
  468SOL    HW2 2304   4.714   6.556   6.399
  469SOL     OW 2305   2.931   4.455   6.094
  469SOL    HW1 2306   2.926   4.461   5.995
  469SOL    HW2 2307   3.015   4.498   6.126
  470SOL     OW 2308   3.894   6.132   2.536
  470SOL    HW1 2309   3.951   6.139   2.618
  470SOL    HW2 2310   3.937   6.070   2.471
  471SOL     OW 2311   2.761   2.397   3.777
  471SOL    HW1 2312   2.859   2.391   3.794
  471SOL    HW2 2313   2.711   2.368   3.858
  472SOL     OW 2314   6.156   5.282   6.758
  472SOL    HW1 2315   6.165   5.184   6.774
  472SOL    HW2 2316   6.139   5.329   6.845
  473SOL     OW 2317   6.584   2.101   2.250
  473SOL    HW1 2318   6.507   2.038   2.246
  473SOL    HW2 2319   6.668   2.050   2.267
  474SOL     OW 2320   6.210   4.703   5.525
  474SOL    HW1 2321   6.115   4.717   5.553
  474SOL    HW2 2322   6.259   4.791   5.530
  475SOL     OW 2323   6.052   3.631   0.219
  475SOL    HW1 2324   6.003   3.558   0.172
  475SOL    HW2 2325   6.080   3.700   0.153
  476SOL     OW 2326   0.264   4.253   1.609
  476SOL    HW1 2327   0.340   4.189   1.620
  476SOL    HW2 2328   0.280   4.334   1.665
  477SOL     OW 2329   2.035   5.755   3.427
  477SOL    HW1 2330   2.064   5.764   3.522
  477SOL    HW2 2331   2.011   5.660   3.408
  478SOL     OW 2332   4.719   5.852   3.330
  478SOL    HW1 2333   4.675   5.873   3.243
  478SOL    HW2 2334   4.649   5.839   3.400
  479SOL     OW 2335   3.627   3.386   4.720
  479SOL    HW1 2336   3.586   3.313   4.776
  479SOL    HW2 2337   3.697   3.434   4.773
  480SOL     OW 2338   1.780   0.326   2.702
  480SOL    HW1 2339   1.776   0.261   2.626
  480SOL    HW2 2340   1.850   0.297   2.767
  481SOL     OW 2341   0.729   6.821   1.376
  481SOL    HW1 2342   0.660   6.893   1.384
  481SOL    HW2 2343   0.753   6.788   1.467
  482SOL     OW 2344   4.506   4.972   2.731
  482SOL    HW1 2345   4.502   4.907   2.655
  482SOL    HW2 2346   4.585   5.033   2.718
  483SOL     OW 2347   6.296   2.632   2.812
  483SOL    HW1 2348   6.326   2.540   2.836
  483SOL    HW2 2349   6.248   2.673   2.890
  484SOL     OW 2350   1.482   4.115   4.982
  484SOL    HW1 2351   1.571   4.144   4.947
  484SOL    HW2 2352   1.423   4.194   4.994
  485SOL     OW 2353   5.249   3.695   2.450
  485SOL    HW1 2354   5.257   3.784   2.494
  485SOL    HW2 2355   5.241   3.624   2.520
  486SOL     OW 2356   5.424   0.657   6.358
  486SOL    HW1 2357   5.350   0.610   6.310
  486SOL    HW2 2358   5.396   0.751   6.378
  487SOL     OW 2359   0.345   0.390   3.190
  487SOL    HW1 2360   0.276   0.321   3.166
  487SOL    HW2 2361   0.433   0.363   3.151
  488SOL     OW 2362   1.586   6.541   3.368
  488SOL    HW1 2363   1.531   6.497   3.438
  488SOL    HW2 2364   1.542   6.531   3.279
  489SOL     OW 2365   6.396   5.509   4.801
  489SOL    HW1 2366   6.452   5.589   4.778
  489SOL    HW2 2367   6.436   5.427   4.759
  490SOL     OW 2368   1.842   5.952   4.928
  490SOL    HW1 2369   1.776   5.948   4.853
  490SOL    HW2 2370   1.821   5.881   4.995
  491SOL     OW 2371   0.538   3.611   0.248
  491SOL    HW1 2372   0.624   3.563   0.265
  491SOL    HW2 2373   0.546   3.706   0.277
  492SOL     OW 2374   1.639   1.653   5.847
  492SOL    HW1 2375   1.696   1.597   5.907
  492SOL    HW2 2376   1.682   1.661   5.757
  493SOL     OW 2377   2.372   6.793   5.886
  493SOL    HW1 2378   2.437   6.785   5.811
  493SOL    HW2 2379   2.397   6.871   5.944
  494SOL     OW 2380   2.263   1.772   6.119
  494SOL    HW1 2381   2.229   1.777   6.212
  494SOL    HW2 2382   2.362   1.753   6.120
  495SOL     OW 2383   4.369   6.527   5.503
  495SOL    HW1 2384   4.431   6.534   5.424
  495SOL    HW2 2385   4.312   6.609   5.507
  496SOL     OW 2386   6.108   1.211   2.371
  496SOL    HW1 2387   6.055   1.240   2.450
  496SOL    HW2 2388   6.140   1.117   2.385
  497SOL     OW 2389   3.503   1.478   4.666
  497SOL    HW1 2390   3.546   1.544   4.604
  497SOL    HW2 2391   3.573   1.419   4.706
  498SOL     OW 2392   0.548   4.991   1.881
  498SOL    HW1 2393   0.591   5.053   1.947
  498SOL    HW2 2394   0.603   4.989   1.798
  499SOL     OW 2395   2.376   5.913   5.937
  499SOL    HW1 2396   2.308   5.865   5.992
  499SOL    HW2 2397   2.376   6.010   5.963
  500SOL     OW 2398   5.147   3.167   5.729
  500SOL    HW1 2399   5.227   3.165   5.789
  500SOL    HW2 2400   5.067   3.194   5.781
  501SOL     OW 2401   2.519   6.949   2.266
  501SOL    HW1 2402   2.546   6.856   2.242
  501SOL    HW2 2403   2.586   6.989   2.329
  502SOL     OW 2404   1.293   4.743   6.698
  502SOL    HW1 2405   1.221   4.805   6.730
  502SOL    HW2 2406   1.319   4.767   6.604
  503SOL     OW 2407   2.348   5.185   5.966
  503SOL    HW1 2408   2.395   5.165   5.880
  503SOL    HW2 2409   2.281   5.258   5.951
  504SOL     OW 2410   0.330   5.707   2.440
  504SOL    HW1 2411   0.407   5.769   2.454
  504SOL    HW2 2412   0.245   5.759   2.438
  505SOL     OW 2413   3.992   6.995   5.343
  505SOL    HW1 2414   3.986   6.895   5.341
  505SOL    HW2 2415   4.088   7.023   5.351
  506SOL     OW 2416   3.095   5.494   2.677
  506SOL    HW1 2417   3.014   5.470   2.623
  506SOL    HW2 2418   3.115   5.591   2.665
  507SOL     OW 2419   4.126   0.967   2.651
  507SOL    HW1 2420   4.046   0.963   2.592
  507SOL    HW2 2421   4.151   1.063   2.666
  508SOL     OW 2422   6.645   2.162   3.549
  508SOL    HW1 2423   6.744   2.171   3.539
  508SOL    HW2 2424   6.602   2.251   3.537
  509SOL     OW 2425   4.464   0.510   6.635
  509SOL    HW1 2426   4.374   0.465   6.638
  509SOL    HW2 2427   4.464   0.580   6.564
  510SOL     OW 2428   6.943   4.646   5.776
  510SOL    HW1 2429   0.010   4.626   5.768
  510SOL    HW2 2430   6.891   4.587   5.713
  511SOL     OW 2431   1.553   2.081   6.388
  511SOL    HW1 2432   1.609   2.018   6.441
  511SOL    HW2 2433   1.478   2.030   6.345
  512SOL     OW 2434   6.209   2.530   0.002
  512SOL    HW1 2435   6.189   2.546   0.099
  512SOL    HW2 2436   6.202   2.432   7.013
  513SOL     OW 2437   5.834   6.405   2.521
  513SOL    HW1 2438   5.806   6.445   2.433
  513SOL    HW2 2439   5.752   6.389   2.577
  514SOL     OW 2440   0.523   0.082   4.004
  514SOL    HW1 2441   0.434   0.057   3.966
  514SOL    HW2 2442   0.529   0.051   4.099
  515SOL     OW 2443   2.190   0.761   6.257
  515SOL    HW1 2444   2.181   0.663   6.241
  515SOL    HW2 2445   2.266   0.777   6.321
  516SOL     OW 2446   2.312   4.318   1.939
  516SOL    HW1 2447   2.375   4.336   1.864
  516SOL    HW2 2448   2.350   4.353   2.024
  517SOL     OW 2449   3.468   4.938   2.289
  517SOL    HW1 2450   3.470   4.914   2.192
  517SOL    HW2 2451   3.373   4.939   2.321
  518SOL     OW 2452   2.382   2.462   4.048
  518SOL    HW1 2453   2.321   2.396   4.094
  518SOL    HW2 2454   2.459   2.412   4.007
  519SOL     OW 2455   6.795   6.969   3.659
  519SOL    HW1 2456   6.883   6.930   3.633
  519SOL    HW2 2457   6.782   6.957   3.758
  520SOL     OW 2458   0.916   4.291   6.868
  520SOL    HW1 2459   0.856   4.211   6.869
  520SOL    HW2 2460   0.990   4.280   6.934
  521SOL     OW 2461   4.631   5.476   4.498
  521SOL    HW1 2462   4.587   5.470   4.587
  521SOL    HW2 2463   4.670   5.387   4.474
  522SOL     OW 2464   4.069   3.801   1.591
  522SOL    HW1 2465   4.031   3.811   1.683
  522SOL    HW2 2466   4.056   3.886   1.541
  523SOL     OW 2467   0.191   6.066   1.587
  523SOL    HW1 2468   0.196   6.155   1.633
  523SOL    HW2 2469   0.225   6.075   1.493
  524SOL     OW 2470   0.595   3.327   2.339
  524SOL    HW1 2471   0.585   3.411   2.392
  524SOL    HW2 2472   0.557   3.250   2.390
  525SOL     OW 2473   1.920   3.786   6.592
  525SOL    HW1 2474   1.901   3.691   6.619
  525SOL    HW2 2475   1.835   3.830   6.564
  526SOL     OW 2476   2.786   6.907   4.353
  526SOL    HW1 2477   2.778   6.975   4.280
  526SOL    HW2 2478   2.715   6.838   4.340
  527SOL     OW 2479   0.408   2.403   0.147
  527SOL    HW1 2480   0.494   2.438   0.185
  527SOL    HW2 2481   0.360   2.478   0.100
  528SOL     OW 2482   0.918   2.683   3.759
  528SOL    HW1 2483   0.958   2.603   3.804
  528SOL    HW2 2484   0.940   2.765   3.813
  529SOL     OW 2485   2.296   0.492   5.373
  529SOL    HW1 2486   2.212   0.438   5.367
  529SOL    HW2 2487   2.274   0.586   5.399
  530SOL     OW 2488   3.751   2.943   2.454
  530SOL    HW1 2489   3.785   2.899   2.537
  530SOL    HW2 2490   3.654   2.921   2.443
  531SOL     OW 2491   1.555   0.509   2.724
  531SOL    HW1 2492   1.622   0.443   2.691
  531SOL    HW2 2493   1.585   0.544   2.813
  532SOL     OW 2494   1.263   3.576   0.781
  532SOL    HW1 2495   1.337   3.557   0.845
  532SOL    HW2 2496   1.221   3.664   0.803
  533SOL     OW 2497   4.962   6.726   3.695
  533SOL    HW1 2498   5.010   6.811   3.718
  533SOL    HW2 2499   5.009   6.680   3.620
  534SOL     OW 2500   7.000   6.065   1.879
  534SOL    HW1 2501   0.010   6.041   1.967
  534SOL    HW2 2502   6.909   6.024   1.871
  535SOL     OW 2503   6.878   4.415   3.186
  535SOL    HW1 2504   6.871   4.477   3.264
  535SOL    HW2 2505   6.868   4.320   3.218
  536SOL     OW 2506   6.451   5.576   3.088
  536SOL    HW1 2507   6.425   5.618   3.001
  536SOL    HW2 2508   6.424   5.636   3.164
  537SOL     OW 2509   3.631   6.710   4.279
  537SOL    HW1 2510   3.556   6.714   4.213
  537SOL    HW2 2511   3.615   6.776   4.352
  538SOL     OW 2512   0.909   4.909   4.884
  538SOL    HW1 2513   0.900   4.819   4.841
  538SOL    HW2 2514   0.928   4.898   4.981
  539SOL     OW 2515   1.684   5.929   2.132
  539SOL    HW1 2516   1.640   5.870   2.064
  539SOL    HW2 2517   1.783   5.917   2.128
  540SOL     OW 2518   2.023   0.697   3.846
  540SOL    HW1 2519   1.974   0.660   3.767
  540SOL    HW2 2520   2.086   0.769   3.816
  541SOL     OW 2521   4.699   6.291   3.442
  541SOL    HW1 2522   4.788   6.331   3.418
  541SOL    HW2 2523   4.663   6.241   3.364
  542SOL     OW 2524   3.572   6.316   6.495
  542SOL    HW1 2525   3.479   6.305   6.530
  542SOL    HW2 2526   3.572   6.306   6.396
  543SOL     OW 2527   5.411   3.699   3.919
  543SOL    HW1 2528   5.319   3.736   3.913
  543SOL    HW2 2529   5.460   3.744   3.993
  544SOL     OW 2530   0.322   5.276   0.641
  544SOL    HW1 2531   0.326   5.353   0.704
  544SOL    HW2 2532   0.408   5.272   0.589
  545SOL     OW 2533   4.496   1.550   0.985
  545SOL    HW1 2534   4.527   1.474   0.927
  545SOL    HW2 2535   4.552   1.554   1.068
  546SOL     OW 2536   0.987   3.537   1.781
  546SOL    HW1 2537   0.988   3.595   1.700
  546SOL    HW2 2538   0.966   3.443   1.754
  547SOL     OW 2539   3.274   3.015   0.854
  547SOL    HW1 2540   3.266   2.922   0.890
  547SOL    HW2 2541   3.348   3.018   0.786
  548SOL     OW 2542   3.636   3.918   1.035
  548SOL    HW1 2543   3.617   3.946   0.942
  548SOL    HW2 2544   3.730   3.884   1.041
  549SOL     OW 2545   5.351   2.612   1.959
  549SOL    HW1 2546   5.423   2.610   1.890
  549SOL    HW2 2547   5.373   2.546   2.031
  550SOL     OW 2548   0.583   5.099   3.192
  550SOL    HW1 2549   0.662   5.161   3.199
  550SOL    HW2 2550   0.503   5.151   3.163
  551SOL     OW 2551   6.759   0.500   1.917
  551SOL    HW1 2552   6.797   0.443   1.844
  551SOL    HW2 2553   6.775   0.455   2.005
  552SOL     OW 2554   5.287   4.698   5.280
  552SOL    HW1 2555   5.237   4.622   5.321
  552SOL    HW2 2556   5.292   4.686   5.181
  553SOL     OW 2557   3.219   6.454   3.681
  553SOL    HW1 2558   3.302   6.398   3.679
  553SOL    HW2 2559   3.215   6.505   3.766
  554SOL     OW 2560   5.869   6.383   0.295
  554SOL    HW1 2561   5.863   6.434   0.381
  554SOL    HW2 2562   5.826   6.435   0.222
  555SOL     OW 2563   2.949   5.051   5.053
  555SOL    HW1 2564   2.893   4.972   5.027
  555SOL    HW2 2565   2.936   5.070   5.150
  556SOL     OW 2566   5.351   1.117   4.321
  556SOL    HW1 2567   5.438   1.123   4.272
  556SOL    HW2 2568   5.299   1.039   4.286
  557SOL     OW 2569   0.084   5.080   6.151
  557SOL    HW1 2570   0.059   4.983   6.149
  557SOL    HW2 2571   0.131   5.100   6.236
  558SOL     OW 2572   3.358   2.920   4.421
  558SOL    HW1 2573   3.350   3.005   4.474
  558SOL    HW2 2574   3.306   2.929   4.336
  559SOL     OW 2575   6.987   6.025   5.930
  559SOL    HW1 2576   6.965   6.099   5.867
  559SOL    HW2 2577   6.984   5.938   5.882
  560SOL     OW 2578   6.306   3.655   3.263
  560SOL    HW1 2579   6.378   3.719   3.290
  560SOL    HW2 2580   6.345   3.562   3.258
  561SOL     OW 2581   0.292   2.650   0.094
  561SOL    HW1 2582   0.273   2.733   0.146
  561SOL    HW2 2583   0.207   2.599   0.078
  562SOL     OW 2584   4.043   0.924   6.360
  562SOL    HW1 2585   4.067   1.019   6.338
  562SOL    HW2 2586   3.954   0.902   6.322
  563SOL     OW 2587   2.317   1.433   3.310
  563SOL    HW1 2588   2.397   1.414   3.368
  563SOL    HW2 2589   2.303   1.532   3.306
  564SOL     OW 2590   0.775   2.278   7.007
  564SOL    HW1 2591   0.728   2.302   6.923
  564SOL    HW2 2592   0.719   2.214   0.030
  565SOL     OW 2593   2.975   3.576   3.225
  565SOL    HW1 2594   2.976   3.486   3.269
  565SOL    HW2 2595   2.959   3.565   3.127
  566SOL     OW 2596   1.813   3.451   3.620
  566SOL    HW1 2597   1.787   3.484   3.530
  566SOL    HW2 2598   1.913   3.449   3.627
  567SOL     OW 2599   3.193   2.718   1.289
  567SOL    HW1 2600   3.225   2.633   1.331
  567SOL    HW2 2601   3.246   2.795   1.326
  568SOL     OW 2602   5.255   6.998   6.987
  568SOL    HW1 2603   5.188   6.926   6.968
  568SOL    HW2 2604   5.250   0.037   6.914
  569SOL     OW 2605   0.845   2.517   0.950
  569SOL    HW1 2606   0.789   2.513   0.868
  569SOL    HW2 2607   0.880   2.611   0.961
  570SOL     OW 2608   3.183   0.383   6.713
  570SOL    HW1 2609   3.240   0.442   6.656
  570SOL    HW2 2610   3.162   0.299   6.663
  571SOL     OW 2611   2.662   4.781   4.022
  571SOL    HW1 2612   2.730   4.823   3.962
  571SOL    HW2 2613   2.701   4.767   4.113
  572SOL     OW 2614   1.662   5.127   5.250
  572SOL    HW1 2615   1.635   5.151   5.344
  572SOL    HW2 2616   1.617   5.188   5.186
  573SOL     OW 2617   6.341   1.232   5.189
  573SOL    HW1 2618   6.358   1.269   5.098
  573SOL    HW2 2619   6.352   1.305   5.257
  574SOL     OW 2620   3.679   0.264   5.583
  574SOL    HW1 2621   3.685   0.342   5.645
  574SOL    HW2 2622   3.693   0.179   5.634
  575SOL     OW 2623   4.303   2.821   1.659
  575SOL    HW1 2624   4.320   2.722   1.662
  575SOL    HW2 2625   4.205   2.838   1.648
  576SOL     OW 2626   1.400   3.294   3.033
  576SOL    HW1 2627   1.310   3.251   3.040
  576SOL    HW2 2628   1.460   3.257   3.104
  577SOL     OW 2629   1.483   0.878   2.055
  577SOL    HW1 2630   1.487   0.802   1.990
  577SOL    HW2 2631   1.517   0.961   2.010
  578SOL     OW 2632   0.781   5.110   5.188
  578SOL    HW1 2633   0.860   5.081   5.134
  578SOL    HW2 2634   0.719   5.032   5.200
  579SOL     OW 2635   1.784   4.280   2.989
  579SOL    HW1 2636   1.787   4.215   3.065
  579SOL    HW2 2637   1.713   4.348   3.006
  580SOL     OW 2638   3.714   5.134   5.390
  580SOL    HW1 2639   3.670   5.099   5.307
  580SOL    HW2 2640   3.649   5.132   5.466
  581SOL     OW 2641   2.121   3.243   2.507
  581SOL    HW1 2642   2.054   3.186   2.556
  581SOL    HW2 2643   2.165   3.305   2.572
  582SOL     OW 2644   4.639   5.913   3.076
  582SOL    HW1 2645   4.573   5.852   3.033
  582SOL    HW2 2646   4.693   5.960   3.006
  583SOL     OW 2647   2.828   5.892   5.417
  583SOL    HW1 2648   2.769   5.870   5.495
  583SOL    HW2 2649   2.914   5.929   5.451
  584SOL     OW 2650   3.129   6.968   6.407
  584SOL    HW1 2651   3.129   0.001   6.329
  584SOL    HW2 2652   3.035   6.941   6.427
  585SOL     OW 2653   4.549   1.247   0.540
  585SOL    HW1 2654   4.456   1.233   0.575
  585SOL    HW2 2655   4.566   1.345   0.528
  586SOL     OW 2656   3.622   0.776   0.696
  586SOL    HW1 2657   3.537   0.820   0.667
  586SOL    HW2 2658   3.621   0.766   0.796
  587SOL     OW 2659   4.963   2.528   3.045
  587SOL    HW1 2660   4.982   2.559   3.138
  587SOL    HW2 2661   4.995   2.434   3.033
  588SOL     OW 2662   1.995   5.440   1.136
  588SOL    HW1 2663   2.071   5.470   1.193
  588SOL    HW2 2664   2.019   5.353   1.092
  589SOL     OW 2665   3.582   5.859   1.743
  589SOL    HW1 2666   3.624   5.949   1.728
  589SOL    HW2 2667   3.572   5.843   1.841
  590SOL     OW 2668   5.638   1.207   1.399
  590SOL    HW1 2669   5.647   1.131   1.463
  590SOL    HW2 2670   5.545   1.207   1.360
  591SOL     OW 2671   3.571   6.046   3.657
  591SOL    HW1 2672   3.631   6.093   3.592
  591SOL    HW2 2673   3.611   5.958   3.682
  592SOL     OW 2674   4.591   0.736   2.597
  592SOL    HW1 2675   4.657   0.669   2.632
  592SOL    HW2 2676   4.603   0.745   2.498
  593SOL     OW 2677   4.943   1.494   4.147
  593SOL    HW1 2678   4.955   1.428   4.072
  593SOL    HW2 2679   5.029   1.542   4.163
  594SOL     OW 2680   6.342   0.450   1.177
  594SOL    HW1 2681   6.246   0.424   1.161
  594SOL    HW2 2682   6.361   0.537   1.131
  595SOL     OW 2683   5.374   6.486   3.777
  595SOL    HW1 2684   5.353   6.584   3.785
  595SOL    HW2 2685   5.289   6.434   3.785
  596SOL     OW 2686   0.527   4.823   3.173
  596SOL    HW1 2687   0.531   4.923   3.169
  596SOL    HW2 2688   0.448   4.794   3.227
  597SOL     OW 2689   2.801   6.389   6.518
  597SOL    HW1 2690   2.900   6.392   6.527
  597SOL    HW2 2691   2.773   6.438   6.435
  598SOL     OW 2692   3.832   4.126   4.649
  598SOL    HW1 2693   3.759   4.058   4.636
  598SOL    HW2 2694   3.815   4.204   4.589
  599SOL     OW 2695   1.996   5.485   2.942
  599SOL    HW1 2696   2.086   5.520   2.968
  599SOL    HW2 2697   2.007   5.402   2.887
  600SOL     OW 2698   6.218   2.768   6.306
  600SOL    HW1 2699   6.129   2.776   6.262
  600SOL    HW2 2700   6.290   2.789   6.240
  601SOL     OW 2701   1.536   1.136   4.188
  601SOL    HW1 2702   1.631   1.153   4.163
  601SOL    HW2 2703   1.519   1.169   4.280
  602SOL     OW 2704   2.460   0.824   6.376
  602SOL    HW1 2705   2.460   0.805   6.277
  602SOL    HW2 2706   2.511   0.908   6.393
  603SOL     OW 2707   2.655   2.478   5.362
  603SOL    HW1 2708   2.618   2.570   5.352
  603SOL    HW2 2709   2.752   2.478   5.340
  604SOL     OW 2710   1.215   1.943   1.229
  604SOL    HW1 2711   1.281   1.875   1.262
  604SOL    HW2 2712   1.171   1.910   1.146
  605SOL     OW 2713   6.273   4.459   1.612
  605SOL    HW1 2714   6.237   4.533   1.554
  605SOL    HW2 2715   6.372   4.453   1.600
  606SOL     OW 2716   5.142   6.802   5.413
  606SOL    HW1 2717   5.138   6.732   5.342
  606SOL    HW2 2718   5.233   6.843   5.415
  607SOL     OW 2719   6.776   4.941   4.850
  607SOL    HW1 2720   6.848   4.949   4.781
  607SOL    HW2 2721   6.723   4.858   4.833
  608SOL     OW 2722   3.932   6.419   6.549
  608SOL    HW1 2723   4.021   6.449   6.583
  608SOL    HW2 2724   3.941   6.388   6.455
  609SOL     OW 2725   3.850   2.994   2.203
  609SOL    HW1 2726   3.845   2.976   2.302
  609SOL    HW2 2727   3.874   3.090   2.189
  610SOL     OW 2728   5.734   3.359   0.103
  610SOL    HW1 2729   5.688   3.324   0.022
  610SOL    HW2 2730   5.765   3.282   0.160
  611SOL     OW 2731   4.482   0.312   1.777
  611SOL    HW1 2732   4.429   0.319   1.692
  611SOL    HW2 2733   4.420   0.308   1.855
  612SOL     OW 2734   3.269   5.673   4.737
  612SOL    HW1 2735   3.204   5.620   4.682
  612SOL    HW2 2736   3.296   5.756   4.687
  613SOL     OW 2737   4.936   4.376   5.397
  613SOL    HW1 2738   4.897   4.356   5.487
  613SOL    HW2 2739   4.919   4.299   5.335
  614SOL     OW 2740   5.038   5.025   5.653
  614SOL    HW1 2741   4.995   4.937   5.638
  614SOL    HW2 2742   5.022   5.055   5.747
  615SOL     OW 2743   6.584   2.498   1.118
  615SOL    HW1 2744   6.538   2.435   1.055
  615SOL    HW2 2745   6.585   2.458   1.210
  616SOL     OW 2746   0.151   2.275   2.425
  616SOL    HW1 2747   0.127   2.343   2.495
  616SOL    HW2 2748   0.239   2.299   2.385
  617SOL     OW 2749   0.650   4.709   5.660
  617SOL    HW1 2750   0.733   4.662   5.633
  617SOL    HW2 2751   0.576   4.643   5.671
  618SOL     OW 2752   1.060   2.457   0.711
  618SOL    HW1 2753   0.966   2.422   0.709
  618SOL    HW2 2754   1.121   2.385   0.747
  619SOL     OW 2755   2.866   1.907   0.600
  619SOL    HW1 2756   2.788   1.905   0.663
  619SOL    HW2 2757   2.835   1.935   0.509
  620SOL     OW 2758   4.615   2.470   6.977
  620SOL    HW1 2759   4.571   2.558   6.960
  620SOL    HW2 2760   4.560   2.418   0.013
  621SOL     OW 2761   3.256   5.577   6.870
  621SOL    HW1 2762   3.349   5.540   6.863
  621SOL    HW2 2763   3.260   5.677   6.874
  622SOL     OW 2764   1.042   1.064   6.737
  622SOL    HW1 2765   1.085   0.985   6.781
  622SOL    HW2 2766   1.113   1.126   6.704
  623SOL     OW 2767   0.902   6.297   5.951
  623SOL    HW1 2768   0.987   6.331   5.910
  623SOL    HW2 2769   0.827   6.306   5.885
  624SOL     OW 2770   0.355   2.424   1.281
  624SOL    HW1 2771   0.282   2.418   1.214
  624SOL    HW2 2772   0.317   2.439   1.372
  625SOL     OW 2773   2.658   2.206   1.036
  625SOL    HW1 2774   2.664   2.213   0.936
  625SOL    HW2 2775   2.656   2.109   1.062
  626SOL     OW 2776   2.480   5.915   3.550
  626SOL    HW1 2777   2.398   5.897   3.495
  626SOL    HW2 2778   2.457   5.911   3.647
  627SOL     OW 2779   5.288   0.487   0.706
  627SOL    HW1 2780   5.227   0.521   0.634
  627SOL    HW2 2781   5.378   0.469   0.667
  628SOL     OW 2782   5.596   4.996   5.726
  628SOL    HW1 2783   5.553   5.063   5.787
  628SOL    HW2 2784   5.526   4.937   5.687
  629SOL     OW 2785   6.735   6.460   1.181
  629SOL    HW1 2786   6.694   6.544   1.217
  629SOL    HW2 2787   6.804   6.426   1.245
  630SOL     OW 2788   6.047   1.424   2.616
  630SOL    HW1 2789   6.099   1.388   2.694
  630SOL    HW2 2790   5.953   1.444   2.646
  631SOL     OW 2791   3.814   6.660   4.977
  631SOL    HW1 2792   3.888   6.707   5.027
  631SOL    HW2 2793   3.762   6.727   4.924
  632SOL     OW 2794   2.697   2.016   0.390
  632SOL    HW1 2795   2.623   1.999   0.455
  632SOL    HW2 2796   2.661   2.062   0.309
  633SOL     OW 2797   4.175   5.053   0.204
  633SOL    HW1 2798   4.146   5.134   0.153
  633SOL    HW2 2799   4.270   5.063   0.231
  634SOL     OW 2800   4.851   4.613   1.798
  634SOL    HW1 2801   4.858   4.594   1.700
  634SOL    HW2 2802   4.781   4.554   1.839
  635SOL     OW 2803   4.269   5.901   2.445
  635SOL    HW1 2804   4.340   5.970   2.435
  635SOL    HW2 2805   4.186   5.931   2.399
  636SOL     OW 2806   5.106   5.784   6.763
  636SOL    HW1 2807   5.114   5.798   6.664
  636SOL    HW2 2808   5.107   5.873   6.808
  637SOL     OW 2809   6.220   3.949   1.735
  637SOL    HW1 2810   6.289   3.978   1.669
  637SOL    HW2 2811   6.161   3.879   1.694
  638SOL     OW 2812   4.833   1.782   2.034
  638SOL    HW1 2813   4.781   1.795   2.118
  638SOL    HW2 2814   4.802   1.848   1.965
  639SOL     OW 2815   5.229   3.952   2.601
  639SOL    HW1 2816   5.139   3.908   2.611
  639SOL    HW2 2817   5.217   4.044   2.565
  640SOL     OW 2818   1.287   4.959   5.151
  640SOL    HW1 2819   1.300   4.948   5.249
  640SOL    HW2 2820   1.370   4.928   5.103
  641SOL     OW 2821   0.261   5.374   4.322
  641SOL    HW1 2822   0.179   5.322   4.296
  641SOL    HW2 2823   0.238   5.471   4.326
  642SOL     OW 2824   6.846   3.894   4.116
  642SOL    HW1 2825   6.856   3.965   4.046
  642SOL    HW2 2826   6.911   3.821   4.098
  643SOL     OW 2827   5.647   4.445   5.498
  643SOL    HW1 2828   5.625   4.536   5.534
  643SOL    HW2 2829   5.632   4.444   5.399
  644SOL     OW 2830   1.313   6.049   3.249
  644SOL    HW1 2831   1.309   6.100   3.163
  644SOL    HW2 2832   1.281   6.106   3.324
  645SOL     OW 2833   5.367   2.061   4.616
  645SOL    HW1 2834   5.407   2.081   4.706
  645SOL    HW2 2835   5.311   1.978   4.622
  646SOL     OW 2836   2.669   1.560   3.632
  646SOL    HW1 2837   2.605   1.629   3.666
  646SOL    HW2 2838   2.624   1.504   3.563
  647SOL     OW 2839   5.618   2.680   5.996
  647SOL    HW1 2840   5.587   2.762   6.044
  647SOL    HW2 2841   5.556   2.661   5.919
  648SOL     OW 2842   0.189   3.786   3.307
  648SOL    HW1 2843   0.191   3.814   3.403
  648SOL    HW2 2844   0.187   3.687   3.302
  649SOL     OW 2845   4.242   4.020   0.966
  649SOL    HW1 2846   4.210   4.114   0.956
  649SOL    HW2 2847   4.255   3.999   1.063
  650SOL     OW 2848   5.428   4.294   0.798
  650SOL    HW1 2849   5.474   4.291   0.886
  650SOL    HW2 2850   5.457   4.216   0.742
  651SOL     OW 2851   0.277   6.829   6.746
  651SOL    HW1 2852   0.214   6.841   6.823
  651SOL    HW2 2853   0.227   6.794   6.667
  652SOL     OW 2854   5.706   6.149   3.544
  652SOL    HW1 2855   5.623   6.205   3.554
  652SOL    HW2 2856   5.679   6.055   3.522
  653SOL     OW 2857   3.905   5.812   5.137
  653SOL    HW1 2858   3.836   5.865   5.089
  653SOL    HW2 2859   3.884   5.714   5.128
  654SOL     OW 2860   0.111   4.166   6.078
  654SOL    HW1 2861   0.047   4.239   6.055
  654SOL    HW2 2862   0.080   4.080   6.038
  655SOL     OW 2863   0.827   6.843   2.308
  655SOL    HW1 2864   0.917   6.841   2.353
  655SOL    HW2 2865   0.837   6.882   2.217
  656SOL     OW 2866   1.705   5.826   1.534
  656SOL    HW1 2867   1.709   5.925   1.545
  656SOL    HW2 2868   1.610   5.797   1.521
  657SOL     OW 2869   1.998   2.210   1.628
  657SOL    HW1 2870   2.028   2.268   1.552
  657SOL    HW2 2871   2.037   2.245   1.713
  658SOL     OW 2872   2.840   3.758   6.200
  658SOL    HW1 2873   2.744   3.730   6.193
  658SOL    HW2 2874   2.898   3.676   6.197
  659SOL     OW 2875   2.749   6.504   6.261
  659SOL    HW1 2876   2.752   6.570   6.186
  659SOL    HW2 2877   2.840   6.466   6.276
  660SOL     OW 2878   4.914   4.092   1.676
  660SOL    HW1 2879   4.973   4.014   1.696
  660SOL    HW2 2880   4.966   4.177   1.690
  661SOL     OW 2881   4.506   6.248   3.884
  661SOL    HW1 2882   4.605   6.230   3.881
  661SOL    HW2 2883   4.459   6.172   3.928
  662SOL     OW 2884   3.983   1.022   5.199
  662SOL    HW1 2885   3.991   1.119   5.172
  662SOL    HW2 2886   4.073   0.980   5.196
  663SOL     OW 2887   2.352   3.616   6.054
  663SOL    HW1 2888   2.329   3.520   6.038
  663SOL    HW2 2889   2.328   3.670   5.973
  664SOL     OW 2890   0.647   6.478   6.405
  664SOL    HW1 2891   0.584   6.446   6.476
  664SOL    HW2 2892   0.734   6.429   6.413
  665SOL     OW 2893   4.333   5.529   1.942
  665SOL    HW1 2894   4.243   5.491   1.964
  665SOL    HW2 2895   4.378   5.470   1.875
  666SOL     OW 2896   5.255   1.254   1.870
  666SOL    HW1 2897   5.263   1.324   1.800
  666SOL    HW2 2898   5.344   1.211   1.886
  667SOL     OW 2899   1.434   5.295   2.503
  667SOL    HW1 2900   1.418   5.205   2.542
  667SOL    HW2 2901   1.398   5.365   2.565
  668SOL     OW 2902   4.879   6.169   6.277
  668SOL    HW1 2903   4.842   6.099   6.216
  668SOL    HW2 2904   4.836   6.257   6.256
  669SOL     OW 2905   5.174   0.412   3.369
  669SOL    HW1 2906   5.147   0.505   3.345
  669SOL    HW2 2907   5.201   0.363   3.286
  670SOL     OW 2908   3.122   2.323   1.724
  670SOL    HW1 2909   3.068   2.319   1.640
  670SOL    HW2 2910   3.062   2.319   1.804
  671SOL     OW 2911   3.422   6.418   0.894
  671SOL    HW1 2912   3.414   6.476   0.975
  671SOL    HW2 2913   3.482   6.463   0.827
  672SOL     OW 2914   6.552   5.585   1.721
  672SOL    HW1 2915   6.514   5.674   1.696
  672SOL    HW2 2916   6.478   5.523   1.745
  673SOL     OW 2917   6.343   0.248   0.999
  673SOL    HW1 2918   6.354   0.339   1.039
  673SOL    HW2 2919   6.261   0.246   0.942
  674SOL     OW 2920   0.483   1.505   4.916
  674SOL    HW1 2921   0.545   1.465   4.848
  674SOL    HW2 2922   0.439   1.586   4.878
  675SOL     OW 2923   6.512   2.470   2.378
  675SOL    HW1 2924   6.581   2.499   2.312
  675SOL    HW2 2925   6.553   2.407   2.444
  676SOL     OW 2926   2.993   5.517   3.619
  676SOL    HW1 2927   2.955   5.428   3.644
  676SOL    HW2 2928   3.063   5.544   3.684
  677SOL     OW 2929   5.254   1.143   0.294
  677SOL    HW1 2930   5.158   1.171   0.285
  677SOL    HW2 2931   5.294   1.189   0.374
  678SOL     OW 2932   2.762   5.946   4.981
  678SOL    HW1 2933   2.831   5.991   5.038
  678SOL    HW2 2934   2.704   5.889   5.038
  679SOL     OW 2935   4.703   1.878   4.145
  679SOL    HW1 2936   4.618   1.861   4.095
  679SOL    HW2 2937   4.726   1.798   4.200
  680SOL     OW 2938   5.086   5.840   4.636
  680SOL    HW1 2939   5.169   5.873   4.591
  680SOL    HW2 2940   5.107   5.760   4.691
  681SOL     OW 2941   4.660   5.517   1.665
  681SOL    HW1 2942   4.705   5.484   1.749
  681SOL    HW2 2943   4.561   5.504   1.673
  682SOL     OW 2944   6.094   1.226   1.952
  682SOL    HW1 2945   6.149   1.197   1.874
  682SOL    HW2 2946   6.052   1.146   1.996
  683SOL     OW 2947   4.783   2.597   0.743
  683SOL    HW1 2948   4.802   2.575   0.839
  683SOL    HW2 2949   4.695   2.643   0.736
  684SOL     OW 2950   6.527   1.184   0.872
  684SOL    HW1 2951   6.574   1.103   0.836
  684SOL    HW2 2952   6.446   1.156   0.922
  685SOL     OW 2953   2.973   1.928   3.983
  685SOL    HW1 2954   3.070   1.910   3.965
  685SOL    HW2 2955   2.919   1.900   3.904
  686SOL     OW 2956   4.757   2.387   4.328
  686SOL    HW1 2957   4.733   2.290   4.336
  686SOL    HW2 2958   4.683   2.442   4.366
  687SOL     OW 2959   0.631   1.869   4.031
  687SOL    HW1 2960   0.646   1.848   3.935
  687SOL    HW2 2961   0.567   1.945   4.039
  688SOL     OW 2962   0.590   1.691   6.352
  688SOL    HW1 2963   0.509   1.660   6.402
  688SOL    HW2 2964   0.669   1.637   6.381
  689SOL     OW 2965   0.990   4.700   6.566
  689SOL    HW1 2966   1.028   4.609   6.581
  689SOL    HW2 2967   0.903   4.692   6.517
  690SOL     OW 2968   6.763   3.052   3.519
  690SOL    HW1 2969   6.816   3.078   3.600
  690SOL    HW2 2970   6.696   3.124   3.499
  691SOL     OW 2971   3.145   1.260   0.299
  691SOL    HW1 2972   3.165   1.339   0.356
  691SOL    HW2 2973   3.226   1.201   0.295
  692SOL     OW 2974   4.479   2.007   4.336
  692SOL    HW1 2975   4.484   1.954   4.421
  692SOL    HW2 2976   4.568   2.048   4.318
  693SOL     OW 2977   4.789   6.682   3.882
  693SOL    HW1 2978   4.838   6.691   3.796
  693SOL    HW2 2979   4.707   6.626   3.868
  694SOL     OW 2980   4.599   6.869   4.859
  694SOL    HW1 2981   4.689   6.825   4.863
  694SOL    HW2 2982   4.607   6.956   4.809
  695SOL     OW 2983   3.921   6.725   3.747
  695SOL    HW1 2984   3.984   6.799   3.723
  695SOL    HW2 2985   3.934   6.700   3.843
  696SOL     OW 2986   5.176   4.740   3.762
  696SOL    HW1 2987   5.220   4.824   3.731
  696SOL    HW2 2988   5.233   4.695   3.831
  697SOL     OW 2989   1.836   3.829   2.282
  697SOL    HW1 2990   1.812   3.925   2.264
  697SOL    HW2 2991   1.934   3.817   2.267
  698SOL     OW 2992   5.315   6.384   1.350
  698SOL    HW1 2993   5.246   6.327   1.306
  698SOL    HW2 2994   5.375   6.424   1.281
  699SOL     OW 2995   1.473   3.453   0.010
  699SOL    HW1 2996   1.430   3.386   0.069
  699SOL    HW2 2997   1.497   3.410   6.952
  700SOL     OW 2998   3.439   0.410   2.499
  700SOL    HW1 2999   3.366   0.424   2.565
  700SOL    HW2 3000   3.527   0.408   2.547
  701SOL     OW 3001   6.799   3.510   0.157
  701SOL    HW1 3002   6.771   3.512   0.061
  701SOL    HW2 3003   6.867   3.580   0.173
  702SOL     OW 3004   1.614   6.455   4.758
  702SOL    HW1 3005   1.697   6.414   4.719
  702SOL    HW2 3006   1.587   6.535   4.704
  703SOL     OW 3007   3.356   3.284   5.670
  703SOL    HW1 3008   3.405   3.197   5.659
  703SOL    HW2 3009   3.336   3.299   5.767
  704SOL     OW 3010   1.571   2.809   6.293
  704SOL    HW1 3011   1.514   2.868   6.235
  704SOL    HW2 3012   1.592   2.724   6.244
  705SOL     OW 3013   5.955   5.700   2.923
  705SOL    HW1 3014   5.900   5.719   3.005
  705SOL    HW2 3015   6.014   5.777   2.903
  706SOL     OW 3016   3.924   1.826   5.155
  706SOL    HW1 3017   3.904   1.728   5.157
  706SOL    HW2 3018   4.009   1.841   5.105
  707SOL     OW 3019   4.585   4.619   3.476
  707SOL    HW1 3020   4.630   4.598   3.389
  707SOL    HW2 3021   4.624   4.563   3.549
  708SOL     OW 3022   2.702   0.501   2.879
  708SOL    HW1 3023   2.671   0.441   2.805
  708SOL    HW2 3024   2.658   0.474   2.965
  709SOL     OW 3025   1.041   5.795   1.044
  709SOL    HW1 3026   0.944   5.786   1.020
  709SOL    HW2 3027   1.063   5.891   1.058
  710SOL     OW 3028   4.436   2.123   1.334
  710SOL    HW1 3029   4.489   2.186   1.391
  710SOL    HW2 3030   4.340   2.125   1.363
  711SOL     OW 3031   0.264   2.801   5.863
  711SOL    HW1 3032   0.207   2.765   5.937
  711SOL    HW2 3033   0.239   2.896   5.844
  712SOL     OW 3034   4.821   2.500   0.999
  712SOL    HW1 3035   4.872   2.500   1.085
  712SOL    HW2 3036   4.853   2.425   0.941
  713SOL     OW 3037   3.587   3.738   5.688
  713SOL    HW1 3038   3.675   3.723   5.642
  713SOL    HW2 3039   3.520   3.673   5.653
  714SOL     OW 3040   0.125   5.053   3.675
  714SOL    HW1 3041   0.050   5.085   3.617
  714SOL    HW2 3042   0.088   4.997   3.749
  715SOL     OW 3043   5.629   6.038   6.595
  715SOL    HW1 3044   5.547   5.980   6.596
  715SOL    HW2 3045   5.669   6.041   6.686
  716SOL     OW 3046   0.967   1.152   2.409
  716SOL    HW1 3047   1.004   1.129   2.500
  716SOL    HW2 3048   1.004   1.088   2.342
  717SOL     OW 3049   0.171   4.588   3.861
  717SOL    HW1 3050   0.256   4.620   3.820
  717SOL    HW2 3051   0.093   4.624   3.810
  718SOL     OW 3052   4.496   2.945   5.995
  718SOL    HW1 3053   4.577   2.985   5.951
  718SOL    HW2 3054   4.438   3.018   6.030
  719SOL     OW 3055   5.879   0.165   2.641
  719SOL    HW1 3056   5.781   0.184   2.634
  719SOL    HW2 3057   5.893   0.079   2.690
  720SOL     OW 3058   2.236   0.493   6.218
  720SOL    HW1 3059   2.325   0.458   6.247
  720SOL    HW2 3060   2.196   0.431   6.151
  721SOL     OW 3061   2.432   1.838   2.013
  721SOL    HW1 3062   2.345   1.882   2.032
  721SOL    HW2 3063   2.506   1.891   2.055
  722SOL     OW 3064   2.836   0.779   5.808
  722SOL    HW1 3065   2.909   0.791   5.875
  722SOL    HW2 3066   2.866   0.813   5.719
  723SOL     OW 3067   2.022   4.779   3.370
  723SOL    HW1 3068   2.096   4.762   3.434
  723SOL    HW2 3069   1.939   4.805   3.421
  724SOL     OW 3070   0.730   1.282   3.342
  724SOL    HW1 3071   0.787   1.204   3.368
  724SOL    HW2 3072   0.634   1.254   3.341
  725SOL     OW 3073   1.360   4.883   2.845
  725SOL    HW1 3074   1.302   4.964   2.842
  725SOL    HW2 3075   1.318   4.813   2.903
  726SOL     OW 3076   2.792   5.073   1.471
  726SOL    HW1 3077   2.761   5.074   1.567
  726SOL    HW2 3078   2.785   5.166   1.433
  727SOL     OW 3079   5.605   4.370   6.008
  727SOL    HW1 3080   5.598   4.344   5.912
  727SOL    HW2 3081   5.642   4.463   6.015
  728SOL     OW 3082   6.474   3.297   4.026
  728SOL    HW1 3083   6.454   3.202   4.005
  728SOL    HW2 3084   6.559   3.303   4.079
  729SOL     OW 3085   0.134   2.832   1.346
  729SOL    HW1 3086   0.157   2.774   1.268
  729SOL    HW2 3087   0.202   2.904   1.355
  730SOL     OW 3088   6.967   0.228   4.137
  730SOL    HW1 3089   6.999   0.314   4.096
  730SOL    HW2 3090   0.011   0.161   4.135
  731SOL     OW 3091   4.493   5.169   6.356
  731SOL    HW1 3092   4.494   5.266   6.335
  731SOL    HW2 3093   4.523   5.154   6.450
  732SOL     OW 3094   6.000   3.018   2.592
  732SOL    HW1 3095   5.932   2.959   2.548
  732SOL    HW2 3096   6.065   2.961   2.642
  733SOL     OW 3097   5.631   0.150   5.293
  733SOL    HW1 3098   5.533   0.135   5.311
  733SOL    HW2 3099   5.645   0.158   5.194
  734SOL     OW 3100   6.107   5.320   2.849
  734SOL    HW1 3101   6.200   5.301   2.817
  734SOL    HW2 3102   6.102   5.412   2.888
  735SOL     OW 3103   4.279   1.168   0.623
  735SOL    HW1 3104   4.225   1.155   0.706
  735SOL    HW2 3105   4.219   1.195   0.548
  736SOL     OW 3106   0.743   1.235   3.855
  736SOL    HW1 3107   0.823   1.234   3.794
  736SOL    HW2 3108   0.675   1.170   3.822
  737SOL     OW 3109   5.251   1.865   6.181
  737SOL    HW1 3110   5.331   1.899   6.230
  737SOL    HW2 3111   5.226   1.775   6.217
  738SOL     OW 3112   3.033   3.625   1.562
  738SOL    HW1 3113   3.026   3.549   1.626
  738SOL    HW2 3114   2.942   3.656   1.536
  739SOL     OW 3115   4.432   0.509   4.435
  739SOL    HW1 3116   4.494   0.484   4.510
  739SOL    HW2 3117   4.362   0.438   4.425
  740SOL     OW 3118   5.516   1.211   3.093
  740SOL    HW1 3119   5.558   1.173   3.011
  740SOL    HW2 3120   5.578   1.200   3.171
  741SOL     OW 3121   2.059   0.286   4.089
  741SOL    HW1 3122   2.030   0.376   4.055
  741SOL    HW2 3123   2.068   0.289   4.189
  742SOL     OW 3124   2.048   6.715   1.543
  742SOL    HW1 3125   2.148   6.719   1.547
  742SOL    HW2 3126   2.018   6.705   1.449
  743SOL     OW 3127   0.281   5.179   3.193
  743SOL    HW1 3128   0.244   5.103   3.246
  743SOL    HW2 3129   0.260   5.265   3.238
  744SOL     OW 3130   5.535   0.634   1.080
  744SOL    HW1 3131   5.447   0.652   1.123
  744SOL    HW2 3132   5.609   0.656   1.144
  745SOL     OW 3133   1.780   5.458   5.249
  745SOL    HW1 3134   1.723   5.424   5.174
  745SOL    HW2 3135   1.758   5.407   5.333
  746SOL     OW 3136   6.251   3.736   6.238
  746SOL    HW1 3137   6.200   3.799   6.180
  746SOL    HW2 3138   6.336   3.780   6.268
  747SOL     OW 3139   4.278   5.945   4.712
  747SOL    HW1 3140   4.372   5.912   4.699
  747SOL    HW2 3141   4.240   5.904   4.794
  748SOL     OW 3142   4.646   5.017   2.333
  748SOL    HW1 3143   4.624   5.109   2.363
  748SOL    HW2 3144   4.606   4.950   2.396
  749SOL     OW 3145   5.665   3.870   4.572
  749SOL    HW1 3146   5.584   3.844   4.623
  749SOL    HW2 3147   5.641   3.939   4.503
  750SOL     OW 3148   2.616   1.473   1.762
  750SOL    HW1 3149   2.597   1.559   1.714
  750SOL    HW2 3150   2.661   1.493   1.849
  751SOL     OW 3151   4.475   1.596   0.217
  751SOL    HW1 3152   4.387   1.627   0.254
  751SOL    HW2 3153   4.541   1.671   0.220
  752SOL     OW 3154   2.958   3.524   1.190
  752SOL    HW1 3155   2.972   3.434   1.230
  752SOL    HW2 3156   2.864   3.554   1.209
  753SOL     OW 3157   1.062   3.863   5.791
  753SOL    HW1 3158   1.025   3.781   5.748
  753SOL    HW2 3159   1.146   3.891   5.745
  754SOL     OW 3160   4.621   1.720   6.212
  754SOL    HW1 3161   4.524   1.745   6.205
  754SOL    HW2 3162   4.678   1.798   6.184
  755SOL     OW 3163   2.490   4.725   5.468
  755SOL    HW1 3164   2.557   4.799   5.477
  755SOL    HW2 3165   2.428   4.745   5.392
  756SOL     OW 3166   2.314   5.353   0.051
  756SOL    HW1 3167   2.330   5.262   0.014
  756SOL    HW2 3168   2.255   5.348   0.131
  757SOL     OW 3169   1.115   6.220   4.088
  757SOL    HW1 3170   1.108   6.285   4.163
  757SOL    HW2 3171   1.093   6.265   4.001
  758SOL     OW 3172   4.500   1.009   3.268
  758SOL    HW1 3173   4.524   0.953   3.189
  758SOL    HW2 3174   4.498   0.952   3.350
  759SOL     OW 3175   0.297   2.944   2.680
  759SOL    HW1 3176   0.313   3.008   2.604
  759SOL    HW2 3177   0.205   2.958   2.716
  760SOL     OW 3178   6.434   7.013   3.918
  760SOL    HW1 3179   6.518   6.964   3.944
  760SOL    HW2 3180   6.391   6.965   3.841
  761SOL     OW 3181   5.803   4.255   6.869
  761SOL    HW1 3182   5.892   4.249   6.914
  761SOL    HW2 3183   5.813   4.305   6.783
  762SOL     OW 3184   3.122   0.030   5.432
  762SOL    HW1 3185   3.036   0.072   5.403
  762SOL    HW2 3186   3.121   6.963   5.409
  763SOL     OW 3187   4.118   6.359   6.251
  763SOL    HW1 3188   4.085   6.331   6.161
  763SOL    HW2 3189   4.117   6.459   6.256
  764SOL     OW 3190   4.930   0.940   5.732
  764SOL    HW1 3191   4.845   0.915   5.684
  764SOL    HW2 3192   4.948   1.037   5.718
  765SOL     OW 3193   1.743   5.920   0.993
  765SOL    HW1 3194   1.723   5.864   1.073
  765SOL    HW2 3195   1.662   5.926   0.935
  766SOL     OW 3196   2.916   2.017   5.559
  766SOL    HW1 3197   2.935   2.102   5.509
  766SOL    HW2 3198   3.002   1.971   5.581
  767SOL     OW 3199   6.606   6.302   3.874
  767SOL    HW1 3200   6.647   6.230   3.818
  767SOL    HW2 3201   6.624   6.391   3.833
  768SOL     OW 3202   2.023   5.485   3.386
  768SOL    HW1 3203   2.031   5.405   3.327
  768SOL    HW2 3204   2.040   5.459   3.480
  769SOL     OW 3205   3.083   0.987   5.915
  769SOL    HW1 3206   3.105   1.007   5.819
  769SOL    HW2 3207   3.079   0.888   5.928
  770SOL     OW 3208   1.791   5.217   3.793
  770SOL    HW1 3209   1.777   5.316   3.795
  770SOL    HW2 3210   1.888   5.197   3.807
  771SOL     OW 3211   1.161   4.514   2.523
  771SOL    HW1 3212   1.124   4.589   2.468
  771SOL    HW2 3213   1.157   4.539   2.620
  772SOL     OW 3214   5.938   4.573   6.952
  772SOL    HW1 3215   5.978   4.495   6.905
  772SOL    HW2 3216   5.983   4.657   6.922
  773SOL     OW 3217   0.792   3.797   3.181
  773SOL    HW1 3218   0.801   3.709   3.134
  773SOL    HW2 3219   0.702   3.836   3.162
  774SOL     OW 3220   1.573   1.515   2.094
  774SOL    HW1 3221   1.581   1.499   2.192
  774SOL    HW2 3222   1.620   1.442   2.044
  775SOL     OW 3223   2.341   1.463   4.147
  775SOL    HW1 3224   2.288   1.414   4.216
  775SOL    HW2 3225   2.434   1.427   4.145
  776SOL     OW 3226   6.874   0.725   6.137
  776SOL    HW1 3227   6.818   0.643   6.145
  776SOL    HW2 3228   6.968   0.704   6.163
  777SOL     OW 3229   2.145   4.137   1.720
  777SOL    HW1 3230   2.045   4.142   1.718
  777SOL    HW2 3231   2.177   4.086   1.640
  778SOL     OW 3232   2.276   0.064   1.528
  778SOL    HW1 3233   2.354   0.126   1.538
  778SOL    HW2 3234   2.247   0.032   1.618
  779SOL     OW 3235   6.520   2.049   1.884
  779SOL    HW1 3236   6.464   2.021   1.806
  779SOL    HW2 3237   6.537   1.971   1.944
  780SOL     OW 3238   0.994   2.074   4.624
  780SOL    HW1 3239   1.038   2.142   4.683
  780SOL    HW2 3240   1.063   2.022   4.575
  781SOL     OW 3241   5.480   5.812   0.946
  781SOL    HW1 3242   5.429   5.880   0.999
  781SOL    HW2 3243   5.481   5.839   0.850
  782SOL     OW 3244   1.323   3.351   5.388
  782SOL    HW1 3245   1.311   3.352   5.288
  782SOL    HW2 3246   1.302   3.260   5.423
  783SOL     OW 3247   5.079   4.536   1.967
  783SOL    HW1 3248   5.023   4.577   1.895
  783SOL    HW2 3249   5.159   4.492   1.926
  784SOL     OW 3250   4.082   4.918   1.898
  784SOL    HW1 3251   3.988   4.894   1.875
  784SOL    HW2 3252   4.084   5.010   1.938
  785SOL     OW 3253   0.555   1.000   3.444
  785SOL    HW1 3254   0.475   0.945   3.420
  785SOL    HW2 3255   0.638   0.951   3.418
  786SOL     OW 3256   6.781   0.843   2.530
  786SOL    HW1 3257   6.704   0.904   2.550
  786SOL    HW2 3258   6.814   0.802   2.615
  787SOL     OW 3259   1.527   0.295   0.000
  787SOL    HW1 3260   1.534   0.198   0.022
  787SOL    HW2 3261   1.482   0.307   6.941
  788SOL     OW 3262   4.663   2.180   1.011
  788SOL    HW1 3263   4.565   2.169   1.001
  788SOL    HW2 3264   4.709   2.135   0.934
  789SOL     OW 3265   4.491   4.893   1.926
  789SOL    HW1 3266   4.416   4.931   1.980
  789SOL    HW2 3267   4.487   4.793   1.930
  790SOL     OW 3268   2.406   1.450   2.888
  790SOL    HW1 3269   2.448   1.511   2.820
  790SOL    HW2 3270   2.456   1.364   2.891
  791SOL     OW 3271   2.510   6.178   5.272
  791SOL    HW1 3272   2.480   6.140   5.359
  791SOL    HW2 3273   2.557   6.107   5.218
  792SOL     OW 3274   0.846   0.635   1.780
  792SOL    HW1 3275   0.858   0.537   1.766
  792SOL    HW2 3276   0.876   0.659   1.873
  793SOL     OW 3277   5.140   5.665   4.851
  793SOL    HW1 3278   5.234   5.632   4.856
  793SOL    HW2 3279   5.108   5.688   4.943
  794SOL     OW 3280   2.764   3.854   5.675
  794SOL    HW1 3281   2.667   3.876   5.691
  794SOL    HW2 3282   2.806   3.826   5.761
  795SOL     OW 3283   3.881   0.592   5.529
  795SOL    HW1 3284   3.931   0.658   5.473
  795SOL    HW2 3285   3.849   0.517   5.471
  796SOL     OW 3286   1.050   2.693   6.947
  796SOL    HW1 3287   1.062   2.751   7.028
  796SOL    HW2 3288   1.110   2.726   6.874
  797SOL     OW 3289   4.940   0.564   0.929
  797SOL    HW1 3290   5.018   0.625   0.917
  797SOL    HW2 3291   4.860   0.602   0.884
  798SOL     OW 3292   3.895   6.698   2.060
  798SOL    HW1 3293   3.909   6.712   2.158
  798SOL    HW2 3294   3.932   6.608   2.034
  799SOL     OW 3295   0.690   0.226   6.305
  799SOL    HW1 3296   0.639   0.309   6.283
  799SOL    HW2 3297   0.781   0.251   6.340
  800SOL     OW 3298   6.552   0.977   2.564
  800SOL    HW1 3299   6.473   0.917   2.555
  800SOL    HW2 3300   6.527   1.056   2.620
  801SOL     OW 3301   2.322   4.360   5.083
  801SOL    HW1 3302   2.365   4.330   5.168
  801SOL    HW2 3303   2.306   4.280   5.024
  802SOL     OW 3304   3.292   2.349   6.840
  802SOL    HW1 3305   3.215   2.411   6.831
  802SOL    HW2 3306   3.344   2.348   6.754
  803SOL     OW 3307   1.416   0.404   5.803
  803SOL    HW1 3308   1.331   0.356   5.782
  803SOL    HW2 3309   1.397   0.479   5.866
  804SOL     OW 3310   6.563   6.642   1.325
  804SOL    HW1 3311   6.636   6.703   1.358
  804SOL    HW2 3312   6.538   6.579   1.398
  805SOL     OW 3313   1.926   0.501   3.998
  805SOL    HW1 3314   1.973   0.578   3.954
  805SOL    HW2 3315   1.910   0.523   4.095
  806SOL     OW 3316   5.923   0.635   6.213
  806SOL    HW1 3317   5.917   0.589   6.124
  806SOL    HW2 3318   5.833   0.674   6.236
  807SOL     OW 3319   0.533   6.958   4.240
  807SOL    HW1 3320   0.603   6.958   4.311
  807SOL    HW2 3321   0.442   6.955   4.283
  808SOL     OW 3322   5.061   3.098   0.109
  808SOL    HW1 3323   4.978   3.130   0.156
  808SOL    HW2 3324   5.118   3.048   0.173
  809SOL     OW 3325   0.983   4.612   0.966
  809SOL    HW1 3326   0.976   4.528   1.020
  809SOL    HW2 3327   0.937   4.686   1.014
  810SOL     OW 3328   3.512   4.207   0.059
  810SOL    HW1 3329   3.436   4.218   0.122
  810SOL    HW2 3330   3.503   4.273   7.014
  811SOL     OW 3331   5.447   5.507   4.178
  811SOL    HW1 3332   5.515   5.544   4.115
  811SOL    HW2 3333   5.488   5.434   4.233
  812SOL     OW 3334   6.815   1.965   1.991
  812SOL    HW1 3335   6.793   1.895   2.059
  812SOL    HW2 3336   6.900   2.011   2.017
  813SOL     OW 3337   3.105   0.457   4.411
  813SOL    HW1 3338   3.116   0.457   4.311
  813SOL    HW2 3339   3.010   0.480   4.433
  814SOL     OW 3340   6.634   5.650   2.566
  814SOL    HW1 3341   6.614   5.719   2.635
  814SOL    HW2 3342   6.712   5.678   2.511
  815SOL     OW 3343   5.754   3.207   3.515
  815SOL    HW1 3344   5.697   3.276   3.561
  815SOL    HW2 3345   5.814   3.252   3.449
  816SOL     OW 3346   5.306   5.307   0.243
  816SOL    HW1 3347   5.250   5.319   0.325
  816SOL    HW2 3348   5.357   5.392   0.225
  817SOL     OW 3349   0.908   5.417   1.392
  817SOL    HW1 3350   0.985   5.462   1.437
  817SOL    HW2 3351   0.834   5.404   1.459
  818SOL     OW 3352   5.729   2.815   3.859
  818SOL    HW1 3353   5.779   2.766   3.787
  818SOL    HW2 3354   5.714   2.753   3.936
  819SOL     OW 3355   6.019   2.733   1.490
  819SOL    HW1 3356   6.101   2.764   1.538
  819SOL    HW2 3357   6.036   2.642   1.453
  820SOL     OW 3358   3.053   2.172   4.790
  820SOL    HW1 3359   3.078   2.243   4.855
  820SOL    HW2 3360   3.131   2.151   4.731
  821SOL     OW 3361   6.696   4.783   6.289
  821SOL    HW1 3362   6.704   4.684   6.279
  821SOL    HW2 3363   6.617   4.816   6.238
  822SOL     OW 3364   0.010   3.846   3.083
  822SOL    HW1 3365   0.091   3.875   3.134
  822SOL    HW2 3366   0.012   3.746   3.071
  823SOL     OW 3367   6.672   4.513   6.273
  823SOL    HW1 3368   6.620   4.509   6.188
  823SOL    HW2 3369   6.737   4.437   6.276
  824SOL     OW 3370   4.565   1.179   6.186
  824SOL    HW1 3371   4.567   1.272   6.222
  824SOL    HW2 3372   4.654   1.156   6.146
  825SOL     OW 3373   6.300   5.805   0.709
  825SOL    HW1 3374   6.230   5.826   0.641
  825SOL    HW2 3375   6.267   5.733   0.770
  826SOL     OW 3376   3.698   2.562   5.678
  826SOL    HW1 3377   3.636   2.483   5.674
  826SOL    HW2 3378   3.718   2.594   5.586
  827SOL     OW 3379   2.884   4.184   5.306
  827SOL    HW1 3380   2.798   4.138   5.326
  827SOL    HW2 3381   2.910   4.167   5.211
  828SOL     OW 3382   6.103   6.117   6.275
  828SOL    HW1 3383   6.197   6.142   6.249
  828SOL    HW2 3384   6.096   6.017   6.282
  829SOL     OW 3385   3.573   3.270   1.727
  829SOL    HW1 3386   3.576   3.226   1.817
  829SOL    HW2 3387   3.490   3.242   1.679
  830SOL     OW 3388   5.720   4.929   6.710
  830SOL    HW1 3389   5.674   4.842   6.692
  830SOL    HW2 3390   5.652   5.003   6.711
  831SOL     OW 3391   6.001   0.110   1.040
  831SOL    HW1 3392   5.980   0.201   1.078
  831SOL    HW2 3393   5.928   0.046   1.065
  832SOL     OW 3394   4.411   1.937   4.057
  832SOL    HW1 3395   4.446   2.023   4.019
  832SOL    HW2 3396   4.424   1.936   4.156
  833SOL     OW 3397   1.917   3.738   6.310
  833SOL    HW1 3398   1.914   3.641   6.285
  833SOL    HW2 3399   1.881   3.750   6.402
  834SOL     OW 3400   5.316   3.537   1.232
  834SOL    HW1 3401   5.404   3.501   1.201
  834SOL    HW2 3402   5.260   3.461   1.266
  835SOL     OW 3403   2.581   0.334   4.955
  835SOL    HW1 3404   2.554   0.298   5.044
  835SOL    HW2 3405   2.503   0.378   4.911
  836SOL     OW 3406   3.430   0.696   5.370
  836SOL    HW1 3407   3.430   0.612   5.315
  836SOL    HW2 3408   3.369   0.685   5.448
  837SOL     OW 3409   0.286   0.023   0.991
  837SOL    HW1 3410   0.320   6.979   0.935
  837SOL    HW2 3411   0.357   0.052   1.055
  838SOL     OW 3412   2.763   6.267   4.620
  838SOL    HW1 3413   2.761   6.362   4.650
  838SOL    HW2 3414   2.691   6.216   4.668
  839SOL     OW 3415   2.143   1.528   1.813
  839SOL    HW1 3416   2.112   1.511   1.907
  839SOL    HW2 3417   2.144   1.442   1.763
  840SOL     OW 3418   6.214   5.860   6.773
  840SOL    HW1 3419   6.223   5.891   6.679
  840SOL    HW2 3420   6.227   5.936   6.835
  841SOL     OW 3421   3.435   5.606   6.042
  841SOL    HW1 3422   3.512   5.556   6.080
  841SOL    HW2 3423   3.419   5.578   5.947
  842SOL     OW 3424   3.605   6.989   6.191
  842SOL    HW1 3425   3.545   0.025   6.238
  842SOL    HW2 3426   3.700   7.005   6.219
  843SOL     OW 3427   1.480   1.815   1.556
  843SOL    HW1 3428   1.520   1.888   1.500
  843SOL    HW2 3429   1.553   1.759   1.595
  844SOL     OW 3430   6.969   6.637   1.073
  844SOL    HW1 3431   6.982   6.708   1.142
  844SOL    HW2 3432   6.912   6.564   1.110
  845SOL     OW 3433   5.220   4.047   3.503
  845SOL    HW1 3434   5.257   4.030   3.412
  845SOL    HW2 3435   5.191   3.960   3.544
  846SOL     OW 3436   2.409   0.550   5.941
  846SOL    HW1 3437   2.326   0.495   5.946
  846SOL    HW2 3438   2.456   0.533   5.854
  847SOL     OW 3439   1.099   3.195   1.451
  847SOL    HW1 3440   1.135   3.136   1.378
  847SOL    HW2 3441   1.115   3.151   1.539
  848SOL     OW 3442   6.662   6.627   5.627
  848SOL    HW1 3443   6.621   6.663   5.711
  848SOL    HW2 3444   6.605   6.553   5.591
  849SOL     OW 3445   6.128   4.286   6.059
  849SOL    HW1 3446   6.080   4.374   6.056
  849SOL    HW2 3447   6.111   4.236   5.974
  850SOL     OW 3448   6.291   6.885   4.712
  850SOL    HW1 3449   6.295   6.980   4.743
  850SOL    HW2 3450   6.239   6.831   4.778
  851SOL     OW 3451   0.230   2.847   0.281
  851SOL    HW1 3452   0.245   2.946   0.291
  851SOL    HW2 3453   0.138   2.824   0.312
  852SOL     OW 3454   0.883   4.132   0.419
  852SOL    HW1 3455   0.980   4.140   0.396
  852SOL    HW2 3456   0.869   4.152   0.516
  853SOL     OW 3457   0.987   4.805   0.267
  853SOL    HW1 3458   0.928   4.883   0.245
  853SOL    HW2 3459   1.065   4.805   0.205
  854SOL     OW 3460   4.950   5.855   0.194
  854SOL    HW1 3461   4.867   5.807   0.223
  854SOL    HW2 3462   4.949   5.948   0.229
  855SOL     OW 3463   6.433   0.148   0.532
  855SOL    HW1 3464   6.453   0.246   0.534
  855SOL    HW2 3465   6.453   0.112   0.441
  856SOL     OW 3466   1.514   1.290   6.827
  856SOL    HW1 3467   1.602   1.243   6.836
  856SOL    HW2 3468   1.499   1.348   6.908
  857SOL     OW 3469   6.467   5.192   2.503
  857SOL    HW1 3470   6.458   5.166   2.407
  857SOL    HW2 3471   6.512   5.282   2.509
  858SOL     OW 3472   3.237   5.049   1.431
  858SOL    HW1 3473   3.268   4.954   1.436
  858SOL    HW2 3474   3.263   5.088   1.343
  859SOL     OW 3475   5.766   6.435   5.034
  859SOL    HW1 3476   5.747   6.366   5.104
  859SOL    HW2 3477   5.858   6.472   5.048
  860SOL     OW 3478   6.345   2.340   6.611
  860SOL    HW1 3479   6.352   2.398   6.693
  860SOL    HW2 3480   6.318   2.396   6.533
  861SOL     OW 3481   2.488   5.115   3.765
  861SOL    HW1 3482   2.465   5.065   3.848
  861SOL    HW2 3483   2.475   5.056   3.685
  862SOL     OW 3484   2.216   4.043   3.113
  862SOL    HW1 3485   2.294   4.007   3.062
  862SOL    HW2 3486   2.184   3.973   3.177
  863SOL     OW 3487   6.149   1.034   6.332
  863SOL    HW1 3488   6.188   1.065   6.419
  863SOL    HW2 3489   6.143   0.934   6.332
  864SOL     OW 3490   4.021   6.194   4.474
  864SOL    HW1 3491   3.945   6.214   4.535
  864SOL    HW2 3492   4.107   6.196   4.525
  865SOL     OW 3493   1.799   0.162   5.792
  865SOL    HW1 3494   1.701   0.157   5.807
  865SOL    HW2 3495   1.833   0.071   5.766
  866SOL     OW 3496   2.769   0.747   0.533
  866SOL    HW1 3497   2.816   0.833   0.551
  866SOL    HW2 3498   2.821   0.672   0.574
  867SOL     OW 3499   4.829   3.634   0.892
  867SOL    HW1 3500   4.882   3.706   0.848
  867SOL    HW2 3501   4.884   3.550   0.895
  868SOL     OW 3502   6.753   1.187   1.543
  868SOL    HW1 3503   6.700   1.230   1.615
  868SOL    HW2 3504   6.849   1.213   1.552
  869SOL     OW 3505   0.008   4.436   2.959
  869SOL    HW1 3506   6.979   4.430   3.040
  869SOL    HW2 3507   0.089   4.490   2.981
  870SOL     OW 3508   4.040   4.345   1.113
  870SOL    HW1 3509   4.018   4.431   1.160
  870SOL    HW2 3510   3.998   4.345   1.023
  871SOL     OW 3511   5.109   2.168   3.635
  871SOL    HW1 3512   5.094   2.245   3.574
  871SOL    HW2 3513   5.140   2.202   3.724
  872SOL     OW 3514   5.745   2.674   4.100
  872SOL    HW1 3515   5.780   2.600   4.158
  872SOL    HW2 3516   5.817   2.741   4.085
  873SOL     OW 3517   5.154   5.700   5.349
  873SOL    HW1 3518   5.099   5.730   5.427
  873SOL    HW2 3519   5.109   5.728   5.264
  874SOL     OW 3520   6.696   3.902   6.706
  874SOL    HW1 3521   6.793   3.905   6.680
  874SOL    HW2 3522   6.661   3.810   6.693
  875SOL     OW 3523   4.658   5.095   0.967
  875SOL    HW1 3524   4.561   5.119   0.967
  875SOL    HW2 3525   4.669   4.999   0.995
  876SOL     OW 3526   0.055   5.563   2.057
  876SOL    HW1 3527   7.007   5.501   2.061
  876SOL    HW2 3528   0.108   5.556   2.142
  877SOL     OW 3529   3.141   4.559   6.195
  877SOL    HW1 3530   3.181   4.539   6.106
  877SOL    HW2 3531   3.187   4.639   6.235
  878SOL     OW 3532   4.530   6.548   4.648
  878SOL    HW1 3533   4.486   6.518   4.564
  878SOL    HW2 3534   4.627   6.524   4.646
  879SOL     OW 3535   4.292   0.571   1.459
  879SOL    HW1 3536   4.254   0.503   1.396
  879SOL    HW2 3537   4.382   0.600   1.427
  880SOL     OW 3538   3.264   3.389   4.195
  880SOL    HW1 3539   3.280   3.482   4.227
  880SOL    HW2 3540   3.166   3.368   4.199
  881SOL     OW 3541   5.118   3.713   5.682
  881SOL    HW1 3542   5.100   3.764   5.766
  881SOL    HW2 3543   5.075   3.623   5.688
  882SOL     OW 3544   0.966   2.205   3.940
  882SOL    HW1 3545   1.053   2.255   3.940
  882SOL    HW2 3546   0.961   2.146   4.021
  883SOL     OW 3547   3.203   0.732   1.021
  883SOL    HW1 3548   3.244   0.654   1.068
  883SOL    HW2 3549   3.258   0.814   1.038
  884SOL     OW 3550   6.531   4.248   6.190
  884SOL    HW1 3551   6.484   4.325   6.146
  884SOL    HW2 3552   6.463   4.190   6.235
  885SOL     OW 3553   3.740   0.903   4.942
  885SOL    HW1 3554   3.772   0.864   5.028
  885SOL    HW2 3555   3.796   0.868   4.867
  886SOL     OW 3556   3.568   0.492   0.481
  886SOL    HW1 3557   3.519   0.571   0.445
  886SOL    HW2 3558   3.541   0.477   0.576
  887SOL     OW 3559   3.636   6.567   3.912
  887SOL    HW1 3560   3.727   6.572   3.953
  887SOL    HW2 3561   3.636   6.616   3.825
  888SOL     OW 3562   0.185   5.858   3.053
  888SOL    HW1 3563   0.097   5.814   3.071
  888SOL    HW2 3564   0.173   5.930   2.985
  889SOL     OW 3565   0.029   1.716   6.917
  889SOL    HW1 3566   0.116   1.688   6.958
  889SOL    HW2 3567   0.003   1.806   6.951
  890SOL     OW 3568   2.061   5.005   3.226
  890SOL    HW1 3569   2.110   5.085   3.258
  890SOL    HW2 3570   2.081   4.927   3.286
  891SOL     OW 3571   6.391   3.513   1.306
  891SOL    HW1 3572   6.298   3.521   1.343
  891SOL    HW2 3573   6.454   3.487   1.380
  892SOL     OW 3574   2.922   3.758   4.666
  892SOL    HW1 3575   2.966   3.696   4.601
  892SOL    HW2 3576   2.926   3.718   4.758
  893SOL     OW 3577   2.258   6.443   3.626
  893SOL    HW1 3578   2.338   6.451   3.567
  893SOL    HW2 3579   2.229   6.534   3.656
  894SOL     OW 3580   0.974   3.156   2.414
  894SOL    HW1 3581   0.949   3.074   2.363
  894SOL    HW2 3582   0.897   3.220   2.415
  895SOL     OW 3583   1.017   5.196   3.779
  895SOL    HW1 3584   0.956   5.116   3.782
  895SOL    HW2 3585   0.989   5.261   3.849
  896SOL     OW 3586   5.217   4.687   1.635
  896SOL    HW1 3587   5.213   4.633   1.720
  896SOL    HW2 3588   5.312   4.712   1.617
  897SOL     OW 3589   3.727   1.317   6.848
  897SOL    HW1 3590   3.708   1.399   6.793
  897SOL    HW2 3591   3.792   1.339   6.920
  898SOL     OW 3592   3.897   6.526   3.057
  898SOL    HW1 3593   3.922   6.575   3.140
  898SOL    HW2 3594   3.854   6.439   3.083
  899SOL     OW 3595   0.758   6.487   0.201
  899SOL    HW1 3596   0.848   6.449   0.177
  899SOL    HW2 3597   0.757   6.511   0.298
  900SOL     OW 3598   5.494   0.298   0.153
  900SOL    HW1 3599   5.506   0.206   0.115
  900SOL    HW2 3600   5.403   0.332   0.129
  901SOL     OW 3601   1.775   0.810   3.615
  901SOL    HW1 3602   1.703   0.856   3.563
  901SOL    HW2 3603   1.744   0.794   3.709
  902SOL     OW 3604   1.034   2.359   1.259
  902SOL    HW1 3605   1.009   2.349   1.162
  902SOL    HW2 3606   0.951   2.368   1.314
  903SOL     OW 3607   0.901   3.254   6.911
  903SOL    HW1 3608   0.811   3.282   6.942
  903SOL    HW2 3609   0.930   3.312   6.835
  904SOL     OW 3610   1.982   1.478   2.467
  904SOL    HW1 3611   1.935   1.408   2.412
  904SOL    HW2 3612   1.932   1.493   2.552
  905SOL     OW 3613   5.318   3.514   6.168
  905SOL    HW1 3614   5.363   3.527   6.080
  905SOL    HW2 3615   5.381   3.540   6.242
  906SOL     OW 3616   0.411   2.086   6.455
  906SOL    HW1 3617   0.352   2.164   6.479
  906SOL    HW2 3618   0.461   2.056   6.536
  907SOL     OW 3619   5.277   3.118   0.515
  907SOL    HW1 3620   5.301   3.215   0.505
  907SOL    HW2 3621   5.213   3.108   0.591
  908SOL     OW 3622   2.390   4.672   3.016
  908SOL    HW1 3623   2.334   4.615   3.077
  908SOL    HW2 3624   2.485   4.669   3.048
  909SOL     OW 3625   4.208   6.972   1.787
  909SOL    HW1 3626   4.178   0.029   1.749
  909SOL    HW2 3627   4.222   6.906   1.713
  910SOL     OW 3628   3.242   1.893   1.057
  910SOL    HW1 3629   3.144   1.905   1.065
  910SOL    HW2 3630   3.282   1.875   1.147
  911SOL     OW 3631   1.259   6.423   6.588
  911SOL    HW1 3632   1.347   6.448   6.548
  911SOL    HW2 3633   1.186   6.445   6.523
  912SOL     OW 3634   6.253   1.147   3.128
  912SOL    HW1 3635   6.254   1.183   3.221
  912SOL    HW2 3636   6.168   1.174   3.082
  913SOL     OW 3637   3.533   0.567   3.687
  913SOL    HW1 3638   3.461   0.588   3.622
  913SOL    HW2 3639   3.558   0.470   3.678
  914SOL     OW 3640   2.007   7.017   6.045
  914SOL    HW1 3641   2.062   6.990   6.125
  914SOL    HW2 3642   2.065   0.036   5.981
  915SOL     OW 3643   6.687   3.200   6.943
  915SOL    HW1 3644   6.600   3.189   6.991
  915SOL    HW2 3645   6.710   3.297   6.938
  916SOL     OW 3646   1.450   3.152   2.488
  916SOL    HW1 3647   1.365   3.185   2.529
  916SOL    HW2 3648   1.430   3.077   2.425
  917SOL     OW 3649   0.744   6.782   1.660
  917SOL    HW1 3650   0.829   6.762   1.708
  917SOL    HW2 3651   0.667   6.764   1.721
  918SOL     OW 3652   3.752   0.496   0.864
  918SOL    HW1 3653   3.795   0.571   0.913
  918SOL    HW2 3654   3.771   0.504   0.766
  919SOL     OW 3655   6.737   0.137   2.571
  919SOL    HW1 3656   6.708   0.123   2.476
  919SOL    HW2 3657   6.658   0.164   2.626
  920SOL     OW 3658   2.533   4.581   2.100
  920SOL    HW1 3659   2.481   4.500   2.129
  920SOL    HW2 3660   2.630   4.558   2.095
  921SOL     OW 3661   3.908   5.430   4.089
  921SOL    HW1 3662   3.954   5.413   4.176
  921SOL    HW2 3663   3.919   5.351   4.029
  922SOL     OW 3664   2.954   3.412   4.144
  922SOL    HW1 3665   2.929   3.408   4.241
  922SOL    HW2 3666   2.926   3.500   4.106
  923SOL     OW 3667   2.383   3.533   6.531
  923SOL    HW1 3668   2.435   3.585   6.463
  923SOL    HW2 3669   2.302   3.584   6.557
  924SOL     OW 3670   6.318   3.876   1.964
  924SOL    HW1 3671   6.295   3.782   1.989
  924SOL    HW2 3672   6.290   3.892   1.869
  925SOL     OW 3673   0.110   1.938   6.714
  925SOL    HW1 3674   0.205   1.914   6.693
  925SOL    HW2 3675   0.090   1.916   6.809
  926SOL     OW 3676   6.735   0.888   1.549
  926SOL    HW1 3677   6.651   0.834   1.545
  926SOL    HW2 3678   6.714   0.981   1.579
  927SOL     OW 3679   5.365   4.046   3.273
  927SOL    HW1 3680   5.426   4.051   3.352
  927SOL    HW2 3681   5.419   4.039   3.189
  928SOL     OW 3682   2.166   5.817   0.580
  928SOL    HW1 3683   2.107   5.898   0.575
  928SOL    HW2 3684   2.213   5.803   0.493
  929SOL     OW 3685   0.648   0.971   6.541
  929SOL    HW1 3686   0.628   1.035   6.466
  929SOL    HW2 3687   0.567   0.917   6.561
  930SOL     OW 3688   5.584   6.654   5.981
  930SOL    HW1 3689   5.560   6.557   5.992
  930SOL    HW2 3690   5.663   6.663   5.922
  931SOL     OW 3691   6.740   1.216   4.724
  931SOL    HW1 3692   6.693   1.229   4.811
  931SOL    HW2 3693   6.838   1.224   4.737
  932SOL     OW 3694   3.112   0.741   3.612
  932SOL    HW1 3695   3.050   0.673   3.652
  932SOL    HW2 3696   3.064   0.790   3.540
  933SOL     OW 3697   1.689   5.693   3.417
  933SOL    HW1 3698   1.686   5.666   3.321
  933SOL    HW2 3699   1.778   5.733   3.438
  934SOL     OW 3700   2.674   6.033   6.881
  934SOL    HW1 3701   2.683   6.102   6.809
  934SOL    HW2 3702   2.600   6.059   6.942
  935SOL     OW 3703   4.982   3.896   4.518
  935SOL    HW1 3704   5.008   3.800   4.512
  935SOL    HW2 3705   5.001   3.929   4.611
  936SOL     OW 3706   6.585   0.442   5.926
  936SOL    HW1 3707   6.573   0.366   5.863
  936SOL    HW2 3708   6.652   0.506   5.889
  937SOL     OW 3709   5.825   1.727   6.229
  937SOL    HW1 3710   5.843   1.663   6.304
  937SOL    HW2 3711   5.792   1.814   6.266
  938SOL     OW 3712   5.931   4.435   6.402
  938SOL    HW1 3713   5.936   4.453   6.500
  938SOL    HW2 3714   6.023   4.429   6.364
  939SOL     OW 3715   0.638   6.863   4.013
  939SOL    HW1 3716   0.690   6.927   3.957
  939SOL    HW2 3717   0.589   6.912   4.085
  940SOL     OW 3718   0.227   4.069   1.024
  940SOL    HW1 3719   0.215   4.162   0.988
  940SOL    HW2 3720   0.166   4.056   1.101
  941SOL     OW 3721   5.774   2.124   7.016
  941SOL    HW1 3722   5.799   2.220   7.022
  941SOL    HW2 3723   5.770   2.084   0.078
  942SOL     OW 3724   6.219   6.874   2.877
  942SOL    HW1 3725   6.216   6.789   2.930
  942SOL    HW2 3726   6.314   6.902   2.863
  943SOL     OW 3727   1.520   4.076   2.804
  943SOL    HW1 3728   1.611   4.034   2.815
  943SOL    HW2 3729   1.528   4.159   2.749
  944SOL     OW 3730   0.100   5.288   5.467
  944SOL    HW1 3731   0.195   5.300   5.495
  944SOL    HW2 3732   0.060   5.212   5.518
  945SOL     OW 3733   0.579   4.577   6.204
  945SOL    HW1 3734   0.626   4.625   6.129
  945SOL    HW2 3735   0.638   4.503   6.237
  946SOL     OW 3736   4.890   4.333   5.661
  946SOL    HW1 3737   4.907   4.380   5.747
  946SOL    HW2 3738   4.792   4.317   5.650
  947SOL     OW 3739   3.475   3.090   3.339
  947SOL    HW1 3740   3.451   3.129   3.250
  947SOL    HW2 3741   3.497   3.164   3.403
  948SOL     OW 3742   5.380   0.824   2.898
  948SOL    HW1 3743   5.300   0.764   2.902
  948SOL    HW2 3744   5.418   0.836   2.989
  949SOL     OW 3745   2.523   5.680   0.330
  949SOL    HW1 3746   2.466   5.600   0.352
  949SOL    HW2 3747   2.607   5.649   0.286
  950SOL     OW 3748   5.982   5.623   2.190
  950SOL    HW1 3749   5.933   5.574   2.262
  950SOL    HW2 3750   6.069   5.577   2.171
  951SOL     OW 3751   1.637   0.165   4.412
  951SOL    HW1 3752   1.657   0.100   4.339
  951SOL    HW2 3753   1.592   0.118   4.488
  952SOL     OW 3754   4.592   2.635   3.330
  952SOL    HW1 3755   4.638   2.592   3.252
  952SOL    HW2 3756   4.495   2.645   3.310
  953SOL     OW 3757   5.870   5.392   4.559
  953SOL    HW1 3758   5.918   5.440   4.632
  953SOL    HW2 3759   5.772   5.411   4.565
  954SOL     OW 3760   3.468   5.957   2.344
  954SOL    HW1 3761   3.387   5.980   2.399
  954SOL    HW2 3762   3.528   6.037   2.339
  955SOL     OW 3763   0.862   3.964   1.157
  955SOL    HW1 3764   0.951   4.002   1.183
  955SOL    HW2 3765   0.838   3.996   1.065
  956SOL     OW 3766   6.168   0.332   1.453
  956SOL    HW1 3767   6.194   0.260   1.388
  956SOL    HW2 3768   6.110   0.294   1.524
  957SOL     OW 3769   5.421   2.736   2.427
  957SOL    HW1 3770   5.364   2.818   2.430
  957SOL    HW2 3771   5.467   2.724   2.515
  958SOL     OW 3772   4.521   0.830   1.450
  958SOL    HW1 3773   4.437   0.832   1.504
  958SOL    HW2 3774   4.497   0.824   1.353
  959SOL     OW 3775   3.553   6.436   4.503
  959SOL    HW1 3776   3.615   6.422   4.426
  959SOL    HW2 3777   3.475   6.373   4.495
  960SOL     OW 3778   0.986   0.399   1.377
  960SOL    HW1 3779   0.908   0.367   1.431
  960SOL    HW2 3780   1.019   0.325   1.319
  961SOL     OW 3781   4.286   6.554   3.686
  961SOL    HW1 3782   4.355   6.510   3.628
  961SOL    HW2 3783   4.308   6.651   3.695
  962SOL     OW 3784   6.770   0.648   4.878
  962SOL    HW1 3785   6.799   0.738   4.846
  962SOL    HW2 3786   6.689   0.658   4.936
  963SOL     OW 3787   5.544   1.026   6.780
  963SOL    HW1 3788   5.634   0.991   6.753
  963SOL    HW2 3789   5.531   1.117   6.741
  964SOL     OW 3790   5.201   4.935   6.732
  964SOL    HW1 3791   5.244   4.919   6.643
  964SOL    HW2 3792   5.270   4.969   6.796
  965SOL     OW 3793   6.174   1.442   2.254
  965SOL    HW1 3794   6.171   1.342   2.258
  965SOL    HW2 3795   6.091   1.480   2.294
  966SOL     OW 3796   5.449   2.515   2.829
  966SOL    HW1 3797   5.533   2.561   2.799
  966SOL    HW2 3798   5.370   2.571   2.806
  967SOL     OW 3799   2.920   4.705   1.001
  967SOL    HW1 3800   2.856   4.770   1.040
  967SOL    HW2 3801   2.977   4.666   1.073
  968SOL     OW 3802   4.583   0.677   2.125
  968SOL    HW1 3803   4.550   0.586   2.101
  968SOL    HW2 3804   4.509   0.728   2.170
  969SOL     OW 3805   2.480   3.981   5.708
  969SOL    HW1 3806   2.424   3.932   5.641
  969SOL    HW2 3807   2.532   4.053   5.661
  970SOL     OW 3808   5.165   0.580   6.270
  970SOL    HW1 3809   5.132   0.522   6.344
  970SOL    HW2 3810   5.089   0.608   6.212
  971SOL     OW 3811   6.858   2.855   2.567
  971SOL    HW1 3812   6.821   2.783   2.625
  971SOL    HW2 3813   6.806   2.860   2.482
  972SOL     OW 3814   5.872   1.529   2.032
  972SOL    HW1 3815   5.864   1.579   1.946
  972SOL    HW2 3816   5.960   1.481   2.035
  973SOL     OW 3817   1.135   5.422   6.818
  973SOL    HW1 3818   1.057   5.484   6.824
  973SOL    HW2 3819   1.207   5.464   6.763
  974SOL     OW 3820   6.150   5.613   1.542
  974SOL    HW1 3821   6.132   5.629   1.445
  974SOL    HW2 3822   6.193   5.694   1.582
  975SOL     OW 3823   2.440   0.240   0.511
  975SOL    HW1 3824   2.383   0.272   0.587
  975SOL    HW2 3825   2.528   0.289   0.512
  976SOL     OW 3826   0.216   3.805   1.358
  976SOL    HW1 3827   0.315   3.798   1.357
  976SOL    HW2 3828   0.189   3.894   1.395
  977SOL     OW 3829   0.334   0.627   2.246
  977SOL    HW1 3830   0.399   0.589   2.181
  977SOL    HW2 3831   0.277   0.696   2.201
  978SOL     OW 3832   5.495   2.215   0.105
  978SOL    HW1 3833   5.494   2.138   0.041
  978SOL    HW2 3834   5.453   2.295   0.062
  979SOL     OW 3835   0.694   3.376   0.044
  979SOL    HW1 3836   0.748   3.331   0.115
  979SOL    HW2 3837   0.666   3.466   0.076
  980SOL     OW 3838   5.244   2.013   4.030
  980SOL    HW1 3839   5.282   1.950   4.097
  980SOL    HW2 3840   5.310   2.086   4.012
  981SOL     OW 3841   0.210   1.091   4.677
  981SOL    HW1 3842   0.211   1.061   4.772
  981SOL    HW2 3843   0.141   1.038   4.627
  982SOL     OW 3844   0.671   1.225   4.964
  982SOL    HW1 3845   0.702   1.287   5.037
  982SOL    HW2 3846   0.734   1.230   4.887
  983SOL     OW 3847   6.597   2.793   3.597
  983SOL    HW1 3848   6.640   2.882   3.610
  983SOL    HW2 3849   6.573   2.781   3.500
  984SOL     OW 3850   2.511   2.569   3.821
  984SOL    HW1 3851   2.475   2.558   3.913
  984SOL    HW2 3852   2.596   2.517   3.811
  985SOL     OW 3853   6.505   3.746   4.813
  985SOL    HW1 3854   6.596   3.710   4.792
  985SOL    HW2 3855   6.443   3.670   4.835
  986SOL     OW 3856   4.407   4.244   1.196
  986SOL    HW1 3857   4.326   4.238   1.255
  986SOL    HW2 3858   4.402   4.327   1.140
  987SOL     OW 3859   4.607   6.583   2.567
  987SOL    HW1 3860   4.705   6.604   2.565
  987SOL    HW2 3861   4.593   6.490   2.532
  988SOL     OW 3862   3.289   4.290   0.877
  988SOL    HW1 3863   3.274   4.379   0.834
  988SOL    HW2 3864   3.203   4.239   0.878
  989SOL     OW 3865   6.741   2.054   6.356
  989SOL    HW1 3866   6.716   2.062   6.260
  989SOL    HW2 3867   6.694   1.975   6.396
  990SOL     OW 3868   3.358   0.683   2.198
  990SOL    HW1 3869   3.434   0.687   2.133
  990SOL    HW2 3870   3.351   0.770   2.246
  991SOL     OW 3871   0.490   3.736   3.522
  991SOL    HW1 3872   0.529   3.653   3.481
  991SOL    HW2 3873   0.465   3.718   3.617
  992SOL     OW 3874   0.077   3.414   2.070
  992SOL    HW1 3875   0.175   3.401   2.056
  992SOL    HW2 3876   0.046   3.360   2.148
  993SOL     OW 3877   7.007   4.663   0.760
  993SOL    HW1 3878   7.010   4.588   0.694
  993SOL    HW2 3879   6.923   4.656   0.814
  994SOL     OW 3880   4.281   5.004   2.058
  994SOL    HW1 3881   4.240   5.093   2.077
  994SOL    HW2 3882   4.210   4.939   2.031
  995SOL     OW 3883   3.726   3.154   6.088
  995SOL    HW1 3884   3.686   3.066   6.065
  995SOL    HW2 3885   3.767   3.150   6.179
  996SOL     OW 3886   3.616   4.979   4.795
  996SOL    HW1 3887   3.706   4.939   4.810
  996SOL    HW2 3888   3.567   4.986   4.882
  997SOL     OW 3889   1.212   6.899   3.023
  997SOL    HW1 3890   1.169   6.908   2.934
  997SOL    HW2 3891   1.251   6.987   3.051
  998SOL     OW 3892   5.895   0.433   5.967
  998SOL    HW1 3893   5.798   0.413   5.953
  998SOL    HW2 3894   5.912   0.529   5.947
  999SOL     OW 3895   5.293   3.942   2.165
  999SOL    HW1 3896   5.309   4.031   2.208
  999SOL    HW2 3897   5.348   3.873   2.210
 1000SOL     OW 3898   4.127   1.711   1.453
 1000SOL    HW1 3899   4.117   1.808   1.474
 1000SOL    HW2 3900   4.119   1.658   1.537
 1001SOL     OW 3901   4.061   5.981   2.293
 1001SOL    HW1 3902   4.083   5.932   2.208
 1001SOL    HW2 3903   4.019   6.069   2.271
 1002SOL     OW 3904   5.301   2.017   1.250
 1002SOL    HW1 3905   5.323   2.112   1.274
 1002SOL    HW2 3906   5.275   1.967   1.332
 1003SOL     OW 3907   2.215   5.242   3.047
 1003SOL    HW1 3908   2.143   5.274   3.107
 1003SOL    HW2 3909   2.278   5.183   3.098
 1004SOL     OW 3910   0.986   1.259   1.997
 1004SOL    HW1 3911   0.995   1.215   1.908
 1004SOL    HW2 3912   0.918   1.332   1.991
 1005SOL     OW 3913   1.898   3.067   4.216
 1005SOL    HW1 3914   1.950   3.003   4.273
 1005SOL    HW2 3915   1.800   3.057   4.234
 1006SOL     OW 3916   1.206   4.327   0.536
 1006SOL    HW1 3917   1.214   4.381   0.452
 1006SOL    HW2 3918   1.293   4.331   0.586
 1007SOL     OW 3919   4.195   0.981   5.916
 1007SOL    HW1 3920   4.241   0.966   5.829
 1007SOL    HW2 3921   4.236   0.924   5.987
 1008SOL     OW 3922   0.516   2.106   5.494
 1008SOL    HW1 3923   0.450   2.111   5.570
 1008SOL    HW2 3924   0.475   2.056   5.418
 1009SOL     OW 3925   0.034   5.506   5.692
 1009SOL    HW1 3926   7.009   5.434   5.735
 1009SOL    HW2 3927   7.006   5.559   5.631
 1010SOL     OW 3928   2.631   2.604   1.301
 1010SOL    HW1 3929   2.728   2.620   1.280
 1010SOL    HW2 3930   2.606   2.512   1.272
 1011SOL     OW 3931   1.229   5.290   3.380
 1011SOL    HW1 3932   1.295   5.231   3.332
 1011SOL    HW2 3933   1.243   5.385   3.351
 1012SOL     OW 3934   6.922   6.786   1.995
 1012SOL    HW1 3935   7.015   6.755   1.974
 1012SOL    HW2 3936   6.856   6.726   1.950
 1013SOL     OW 3937   0.402   0.908   6.279
 1013SOL    HW1 3938   0.312   0.951   6.284
 1013SOL    HW2 3939   0.414   0.846   6.358
 1014SOL     OW 3940   0.486   4.065   5.179
 1014SOL    HW1 3941   0.388   4.075   5.162
 1014SOL    HW2 3942   0.531   4.041   5.093
 1015SOL     OW 3943   1.887   0.253   6.048
 1015SOL    HW1 3944   1.858   0.236   5.954
 1015SOL    HW2 3945   1.882   0.168   6.100
 1016SOL     OW 3946   4.221   4.286   0.564
 1016SOL    HW1 3947   4.171   4.372   0.562
 1016SOL    HW2 3948   4.163   4.212   0.531
 1017SOL     OW 3949   3.891   2.176   1.055
 1017SOL    HW1 3950   3.825   2.226   1.111
 1017SOL    HW2 3951   3.979   2.225   1.056
 1018SOL     OW 3952   0.964   4.430   4.261
 1018SOL    HW1 3953   0.893   4.498   4.283
 1018SOL    HW2 3954   1.049   4.478   4.240
 1019SOL     OW 3955   6.995   5.872   1.257
 1019SOL    HW1 3956   6.940   5.834   1.183
 1019SOL    HW2 3957   0.055   5.826   1.259
 1020SOL     OW 3958   6.687   1.486   1.756
 1020SOL    HW1 3959   6.743   1.504   1.676
 1020SOL    HW2 3960   6.743   1.493   1.839
 1021SOL     OW 3961   5.583   6.696   2.031
 1021SOL    HW1 3962   5.536   6.766   1.977
 1021SOL    HW2 3963   5.678   6.689   2.000
 1022SOL     OW 3964   2.725   4.856   5.438
 1022SOL    HW1 3965   2.763   4.823   5.352
 1022SOL    HW2 3966   2.797   4.860   5.507
 1023SOL     OW 3967   0.357   1.202   2.848
 1023SOL    HW1 3968   0.428   1.193   2.917
 1023SOL    HW2 3969   0.393   1.250   2.768
 1024SOL     OW 3970   0.592   2.151   3.981
 1024SOL    HW1 3971   0.630   2.151   3.889
 1024SOL    HW2 3972   0.495   2.174   3.978
 1025SOL     OW 3973   3.883   3.327   0.575
 1025SOL    HW1 3974   3.857   3.354   0.482
 1025SOL    HW2 3975   3.823   3.374   0.640
 1026SOL     OW 3976   2.239   3.097   1.453
 1026SOL    HW1 3977   2.300   3.025   1.485
 1026SOL    HW2 3978   2.236   3.172   1.520
 1027SOL     OW 3979   2.901   6.921   2.268
 1027SOL    HW1 3980   2.961   6.906   2.347
 1027SOL    HW2 3981   2.831   6.988   2.293
 1028SOL     OW 3982   1.390   6.617   2.701
 1028SOL    HW1 3983   1.481   6.577   2.715
 1028SOL    HW2 3984   1.322   6.566   2.754
 1029SOL     OW 3985   1.250   1.798   6.039
 1029SOL    HW1 3986   1.250   1.894   6.069
 1029SOL    HW2 3987   1.167   1.753   6.071
 1030SOL     OW 3988   3.390   3.586   1.732
 1030SOL    HW1 3989   3.476   3.536   1.722
 1030SOL    HW2 3990   3.319   3.525   1.766
 1031SOL     OW 3991   4.871   3.396   1.670
 1031SOL    HW1 3992   4.814   3.314   1.664
 1031SOL    HW2 3993   4.908   3.405   1.762
 1032SOL     OW 3994   0.885   1.223   5.235
 1032SOL    HW1 3995   0.951   1.232   5.309
 1032SOL    HW2 3996   0.867   1.127   5.217
 1033SOL     OW 3997   1.648   5.225   1.574
 1033SOL    HW1 3998   1.678   5.145   1.626
 1033SOL    HW2 3999   1.677   5.308   1.621
 1034SOL     OW 4000   1.884   5.419   4.305
 1034SOL    HW1 4001   1.918   5.513   4.296
 1034SOL    HW2 4002   1.844   5.390   4.218
 1035SOL     OW 4003   6.904   2.227   6.718
 1035SOL    HW1 4004   7.001   2.238   6.739
 1035SOL    HW2 4005   6.879   2.131   6.725
 1036SOL     OW 4006   4.379   0.959   2.049
 1036SOL    HW1 4007   4.352   0.910   2.132
 1036SOL    HW2 4008   4.438   1.036   2.073
 1037SOL     OW 4009   1.552   1.360   2.582
 1037SOL    HW1 4010   1.515   1.437   2.529
 1037SOL    HW2 4011   1.552   1.277   2.526
 1038SOL     OW 4012   1.857   1.400   5.357
 1038SOL    HW1 4013   1.851   1.381   5.259
 1038SOL    HW2 4014   1.819   1.491   5.376
 1039SOL     OW 4015   3.703   4.203   4.030
 1039SOL    HW1 4016   3.765   4.172   4.101
 1039SOL    HW2 4017   3.734   4.168   3.941
 1040SOL     OW 4018   5.023   0.900   2.105
 1040SOL    HW1 4019   5.011   0.981   2.048
 1040SOL    HW2 4020   5.002   0.818   2.051
 1041SOL     OW 4021   6.911   6.248   3.219
 1041SOL    HW1 4022   6.846   6.244   3.143
 1041SOL    HW2 4023   6.999   6.213   3.189
 1042SOL     OW 4024   4.358   5.460   2.714
 1042SOL    HW1 4025   4.339   5.532   2.647
 1042SOL    HW2 4026   4.450   5.422   2.698
 1043SOL     OW 4027   3.543   2.049   3.048
 1043SOL    HW1 4028   3.446   2.074   3.045
 1043SOL    HW2 4029   3.586   2.075   2.962
 1044SOL     OW 4030   6.094   5.414   2.381
 1044SOL    HW1 4031   6.112   5.316   2.383
 1044SOL    HW2 4032   6.148   5.459   2.452
 1045SOL     OW 4033   4.222   0.644   2.779
 1045SOL    HW1 4034   4.123   0.658   2.772
 1045SOL    HW2 4035   4.263   0.720   2.830
 1046SOL     OW 4036   1.658   1.496   0.177
 1046SOL    HW1 4037   1.606   1.531   0.255
 1046SOL    HW2 4038   1.751   1.474   0.206
 1047SOL     OW 4039   2.555   0.154   4.235
 1047SOL    HW1 4040   2.521   0.221   4.169
 1047SOL    HW2 4041   2.635   0.108   4.197
 1048SOL     OW 4042   3.529   6.496   2.087
 1048SOL    HW1 4043   3.556   6.585   2.125
 1048SOL    HW2 4044   3.478   6.445   2.157
 1049SOL     OW 4045   6.215   6.752   3.866
 1049SOL    HW1 4046   6.260   6.792   3.786
 1049SOL    HW2 4047   6.272   6.679   3.903
 1050SOL     OW 4048   3.850   4.964   2.490
 1050SOL    HW1 4049   3.767   5.019   2.474
 1050SOL    HW2 4050   3.844   4.921   2.580
 1051SOL     OW 4051   0.621   5.398   0.763
 1051SOL    HW1 4052   0.617   5.300   0.784
 1051SOL    HW2 4053   0.666   5.412   0.676
 1052SOL     OW 4054   4.670   1.019   5.694
 1052SOL    HW1 4055   4.725   1.089   5.739
 1052SOL    HW2 4056   4.644   0.949   5.761
 1053SOL     OW 4057   5.950   3.529   2.414
 1053SOL    HW1 4058   6.028   3.501   2.358
 1053SOL    HW2 4059   5.892   3.450   2.433
 1054SOL     OW 4060   3.279   3.674   0.671
 1054SOL    HW1 4061   3.316   3.732   0.743
 1054SOL    HW2 4062   3.260   3.583   0.707
 1055SOL     OW 4063   4.241   6.780   5.494
 1055SOL    HW1 4064   4.221   6.854   5.559
 1055SOL    HW2 4065   4.324   6.802   5.443
 1056SOL     OW 4066   1.463   3.408   0.316
 1056SOL    HW1 4067   1.415   3.351   0.249
 1056SOL    HW2 4068   1.555   3.429   0.281
 1057SOL     OW 4069   3.531   3.247   0.992
 1057SOL    HW1 4070   3.552   3.156   1.027
 1057SOL    HW2 4071   3.450   3.283   1.037
 1058SOL     OW 4072   4.997   2.101   4.085
 1058SOL    HW1 4073   5.090   2.086   4.051
 1058SOL    HW2 4074   4.977   2.199   4.084
 1059SOL     OW 4075   2.078   0.703   2.281
 1059SOL    HW1 4076   2.005   0.657   2.332
 1059SOL    HW2 4077   2.051   0.712   2.185
 1060SOL     OW 4078   0.518   4.635   4.028
 1060SOL    HW1 4079   0.605   4.610   4.069
 1060SOL    HW2 4080   0.474   4.553   3.991
 1061SOL     OW 4081   6.819   3.122   6.125
 1061SOL    HW1 4082   6.856   3.105   6.033
 1061SOL    HW2 4083   6.859   3.057   6.190
 1062SOL     OW 4084   5.042   5.115   5.912
 1062SOL    HW1 4085   4.977   5.175   5.960
 1062SOL    HW2 4086   5.131   5.160   5.908
 1063SOL     OW 4087   0.642   6.025   0.467
 1063SOL    HW1 4088   0.585   5.967   0.408
 1063SOL    HW2 4089   0.616   6.011   0.562
 1064SOL     OW 4090   1.509   4.285   2.407
 1064SOL    HW1 4091   1.415   4.316   2.424
 1064SOL    HW2 4092   1.522   4.194   2.446
 1065SOL     OW 4093   4.590   0.771   2.859
 1065SOL    HW1 4094   4.574   0.781   2.761
 1065SOL    HW2 4095   4.651   0.843   2.891
 1066SOL     OW 4096   4.480   6.684   2.785
 1066SOL    HW1 4097   4.394   6.635   2.799
 1066SOL    HW2 4098   4.523   6.652   2.701
 1067SOL     OW 4099   1.377   2.232   6.999
 1067SOL    HW1 4100   1.396   2.322   0.009
 1067SOL    HW2 4101   1.407   2.231   6.904
 1068SOL     OW 4102   6.700   4.071   1.231
 1068SOL    HW1 4103   6.784   4.027   1.199
 1068SOL    HW2 4104   6.643   4.094   1.152
 1069SOL     OW 4105   5.094   6.151   0.955
 1069SOL    HW1 4106   5.016   6.125   1.013
 1069SOL    HW2 4107   5.168   6.085   0.967
 1070SOL     OW 4108   1.393   0.440   1.811
 1070SOL    HW1 4109   1.477   0.436   1.757
 1070SOL    HW2 4110   1.411   0.487   1.897
 1071SOL     OW 4111   2.433   1.867   3.664
 1071SOL    HW1 4112   2.357   1.803   3.657
 1071SOL    HW2 4113   2.413   1.950   3.611
 1072SOL     OW 4114   2.619   1.101   1.243
 1072SOL    HW1 4115   2.617   1.011   1.200
 1072SOL    HW2 4116   2.540   1.154   1.212
 1073SOL     OW 4117   4.681   0.666   3.303
 1073SOL    HW1 4118   4.721   0.582   3.266
 1073SOL    HW2 4119   4.656   0.652   3.399
 1074SOL     OW 4120   2.731   5.234   1.842
 1074SOL    HW1 4121   2.644   5.193   1.870
 1074SOL    HW2 4122   2.744   5.320   1.890
 1075SOL     OW 4123   6.093   0.211   3.308
 1075SOL    HW1 4124   6.145   0.262   3.376
 1075SOL    HW2 4125   6.004   0.184   3.346
 1076SOL     OW 4126   0.771   2.139   5.592
 1076SOL    HW1 4127   0.680   2.134   5.551
 1076SOL    HW2 4128   0.772   2.211   5.661
 1077SOL     OW 4129   6.680   6.672   0.887
 1077SOL    HW1 4130   6.661   6.595   0.827
 1077SOL    HW2 4131   6.776   6.699   0.878
 1078SOL     OW 4132   0.134   0.546   2.893
 1078SOL    HW1 4133   0.081   0.528   2.976
 1078SOL    HW2 4134   0.072   0.578   2.821
 1079SOL     OW 4135   1.372   5.983   2.086
 1079SOL    HW1 4136   1.333   5.929   2.011
 1079SOL    HW2 4137   1.435   6.050   2.048
 1080SOL     OW 4138   2.659   5.606   3.685
 1080SOL    HW1 4139   2.666   5.643   3.592
 1080SOL    HW2 4140   2.657   5.506   3.682
 1081SOL     OW 4141   6.667   5.397   5.729
 1081SOL    HW1 4142   6.690   5.463   5.800
 1081SOL    HW2 4143   6.699   5.306   5.756
 1082SOL     OW 4144   5.776   2.152   5.978
 1082SOL    HW1 4145   5.785   2.252   5.985
 1082SOL    HW2 4146   5.703   2.130   5.913
 1083SOL     OW 4147   4.927   4.090   0.418
 1083SOL    HW1 4148   4.926   4.092   0.518
 1083SOL    HW2 4149   5.019   4.067   0.387
 1084SOL     OW 4150   6.609   6.653   6.360
 1084SOL    HW1 4151   6.582   6.613   6.448
 1084SOL    HW2 4152   6.533   6.707   6.324
 1085SOL     OW 4153   1.814   4.082   4.533
 1085SOL    HW1 4154   1.837   4.056   4.440
 1085SOL    HW2 4155   1.742   4.021   4.568
 1086SOL     OW 4156   6.859   4.624   0.442
 1086SOL    HW1 4157   6.781   4.561   0.445
 1086SOL    HW2 4158   6.940   4.578   0.476
 1087SOL     OW 4159   6.879   2.005   5.118
 1087SOL    HW1 4160   6.822   1.958   5.185
 1087SOL    HW2 4161   6.911   1.940   5.049
 1088SOL     OW 4162   6.950   4.085   2.683
 1088SOL    HW1 4163   7.009   4.166   2.681
 1088SOL    HW2 4164   6.958   4.036   2.597
 1089SOL     OW 4165   6.506   5.724   4.610
 1089SOL    HW1 4166   6.592   5.703   4.564
 1089SOL    HW2 4167   6.519   5.801   4.672
 1090SOL     OW 4168   3.546   1.768   3.119
 1090SOL    HW1 4169   3.521   1.768   3.216
 1090SOL    HW2 4170   3.553   1.862   3.086
 1091SOL     OW 4171   2.366   2.669   4.235
 1091SOL    HW1 4172   2.397   2.686   4.328
 1091SOL    HW2 4173   2.431   2.609   4.188
 1092SOL     OW 4174   1.237   4.743   0.431
 1092SOL    HW1 4175   1.164   4.707   0.373
 1092SOL    HW2 4176   1.288   4.667   0.470
 1093SOL     OW 4177   2.854   6.871   1.416
 1093SOL    HW1 4178   2.896   6.781   1.430
 1093SOL    HW2 4179   2.917   6.942   1.445
 1094SOL     OW 4180   0.991   6.159   2.977
 1094SOL    HW1 4181   1.048   6.230   3.020
 1094SOL    HW2 4182   1.014   6.153   2.880
 1095SOL     OW 4183   0.464   3.077   6.047
 1095SOL    HW1 4184   0.483   3.168   6.009
 1095SOL    HW2 4185   0.510   3.008   5.991
 1096SOL     OW 4186   3.548   4.503   1.335
 1096SOL    HW1 4187   3.619   4.495   1.264
 1096SOL    HW2 4188   3.558   4.429   1.401
 1097SOL     OW 4189   2.098   4.619   3.765
 1097SOL    HW1 4190   1.999   4.613   3.755
 1097SOL    HW2 4191   2.121   4.693   3.828
 1098SOL     OW 4192   5.505   3.590   6.385
 1098SOL    HW1 4193   5.526   3.499   6.423
 1098SOL    HW2 4194   5.582   3.651   6.402
 1099SOL     OW 4195   3.882   1.156   6.687
 1099SOL    HW1 4196   3.819   1.209   6.743
 1099SOL    HW2 4197   3.915   1.212   6.612
 1100SOL     OW 4198   4.549   1.525   4.569
 1100SOL    HW1 4199   4.649   1.519   4.565
 1100SOL    HW2 4200   4.521   1.544   4.663
 1101SOL     OW 4201   5.553   4.101   5.779
 1101SOL    HW1 4202   5.455   4.109   5.800
 1101SOL    HW2 4203   5.585   4.188   5.740
 1102SOL     OW 4204   1.509   0.812   5.106
 1102SOL    HW1 4205   1.453   0.859   5.175
 1102SOL    HW2 4206   1.534   0.877   5.034
 1103SOL     OW 4207   3.557   1.267   0.414
 1103SOL    HW1 4208   3.531   1.231   0.325
 1103SOL    HW2 4209   3.481   1.321   0.451
 1104SOL     OW 4210   1.549   3.171   4.046
 1104SOL    HW1 4211   1.561   3.260   4.002
 1104SOL    HW2 4212   1.596   3.101   3.991
 1105SOL     OW 4213   5.677   3.031   4.950
 1105SOL    HW1 4214   5.745   3.089   4.905
 1105SOL    HW2 4215   5.613   3.089   5.002
 1106SOL     OW 4216   0.642   2.173   1.367
 1106SOL    HW1 4217   0.583   2.199   1.290
 1106SOL    HW2 4218   0.717   2.115   1.334
 1107SOL     OW 4219   1.187   0.371   6.989
 1107SOL    HW1 4220   1.214   0.394   0.052
 1107SOL    HW2 4221   1.141   0.282   6.988
 1108SOL     OW 4222   3.427   6.719   5.427
 1108SOL    HW1 4223   3.513   6.745   5.384
 1108SOL    HW2 4224   3.392   6.635   5.385
 1109SOL     OW 4225   5.824   1.128   4.544
 1109SOL    HW1 4226   5.869   1.040   4.561
 1109SOL    HW2 4227   5.843   1.157   4.451
 1110SOL     OW 4228   4.508   2.125   2.972
 1110SOL    HW1 4229   4.477   2.187   3.045
 1110SOL    HW2 4230   4.564   2.052   3.013
 1111SOL     OW 4231   5.710   6.017   6.839
 1111SOL    HW1 4232   5.796   6.065   6.825
 1111SOL    HW2 4233   5.708   5.977   6.930
 1112SOL     OW 4234   5.781   0.929   2.303
 1112SOL    HW1 4235   5.715   0.955   2.374
 1112SOL    HW2 4236   5.837   0.853   2.336
 1113SOL     OW 4237   5.804   4.703   1.477
 1113SOL    HW1 4238   5.833   4.740   1.566
 1113SOL    HW2 4239   5.706   4.683   1.480
 1114SOL     OW 4240   2.368   1.117   6.488
 1114SOL    HW1 4241   2.341   1.214   6.488
 1114SOL    HW2 4242   2.468   1.111   6.488
 1115SOL     OW 4243   3.717   3.415   5.552
 1115SOL    HW1 4244   3.742   3.508   5.579
 1115SOL    HW2 4245   3.737   3.352   5.627
 1116SOL     OW 4246   5.336   6.825   6.548
 1116SOL    HW1 4247   5.428   6.785   6.551
 1116SOL    HW2 4248   5.343   6.924   6.540
 1117SOL     OW 4249   0.972   2.166   2.019
 1117SOL    HW1 4250   0.972   2.154   1.919
 1117SOL    HW2 4251   1.066   2.179   2.051
 1118SOL     OW 4252   2.380   5.153   0.692
 1118SOL    HW1 4253   2.285   5.153   0.724
 1118SOL    HW2 4254   2.441   5.141   0.770
 1119SOL     OW 4255   4.125   4.460   1.584
 1119SOL    HW1 4256   4.195   4.469   1.655
 1119SOL    HW2 4257   4.159   4.498   1.498
 1120SOL     OW 4258   6.012   5.756   0.634
 1120SOL    HW1 4259   6.022   5.724   0.539
 1120SOL    HW2 4260   5.915   5.766   0.656
 1121SOL     OW 4261   6.938   4.317   4.527
 1121SOL    HW1 4262   6.883   4.313   4.443
 1121SOL    HW2 4263   7.025   4.271   4.511
 1122SOL     OW 4264   5.744   3.104   2.221
 1122SOL    HW1 4265   5.722   3.021   2.169
 1122SOL    HW2 4266   5.663   3.133   2.272
 1123SOL     OW 4267   5.084   2.424   3.505
 1123SOL    HW1 4268   5.129   2.453   3.420
 1123SOL    HW2 4269   5.000   2.477   3.518
 1124SOL     OW 4270   0.182   3.827   5.314
 1124SOL    HW1 4271   0.128   3.788   5.388
 1124SOL    HW2 4272   0.194   3.925   5.329
 1125SOL     OW 4273   1.716   2.130   3.800
 1125SOL    HW1 4274   1.802   2.109   3.846
 1125SOL    HW2 4275   1.675   2.211   3.842
 1126SOL     OW 4276   6.286   5.244   6.192
 1126SOL    HW1 4277   6.253   5.154   6.162
 1126SOL    HW2 4278   6.256   5.314   6.127
 1127SOL     OW 4279   5.439   6.113   4.585
 1127SOL    HW1 4280   5.518   6.114   4.646
 1127SOL    HW2 4281   5.401   6.021   4.581
 1128SOL     OW 4282   5.847   1.451   4.076
 1128SOL    HW1 4283   5.783   1.415   4.008
 1128SOL    HW2 4284   5.924   1.495   4.029
 1129SOL     OW 4285   2.034   6.783   0.983
 1129SOL    HW1 4286   2.053   6.830   0.897
 1129SOL    HW2 4287   2.025   6.851   1.057
 1130SOL     OW 4288   2.232   4.531   0.960
 1130SOL    HW1 4289   2.286   4.467   1.015
 1130SOL    HW2 4290   2.177   4.589   1.019
 1131SOL     OW 4291   1.538   0.020   5.365
 1131SOL    HW1 4292   1.627   7.009   5.384
 1131SOL    HW2 4293   1.484   0.021   5.449
 1132SOL     OW 4294   4.458   0.130   2.773
 1132SOL    HW1 4295   4.386   0.185   2.731
 1132SOL    HW2 4296   4.504   0.184   2.844
 1133SOL     OW 4297   1.669   1.107   0.322
 1133SOL    HW1 4298   1.571   1.120   0.302
 1133SOL    HW2 4299   1.723   1.143   0.247
 1134SOL     OW 4300   4.917   6.941   2.962
 1134SOL    HW1 4301   5.007   6.972   2.992
 1134SOL    HW2 4302   4.900   6.971   2.869
 1135SOL     OW 4303   2.132   6.445   4.252
 1135SOL    HW1 4304   2.207   6.447   4.186
 1135SOL    HW2 4305   2.088   6.355   4.249
 1136SOL     OW 4306   4.392   4.558   3.130
 1136SOL    HW1 4307   4.344   4.605   3.057
 1136SOL    HW2 4308   4.339   4.566   3.215
 1137SOL     OW 4309   1.329   6.612   0.150
 1137SOL    HW1 4310   1.322   6.616   0.249
 1137SOL    HW2 4311   1.305   6.701   0.111
 1138SOL     OW 4312   0.142   1.092   5.747
 1138SOL    HW1 4313   0.180   1.125   5.660
 1138SOL    HW2 4314   0.054   1.136   5.764
 1139SOL     OW 4315   2.521   4.922   3.360
 1139SOL    HW1 4316   2.568   4.836   3.341
 1139SOL    HW2 4317   2.587   4.989   3.395
 1140SOL     OW 4318   2.757   0.859   2.057
 1140SOL    HW1 4319   2.710   0.931   2.008
 1140SOL    HW2 4320   2.828   0.899   2.116
 1141SOL     OW 4321   0.484   6.306   0.277
 1141SOL    HW1 4322   0.547   6.365   0.225
 1141SOL    HW2 4323   0.497   6.322   0.375
 1142SOL     OW 4324   3.195   0.194   4.066
 1142SOL    HW1 4325   3.218   0.145   4.150
 1142SOL    HW2 4326   3.235   0.147   3.988
 1143SOL     OW 4327   1.981   2.809   2.874
 1143SOL    HW1 4328   1.922   2.777   2.948
 1143SOL    HW2 4329   2.032   2.889   2.905
 1144SOL     OW 4330   5.907   4.724   3.449
 1144SOL    HW1 4331   5.956   4.736   3.535
 1144SOL    HW2 4332   5.945   4.786   3.380
 1145SOL     OW 4333   6.910   3.171   0.864
 1145SOL    HW1 4334   6.922   3.073   0.882
 1145SOL    HW2 4335   6.981   3.202   0.801
 1146SOL     OW 4336   0.191   1.738   2.163
 1146SOL    HW1 4337   0.172   1.836   2.171
 1146SOL    HW2 4338   0.129   1.687   2.222
 1147SOL     OW 4339   3.182   5.881   1.870
 1147SOL    HW1 4340   3.099   5.826   1.875
 1147SOL    HW2 4341   3.243   5.855   1.945
 1148SOL     OW 4342   4.483   6.455   0.628
 1148SOL    HW1 4343   4.566   6.423   0.582
 1148SOL    HW2 4344   4.497   6.450   0.727
 1149SOL     OW 4345   5.335   2.482   2.407
 1149SOL    HW1 4346   5.354   2.580   2.418
 1149SOL    HW2 4347   5.237   2.466   2.418
 1150SOL     OW 4348   0.912   4.578   0.015
 1150SOL    HW1 4349   0.896   4.568   0.113
 1150SOL    HW2 4350   0.824   4.581   6.997
 1151SOL     OW 4351   5.390   4.405   5.068
 1151SOL    HW1 4352   5.380   4.363   5.158
 1151SOL    HW2 4353   5.302   4.444   5.039
 1152SOL     OW 4354   4.895   5.629   6.089
 1152SOL    HW1 4355   4.892   5.704   6.022
 1152SOL    HW2 4356   4.827   5.560   6.065
 1153SOL     OW 4357   6.670   6.901   1.707
 1153SOL    HW1 4358   6.717   6.819   1.739
 1153SOL    HW2 4359   6.598   6.926   1.771
 1154SOL     OW 4360   0.448   4.959   0.658
 1154SOL    HW1 4361   0.362   5.002   0.632
 1154SOL    HW2 4362   0.523   5.023   0.645
 1155SOL     OW 4363   3.208   4.899   5.650
 1155SOL    HW1 4364   3.160   4.986   5.643
 1155SOL    HW2 4365   3.237   4.884   5.745
 1156SOL     OW 4366   4.313   1.916   5.298
 1156SOL    HW1 4367   4.392   1.854   5.296
 1156SOL    HW2 4368   4.345   2.011   5.291
 1157SOL     OW 4369   5.069   1.169   6.018
 1157SOL    HW1 4370   5.088   1.245   6.079
 1157SOL    HW2 4371   5.154   1.138   5.975
 1158SOL     OW 4372   6.898   5.075   5.054
 1158SOL    HW1 4373   6.858   5.110   5.138
 1158SOL    HW2 4374   6.836   5.006   5.014
 1159SOL     OW 4375   6.376   6.855   3.690
 1159SOL    HW1 4376   6.463   6.854   3.642
 1159SOL    HW2 4377   6.306   6.898   3.631
 1160SOL     OW 4378   4.279   5.014   1.213
 1160SOL    HW1 4379   4.324   5.052   1.294
 1160SOL    HW2 4380   4.191   4.973   1.241
 1161SOL     OW 4381   0.147   5.813   6.219
 1161SOL    HW1 4382   0.066   5.870   6.234
 1161SOL    HW2 4383   0.120   5.724   6.184
 1162SOL     OW 4384   1.883   2.333   6.484
 1162SOL    HW1 4385   1.854   2.305   6.393
 1162SOL    HW2 4386   1.861   2.261   6.550
 1163SOL     OW 4387   6.519   4.188   1.758
 1163SOL    HW1 4388   6.467   4.159   1.678
 1163SOL    HW2 4389   6.489   4.279   1.786
 1164SOL     OW 4390   4.752   2.087   4.363
 1164SOL    HW1 4391   4.771   2.042   4.450
 1164SOL    HW2 4392   4.772   2.023   4.288
 1165SOL     OW 4393   4.503   5.567   3.808
 1165SOL    HW1 4394   4.528   5.661   3.829
 1165SOL    HW2 4395   4.446   5.565   3.726
 1166SOL     OW 4396   2.652   6.432   0.216
 1166SOL    HW1 4397   2.727   6.417   0.153
 1166SOL    HW2 4398   2.618   6.345   0.250
 1167SOL     OW 4399   4.393   6.345   0.318
 1167SOL    HW1 4400   4.346   6.431   0.340
 1167SOL    HW2 4401   4.331   6.268   0.338
 1168SOL     OW 4402   5.660   2.680   1.278
 1168SOL    HW1 4403   5.561   2.673   1.282
 1168SOL    HW2 4404   5.699   2.644   1.363
 1169SOL     OW 4405   4.492   1.712   5.943
 1169SOL    HW1 4406   4.443   1.751   5.866
 1169SOL    HW2 4407   4.541   1.784   5.992
 1170SOL     OW 4408   5.458   0.098   3.034
 1170SOL    HW1 4409   5.513   0.023   3.072
 1170SOL    HW2 4410   5.407   0.065   2.955
 1171SOL     OW 4411   3.060   6.269   6.666
 1171SOL    HW1 4412   3.064   6.363   6.633
 1171SOL    HW2 4413   3.137   6.251   6.726
 1172SOL     OW 4414   4.800   4.475   0.920
 1172SOL    HW1 4415   4.857   4.557   0.919
 1172SOL    HW2 4416   4.704   4.501   0.930
 1173SOL     OW 4417   3.647   1.211   1.126
 1173SOL    HW1 4418   3.733   1.257   1.149
 1173SOL    HW2 4419   3.583   1.278   1.090
 1174SOL     OW 4420   3.558   3.936   1.700
 1174SOL    HW1 4421   3.620   3.858   1.687
 1174SOL    HW2 4422   3.470   3.903   1.734
 1175SOL     OW 4423   4.297   3.850   6.191
 1175SOL    HW1 4424   4.235   3.871   6.115
 1175SOL    HW2 4425   4.288   3.921   6.261
 1176SOL     OW 4426   5.094   3.681   0.370
 1176SOL    HW1 4427   5.058   3.590   0.391
 1176SOL    HW2 4428   5.133   3.721   0.454
 1177SOL     OW 4429   6.167   3.818   4.750
 1177SOL    HW1 4430   6.159   3.741   4.686
 1177SOL    HW2 4431   6.082   3.870   4.750
 1178SOL     OW 4432   3.127   4.141   0.315
 1178SOL    HW1 4433   3.139   4.151   0.414
 1178SOL    HW2 4434   3.071   4.217   0.281
 1179SOL     OW 4435   2.659   5.688   1.008
 1179SOL    HW1 4436   2.565   5.702   1.041
 1179SOL    HW2 4437   2.657   5.676   0.908
 1180SOL     OW 4438   2.454   6.642   3.865
 1180SOL    HW1 4439   2.448   6.629   3.766
 1180SOL    HW2 4440   2.548   6.624   3.895
 1181SOL     OW 4441   0.303   5.380   4.976
 1181SOL    HW1 4442   0.241   5.335   5.041
 1181SOL    HW2 4443   0.280   5.351   4.883
 1182SOL     OW 4444   5.345   5.526   3.688
 1182SOL    HW1 4445   5.397   5.606   3.717
 1182SOL    HW2 4446   5.405   5.464   3.637
 1183SOL     OW 4447   2.407   4.830   0.292
 1183SOL    HW1 4448   2.499   4.793   0.309
 1183SOL    HW2 4449   2.401   4.923   0.328
 1184SOL     OW 4450   7.012   1.306   4.630
 1184SOL    HW1 4451   7.002   1.239   4.556
 1184SOL    HW2 4452   0.066   1.285   4.682
 1185SOL     OW 4453   0.577   0.853   0.879
 1185SOL    HW1 4454   0.641   0.930   0.885
 1185SOL    HW2 4455   0.534   0.839   0.968
 1186SOL     OW 4456   5.315   6.070   5.647
 1186SOL    HW1 4457   5.267   6.097   5.730
 1186SOL    HW2 4458   5.373   6.145   5.616
 1187SOL     OW 4459   5.013   0.196   5.826
 1187SOL    HW1 4460   4.949   0.234   5.893
 1187SOL    HW2 4461   5.015   0.097   5.834
 1188SOL     OW 4462   3.514   6.248   5.905
 1188SOL    HW1 4463   3.415   6.235   5.911
 1188SOL    HW2 4464   3.553   6.180   5.843
 1189SOL     OW 4465   6.126   1.867   1.289
 1189SOL    HW1 4466   6.142   1.797   1.218
 1189SOL    HW2 4467   6.110   1.822   1.377
 1190SOL     OW 4468   3.651   5.764   3.720
 1190SOL    HW1 4469   3.559   5.766   3.682
 1190SOL    HW2 4470   3.699   5.683   3.689
 1191SOL     OW 4471   4.056   5.686   4.488
 1191SOL    HW1 4472   4.073   5.739   4.405
 1191SOL    HW2 4473   4.010   5.743   4.556
 1192SOL     OW 4474   4.972   4.361   2.146
 1192SOL    HW1 4475   5.020   4.424   2.085
 1192SOL    HW2 4476   4.977   4.268   2.109
 1193SOL     OW 4477   6.381   2.167   5.002
 1193SOL    HW1 4478   6.434   2.162   5.087
 1193SOL    HW2 4479   6.315   2.242   5.007
 1194SOL     OW 4480   5.616   6.865   1.569
 1194SOL    HW1 4481   5.678   6.942   1.553
 1194SOL    HW2 4482   5.625   6.800   1.493
 1195SOL     OW 4483   0.474   4.195   0.784
 1195SOL    HW1 4484   0.380   4.214   0.811
 1195SOL    HW2 4485   0.494   4.238   0.696
 1196SOL     OW 4486   6.671   4.837   3.496
 1196SOL    HW1 4487   6.725   4.861   3.415
 1196SOL    HW2 4488   6.576   4.867   3.483
 1197SOL     OW 4489   4.690   0.121   5.018
 1197SOL    HW1 4490   4.604   0.104   5.067
 1197SOL    HW2 4491   4.766   0.107   5.081
 1198SOL     OW 4492   1.538   2.969   3.213
 1198SOL    HW1 4493   1.520   2.912   3.293
 1198SOL    HW2 4494   1.529   2.914   3.130
 1199SOL     OW 4495   3.403   3.985   1.172
 1199SOL    HW1 4496   3.440   3.976   1.265
 1199SOL    HW2 4497   3.476   3.973   1.105
 1200SOL     OW 4498   3.478   4.040   3.958
 1200SOL    HW1 4499   3.574   4.052   3.983
 1200SOL    HW2 4500   3.420   4.094   4.020
 1201SOL     OW 4501   1.000   1.338   4.326
 1201SOL    HW1 4502   1.083   1.287   4.346
 1201SOL    HW2 4503   0.978   1.398   4.403
 1202SOL     OW 4504   0.367   5.769   5.620
 1202SOL    HW1 4505   0.308   5.844   5.588
 1202SOL    HW2 4506   0.440   5.807   5.676
 1203SOL     OW 4507   6.873   6.476   6.824
 1203SOL    HW1 4508   6.955   6.528   6.845
 1203SOL    HW2 4509   6.893   6.378   6.826
 1204SOL     OW 4510   4.224   1.398   1.422
 1204SOL    HW1 4511   4.269   1.487   1.410
 1204SOL    HW2 4512   4.272   1.347   1.493
 1205SOL     OW 4513   4.118   3.180   0.570
 1205SOL    HW1 4514   4.092   3.084   0.555
 1205SOL    HW2 4515   4.035   3.236   0.573
 1206SOL     OW 4516   2.632   2.767   5.290
 1206SOL    HW1 4517   2.730   2.789   5.287
 1206SOL    HW2 4518   2.581   2.836   5.240
 1207SOL     OW 4519   2.381   6.470   1.022
 1207SOL    HW1 4520   2.315   6.520   0.965
 1207SOL    HW2 4521   2.353   6.476   1.118
 1208SOL     OW 4522   3.175   3.400   1.486
 1208SOL    HW1 4523   3.110   3.362   1.421
 1208SOL    HW2 4524   3.161   3.499   1.495
 1209SOL     OW 4525   4.172   1.079   4.360
 1209SOL    HW1 4526   4.115   1.056   4.438
 1209SOL    HW2 4527   4.221   1.164   4.378
 1210SOL     OW 4528   3.397   0.063   3.487
 1210SOL    HW1 4529   3.351   7.005   3.477
 1210SOL    HW2 4530   3.494   0.048   3.503
 1211SOL     OW 4531   0.246   3.770   2.545
 1211SOL    HW1 4532   0.286   3.788   2.635
 1211SOL    HW2 4533   0.319   3.751   2.479
 1212SOL     OW 4534   6.177   0.410   0.282
 1212SOL    HW1 4535   6.276   0.420   0.278
 1212SOL    HW2 4536   6.134   0.483   0.229
 1213SOL     OW 4537   6.407   2.347   0.971
 1213SOL    HW1 4538   6.415   2.312   0.878
 1213SOL    HW2 4539   6.330   2.410   0.976
 1214SOL     OW 4540   1.250   2.786   6.757
 1214SOL    HW1 4541   1.293   2.732   6.684
 1214SOL    HW2 4542   1.310   2.862   6.781
 1215SOL     OW 4543   1.168   4.529   2.802
 1215SOL    HW1 4544   1.265   4.554   2.793
 1215SOL    HW2 4545   1.161   4.443   2.854
 1216SOL     OW 4546   4.977   0.291   1.308
 1216SOL    HW1 4547   4.904   0.315   1.244
 1216SOL    HW2 4548   5.062   0.335   1.281
 1217SOL     OW 4549   2.012   4.515   0.811
 1217SOL    HW1 4550   1.944   4.567   0.862
 1217SOL    HW2 4551   2.099   4.515   0.862
 1218SOL     OW 4552   1.581   3.999   4.692
 1218SOL    HW1 4553   1.532   4.082   4.664
 1218SOL    HW2 4554   1.523   3.919   4.675
 1219SOL     OW 4555   5.339   5.970   2.178
 1219SOL    HW1 4556   5.434   5.953   2.150
 1219SOL    HW2 4557   5.313   6.063   2.154
 1220SOL     OW 4558   0.667   4.561   3.015
 1220SOL    HW1 4559   0.709   4.605   2.936
 1220SOL    HW2 4560   0.658   4.463   2.999
 1221SOL     OW 4561   5.217   3.991   6.571
 1221SOL    HW1 4562   5.275   4.058   6.618
 1221SOL    HW2 4563   5.192   4.027   6.481
 1222SOL     OW 4564   6.894   0.756   6.992
 1222SOL    HW1 4565   6.828   0.821   6.956
 1222SOL    HW2 4566   6.858   0.663   6.982
 1223SOL     OW 4567   3.875   1.679   0.193
 1223SOL    HW1 4568   3.777   1.688   0.174
 1223SOL    HW2 4569   3.904   1.753   0.254
 1224SOL     OW 4570   3.597   5.943   0.913
 1224SOL    HW1 4571   3.616   5.867   0.975
 1224SOL    HW2 4572   3.498   5.960   0.910
 1225SOL     OW 4573   2.894   3.154   5.922
 1225SOL    HW1 4574   2.971   3.169   5.984
 1225SOL    HW2 4575   2.927   3.117   5.836
 1226SOL     OW 4576   2.720   5.906   1.810
 1226SOL    HW1 4577   2.677   5.860   1.732
 1226SOL    HW2 4578   2.650   5.937   1.874
 1227SOL     OW 4579   6.739   4.118   6.067
 1227SOL    HW1 4580   6.667   4.170   6.111
 1227SOL    HW2 4581   6.730   4.021   6.090
 1228SOL     OW 4582   3.230   1.804   6.272
 1228SOL    HW1 4583   3.217   1.783   6.369
 1228SOL    HW2 4584   3.324   1.833   6.256
 1229SOL     OW 4585   3.471   5.283   5.321
 1229SOL    HW1 4586   3.384   5.234   5.316
 1229SOL    HW2 4587   3.513   5.285   5.230
 1230SOL     OW 4588   4.532   6.915   2.641
 1230SOL    HW1 4589   4.500   6.829   2.679
 1230SOL    HW2 4590   4.498   6.991   2.696
 1231SOL     OW 4591   1.960   2.844   4.407
 1231SOL    HW1 4592   2.010   2.757   4.405
 1231SOL    HW2 4593   1.863   2.826   4.422
 1232SOL     OW 4594   0.720   1.709   4.915
 1232SOL    HW1 4595   0.691   1.711   4.820
 1232SOL    HW2 4596   0.698   1.619   4.955
 1233SOL     OW 4597   0.719   4.469   4.874
 1233SOL    HW1 4598   0.624   4.498   4.888
 1233SOL    HW2 4599   0.722   4.395   4.808
 1234SOL     OW 4600   6.396   3.733   5.116
 1234SOL    HW1 4601   6.468   3.772   5.059
 1234SOL    HW2 4602   6.307   3.760   5.080
 1235SOL     OW 4603   0.237   5.989   2.432
 1235SOL    HW1 4604   0.285   5.968   2.517
 1235SOL    HW2 4605   0.282   6.067   2.387
 1236SOL     OW 4606   4.701   1.621   6.923
 1236SOL    HW1 4607   4.653   1.598   6.838
 1236SOL    HW2 4608   4.782   1.675   6.902
 1237SOL     OW 4609   1.948   5.436   5.608
 1237SOL    HW1 4610   1.978   5.499   5.536
 1237SOL    HW2 4611   1.992   5.347   5.594
 1238SOL     OW 4612   2.710   1.351   0.303
 1238SOL    HW1 4613   2.774   1.275   0.315
 1238SOL    HW2 4614   2.760   1.433   0.276
 1239SOL     OW 4615   0.139   6.876   5.717
 1239SOL    HW1 4616   0.047   6.913   5.704
 1239SOL    HW2 4617   0.183   6.861   5.629
 1240SOL     OW 4618   5.282   6.237   2.122
 1240SOL    HW1 4619   5.369   6.275   2.090
 1240SOL    HW2 4620   5.256   6.282   2.208
 1241SOL     OW 4621   5.523   3.921   4.069
 1241SOL    HW1 4622   5.517   3.928   4.169
 1241SOL    HW2 4623   5.612   3.955   4.039
 1242SOL     OW 4624   0.343   3.530   1.601
 1242SOL    HW1 4625   0.268   3.514   1.537
 1242SOL    HW2 4626   0.330   3.618   1.646
 1243SOL     OW 4627   0.084   7.023   4.780
 1243SOL    HW1 4628   0.047   6.946   4.832
 1243SOL    HW2 4629   0.180   7.006   4.759
 1244SOL     OW 4630   6.543   0.063   4.235
 1244SOL    HW1 4631   6.506   0.109   4.316
 1244SOL    HW2 4632   6.487   7.012   4.214
 1245SOL     OW 4633   4.630   4.930   0.248
 1245SOL    HW1 4634   4.652   4.836   0.273
 1245SOL    HW2 4635   4.710   4.988   0.263
 1246SOL     OW 4636   2.294   6.252   1.453
 1246SOL    HW1 4637   2.206   6.244   1.500
 1246SOL    HW2 4638   2.326   6.162   1.424
 1247SOL     OW 4639   2.114   0.526   6.783
 1247SOL    HW1 4640   2.024   0.557   6.753
 1247SOL    HW2 4641   2.144   0.581   6.861
 1248SOL     OW 4642   2.216   0.216   5.144
 1248SOL    HW1 4643   2.156   0.294   5.161
 1248SOL    HW2 4644   2.198   0.181   5.052
 1249SOL     OW 4645   5.886   2.303   2.473
 1249SOL    HW1 4646   5.896   2.208   2.501
 1249SOL    HW2 4647   5.922   2.314   2.380
 1250SOL     OW 4648   6.410   4.884   4.357
 1250SOL    HW1 4649   6.420   4.820   4.281
 1250SOL    HW2 4650   6.362   4.840   4.432
 1251SOL     OW 4651   3.207   0.592   4.618
 1251SOL    HW1 4652   3.285   0.531   4.635
 1251SOL    HW2 4653   3.155   0.558   4.540
 1252SOL     OW 4654   3.766   3.245   4.979
 1252SOL    HW1 4655   3.698   3.216   4.910
 1252SOL    HW2 4656   3.856   3.209   4.953
 1253SOL     OW 4657   3.392   5.530   2.045
 1253SOL    HW1 4658   3.460   5.457   2.047
 1253SOL    HW2 4659   3.336   5.526   2.128
 1254SOL     OW 4660   0.811   2.545   2.715
 1254SOL    HW1 4661   0.724   2.515   2.677
 1254SOL    HW2 4662   0.829   2.640   2.688
 1255SOL     OW 4663   6.270   2.123   4.737
 1255SOL    HW1 4664   6.316   2.118   4.825
 1255SOL    HW2 4665   6.336   2.107   4.663
 1256SOL     OW 4666   6.761   6.607   3.551
 1256SOL    HW1 4667   6.795   6.559   3.470
 1256SOL    HW2 4668   6.823   6.682   3.574
 1257SOL     OW 4669   0.150   6.514   4.459
 1257SOL    HW1 4670   0.090   6.585   4.421
 1257SOL    HW2 4671   0.234   6.510   4.405
 1258SOL     OW 4672   1.704   5.468   3.731
 1258SOL    HW1 4673   1.700   5.566   3.711
 1258SOL    HW2 4674   1.658   5.417   3.658
 1259SOL     OW 4675   3.747   1.379   4.069
 1259SOL    HW1 4676   3.813   1.450   4.092
 1259SOL    HW2 4677   3.762   1.298   4.127
 1260SOL     OW 4678   1.513   1.615   6.762
 1260SOL    HW1 4679   1.452   1.540   6.737
 1260SOL    HW2 4680   1.586   1.580   6.820
 1261SOL     OW 4681   0.553   5.669   6.824
 1261SOL    HW1 4682   0.542   5.665   6.924
 1261SOL    HW2 4683   0.598   5.586   6.792
 1262SOL     OW 4684   4.815   4.044   1.446
 1262SOL    HW1 4685   4.836   4.126   1.392
 1262SOL    HW2 4686   4.859   4.051   1.536
 1263SOL     OW 4687   0.831   1.714   2.246
 1263SOL    HW1 4688   0.869   1.782   2.183
 1263SOL    HW2 4689   0.853   1.623   2.213
 1264SOL     OW 4690   0.058   4.343   0.198
 1264SOL    HW1 4691   6.992   4.356   0.222
 1264SOL    HW2 4692   0.067   4.262   0.139
 1265SOL     OW 4693   5.893   4.958   4.885
 1265SOL    HW1 4694   5.809   4.903   4.892
 1265SOL    HW2 4695   5.954   4.936   4.960
 1266SOL     OW 4696   0.220   0.884   4.276
 1266SOL    HW1 4697   0.233   0.974   4.317
 1266SOL    HW2 4698   0.307   0.851   4.238
 1267SOL     OW 4699   5.678   1.297   0.820
 1267SOL    HW1 4700   5.770   1.322   0.792
 1267SOL    HW2 4701   5.646   1.362   0.890
 1268SOL     OW 4702   2.721   3.114   6.619
 1268SOL    HW1 4703   2.819   3.130   6.603
 1268SOL    HW2 4704   2.669   3.192   6.586
 1269SOL     OW 4705   5.901   3.404   4.435
 1269SOL    HW1 4706   5.974   3.440   4.376
 1269SOL    HW2 4707   5.838   3.478   4.458
 1270SOL     OW 4708   1.873   4.564   2.809
 1270SOL    HW1 4709   1.972   4.560   2.823
 1270SOL    HW2 4710   1.848   4.502   2.734
 1271SOL     OW 4711   3.746   1.801   2.819
 1271SOL    HW1 4712   3.829   1.822   2.870
 1271SOL    HW2 4713   3.695   1.885   2.800
 1272SOL     OW 4714   5.405   5.054   6.889
 1272SOL    HW1 4715   5.463   5.126   6.851
 1272SOL    HW2 4716   5.452   5.011   6.966
 1273SOL     OW 4717   0.989   4.056   5.973
 1273SOL    HW1 4718   0.994   3.967   5.927
 1273SOL    HW2 4719   1.081   4.089   5.991
 1274SOL     OW 4720   0.259   4.574   0.890
 1274SOL    HW1 4721   0.190   4.646   0.883
 1274SOL    HW2 4722   0.341   4.601   0.840
 1275SOL     OW 4723   3.484   1.777   3.390
 1275SOL    HW1 4724   3.444   1.867   3.371
 1275SOL    HW2 4725   3.574   1.789   3.431
 1276SOL     OW 4726   5.749   4.753   5.177
 1276SOL    HW1 4727   5.782   4.671   5.131
 1276SOL    HW2 4728   5.664   4.732   5.226
 1277SOL     OW 4729   2.071   5.165   6.257
 1277SOL    HW1 4730   2.154   5.110   6.269
 1277SOL    HW2 4731   2.091   5.259   6.284
 1278SOL     OW 4732   1.258   0.536   5.023
 1278SOL    HW1 4733   1.264   0.561   5.119
 1278SOL    HW2 4734   1.193   0.461   5.011
 1279SOL     OW 4735   2.034   4.911   6.719
 1279SOL    HW1 4736   2.125   4.950   6.732
 1279SOL    HW2 4737   2.008   4.918   6.623
 1280SOL     OW 4738   4.511   6.538   3.911
 1280SOL    HW1 4739   4.512   6.514   4.009
 1280SOL    HW2 4740   4.514   6.454   3.857
 1281SOL     OW 4741   2.704   6.196   2.997
 1281SOL    HW1 4742   2.633   6.133   2.967
 1281SOL    HW2 4743   2.786   6.144   3.023
 1282SOL     OW 4744   6.427   1.833   6.466
 1282SOL    HW1 4745   6.349   1.878   6.422
 1282SOL    HW2 4746   6.482   1.786   6.397
 1283SOL     OW 4747   6.688   2.941   5.076
 1283SOL    HW1 4748   6.786   2.929   5.066
 1283SOL    HW2 4749   6.650   2.981   4.992
 1284SOL     OW 4750   4.393   1.668   1.621
 1284SOL    HW1 4751   4.421   1.710   1.534
 1284SOL    HW2 4752   4.448   1.705   1.695
 1285SOL     OW 4753   5.125   1.458   5.484
 1285SOL    HW1 4754   5.076   1.482   5.568
 1285SOL    HW2 4755   5.079   1.381   5.439
 1286SOL     OW 4756   4.498   2.754   0.672
 1286SOL    HW1 4757   4.466   2.815   0.599
 1286SOL    HW2 4758   4.565   2.802   0.728
 1287SOL     OW 4759   5.333   4.273   5.544
 1287SOL    HW1 4760   5.283   4.337   5.602
 1287SOL    HW2 4761   5.413   4.240   5.594
 1288SOL     OW 4762   3.819   4.043   6.305
 1288SOL    HW1 4763   3.723   4.027   6.282
 1288SOL    HW2 4764   3.831   4.139   6.331
 1289SOL     OW 4765   0.713   0.040   1.187
 1289SOL    HW1 4766   0.737   0.080   1.276
 1289SOL    HW2 4767   0.620   0.004   1.191
 1290SOL     OW 4768   1.491   6.892   0.364
 1290SOL    HW1 4769   1.425   6.820   0.387
 1290SOL    HW2 4770   1.584   6.855   0.365
 1291SOL     OW 4771   0.305   4.112   3.755
 1291SOL    HW1 4772   0.394   4.153   3.734
 1291SOL    HW2 4773   0.234   4.181   3.746
 1292SOL     OW 4774   0.492   5.919   2.585
 1292SOL    HW1 4775   0.532   6.010   2.571
 1292SOL    HW2 4776   0.500   5.894   2.682
 1293SOL     OW 4777   2.457   2.430   6.684
 1293SOL    HW1 4778   2.358   2.419   6.674
 1293SOL    HW2 4779   2.477   2.525   6.707
 1294SOL     OW 4780   0.414   3.277   5.809
 1294SOL    HW1 4781   0.421   3.328   5.723
 1294SOL    HW2 4782   0.503   3.234   5.829
 1295SOL     OW 4783   0.111   3.555   1.015
 1295SOL    HW1 4784   0.123   3.649   1.047
 1295SOL    HW2 4785   0.199   3.507   1.021
 1296SOL     OW 4786   4.896   0.017   5.172
 1296SOL    HW1 4787   4.925   6.965   5.123
 1296SOL    HW2 4788   4.924   0.010   5.268
 1297SOL     OW 4789   0.996   6.836   1.271
 1297SOL    HW1 4790   1.041   6.912   1.224
 1297SOL    HW2 4791   0.897   6.851   1.270
 1298SOL     OW 4792   4.997   6.324   3.594
 1298SOL    HW1 4793   5.093   6.312   3.566
 1298SOL    HW2 4794   4.937   6.308   3.516
 1299SOL     OW 4795   2.426   2.549   3.531
 1299SOL    HW1 4796   2.452   2.590   3.618
 1299SOL    HW2 4797   2.354   2.604   3.489
 1300SOL     OW 4798   2.070   3.248   0.883
 1300SOL    HW1 4799   2.117   3.252   0.972
 1300SOL    HW2 4800   2.030   3.337   0.862
 1301SOL     OW 4801   0.496   6.748   1.774
 1301SOL    HW1 4802   0.483   6.651   1.753
 1301SOL    HW2 4803   0.407   6.794   1.774
 1302SOL     OW 4804   5.346   0.139   5.302
 1302SOL    HW1 4805   5.321   0.124   5.206
 1302SOL    HW2 4806   5.270   0.183   5.350
 1303SOL     OW 4807   4.306   1.081   1.435
 1303SOL    HW1 4808   4.381   1.089   1.370
 1303SOL    HW2 4809   4.218   1.081   1.387
 1304SOL     OW 4810   1.883   0.122   0.944
 1304SOL    HW1 4811   1.832   0.061   0.883
 1304SOL    HW2 4812   1.923   0.197   0.891
 1305SOL     OW 4813   5.986   4.187   0.551
 1305SOL    HW1 4814   5.923   4.135   0.608
 1305SOL    HW2 4815   5.948   4.278   0.534
 1306SOL     OW 4816   1.310   5.726   4.285
 1306SOL    HW1 4817   1.392   5.767   4.323
 1306SOL    HW2 4818   1.241   5.797   4.269
 1307SOL     OW 4819   1.963   4.237   4.157
 1307SOL    HW1 4820   1.974   4.165   4.087
 1307SOL    HW2 4821   2.002   4.322   4.123
 1308SOL     OW 4822   6.902   6.874   5.977
 1308SOL    HW1 4823   6.920   6.907   5.884
 1308SOL    HW2 4824   6.865   6.782   5.973
 1309SOL     OW 4825   6.079   4.644   5.863
 1309SOL    HW1 4826   6.033   4.569   5.910
 1309SOL    HW2 4827   6.025   4.671   5.783
 1310SOL     OW 4828   0.203   3.441   2.912
 1310SOL    HW1 4829   0.214   3.494   2.996
 1310SOL    HW2 4830   0.184   3.503   2.835
 1311SOL     OW 4831   0.225   6.055   5.990
 1311SOL    HW1 4832   0.240   6.052   6.089
 1311SOL    HW2 4833   0.131   6.027   5.970
 1312SOL     OW 4834   1.587   6.539   0.224
 1312SOL    HW1 4835   1.525   6.603   0.177
 1312SOL    HW2 4836   1.601   6.458   0.167
 1313SOL     OW 4837   0.009   5.009   2.730
 1313SOL    HW1 4838   0.050   5.077   2.790
 1313SOL    HW2 4839   0.081   4.948   2.696
 1314SOL     OW 4840   3.647   1.284   4.753
 1314SOL    HW1 4841   3.743   1.258   4.762
 1314SOL    HW2 4842   3.600   1.267   4.839
 1315SOL     OW 4843   6.783   1.309   3.009
 1315SOL    HW1 4844   6.719   1.240   3.041
 1315SOL    HW2 4845   6.866   1.305   3.064
 1316SOL     OW 4846   3.602   0.117   5.822
 1316SOL    HW1 4847   3.565   0.067   5.744
 1316SOL    HW2 4848   3.628   0.053   5.894
 1317SOL     OW 4849   1.440   4.126   5.786
 1317SOL    HW1 4850   1.405   4.045   5.739
 1317SOL    HW2 4851   1.419   4.120   5.883
 1318SOL     OW 4852   1.040   2.678   0.566
 1318SOL    HW1 4853   1.131   2.718   0.575
 1318SOL    HW2 4854   1.035   2.593   0.619
 1319SOL     OW 4855   0.062   5.911   0.876
 1319SOL    HW1 4856   7.025   5.964   0.929
 1319SOL    HW2 4857   0.013   5.842   0.823
 1320SOL     OW 4858   3.447   3.955   6.978
 1320SOL    HW1 4859   3.431   3.886   0.018
 1320SOL    HW2 4860   3.463   4.044   7.022
 1321SOL     OW 4861   5.078   3.120   6.175
 1321SOL    HW1 4862   5.007   3.112   6.245
 1321SOL    HW2 4863   5.035   3.132   6.085
 1322SOL     OW 4864   3.635   1.665   4.534
 1322SOL    HW1 4865   3.670   1.733   4.470
 1322SOL    HW2 4866   3.580   1.710   4.604
 1323SOL     OW 4867   3.380   6.913   6.504
 1323SOL    HW1 4868   3.284   6.915   6.474
 1323SOL    HW2 4869   3.386   6.947   6.598
 1324SOL     OW 4870   0.169   2.871   6.425
 1324SOL    HW1 4871   0.219   2.821   6.495
 1324SOL    HW2 4872   0.230   2.937   6.380
 1325SOL     OW 4873   3.680   6.208   5.091
 1325SOL    HW1 4874   3.667   6.294   5.042
 1325SOL    HW2 4875   3.658   6.222   5.188
 1326SOL     OW 4876   4.645   3.597   5.453
 1326SOL    HW1 4877   4.742   3.594   5.476
 1326SOL    HW2 4878   4.635   3.595   5.353
 1327SOL     OW 4879   1.519   6.014   0.841
 1327SOL    HW1 4880   1.573   6.082   0.889
 1327SOL    HW2 4881   1.422   6.031   0.855
 1328SOL     OW 4882   2.276   3.358   0.203
 1328SOL    HW1 4883   2.216   3.436   0.223
 1328SOL    HW2 4884   2.293   3.306   0.286
 1329SOL     OW 4885   0.526   2.440   2.746
 1329SOL    HW1 4886   0.551   2.344   2.742
 1329SOL    HW2 4887   0.442   2.456   2.695
 1330SOL     OW 4888   1.907   1.832   1.250
 1330SOL    HW1 4889   1.887   1.752   1.306
 1330SOL    HW2 4890   1.821   1.878   1.226
 1331SOL     OW 4891   4.722   2.850   3.472
 1331SOL    HW1 4892   4.680   2.762   3.449
 1331SOL    HW2 4893   4.725   2.909   3.391
 1332SOL     OW 4894   2.842   6.922   0.991
 1332SOL    HW1 4895   2.855   7.016   0.956
 1332SOL    HW2 4896   2.764   6.921   1.053
 1333SOL     OW 4897   2.931   3.531   2.941
 1333SOL    HW1 4898   2.862   3.461   2.923
 1333SOL    HW2 4899   2.968   3.565   2.855
 1334SOL     OW 4900   6.674   1.353   3.983
 1334SOL    HW1 4901   6.759   1.394   4.015
 1334SOL    HW2 4902   6.611   1.424   3.951
 1335SOL     OW 4903   2.451   2.144   2.284
 1335SOL    HW1 4904   2.361   2.175   2.316
 1335SOL    HW2 4905   2.488   2.078   2.349
 1336SOL     OW 4906   2.868   1.757   4.816
 1336SOL    HW1 4907   2.921   1.839   4.836
 1336SOL    HW2 4908   2.846   1.755   4.718
 1337SOL     OW 4909   1.064   1.870   3.059
 1337SOL    HW1 4910   1.009   1.927   3.120
 1337SOL    HW2 4911   1.143   1.834   3.110
 1338SOL     OW 4912   6.823   2.752   4.698
 1338SOL    HW1 4913   6.888   2.768   4.772
 1338SOL    HW2 4914   6.781   2.839   4.671
 1339SOL     OW 4915   6.207   2.246   6.971
 1339SOL    HW1 4916   6.295   2.199   6.980
 1339SOL    HW2 4917   6.152   2.199   6.902
 1340SOL     OW 4918   5.273   1.367   2.768
 1340SOL    HW1 4919   5.254   1.439   2.702
 1340SOL    HW2 4920   5.332   1.403   2.841
 1341SOL     OW 4921   4.596   0.017   6.751
 1341SOL    HW1 4922   4.537   0.098   6.760
 1341SOL    HW2 4923   4.690   0.047   6.736
 1342SOL     OW 4924   2.950   5.454   6.335
 1342SOL    HW1 4925   2.946   5.518   6.412
 1342SOL    HW2 4926   2.869   5.467   6.277
 1343SOL     OW 4927   5.532   5.560   2.729
 1343SOL    HW1 4928   5.595   5.560   2.807
 1343SOL    HW2 4929   5.439   5.541   2.762
 1344SOL     OW 4930   0.472   5.874   4.371
 1344SOL    HW1 4931   0.432   5.949   4.422
 1344SOL    HW2 4932   0.476   5.792   4.428
 1345SOL     OW 4933   0.724   5.715   2.682
 1345SOL    HW1 4934   0.715   5.721   2.782
 1345SOL    HW2 4935   0.820   5.700   2.659
 1346SOL     OW 4936   2.037   5.476   5.078
 1346SOL    HW1 4937   1.946   5.460   5.117
 1346SOL    HW2 4938   2.027   5.512   4.986
 1347SOL     OW 4939   6.924   6.996   5.710
 1347SOL    HW1 4940   6.868   6.932   5.658
 1347SOL    HW2 4941   6.875   0.053   5.721
 1348SOL     OW 4942   7.004   6.322   4.577
 1348SOL    HW1 4943   0.048   6.387   4.559
 1348SOL    HW2 4944   6.986   6.268   4.495
 1349SOL     OW 4945   5.487   2.951   5.273
 1349SOL    HW1 4946   5.422   2.992   5.209
 1349SOL    HW2 4947   5.498   2.854   5.251
 1350SOL     OW 4948   5.388   4.906   5.594
 1350SOL    HW1 4949   5.352   4.930   5.504
 1350SOL    HW2 4950   5.339   4.957   5.664
 1351SOL     OW 4951   5.589   2.219   3.583
 1351SOL    HW1 4952   5.625   2.213   3.676
 1351SOL    HW2 4953   5.522   2.294   3.578
 1352SOL     OW 4954   6.192   5.858   4.112
 1352SOL    HW1 4955   6.190   5.810   4.199
 1352SOL    HW2 4956   6.146   5.803   4.042
 1353SOL     OW 4957   0.721   2.572   0.091
 1353SOL    HW1 4958   0.677   2.577   0.181
 1353SOL    HW2 4959   0.813   2.534   0.102
 1354SOL     OW 4960   0.292   4.509   1.735
 1354SOL    HW1 4961   0.357   4.528   1.808
 1354SOL    HW2 4962   0.199   4.513   1.771
 1355SOL     OW 4963   6.170   3.849   4.384
 1355SOL    HW1 4964   6.178   3.770   4.445
 1355SOL    HW2 4965   6.257   3.863   4.336
 1356SOL     OW 4966   3.583   2.919   2.155
 1356SOL    HW1 4967   3.554   2.913   2.251
 1356SOL    HW2 4968   3.680   2.946   2.152
 1357SOL     OW 4969   0.351   4.306   6.475
 1357SOL    HW1 4970   0.340   4.396   6.518
 1357SOL    HW2 4971   0.346   4.316   6.375
 1358SOL     OW 4972   6.018   6.553   6.728
 1358SOL    HW1 4973   5.950   6.625   6.744
 1358SOL    HW2 4974   6.096   6.591   6.678
 1359SOL     OW 4975   5.765   4.732   2.480
 1359SOL    HW1 4976   5.806   4.734   2.571
 1359SOL    HW2 4977   5.805   4.803   2.423
 1360SOL     OW 4978   2.643   3.764   0.516
 1360SOL    HW1 4979   2.599   3.706   0.585
 1360SOL    HW2 4980   2.741   3.744   0.513
 1361SOL     OW 4981   6.334   4.666   5.274
 1361SOL    HW1 4982   6.272   4.673   5.352
 1361SOL    HW2 4983   6.380   4.577   5.276
 1362SOL     OW 4984   3.892   4.024   3.526
 1362SOL    HW1 4985   3.947   4.071   3.594
 1362SOL    HW2 4986   3.873   3.931   3.557
 1363SOL     OW 4987   0.128   5.045   4.503
 1363SOL    HW1 4988   0.166   4.994   4.426
 1363SOL    HW2 4989   0.202   5.073   4.564
 1364SOL     OW 4990   5.289   4.320   0.445
 1364SOL    HW1 4991   5.239   4.401   0.413
 1364SOL    HW2 4992   5.344   4.283   0.369
 1365SOL     OW 4993   0.349   4.461   6.181
 1365SOL    HW1 4994   0.272   4.524   6.164
 1365SOL    HW2 4995   0.434   4.513   6.185
 1366SOL     OW 4996   1.874   6.093   6.543
 1366SOL    HW1 4997   1.866   6.187   6.510
 1366SOL    HW2 4998   1.851   6.029   6.469
 1367SOL     OW 4999   2.367   6.765   3.153
 1367SOL    HW1 5000   2.305   6.704   3.201
 1367SOL    HW2 5001   2.334   6.780   3.060
 1368SOL     OW 5002   5.439   6.861   3.985
 1368SOL    HW1 5003   5.403   6.801   3.913
 1368SOL    HW2 5004   5.529   6.895   3.958
 1369SOL     OW 5005   2.047   6.409   2.844
 1369SOL    HW1 5006   2.018   6.497   2.883
 1369SOL    HW2 5007   2.075   6.347   2.917
 1370SOL     OW 5008   3.513   1.129   1.538
 1370SOL    HW1 5009   3.417   1.106   1.555
 1370SOL    HW2 5010   3.521   1.227   1.522
 1371SOL     OW 5011   5.342   1.382   4.212
 1371SOL    HW1 5012   5.423   1.438   4.194
 1371SOL    HW2 5013   5.369   1.301   4.264
 1372SOL     OW 5014   1.531   2.752   0.417
 1372SOL    HW1 5015   1.542   2.758   0.517
 1372SOL    HW2 5016   1.559   2.838   0.376
 1373SOL     OW 5017   6.196   4.448   0.320
 1373SOL    HW1 5018   6.196   4.376   0.250
 1373SOL    HW2 5019   6.145   4.527   0.285
 1374SOL     OW 5020   3.746   2.033   0.422
 1374SOL    HW1 5021   3.772   2.113   0.476
 1374SOL    HW2 5022   3.666   1.989   0.465
 1375SOL     OW 5023   0.166   4.575   5.979
 1375SOL    HW1 5024   0.162   4.540   5.885
 1375SOL    HW2 5025   0.246   4.633   5.991
 1376SOL     OW 5026   4.900   3.432   4.086
 1376SOL    HW1 5027   4.996   3.431   4.114
 1376SOL    HW2 5028   4.864   3.338   4.087
 1377SOL     OW 5029   6.646   3.889   5.086
 1377SOL    HW1 5030   6.604   3.866   5.174
 1377SOL    HW2 5031   6.597   3.966   5.045
 1378SOL     OW 5032   6.011   2.278   5.052
 1378SOL    HW1 5033   6.001   2.216   5.130
 1378SOL    HW2 5034   6.014   2.225   4.967
 1379SOL     OW 5035   3.271   6.974   2.194
 1379SOL    HW1 5036   3.230   0.011   2.256
 1379SOL    HW2 5037   3.259   6.882   2.231
 1380SOL     OW 5038   0.185   0.335   2.121
 1380SOL    HW1 5039   0.115   0.296   2.180
 1380SOL    HW2 5040   0.275   0.312   2.157
 1381SOL     OW 5041   5.206   2.975   0.277
 1381SOL    HW1 5042   5.260   2.891   0.285
 1381SOL    HW2 5043   5.236   3.040   0.347
 1382SOL     OW 5044   5.467   4.577   6.914
 1382SOL    HW1 5045   5.374   4.615   6.903
 1382SOL    HW2 5046   5.461   4.482   6.944
 1383SOL     OW 5047   1.119   1.124   0.676
 1383SOL    HW1 5048   1.098   1.209   0.726
 1383SOL    HW2 5049   1.038   1.095   0.626
 1384SOL     OW 5050   3.966   1.284   2.814
 1384SOL    HW1 5051   4.024   1.217   2.860
 1384SOL    HW2 5052   3.958   1.366   2.872
 1385SOL     OW 5053   0.500   2.906   2.895
 1385SOL    HW1 5054   0.439   2.883   2.819
 1385SOL    HW2 5055   0.535   2.999   2.882
 1386SOL     OW 5056   2.287   1.892   4.588
 1386SOL    HW1 5057   2.347   1.835   4.642
 1386SOL    HW2 5058   2.304   1.876   4.491
 1387SOL     OW 5059   3.879   0.593   3.597
 1387SOL    HW1 5060   3.842   0.645   3.674
 1387SOL    HW2 5061   3.805   0.544   3.551
 1388SOL     OW 5062   6.805   6.388   4.087
 1388SOL    HW1 5063   6.723   6.369   4.140
 1388SOL    HW2 5064   6.780   6.411   3.993
 1389SOL     OW 5065   0.288   1.055   3.636
 1389SOL    HW1 5066   0.325   1.102   3.556
 1389SOL    HW2 5067   0.289   1.117   3.714
 1390SOL     OW 5068   4.414   1.959   6.478
 1390SOL    HW1 5069   4.433   1.870   6.521
 1390SOL    HW2 5070   4.392   2.026   6.549
 1391SOL     OW 5071   6.011   1.762   5.840
 1391SOL    HW1 5072   5.914   1.778   5.821
 1391SOL    HW2 5073   6.021   1.730   5.934
 1392SOL     OW 5074   4.941   5.883   5.810
 1392SOL    HW1 5075   4.917   5.885   5.713
 1392SOL    HW2 5076   4.860   5.907   5.865
 1393SOL     OW 5077   6.023   3.002   6.807
 1393SOL    HW1 5078   6.065   2.916   6.835
 1393SOL    HW2 5079   5.926   2.988   6.789
 1394SOL     OW 5080   3.884   6.600   4.034
 1394SOL    HW1 5081   3.957   6.567   3.975
 1394SOL    HW2 5082   3.923   6.642   4.116
 1395SOL     OW 5083   0.242   4.068   2.717
 1395SOL    HW1 5084   0.341   4.059   2.726
 1395SOL    HW2 5085   0.214   4.044   2.624
 1396SOL     OW 5086   2.103   6.865   4.334
 1396SOL    HW1 5087   2.009   6.862   4.367
 1396SOL    HW2 5088   2.105   6.900   4.240
 1397SOL     OW 5089   0.492   5.853   5.118
 1397SOL    HW1 5090   0.424   5.794   5.075
 1397SOL    HW2 5091   0.583   5.814   5.105
 1398SOL     OW 5092   2.062   0.990   1.332
 1398SOL    HW1 5093   2.107   0.915   1.379
 1398SOL    HW2 5094   1.996   0.954   1.267
 1399SOL     OW 5095   4.589   0.398   0.918
 1399SOL    HW1 5096   4.659   0.338   0.879
 1399SOL    HW2 5097   4.593   0.488   0.874
 1400SOL     OW 5098   6.389   0.859   4.462
 1400SOL    HW1 5099   6.426   0.769   4.482
 1400SOL    HW2 5100   6.439   0.900   4.386
 1401SOL     OW 5101   5.769   0.305   3.967
 1401SOL    HW1 5102   5.735   0.213   3.945
 1401SOL    HW2 5103   5.834   0.299   4.043
 1402SOL     OW 5104   6.052   4.260   6.979
 1402SOL    HW1 5105   6.136   4.313   6.982
 1402SOL    HW2 5106   6.001   4.273   0.034
 1403SOL     OW 5107   2.878   3.303   0.443
 1403SOL    HW1 5108   2.885   3.331   0.539
 1403SOL    HW2 5109   2.833   3.214   0.437
 1404SOL     OW 5110   4.840   0.349   1.089
 1404SOL    HW1 5111   4.809   0.272   1.033
 1404SOL    HW2 5112   4.864   0.426   1.031
 1405SOL     OW 5113   1.592   3.809   0.976
 1405SOL    HW1 5114   1.542   3.895   0.964
 1405SOL    HW2 5115   1.527   3.735   0.997
 1406SOL     OW 5116   2.348   4.041   1.845
 1406SOL    HW1 5117   2.396   4.076   1.925
 1406SOL    HW2 5118   2.283   4.110   1.812
 1407SOL     OW 5119   0.689   3.400   2.072
 1407SOL    HW1 5120   0.655   3.352   2.153
 1407SOL    HW2 5121   0.752   3.472   2.100
 1408SOL     OW 5122   6.410   6.479   6.994
 1408SOL    HW1 5123   6.330   6.539   7.005
 1408SOL    HW2 5124   6.429   6.433   0.051
 1409SOL     OW 5125   6.613   1.195   5.665
 1409SOL    HW1 5126   6.567   1.109   5.682
 1409SOL    HW2 5127   6.617   1.212   5.566
 1410SOL     OW 5128   2.252   3.323   6.340
 1410SOL    HW1 5129   2.332   3.375   6.372
 1410SOL    HW2 5130   2.174   3.342   6.400
 1411SOL     OW 5131   3.729   6.388   6.729
 1411SOL    HW1 5132   3.800   6.424   6.668
 1411SOL    HW2 5133   3.673   6.322   6.679
 1412SOL     OW 5134   0.381   3.507   1.029
 1412SOL    HW1 5135   0.414   3.601   1.040
 1412SOL    HW2 5136   0.459   3.446   1.014
 1413SOL     OW 5137   1.562   1.837   4.746
 1413SOL    HW1 5138   1.618   1.917   4.768
 1413SOL    HW2 5139   1.621   1.757   4.737
 1414SOL     OW 5140   1.039   3.061   1.892
 1414SOL    HW1 5141   1.095   3.140   1.917
 1414SOL    HW2 5142   1.046   3.044   1.794
 1415SOL     OW 5143   2.496   1.721   4.679
 1415SOL    HW1 5144   2.454   1.635   4.707
 1415SOL    HW2 5145   2.525   1.715   4.584
 1416SOL     OW 5146   3.803   0.722   5.148
 1416SOL    HW1 5147   3.896   0.733   5.181
 1416SOL    HW2 5148   3.758   0.647   5.196
 1417SOL     OW 5149   3.088   3.512   5.891
 1417SOL    HW1 5150   3.143   3.435   5.921
 1417SOL    HW2 5151   3.033   3.486   5.812
 1418SOL     OW 5152   3.560   4.026   0.432
 1418SOL    HW1 5153   3.485   4.048   0.370
 1418SOL    HW2 5154   3.600   4.111   0.468
 1419SOL     OW 5155   1.456   4.806   3.853
 1419SOL    HW1 5156   1.403   4.745   3.794
 1419SOL    HW2 5157   1.469   4.763   3.942
 1420SOL     OW 5158   4.239   5.209   2.674
 1420SOL    HW1 5159   4.251   5.152   2.755
 1420SOL    HW2 5160   4.271   5.302   2.693
 1421SOL     OW 5161   0.772   4.605   4.379
 1421SOL    HW1 5162   0.785   4.701   4.406
 1421SOL    HW2 5163   0.677   4.579   4.393
 1422SOL     OW 5164   2.629   4.189   5.565
 1422SOL    HW1 5165   2.712   4.214   5.615
 1422SOL    HW2 5166   2.589   4.272   5.524
 1423SOL     OW 5167   4.114   1.770   4.439
 1423SOL    HW1 5168   4.043   1.725   4.493
 1423SOL    HW2 5169   4.072   1.822   4.365
 1424SOL     OW 5170   6.682   4.031   6.404
 1424SOL    HW1 5171   6.724   4.121   6.390
 1424SOL    HW2 5172   6.582   4.041   6.407
 1425SOL     OW 5173   3.255   6.335   5.163
 1425SOL    HW1 5174   3.186   6.334   5.235
 1425SOL    HW2 5175   3.308   6.420   5.170
 1426SOL     OW 5176   2.464   1.542   6.889
 1426SOL    HW1 5177   2.464   1.452   6.932
 1426SOL    HW2 5178   2.545   1.552   6.832
 1427SOL     OW 5179   1.257   0.377   3.396
 1427SOL    HW1 5180   1.357   0.374   3.403
 1427SOL    HW2 5181   1.230   0.452   3.335
 1428SOL     OW 5182   0.074   2.664   1.909
 1428SOL    HW1 5183   0.140   2.593   1.937
 1428SOL    HW2 5184   0.116   2.754   1.918
 1429SOL     OW 5185   6.150   1.132   6.590
 1429SOL    HW1 5186   6.228   1.194   6.598
 1429SOL    HW2 5187   6.120   1.104   6.681
 1430SOL     OW 5188   2.746   4.734   4.418
 1430SOL    HW1 5189   2.664   4.687   4.386
 1430SOL    HW2 5190   2.733   4.762   4.513
 1431SOL     OW 5191   2.772   1.680   5.581
 1431SOL    HW1 5192   2.710   1.733   5.639
 1431SOL    HW2 5193   2.721   1.605   5.539
 1432SOL     OW 5194   2.378   1.391   0.893
 1432SOL    HW1 5195   2.387   1.323   0.965
 1432SOL    HW2 5196   2.452   1.381   0.827
 1433SOL     OW 5197   3.527   0.565   3.333
 1433SOL    HW1 5198   3.470   0.516   3.400
 1433SOL    HW2 5199   3.519   0.663   3.349
 1434SOL     OW 5200   0.368   2.127   6.898
 1434SOL    HW1 5201   0.395   2.097   6.806
 1434SOL    HW2 5202   0.439   2.101   6.964
 1435SOL     OW 5203   0.816   0.430   3.844
 1435SOL    HW1 5204   0.826   0.481   3.759
 1435SOL    HW2 5205   0.726   0.387   3.847
 1436SOL     OW 5206   5.660   3.761   0.820
 1436SOL    HW1 5207   5.570   3.729   0.790
 1436SOL    HW2 5208   5.656   3.787   0.916
 1437SOL     OW 5209   4.029   1.591   6.278
 1437SOL    HW1 5210   3.985   1.668   6.232
 1437SOL    HW2 5211   4.086   1.626   6.353
 1438SOL     OW 5212   2.995   1.044   1.645
 1438SOL    HW1 5213   2.928   0.971   1.650
 1438SOL    HW2 5214   2.950   1.132   1.663
 1439SOL     OW 5215   0.307   6.127   0.207
 1439SOL    HW1 5216   0.371   6.194   0.245
 1439SOL    HW2 5217   0.344   6.035   0.216
 1440SOL     OW 5218   3.275   3.779   3.787
 1440SOL    HW1 5219   3.337   3.701   3.790
 1440SOL    HW2 5220   3.258   3.811   3.880
 1441SOL     OW 5221   6.570   3.268   3.425
 1441SOL    HW1 5222   6.514   3.304   3.499
 1441SOL    HW2 5223   6.526   3.289   3.337
 1442SOL     OW 5224   5.284   4.729   1.216
 1442SOL    HW1 5225   5.351   4.801   1.235
 1442SOL    HW2 5226   5.237   4.749   1.130
 1443SOL     OW 5227   1.287   0.466   3.784
 1443SOL    HW1 5228   1.216   0.483   3.716
 1443SOL    HW2 5229   1.254   0.492   3.875
 1444SOL     OW 5230   4.207   6.170   3.186
 1444SOL    HW1 5231   4.236   6.240   3.120
 1444SOL    HW2 5232   4.224   6.202   3.279
 1445SOL     OW 5233   0.136   2.927   1.739
 1445SOL    HW1 5234   0.102   3.020   1.728
 1445SOL    HW2 5235   0.088   2.865   1.677
 1446SOL     OW 5236   4.812   2.735   6.968
 1446SOL    HW1 5237   4.875   2.804   6.933
 1446SOL    HW2 5238   4.847   2.697   0.024
 1447SOL     OW 5239   6.529   0.829   5.292
 1447SOL    HW1 5240   6.553   0.912   5.241
 1447SOL    HW2 5241   6.573   0.832   5.381
 1448SOL     OW 5242   6.214   1.521   0.706
 1448SOL    HW1 5243   6.154   1.592   0.670
 1448SOL    HW2 5244   6.250   1.549   0.795
 1449SOL     OW 5245   6.320   6.569   0.935
 1449SOL    HW1 5246   6.262   6.623   0.874
 1449SOL    HW2 5247   6.376   6.630   0.990
 1450SOL     OW 5248   6.519   2.695   2.651
 1450SOL    HW1 5249   6.507   2.636   2.571
 1450SOL    HW2 5250   6.442   2.681   2.713
 1451SOL     OW 5251   2.903   0.306   2.830
 1451SOL    HW1 5252   2.901   0.402   2.860
 1451SOL    HW2 5253   2.839   0.294   2.755
 1452SOL     OW 5254   5.270   0.654   4.675
 1452SOL    HW1 5255   5.185   0.683   4.720
 1452SOL    HW2 5256   5.293   0.718   4.602
 1453SOL     OW 5257   5.682   3.382   4.823
 1453SOL    HW1 5258   5.742   3.450   4.866
 1453SOL    HW2 5259   5.734   3.298   4.808
 1454SOL     OW 5260   5.306   2.322   1.902
 1454SOL    HW1 5261   5.371   2.346   1.975
 1454SOL    HW2 5262   5.342   2.244   1.850
 1455SOL     OW 5263   1.249   0.547   1.577
 1455SOL    HW1 5264   1.269   0.474   1.642
 1455SOL    HW2 5265   1.214   0.627   1.625
 1456SOL     OW 5266   0.051   6.431   5.208
 1456SOL    HW1 5267   0.006   6.410   5.294
 1456SOL    HW2 5268   7.013   6.434   5.135
 1457SOL     OW 5269   1.463   6.554   3.104
 1457SOL    HW1 5270   1.474   6.471   3.049
 1457SOL    HW2 5271   1.371   6.592   3.089
 1458SOL     OW 5272   5.258   6.727   4.998
 1458SOL    HW1 5273   5.274   6.639   4.953
 1458SOL    HW2 5274   5.295   6.725   5.090
 1459SOL     OW 5275   2.920   5.349   6.711
 1459SOL    HW1 5276   2.854   5.335   6.638
 1459SOL    HW2 5277   3.006   5.383   6.673
 1460SOL     OW 5278   0.331   6.076   6.296
 1460SOL    HW1 5279   0.415   6.072   6.350
 1460SOL    HW2 5280   0.258   6.027   6.344
 1461SOL     OW 5281   6.388   4.158   3.878
 1461SOL    HW1 5282   6.306   4.176   3.823
 1461SOL    HW2 5283   6.469   4.171   3.821
 1462SOL     OW 5284   6.653   1.931   0.123
 1462SOL    HW1 5285   6.637   1.959   0.218
 1462SOL    HW2 5286   6.746   1.956   0.096
 1463SOL     OW 5287   0.524   0.397   5.355
 1463SOL    HW1 5288   0.535   0.475   5.294
 1463SOL    HW2 5289   0.575   0.412   5.440
 1464SOL     OW 5290   0.691   6.573   0.464
 1464SOL    HW1 5291   0.607   6.608   0.422
 1464SOL    HW2 5292   0.672   6.484   0.505
 1465SOL     OW 5293   0.883   1.374   3.131
 1465SOL    HW1 5294   0.812   1.412   3.073
 1465SOL    HW2 5295   0.846   1.356   3.222
 1466SOL     OW 5296   6.892   6.362   2.297
 1466SOL    HW1 5297   6.818   6.408   2.347
 1466SOL    HW2 5298   6.945   6.429   2.246
 1467SOL     OW 5299   1.486   0.543   2.305
 1467SOL    HW1 5300   1.471   0.638   2.330
 1467SOL    HW2 5301   1.573   0.511   2.345
 1468SOL     OW 5302   5.451   5.751   2.989
 1468SOL    HW1 5303   5.532   5.800   2.957
 1468SOL    HW2 5304   5.369   5.788   2.945
 1469SOL     OW 5305   0.670   0.618   3.011
 1469SOL    HW1 5306   0.618   0.696   3.045
 1469SOL    HW2 5307   0.608   0.541   2.995
 1470SOL     OW 5308   1.021   1.024   2.182
 1470SOL    HW1 5309   1.008   1.112   2.136
 1470SOL    HW2 5310   1.049   0.955   2.115
 1471SOL     OW 5311   6.779   0.771   6.445
 1471SOL    HW1 5312   6.795   0.755   6.348
 1471SOL    HW2 5313   6.867   0.784   6.492
 1472SOL     OW 5314   4.559   6.121   4.755
 1472SOL    HW1 5315   4.576   6.061   4.677
 1472SOL    HW2 5316   4.570   6.068   4.840
 1473SOL     OW 5317   6.048   5.356   3.166
 1473SOL    HW1 5318   6.141   5.327   3.188
 1473SOL    HW2 5319   6.011   5.298   3.094
 1474SOL     OW 5320   6.378   6.050   3.734
 1474SOL    HW1 5321   6.341   6.062   3.642
 1474SOL    HW2 5322   6.306   6.064   3.801
 1475SOL     OW 5323   0.028   0.484   1.596
 1475SOL    HW1 5324   7.020   0.554   1.535
 1475SOL    HW2 5325   6.983   0.430   1.634
 1476SOL     OW 5326   1.446   1.042   1.314
 1476SOL    HW1 5327   1.530   1.081   1.275
 1476SOL    HW2 5328   1.422   0.958   1.265
 1477SOL     OW 5329   2.690   0.215   6.052
 1477SOL    HW1 5330   2.704   0.177   5.960
 1477SOL    HW2 5331   2.716   0.147   6.120
 1478SOL     OW 5332   5.764   4.851   0.951
 1478SOL    HW1 5333   5.851   4.828   0.995
 1478SOL    HW2 5334   5.694   4.866   1.021
 1479SOL     OW 5335   1.430   4.433   0.262
 1479SOL    HW1 5336   1.414   4.380   0.179
 1479SOL    HW2 5337   1.477   4.518   0.239
 1480SOL     OW 5338   2.437   0.661   6.991
 1480SOL    HW1 5339   2.445   0.582   6.931
 1480SOL    HW2 5340   2.457   0.745   6.940
 1481SOL     OW 5341   5.338   1.626   5.434
 1481SOL    HW1 5342   5.366   1.694   5.502
 1481SOL    HW2 5343   5.256   1.579   5.466
 1482SOL     OW 5344   5.655   1.648   0.893
 1482SOL    HW1 5345   5.746   1.688   0.904
 1482SOL    HW2 5346   5.642   1.577   0.962
 1483SOL     OW 5347   6.972   3.282   7.028
 1483SOL    HW1 5348   6.872   3.276   7.017
 1483SOL    HW2 5349   7.005   3.368   6.990
 1484SOL     OW 5350   6.195   4.229   3.691
 1484SOL    HW1 5351   6.118   4.173   3.663
 1484SOL    HW2 5352   6.162   4.314   3.733
 1485SOL     OW 5353   4.679   2.657   2.248
 1485SOL    HW1 5354   4.730   2.740   2.272
 1485SOL    HW2 5355   4.703   2.583   2.311
 1486SOL     OW 5356   4.673   2.236   3.607
 1486SOL    HW1 5357   4.746   2.259   3.672
 1486SOL    HW2 5358   4.712   2.184   3.531
 1487SOL     OW 5359   6.741   1.644   6.506
 1487SOL    HW1 5360   6.735   1.664   6.409
 1487SOL    HW2 5361   6.828   1.678   6.542
 1488SOL     OW 5362   5.222   2.185   3.298
 1488SOL    HW1 5363   5.139   2.156   3.249
 1488SOL    HW2 5364   5.223   2.143   3.389
 1489SOL     OW 5365   3.708   5.051   4.380
 1489SOL    HW1 5366   3.760   5.118   4.433
 1489SOL    HW2 5367   3.627   5.024   4.431
 1490SOL     OW 5368   1.462   2.090   0.235
 1490SOL    HW1 5369   1.413   2.004   0.221
 1490SOL    HW2 5370   1.407   2.165   0.199
 1491SOL     OW 5371   6.534   3.628   3.500
 1491SOL    HW1 5372   6.538   3.584   3.410
 1491SOL    HW2 5373   6.621   3.672   3.520
 1492SOL     OW 5374   4.788   1.989   1.872
 1492SOL    HW1 5375   4.774   2.085   1.897
 1492SOL    HW2 5376   4.820   1.984   1.777
 1493SOL     OW 5377   4.806   0.501   4.574
 1493SOL    HW1 5378   4.890   0.513   4.521
 1493SOL    HW2 5379   4.737   0.566   4.541
 1494SOL     OW 5380   4.229   2.591   5.619
 1494SOL    HW1 5381   4.162   2.633   5.558
 1494SOL    HW2 5382   4.183   2.524   5.678
 1495SOL     OW 5383   0.232   3.469   3.293
 1495SOL    HW1 5384   0.246   3.434   3.386
 1495SOL    HW2 5385   0.319   3.470   3.244
 1496SOL     OW 5386   0.243   0.603   1.763
 1496SOL    HW1 5387   0.180   0.566   1.696
 1496SOL    HW2 5388   0.203   0.684   1.806
 1497SOL     OW 5389   0.375   4.470   3.572
 1497SOL    HW1 5390   0.394   4.459   3.475
 1497SOL    HW2 5391   0.383   4.566   3.598
 1498SOL     OW 5392   2.057   4.876   6.451
 1498SOL    HW1 5393   2.143   4.926   6.445
 1498SOL    HW2 5394   2.046   4.818   6.371
 1499SOL     OW 5395   1.086   3.963   5.112
 1499SOL    HW1 5396   1.010   4.013   5.070
 1499SOL    HW2 5397   1.163   3.959   5.048
 1500SOL     OW 5398   5.883   0.132   0.756
 1500SOL    HW1 5399   5.884   0.116   0.855
 1500SOL    HW2 5400   5.796   0.172   0.729
 1501SOL     OW 5401   3.920   0.427   6.495
 1501SOL    HW1 5402   3.974   0.385   6.422
 1501SOL    HW2 5403   3.976   0.491   6.546
 1502SOL     OW 5404   6.554   6.782   0.224
 1502SOL    HW1 5405   6.577   6.695   0.268
 1502SOL    HW2 5406   6.521   6.764   0.131
 1503SOL     OW 5407   2.037   2.820   0.947
 1503SOL    HW1 5408   2.136   2.827   0.956
 1503SOL    HW2 5409   2.002   2.754   1.013
 1504SOL     OW 5410   2.978   0.153   5.109
 1504SOL    HW1 5411   2.952   0.162   5.205
 1504SOL    HW2 5412   2.900   0.120   5.056
 1505SOL     OW 5413   5.322   6.926   6.128
 1505SOL    HW1 5414   5.324   6.878   6.040
 1505SOL    HW2 5415   5.323   6.858   6.202
 1506SOL     OW 5416   1.237   4.545   3.255
 1506SOL    HW1 5417   1.307   4.487   3.212
 1506SOL    HW2 5418   1.149   4.529   3.211
 1507SOL     OW 5419   1.517   1.529   4.838
 1507SOL    HW1 5420   1.455   1.509   4.762
 1507SOL    HW2 5421   1.603   1.564   4.802
 1508SOL     OW 5422   4.733   6.746   0.850
 1508SOL    HW1 5423   4.748   6.681   0.924
 1508SOL    HW2 5424   4.679   6.824   0.883
 1509SOL     OW 5425   4.180   3.125   6.238
 1509SOL    HW1 5426   4.251   3.168   6.182
 1509SOL    HW2 5427   4.165   3.179   6.320
 1510SOL     OW 5428   5.519   2.351   4.196
 1510SOL    HW1 5429   5.489   2.440   4.160
 1510SOL    HW2 5430   5.524   2.356   4.296
 1511SOL     OW 5431   2.255   1.714   6.908
 1511SOL    HW1 5432   2.330   1.649   6.902
 1511SOL    HW2 5433   2.190   1.697   6.834
 1512SOL     OW 5434   6.498   6.574   1.650
 1512SOL    HW1 5435   6.450   6.660   1.633
 1512SOL    HW2 5436   6.468   6.535   1.737
 1513SOL     OW 5437   4.460   0.914   3.752
 1513SOL    HW1 5438   4.407   0.998   3.763
 1513SOL    HW2 5439   4.537   0.915   3.816
 1514SOL     OW 5440   5.305   1.578   4.996
 1514SOL    HW1 5441   5.376   1.628   4.946
 1514SOL    HW2 5442   5.340   1.489   5.025
 1515SOL     OW 5443   0.335   3.083   5.439
 1515SOL    HW1 5444   0.321   3.182   5.438
 1515SOL    HW2 5445   0.324   3.047   5.346
 1516SOL     OW 5446   0.576   1.100   1.034
 1516SOL    HW1 5447   0.640   1.163   0.989
 1516SOL    HW2 5448   0.617   1.067   1.119
 1517SOL     OW 5449   4.201   5.158   4.089
 1517SOL    HW1 5450   4.264   5.091   4.051
 1517SOL    HW2 5451   4.233   5.186   4.179
 1518SOL     OW 5452   6.915   3.966   6.948
 1518SOL    HW1 5453   6.872   3.913   7.021
 1518SOL    HW2 5454   6.848   3.982   6.875
 1519SOL     OW 5455   0.002   4.107   1.233
 1519SOL    HW1 5456   0.004   4.203   1.204
 1519SOL    HW2 5457   0.020   4.101   1.331
 1520SOL     OW 5458   1.958   3.382   2.352
 1520SOL    HW1 5459   2.000   3.388   2.261
 1520SOL    HW2 5460   2.012   3.319   2.408
 1521SOL     OW 5461   1.713   3.156   0.080
 1521SOL    HW1 5462   1.701   3.251   0.111
 1521SOL    HW2 5463   1.780   3.154   0.006
 1522SOL     OW 5464   0.038   1.688   5.753
 1522SOL    HW1 5465   0.116   1.749   5.767
 1522SOL    HW2 5466   6.983   1.739   5.767
 1523SOL     OW 5467   5.210   3.747   6.700
 1523SOL    HW1 5468   5.212   3.834   6.651
 1523SOL    HW2 5469   5.221   3.763   6.798
 1524SOL     OW 5470   0.930   1.854   1.679
 1524SOL    HW1 5471   1.029   1.846   1.662
 1524SOL    HW2 5472   0.907   1.950   1.696
 1525SOL     OW 5473   4.776   2.324   5.534
 1525SOL    HW1 5474   4.740   2.246   5.585
 1525SOL    HW2 5475   4.779   2.302   5.437
 1526SOL     OW 5476   0.174   0.574   0.976
 1526SOL    HW1 5477   0.233   0.497   0.949
 1526SOL    HW2 5478   0.164   0.637   0.899
 1527SOL     OW 5479   3.209   1.535   4.711
 1527SOL    HW1 5480   3.300   1.564   4.684
 1527SOL    HW2 5481   3.166   1.607   4.766
 1528SOL     OW 5482   5.207   5.986   2.626
 1528SOL    HW1 5483   5.298   5.967   2.589
 1528SOL    HW2 5484   5.143   5.917   2.594
 1529SOL     OW 5485   4.779   1.164   5.977
 1529SOL    HW1 5486   4.878   1.165   5.962
 1529SOL    HW2 5487   4.738   1.241   5.927
 1530SOL     OW 5488   3.257   0.096   1.276
 1530SOL    HW1 5489   3.237   7.029   1.292
 1530SOL    HW2 5490   3.330   0.125   1.337
 1531SOL     OW 5491   5.967   0.811   5.063
 1531SOL    HW1 5492   5.984   0.864   5.146
 1531SOL    HW2 5493   5.880   0.763   5.071
 1532SOL     OW 5494   2.740   2.137   4.887
 1532SOL    HW1 5495   2.701   2.205   4.827
 1532SOL    HW2 5496   2.811   2.179   4.944
 1533SOL     OW 5497   0.119   3.579   6.656
 1533SOL    HW1 5498   0.131   3.505   6.590
 1533SOL    HW2 5499   0.207   3.599   6.700
 1534SOL     OW 5500   1.739   5.101   0.631
 1534SOL    HW1 5501   1.751   5.144   0.720
 1534SOL    HW2 5502   1.720   5.171   0.562
 1535SOL     OW 5503   5.524   5.280   4.292
 1535SOL    HW1 5504   5.493   5.212   4.358
 1535SOL    HW2 5505   5.621   5.300   4.308
 1536SOL     OW 5506   3.212   5.426   4.186
 1536SOL    HW1 5507   3.274   5.413   4.263
 1536SOL    HW2 5508   3.118   5.419   4.217
 1537SOL     OW 5509   3.785   5.532   3.650
 1537SOL    HW1 5510   3.846   5.533   3.729
 1537SOL    HW2 5511   3.755   5.438   3.632
 1538SOL     OW 5512   3.740   4.872   6.353
 1538SOL    HW1 5513   3.699   4.784   6.377
 1538SOL    HW2 5514   3.796   4.862   6.271
 1539SOL     OW 5515   4.161   4.277   1.343
 1539SOL    HW1 5516   4.184   4.373   1.362
 1539SOL    HW2 5517   4.093   4.273   1.271
 1540SOL     OW 5518   0.895   0.060   4.719
 1540SOL    HW1 5519   0.863   0.024   4.807
 1540SOL    HW2 5520   0.995   0.056   4.717
 1541SOL     OW 5521   3.785   2.449   1.427
 1541SOL    HW1 5522   3.771   2.535   1.475
 1541SOL    HW2 5523   3.881   2.422   1.434
 1542SOL     OW 5524   6.738   5.998   1.817
 1542SOL    HW1 5525   6.732   6.056   1.736
 1542SOL    HW2 5526   6.750   5.902   1.788
 1543SOL     OW 5527   2.948   3.291   3.353
 1543SOL    HW1 5528   3.047   3.307   3.343
 1543SOL    HW2 5529   2.931   3.193   3.350
 1544SOL     OW 5530   3.053   3.839   2.161
 1544SOL    HW1 5531   3.084   3.891   2.241
 1544SOL    HW2 5532   3.025   3.748   2.189
 1545SOL     OW 5533   5.405   0.420   5.368
 1545SOL    HW1 5534   5.333   0.355   5.392
 1545SOL    HW2 5535   5.486   0.401   5.423
 1546SOL     OW 5536   5.502   0.247   6.190
 1546SOL    HW1 5537   5.513   0.184   6.113
 1546SOL    HW2 5538   5.590   0.291   6.210
 1547SOL     OW 5539   2.345   4.365   2.202
 1547SOL    HW1 5540   2.248   4.392   2.204
 1547SOL    HW2 5541   2.390   4.397   2.285
 1548SOL     OW 5542   4.236   4.070   5.773
 1548SOL    HW1 5543   4.162   4.137   5.762
 1548SOL    HW2 5544   4.205   3.997   5.834
 1549SOL     OW 5545   6.612   1.055   2.271
 1549SOL    HW1 5546   6.684   1.124   2.263
 1549SOL    HW2 5547   6.596   1.034   2.367
 1550SOL     OW 5548   3.059   6.723   5.961
 1550SOL    HW1 5549   3.117   6.804   5.971
 1550SOL    HW2 5550   3.115   6.643   5.941
 1551SOL     OW 5551   1.722   3.254   1.232
 1551SOL    HW1 5552   1.698   3.346   1.201
 1551SOL    HW2 5553   1.695   3.187   1.162
 1552SOL     OW 5554   1.321   6.923   1.168
 1552SOL    HW1 5555   1.414   6.932   1.131
 1552SOL    HW2 5556   1.311   6.981   1.249
 1553SOL     OW 5557   6.172   1.912   6.322
 1553SOL    HW1 5558   6.151   1.987   6.385
 1553SOL    HW2 5559   6.192   1.950   6.231
 1554SOL     OW 5560   4.382   2.439   3.376
 1554SOL    HW1 5561   4.453   2.386   3.330
 1554SOL    HW2 5562   4.307   2.457   3.312
 1555SOL     OW 5563   4.746   2.589   5.514
 1555SOL    HW1 5564   4.745   2.608   5.416
 1555SOL    HW2 5565   4.757   2.491   5.528
 1556SOL     OW 5566   3.823   0.634   0.593
 1556SOL    HW1 5567   3.756   0.593   0.531
 1556SOL    HW2 5568   3.784   0.716   0.636
 1557SOL     OW 5569   2.304   2.809   0.999
 1557SOL    HW1 5570   2.342   2.873   0.933
 1557SOL    HW2 5571   2.322   2.715   0.968
 1558SOL     OW 5572   5.752   2.389   5.422
 1558SOL    HW1 5573   5.811   2.334   5.363
 1558SOL    HW2 5574   5.753   2.484   5.391
 1559SOL     OW 5575   0.331   3.781   1.724
 1559SOL    HW1 5576   0.243   3.827   1.709
 1559SOL    HW2 5577   0.339   3.753   1.819
 1560SOL     OW 5578   3.260   1.248   6.783
 1560SOL    HW1 5579   3.280   1.314   6.856
 1560SOL    HW2 5580   3.323   1.170   6.790
 1561SOL     OW 5581   5.493   6.000   2.630
 1561SOL    HW1 5582   5.572   5.992   2.689
 1561SOL    HW2 5583   5.487   5.920   2.570
 1562SOL     OW 5584   3.096   6.568   2.131
 1562SOL    HW1 5585   3.134   6.476   2.137
 1562SOL    HW2 5586   3.131   6.614   2.049
 1563SOL     OW 5587   2.885   2.261   5.075
 1563SOL    HW1 5588   2.845   2.350   5.096
 1563SOL    HW2 5589   2.985   2.268   5.077
 1564SOL     OW 5590   1.193   1.359   2.141
 1564SOL    HW1 5591   1.142   1.415   2.207
 1564SOL    HW2 5592   1.129   1.310   2.083
 1565SOL     OW 5593   4.373   5.534   5.121
 1565SOL    HW1 5594   4.276   5.521   5.099
 1565SOL    HW2 5595   4.382   5.606   5.190
 1566SOL     OW 5596   5.985   4.841   3.923
 1566SOL    HW1 5597   6.078   4.857   3.955
 1566SOL    HW2 5598   5.923   4.837   4.002
 1567SOL     OW 5599   5.954   5.458   6.370
 1567SOL    HW1 5600   5.903   5.503   6.443
 1567SOL    HW2 5601   5.987   5.369   6.401
 1568SOL     OW 5602   2.552   6.163   3.508
 1568SOL    HW1 5603   2.522   6.069   3.525
 1568SOL    HW2 5604   2.471   6.221   3.493
 1569SOL     OW 5605   3.670   0.333   3.359
 1569SOL    HW1 5606   3.643   0.423   3.323
 1569SOL    HW2 5607   3.645   0.262   3.293
 1570SOL     OW 5608   2.482   6.800   6.303
 1570SOL    HW1 5609   2.421   6.744   6.247
 1570SOL    HW2 5610   2.449   6.801   6.398
 1571SOL     OW 5611   0.981   2.975   3.204
 1571SOL    HW1 5612   0.984   2.940   3.297
 1571SOL    HW2 5613   0.896   2.945   3.160
 1572SOL     OW 5614   1.671   5.661   1.759
 1572SOL    HW1 5615   1.709   5.714   1.683
 1572SOL    HW2 5616   1.738   5.591   1.787
 1573SOL     OW 5617   5.388   5.142   2.023
 1573SOL    HW1 5618   5.443   5.075   2.073
 1573SOL    HW2 5619   5.448   5.201   1.969
 1574SOL     OW 5620   6.198   3.047   2.193
 1574SOL    HW1 5621   6.142   2.965   2.194
 1574SOL    HW2 5622   6.183   3.096   2.107
 1575SOL     OW 5623   2.407   0.817   1.876
 1575SOL    HW1 5624   2.502   0.785   1.866
 1575SOL    HW2 5625   2.376   0.855   1.789
 1576SOL     OW 5626   1.005   6.514   2.468
 1576SOL    HW1 5627   0.938   6.521   2.394
 1576SOL    HW2 5628   0.958   6.496   2.554
 1577SOL     OW 5629   2.724   0.668   6.448
 1577SOL    HW1 5630   2.642   0.723   6.459
 1577SOL    HW2 5631   2.735   0.643   6.352
 1578SOL     OW 5632   4.579   1.299   6.573
 1578SOL    HW1 5633   4.650   1.228   6.571
 1578SOL    HW2 5634   4.492   1.258   6.599
 1579SOL     OW 5635   0.307   2.624   1.498
 1579SOL    HW1 5636   0.225   2.672   1.469
 1579SOL    HW2 5637   0.366   2.686   1.550
 1580SOL     OW 5638   3.256   4.083   3.234
 1580SOL    HW1 5639   3.341   4.136   3.232
 1580SOL    HW2 5640   3.220   4.075   3.141
 1581SOL     OW 5641   6.628   4.711   5.381
 1581SOL    HW1 5642   6.544   4.678   5.426
 1581SOL    HW2 5643   6.698   4.728   5.451
 1582SOL     OW 5644   4.001   5.739   5.396
 1582SOL    HW1 5645   3.984   5.781   5.307
 1582SOL    HW2 5646   4.056   5.656   5.384
 1583SOL     OW 5647   0.473   5.628   4.497
 1583SOL    HW1 5648   0.429   5.650   4.584
 1583SOL    HW2 5649   0.425   5.551   4.454
 1584SOL     OW 5650   2.057   4.589   6.960
 1584SOL    HW1 5651   2.134   4.626   6.908
 1584SOL    HW2 5652   1.980   4.652   6.956
 1585SOL     OW 5653   4.189   1.433   2.973
 1585SOL    HW1 5654   4.123   1.420   3.047
 1585SOL    HW2 5655   4.282   1.434   3.010
 1586SOL     OW 5656   2.934   4.765   2.980
 1586SOL    HW1 5657   2.993   4.802   3.051
 1586SOL    HW2 5658   2.972   4.787   2.890
 1587SOL     OW 5659   1.706   5.332   5.466
 1587SOL    HW1 5660   1.795   5.351   5.508
 1587SOL    HW2 5661   1.663   5.254   5.511
 1588SOL     OW 5662   4.626   0.390   2.185
 1588SOL    HW1 5663   4.712   0.434   2.210
 1588SOL    HW2 5664   4.639   0.339   2.099
 1589SOL     OW 5665   6.818   3.325   3.244
 1589SOL    HW1 5666   6.784   3.290   3.156
 1589SOL    HW2 5667   6.758   3.294   3.318
 1590SOL     OW 5668   5.544   1.160   3.630
 1590SOL    HW1 5669   5.556   1.094   3.705
 1590SOL    HW2 5670   5.466   1.132   3.574
 1591SOL     OW 5671   6.656   5.532   1.484
 1591SOL    HW1 5672   6.601   5.530   1.568
 1591SOL    HW2 5673   6.753   5.536   1.507
 1592SOL     OW 5674   1.827   4.222   7.002
 1592SOL    HW1 5675   1.727   4.227   7.006
 1592SOL    HW2 5676   1.860   4.284   6.931
 1593SOL     OW 5677   0.868   6.880   6.242
 1593SOL    HW1 5678   0.788   6.866   6.184
 1593SOL    HW2 5679   0.841   6.881   6.338
 1594SOL     OW 5680   6.755   6.819   1.358
 1594SOL    HW1 5681   6.828   6.752   1.372
 1594SOL    HW2 5682   6.794   6.910   1.346
 1595SOL     OW 5683   1.077   4.120   0.667
 1595SOL    HW1 5684   1.132   4.195   0.631
 1595SOL    HW2 5685   1.106   4.100   0.761
 1596SOL     OW 5686   6.454   3.248   2.826
 1596SOL    HW1 5687   6.524   3.317   2.845
 1596SOL    HW2 5688   6.491   3.157   2.844
 1597SOL     OW 5689   2.918   6.084   1.529
 1597SOL    HW1 5690   3.009   6.046   1.548
 1597SOL    HW2 5691   2.850   6.041   1.588
 1598SOL     OW 5692   1.331   5.542   6.167
 1598SOL    HW1 5693   1.381   5.464   6.130
 1598SOL    HW2 5694   1.276   5.513   6.246
 1599SOL     OW 5695   4.331   4.712   5.282
 1599SOL    HW1 5696   4.355   4.659   5.364
 1599SOL    HW2 5697   4.377   4.674   5.203
 1600SOL     OW 5698   2.880   0.593   2.060
 1600SOL    HW1 5699   2.849   0.686   2.043
 1600SOL    HW2 5700   2.830   0.530   2.000
 1601SOL     OW 5701   0.291   6.692   4.075
 1601SOL    HW1 5702   0.319   6.597   4.068
 1601SOL    HW2 5703   0.213   6.709   4.015
 1602SOL     OW 5704   4.976   5.643   4.036
 1602SOL    HW1 5705   5.045   5.604   4.097
 1602SOL    HW2 5706   4.972   5.591   3.951
 1603SOL     OW 5707   2.714   5.276   4.331
 1603SOL    HW1 5708   2.687   5.234   4.418
 1603SOL    HW2 5709   2.648   5.345   4.305
 1604SOL     OW 5710   3.948   5.090   1.563
 1604SOL    HW1 5711   3.862   5.039   1.570
 1604SOL    HW2 5712   3.943   5.171   1.621
 1605SOL     OW 5713   6.224   5.467   1.111
 1605SOL    HW1 5714   6.280   5.537   1.068
 1605SOL    HW2 5715   6.271   5.379   1.106
 1606SOL     OW 5716   4.277   5.459   5.521
 1606SOL    HW1 5717   4.286   5.552   5.557
 1606SOL    HW2 5718   4.212   5.458   5.446
 1607SOL     OW 5719   4.262   0.336   1.260
 1607SOL    HW1 5720   4.322   0.309   1.184
 1607SOL    HW2 5721   4.167   0.330   1.231
 1608SOL     OW 5722   0.020   0.845   3.034
 1608SOL    HW1 5723   0.005   0.907   3.111
 1608SOL    HW2 5724   0.027   0.899   2.950
 1609SOL     OW 5725   3.119   6.989   0.784
 1609SOL    HW1 5726   3.166   7.010   0.698
 1609SOL    HW2 5727   3.124   6.891   0.802
 1610SOL     OW 5728   4.948   6.561   0.633
 1610SOL    HW1 5729   4.970   6.486   0.695
 1610SOL    HW2 5730   4.860   6.601   0.659
 1611SOL     OW 5731   1.809   3.445   0.986
 1611SOL    HW1 5732   1.819   3.512   0.913
 1611SOL    HW2 5733   1.768   3.489   1.066
 1612SOL     OW 5734   3.379   6.568   1.126
 1612SOL    HW1 5735   3.359   6.666   1.123
 1612SOL    HW2 5736   3.293   6.517   1.130
 1613SOL     OW 5737   0.444   5.740   2.033
 1613SOL    HW1 5738   0.391   5.675   1.978
 1613SOL    HW2 5739   0.469   5.697   2.120
 1614SOL     OW 5740   5.646   1.955   6.169
 1614SOL    HW1 5741   5.574   2.009   6.213
 1614SOL    HW2 5742   5.713   2.017   6.127
 1615SOL     OW 5743   6.789   5.411   6.242
 1615SOL    HW1 5744   6.839   5.426   6.327
 1615SOL    HW2 5745   6.853   5.383   6.170
 1616SOL     OW 5746   3.895   0.633   4.001
 1616SOL    HW1 5747   3.897   0.543   4.044
 1616SOL    HW2 5748   3.847   0.698   4.060
 1617SOL     OW 5749   5.074   6.466   3.005
 1617SOL    HW1 5750   5.069   6.546   3.066
 1617SOL    HW2 5751   4.985   6.451   2.962
 1618SOL     OW 5752   1.051   5.914   2.420
 1618SOL    HW1 5753   1.145   5.924   2.452
 1618SOL    HW2 5754   1.006   6.003   2.421
 1619SOL     OW 5755   0.555   5.512   0.090
 1619SOL    HW1 5756   0.457   5.495   0.102
 1619SOL    HW2 5757   0.595   5.440   0.034
 1620SOL     OW 5758   3.043   4.832   1.557
 1620SOL    HW1 5759   3.097   4.905   1.516
 1620SOL    HW2 5760   3.071   4.820   1.652
 1621SOL     OW 5761   6.048   0.427   1.058
 1621SOL    HW1 5762   6.084   0.461   0.971
 1621SOL    HW2 5763   5.960   0.381   1.042
 1622SOL     OW 5764   0.417   3.744   5.647
 1622SOL    HW1 5765   0.419   3.744   5.547
 1622SOL    HW2 5766   0.392   3.835   5.680
 1623SOL     OW 5767   0.069   2.126   4.420
 1623SOL    HW1 5768   0.120   2.191   4.477
 1623SOL    HW2 5769   0.099   2.134   4.325
 1624SOL     OW 5770   4.472   1.871   6.973
 1624SOL    HW1 5771   4.482   1.795   6.909
 1624SOL    HW2 5772   4.559   1.887   7.020
 1625SOL     OW 5773   1.492   5.168   6.618
 1625SOL    HW1 5774   1.516   5.233   6.690
 1625SOL    HW2 5775   1.436   5.213   6.549
 1626SOL     OW 5776   3.096   1.564   1.732
 1626SOL    HW1 5777   3.094   1.482   1.674
 1626SOL    HW2 5778   3.103   1.645   1.674
 1627SOL     OW 5779   5.812   2.519   3.503
 1627SOL    HW1 5780   5.862   2.508   3.418
 1627SOL    HW2 5781   5.715   2.533   3.483
 1628SOL     OW 5782   4.466   5.682   6.685
 1628SOL    HW1 5783   4.427   5.723   6.767
 1628SOL    HW2 5784   4.497   5.589   6.705
 1629SOL     OW 5785   2.598   1.140   3.528
 1629SOL    HW1 5786   2.534   1.152   3.604
 1629SOL    HW2 5787   2.678   1.088   3.561
 1630SOL     OW 5788   0.158   4.319   5.509
 1630SOL    HW1 5789   0.114   4.349   5.424
 1630SOL    HW2 5790   0.177   4.221   5.505
 1631SOL     OW 5791   0.087   3.200   0.709
 1631SOL    HW1 5792   0.115   3.238   0.621
 1631SOL    HW2 5793   0.168   3.187   0.767
 1632SOL     OW 5794   4.712   4.106   2.745
 1632SOL    HW1 5795   4.666   4.156   2.672
 1632SOL    HW2 5796   4.794   4.157   2.773
 1633SOL     OW 5797   5.115   4.447   5.094
 1633SOL    HW1 5798   5.054   4.523   5.069
 1633SOL    HW2 5799   5.136   4.454   5.192
 1634SOL     OW 5800   4.567   1.278   4.067
 1634SOL    HW1 5801   4.590   1.361   4.118
 1634SOL    HW2 5802   4.651   1.236   4.031
 1635SOL     OW 5803   1.734   5.374   6.521
 1635SOL    HW1 5804   1.674   5.352   6.598
 1635SOL    HW2 5805   1.721   5.307   6.448
 1636SOL     OW 5806   3.509   5.643   1.323
 1636SOL    HW1 5807   3.425   5.593   1.302
 1636SOL    HW2 5808   3.581   5.577   1.345
 1637SOL     OW 5809   6.728   0.379   3.623
 1637SOL    HW1 5810   6.726   0.460   3.564
 1637SOL    HW2 5811   6.800   0.391   3.692
 1638SOL     OW 5812   0.354   3.039   1.870
 1638SOL    HW1 5813   0.292   2.978   1.820
 1638SOL    HW2 5814   0.350   3.130   1.830
 1639SOL     OW 5815   6.322   4.696   2.181
 1639SOL    HW1 5816   6.232   4.718   2.218
 1639SOL    HW2 5817   6.358   4.776   2.133
 1640SOL     OW 5818   6.761   0.210   0.320
 1640SOL    HW1 5819   6.849   0.164   0.335
 1640SOL    HW2 5820   6.777   0.298   0.275
 1641SOL     OW 5821   6.845   2.629   4.235
 1641SOL    HW1 5822   6.918   2.636   4.168
 1641SOL    HW2 5823   6.851   2.541   4.282
 1642SOL     OW 5824   6.970   2.867   6.635
 1642SOL    HW1 5825   6.912   2.787   6.630
 1642SOL    HW2 5826   0.027   2.849   6.589
 1643SOL     OW 5827   2.690   4.747   3.049
 1643SOL    HW1 5828   2.643   4.828   3.014
 1643SOL    HW2 5829   2.784   4.745   3.017
 1644SOL     OW 5830   5.750   3.024   6.762
 1644SOL    HW1 5831   5.685   2.950   6.752
 1644SOL    HW2 5832   5.710   3.097   6.819
 1645SOL     OW 5833   3.015   6.432   6.288
 1645SOL    HW1 5834   3.095   6.372   6.293
 1645SOL    HW2 5835   3.045   6.527   6.289
 1646SOL     OW 5836   1.802   6.120   0.320
 1646SOL    HW1 5837   1.834   6.206   0.280
 1646SOL    HW2 5838   1.733   6.139   0.389
 1647SOL     OW 5839   5.269   2.481   4.434
 1647SOL    HW1 5840   5.350   2.422   4.437
 1647SOL    HW2 5841   5.223   2.477   4.523
 1648SOL     OW 5842   5.474   6.298   0.379
 1648SOL    HW1 5843   5.498   6.303   0.282
 1648SOL    HW2 5844   5.375   6.296   0.389
 1649SOL     OW 5845   3.551   1.529   4.251
 1649SOL    HW1 5846   3.600   1.510   4.166
 1649SOL    HW2 5847   3.605   1.497   4.329
 1650SOL     OW 5848   1.292   5.641   5.198
 1650SOL    HW1 5849   1.345   5.632   5.114
 1650SOL    HW2 5850   1.265   5.736   5.210
 1651SOL     OW 5851   0.289   2.252   2.861
 1651SOL    HW1 5852   0.211   2.193   2.841
 1651SOL    HW2 5853   0.367   2.225   2.805
 1652SOL     OW 5854   1.038   3.755   2.458
 1652SOL    HW1 5855   1.059   3.662   2.488
 1652SOL    HW2 5856   1.073   3.769   2.365
 1653SOL     OW 5857   6.908   5.494   1.584
 1653SOL    HW1 5858   6.952   5.559   1.522
 1653SOL    HW2 5859   6.973   5.465   1.654
 1654SOL     OW 5860   6.974   3.447   1.205
 1654SOL    HW1 5861   6.933   3.361   1.174
 1654SOL    HW2 5862   0.005   3.482   1.134
 1655SOL     OW 5863   6.426   1.169   4.329
 1655SOL    HW1 5864   6.459   1.164   4.235
 1655SOL    HW2 5865   6.504   1.180   4.391
 1656SOL     OW 5866   2.432   5.388   2.905
 1656SOL    HW1 5867   2.462   5.467   2.958
 1656SOL    HW2 5868   2.364   5.336   2.957
 1657SOL     OW 5869   6.749   0.017   4.982
 1657SOL    HW1 5870   6.678   0.050   4.920
 1657SOL    HW2 5871   6.798   0.095   5.020
 1658SOL     OW 5872   6.788   0.348   0.816
 1658SOL    HW1 5873   6.748   0.392   0.736
 1658SOL    HW2 5874   6.765   0.251   0.816
 1659SOL     OW 5875   3.317   0.235   6.915
 1659SOL    HW1 5876   3.273   0.293   6.846
 1659SOL    HW2 5877   3.249   0.211   6.985
 1660SOL     OW 5878   1.738   6.688   2.803
 1660SOL    HW1 5879   1.703   6.719   2.891
 1660SOL    HW2 5880   1.682   6.611   2.770
 1661SOL     OW 5881   2.850   5.740   2.154
 1661SOL    HW1 5882   2.751   5.728   2.163
 1661SOL    HW2 5883   2.882   5.805   2.223
 1662SOL     OW 5884   6.315   0.030   5.062
 1662SOL    HW1 5885   6.308   0.081   4.976
 1662SOL    HW2 5886   6.224   7.027   5.088
 1663SOL     OW 5887   5.205   5.172   2.791
 1663SOL    HW1 5888   5.236   5.081   2.819
 1663SOL    HW2 5889   5.137   5.163   2.717
 1664SOL     OW 5890   2.223   6.248   5.470
 1664SOL    HW1 5891   2.283   6.169   5.455
 1664SOL    HW2 5892   2.141   6.239   5.414
 1665SOL     OW 5893   6.641   3.646   1.825
 1665SOL    HW1 5894   6.622   3.666   1.921
 1665SOL    HW2 5895   6.616   3.551   1.804
 1666SOL     OW 5896   5.769   0.343   0.222
 1666SOL    HW1 5897   5.816   0.365   0.307
 1666SOL    HW2 5898   5.673   0.323   0.241
 1667SOL     OW 5899   6.450   6.029   1.477
 1667SOL    HW1 5900   6.445   6.129   1.472
 1667SOL    HW2 5901   6.518   5.996   1.411
 1668SOL     OW 5902   5.026   4.580   3.352
 1668SOL    HW1 5903   5.097   4.560   3.285
 1668SOL    HW2 5904   4.944   4.528   3.329
 1669SOL     OW 5905   6.868   4.321   5.489
 1669SOL    HW1 5906   6.896   4.387   5.420
 1669SOL    HW2 5907   6.909   4.232   5.468
 1670SOL     OW 5908   0.426   4.456   4.911
 1670SOL    HW1 5909   0.330   4.474   4.929
 1670SOL    HW2 5910   0.470   4.422   4.994
 1671SOL     OW 5911   5.968   1.188   3.007
 1671SOL    HW1 5912   5.895   1.121   2.999
 1671SOL    HW2 5913   5.952   1.262   2.941
 1672SOL     OW 5914   1.969   4.389   6.517
 1672SOL    HW1 5915   2.025   4.322   6.468
 1672SOL    HW2 5916   1.961   4.472   6.462
 1673SOL     OW 5917   1.595   1.549   5.220
 1673SOL    HW1 5918   1.574   1.544   5.318
 1673SOL    HW2 5919   1.613   1.457   5.185
 1674SOL     OW 5920   6.707   2.529   2.201
 1674SOL    HW1 5921   6.798   2.519   2.242
 1674SOL    HW2 5922   6.717   2.570   2.110
 1675SOL     OW 5923   5.284   0.387   0.009
 1675SOL    HW1 5924   5.197   0.346   7.011
 1675SOL    HW2 5925   5.353   0.371   6.967
 1676SOL     OW 5926   2.532   2.490   2.206
 1676SOL    HW1 5927   2.612   2.437   2.234
 1676SOL    HW2 5928   2.515   2.475   2.109
 1677SOL     OW 5929   3.845   3.768   3.684
 1677SOL    HW1 5930   3.828   3.728   3.594
 1677SOL    HW2 5931   3.902   3.706   3.738
 1678SOL     OW 5932   0.222   5.862   1.813
 1678SOL    HW1 5933   0.212   5.945   1.759
 1678SOL    HW2 5934   0.156   5.863   1.889
 1679SOL     OW 5935   1.720   1.322   4.833
 1679SOL    HW1 5936   1.658   1.399   4.847
 1679SOL    HW2 5937   1.754   1.323   4.739
 1680SOL     OW 5938   6.113   3.687   5.802
 1680SOL    HW1 5939   6.067   3.769   5.836
 1680SOL    HW2 5940   6.046   3.614   5.791
 1681SOL     OW 5941   1.817   6.095   5.492
 1681SOL    HW1 5942   1.880   6.091   5.414
 1681SOL    HW2 5943   1.808   6.004   5.532
 1682SOL     OW 5944   2.033   0.960   6.013
 1682SOL    HW1 5945   2.057   0.872   6.056
 1682SOL    HW2 5946   2.111   0.994   5.961
 1683SOL     OW 5947   6.132   5.865   2.792
 1683SOL    HW1 5948   6.124   5.842   2.695
 1683SOL    HW2 5949   6.136   5.965   2.801
 1684SOL     OW 5950   0.169   5.508   2.313
 1684SOL    HW1 5951   0.229   5.584   2.341
 1684SOL    HW2 5952   0.224   5.428   2.292
 1685SOL     OW 5953   2.001   1.863   5.767
 1685SOL    HW1 5954   2.094   1.898   5.777
 1685SOL    HW2 5955   2.000   1.791   5.698
 1686SOL     OW 5956   3.470   6.108   4.094
 1686SOL    HW1 5957   3.373   6.096   4.115
 1686SOL    HW2 5958   3.482   6.193   4.043
 1687SOL     OW 5959   0.082   3.899   1.728
 1687SOL    HW1 5960   7.016   3.921   1.716
 1687SOL    HW2 5961   0.109   3.916   1.823
 1688SOL     OW 5962   1.540   1.648   4.016
 1688SOL    HW1 5963   1.482   1.575   4.052
 1688SOL    HW2 5964   1.482   1.722   3.982
 1689SOL     OW 5965   5.953   0.675   2.330
 1689SOL    HW1 5966   5.971   0.699   2.425
 1689SOL    HW2 5967   5.979   0.580   2.314
 1690SOL     OW 5968   0.793   3.551   4.656
 1690SOL    HW1 5969   0.869   3.588   4.603
 1690SOL    HW2 5970   0.825   3.474   4.710
 1691SOL     OW 5971   5.178   2.941   4.071
 1691SOL    HW1 5972   5.105   2.872   4.065
 1691SOL    HW2 5973   5.154   3.009   4.140
 1692SOL     OW 5974   4.934   5.780   1.707
 1692SOL    HW1 5975   4.846   5.777   1.754
 1692SOL    HW2 5976   4.984   5.861   1.736
 1693SOL     OW 5977   6.791   1.913   4.359
 1693SOL    HW1 5978   6.698   1.885   4.335
 1693SOL    HW2 5979   6.828   1.849   4.427
 1694SOL     OW 5980   6.229   1.061   4.187
 1694SOL    HW1 5981   6.148   1.028   4.236
 1694SOL    HW2 5982   6.285   1.115   4.249
 1695SOL     OW 5983   3.572   0.317   6.845
 1695SOL    HW1 5984   3.612   0.361   6.926
 1695SOL    HW2 5985   3.481   0.283   6.867
 1696SOL     OW 5986   3.617   6.539   0.734
 1696SOL    HW1 5987   3.646   6.633   0.750
 1696SOL    HW2 5988   3.609   6.522   0.636
 1697SOL     OW 5989   6.136   2.500   1.334
 1697SOL    HW1 5990   6.084   2.429   1.286
 1697SOL    HW2 5991   6.185   2.556   1.267
 1698SOL     OW 5992   3.763   1.058   1.393
 1698SOL    HW1 5993   3.672   1.094   1.414
 1698SOL    HW2 5994   3.812   1.039   1.478
 1699SOL     OW 5995   2.254   1.912   5.857
 1699SOL    HW1 5996   2.273   1.858   5.940
 1699SOL    HW2 5997   2.272   2.009   5.875
 1700SOL     OW 5998   6.043   3.804   3.325
 1700SOL    HW1 5999   6.138   3.776   3.340
 1700SOL    HW2 6000   6.041   3.887   3.269
 1701SOL     OW 6001   6.078   5.547   5.187
 1701SOL    HW1 6002   5.987   5.587   5.196
 1701SOL    HW2 6003   6.120   5.538   5.278
 1702SOL     OW 6004   0.679   1.149   0.631
 1702SOL    HW1 6005   0.600   1.163   0.571
 1702SOL    HW2 6006   0.736   1.076   0.594
 1703SOL     OW 6007   4.104   1.762   6.620
 1703SOL    HW1 6008   4.083   1.847   6.668
 1703SOL    HW2 6009   4.020   1.720   6.586
 1704SOL     OW 6010   1.651   1.960   0.015
 1704SOL    HW1 6011   1.586   2.028   0.049
 1704SOL    HW2 6012   1.698   1.917   0.092
 1705SOL     OW 6013   3.488   2.297   1.502
 1705SOL    HW1 6014   3.583   2.328   1.506
 1705SOL    HW2 6015   3.480   2.224   1.435
 1706SOL     OW 6016   4.058   1.939   1.557
 1706SOL    HW1 6017   4.109   1.924   1.641
 1706SOL    HW2 6018   3.963   1.910   1.570
 1707SOL     OW 6019   4.605   2.656   2.869
 1707SOL    HW1 6020   4.561   2.570   2.841
 1707SOL    HW2 6021   4.562   2.733   2.822
 1708SOL     OW 6022   4.178   5.250   1.655
 1708SOL    HW1 6023   4.199   5.161   1.615
 1708SOL    HW2 6024   4.142   5.238   1.748
 1709SOL     OW 6025   3.914   6.879   1.185
 1709SOL    HW1 6026   3.867   6.965   1.208
 1709SOL    HW2 6027   3.857   6.825   1.123
 1710SOL     OW 6028   3.741   4.911   3.686
 1710SOL    HW1 6029   3.732   5.008   3.664
 1710SOL    HW2 6030   3.836   4.891   3.710
 1711SOL     OW 6031   2.242   5.091   5.353
 1711SOL    HW1 6032   2.330   5.046   5.370
 1711SOL    HW2 6033   2.172   5.049   5.411
 1712SOL     OW 6034   6.955   1.872   4.902
 1712SOL    HW1 6035   6.969   1.897   4.806
 1712SOL    HW2 6036   6.932   1.775   4.908
 1713SOL     OW 6037   3.872   1.421   3.032
 1713SOL    HW1 6038   3.845   1.326   3.044
 1713SOL    HW2 6039   3.790   1.479   3.030
 1714SOL     OW 6040   4.246   1.709   6.879
 1714SOL    HW1 6041   4.216   1.657   6.959
 1714SOL    HW2 6042   4.173   1.711   6.811
 1715SOL     OW 6043   2.487   5.691   2.942
 1715SOL    HW1 6044   2.581   5.660   2.928
 1715SOL    HW2 6045   2.488   5.787   2.969
 1716SOL     OW 6046   4.496   0.462   3.585
 1716SOL    HW1 6047   4.396   0.464   3.594
 1716SOL    HW2 6048   4.536   0.427   3.670
 1717SOL     OW 6049   3.816   5.539   5.119
 1717SOL    HW1 6050   3.758   5.481   5.062
 1717SOL    HW2 6051   3.826   5.498   5.210
 1718SOL     OW 6052   2.756   1.920   2.537
 1718SOL    HW1 6053   2.728   1.923   2.633
 1718SOL    HW2 6054   2.802   1.833   2.518
 1719SOL     OW 6055   2.273   3.954   0.984
 1719SOL    HW1 6056   2.237   3.901   0.907
 1719SOL    HW2 6057   2.271   4.052   0.960
 1720SOL     OW 6058   6.899   2.567   5.286
 1720SOL    HW1 6059   6.975   2.615   5.328
 1720SOL    HW2 6060   6.819   2.628   5.282
 1721SOL     OW 6061   1.402   0.305   1.487
 1721SOL    HW1 6062   1.433   0.343   1.574
 1721SOL    HW2 6063   1.342   0.371   1.441
 1722SOL     OW 6064   4.094   1.290   3.229
 1722SOL    HW1 6065   4.070   1.211   3.284
 1722SOL    HW2 6066   4.014   1.320   3.176
 1723SOL     OW 6067   4.535   2.254   6.779
 1723SOL    HW1 6068   4.621   2.227   6.736
 1723SOL    HW2 6069   4.540   2.236   6.878
 1724SOL     OW 6070   6.342   2.483   1.995
 1724SOL    HW1 6071   6.321   2.456   2.089
 1724SOL    HW2 6072   6.353   2.583   1.991
 1725SOL     OW 6073   1.990   5.262   6.612
 1725SOL    HW1 6074   1.964   5.167   6.625
 1725SOL    HW2 6075   1.923   5.307   6.553
 1726SOL     OW 6076   5.320   4.230   4.424
 1726SOL    HW1 6077   5.403   4.283   4.442
 1726SOL    HW2 6078   5.314   4.153   4.487
 1727SOL     OW 6079   4.007   3.778   3.196
 1727SOL    HW1 6080   4.089   3.830   3.173
 1727SOL    HW2 6081   4.025   3.680   3.183
 1728SOL     OW 6082   5.145   4.680   5.533
 1728SOL    HW1 6083   5.061   4.721   5.568
 1728SOL    HW2 6084   5.170   4.723   5.446
 1729SOL     OW 6085   1.175   4.044   2.896
 1729SOL    HW1 6086   1.128   3.959   2.918
 1729SOL    HW2 6087   1.246   4.061   2.965
 1730SOL     OW 6088   3.032   6.797   5.252
 1730SOL    HW1 6089   2.965   6.770   5.182
 1730SOL    HW2 6090   3.096   6.864   5.213
 1731SOL     OW 6091   6.248   4.997   3.680
 1731SOL    HW1 6092   6.271   5.001   3.777
 1731SOL    HW2 6093   6.189   5.074   3.657
 1732SOL     OW 6094   1.648   4.217   6.521
 1732SOL    HW1 6095   1.746   4.222   6.540
 1732SOL    HW2 6096   1.622   4.292   6.460
 1733SOL     OW 6097   2.527   3.898   1.692
 1733SOL    HW1 6098   2.468   3.948   1.755
 1733SOL    HW2 6099   2.599   3.959   1.659
 1734SOL     OW 6100   5.711   2.966   1.344
 1734SOL    HW1 6101   5.680   2.877   1.311
 1734SOL    HW2 6102   5.644   3.003   1.408
 1735SOL     OW 6103   4.379   5.323   5.747
 1735SOL    HW1 6104   4.331   5.373   5.674
 1735SOL    HW2 6105   4.475   5.353   5.749
 1736SOL     OW 6106   3.679   3.870   0.721
 1736SOL    HW1 6107   3.688   3.885   0.623
 1736SOL    HW2 6108   3.714   3.778   0.744
 1737SOL     OW 6109   5.264   0.274   4.630
 1737SOL    HW1 6110   5.305   0.228   4.709
 1737SOL    HW2 6111   5.335   0.294   4.562
 1738SOL     OW 6112   1.655   3.668   4.057
 1738SOL    HW1 6113   1.591   3.591   4.063
 1738SOL    HW2 6114   1.676   3.700   4.149
 1739SOL     OW 6115   6.320   0.416   4.222
 1739SOL    HW1 6116   6.259   0.337   4.215
 1739SOL    HW2 6117   6.347   0.428   4.318
 1740SOL     OW 6118   6.506   1.662   5.367
 1740SOL    HW1 6119   6.597   1.674   5.407
 1740SOL    HW2 6120   6.441   1.723   5.414
 1741SOL     OW 6121   2.807   1.360   4.303
 1741SOL    HW1 6122   2.837   1.337   4.395
 1741SOL    HW2 6123   2.823   1.282   4.242
 1742SOL     OW 6124   5.701   0.962   6.058
 1742SOL    HW1 6125   5.671   1.023   6.132
 1742SOL    HW2 6126   5.796   0.934   6.075
 1743SOL     OW 6127   1.307   1.098   2.555
 1743SOL    HW1 6128   1.283   1.008   2.521
 1743SOL    HW2 6129   1.397   1.124   2.521
 1744SOL     OW 6130   5.313   2.407   3.162
 1744SOL    HW1 6131   5.292   2.328   3.221
 1744SOL    HW2 6132   5.366   2.376   3.083
 1745SOL     OW 6133   6.014   6.478   1.812
 1745SOL    HW1 6134   6.091   6.436   1.764
 1745SOL    HW2 6135   5.928   6.444   1.775
 1746SOL     OW 6136   2.218   3.823   4.076
 1746SOL    HW1 6137   2.218   3.723   4.082
 1746SOL    HW2 6138   2.223   3.861   4.168
 1747SOL     OW 6139   3.880   1.775   1.983
 1747SOL    HW1 6140   3.919   1.690   2.019
 1747SOL    HW2 6141   3.809   1.808   2.044
 1748SOL     OW 6142   6.231   1.543   4.131
 1748SOL    HW1 6143   6.192   1.471   4.073
 1748SOL    HW2 6144   6.286   1.501   4.203
 1749SOL     OW 6145   2.836   6.715   6.655
 1749SOL    HW1 6146   2.768   6.644   6.636
 1749SOL    HW2 6147   2.799   6.781   6.721
 1750SOL     OW 6148   4.588   0.527   4.217
 1750SOL    HW1 6149   4.565   0.587   4.140
 1750SOL    HW2 6150   4.527   0.546   4.294
 1751SOL     OW 6151   5.511   2.101   4.846
 1751SOL    HW1 6152   5.555   2.189   4.861
 1751SOL    HW2 6153   5.472   2.068   4.932
 1752SOL     OW 6154   5.814   0.312   1.325
 1752SOL    HW1 6155   5.726   0.350   1.357
 1752SOL    HW2 6156   5.878   0.309   1.402
 1753SOL     OW 6157   6.794   1.475   1.995
 1753SOL    HW1 6158   6.780   1.383   2.032
 1753SOL    HW2 6159   6.829   1.535   2.067
 1754SOL     OW 6160   1.845   5.847   6.355
 1754SOL    HW1 6161   1.878   5.757   6.381
 1754SOL    HW2 6162   1.747   5.853   6.374
 1755SOL     OW 6163   0.248   6.313   6.191
 1755SOL    HW1 6164   0.284   6.228   6.230
 1755SOL    HW2 6165   0.323   6.370   6.160
 1756SOL     OW 6166   3.833   6.636   6.277
 1756SOL    HW1 6167   3.916   6.643   6.333
 1756SOL    HW2 6168   3.753   6.625   6.336
 1757SOL     OW 6169   3.316   4.921   4.876
 1757SOL    HW1 6170   3.284   4.929   4.782
 1757SOL    HW2 6171   3.303   4.828   4.909
 1758SOL     OW 6172   1.698   0.049   4.803
 1758SOL    HW1 6173   1.767   0.120   4.793
 1758SOL    HW2 6174   1.658   0.029   4.713
 1759SOL     OW 6175   1.375   6.806   5.494
 1759SOL    HW1 6176   1.434   6.734   5.530
 1759SOL    HW2 6177   1.402   6.828   5.401
 1760SOL     OW 6178   6.132   0.675   4.431
 1760SOL    HW1 6179   6.073   0.753   4.451
 1760SOL    HW2 6180   6.221   0.707   4.401
 1761SOL     OW 6181   6.843   0.612   0.928
 1761SOL    HW1 6182   6.870   0.624   0.832
 1761SOL    HW2 6183   6.823   0.702   0.968
 1762SOL     OW 6184   6.948   1.488   5.065
 1762SOL    HW1 6185   6.973   1.573   5.111
 1762SOL    HW2 6186   7.018   1.464   4.999
 1763SOL     OW 6187   0.996   4.535   5.103
 1763SOL    HW1 6188   1.053   4.496   5.176
 1763SOL    HW2 6189   1.052   4.593   5.045
 1764SOL     OW 6190   0.360   3.427   2.094
 1764SOL    HW1 6191   0.412   3.433   2.179
 1764SOL    HW2 6192   0.401   3.359   2.034
 1765SOL     OW 6193   3.955   2.572   1.688
 1765SOL    HW1 6194   4.003   2.653   1.722
 1765SOL    HW2 6195   3.857   2.590   1.689
 1766SOL     OW 6196   5.303   4.552   4.151
 1766SOL    HW1 6197   5.371   4.624   4.168
 1766SOL    HW2 6198   5.217   4.577   4.194
 1767SOL     OW 6199   0.772   4.524   2.744
 1767SOL    HW1 6200   0.775   4.432   2.705
 1767SOL    HW2 6201   0.723   4.585   2.681
 1768SOL     OW 6202   4.605   0.542   0.339
 1768SOL    HW1 6203   4.547   0.612   0.299
 1768SOL    HW2 6204   4.643   0.485   0.266
 1769SOL     OW 6205   6.076   0.903   0.565
 1769SOL    HW1 6206   6.099   0.816   0.522
 1769SOL    HW2 6207   6.057   0.971   0.494
 1770SOL     OW 6208   0.463   3.780   5.339
 1770SOL    HW1 6209   0.509   3.865   5.315
 1770SOL    HW2 6210   0.364   3.791   5.329
 1771SOL     OW 6211   1.844   4.775   6.894
 1771SOL    HW1 6212   1.895   4.826   6.825
 1771SOL    HW2 6213   1.784   4.837   6.945
 1772SOL     OW 6214   4.025   5.417   4.377
 1772SOL    HW1 6215   4.030   5.508   4.419
 1772SOL    HW2 6216   4.116   5.388   4.348
 1773SOL     OW 6217   0.493   1.459   5.183
 1773SOL    HW1 6218   0.592   1.468   5.195
 1773SOL    HW2 6219   0.469   1.479   5.088
 1774SOL     OW 6220   5.558   6.592   2.296
 1774SOL    HW1 6221   5.522   6.644   2.218
 1774SOL    HW2 6222   5.559   6.649   2.377
 1775SOL     OW 6223   1.887   5.577   6.429
 1775SOL    HW1 6224   1.952   5.544   6.360
 1775SOL    HW2 6225   1.823   5.504   6.453
 1776SOL     OW 6226   5.013   0.623   5.588
 1776SOL    HW1 6227   5.087   0.690   5.592
 1776SOL    HW2 6228   5.043   0.537   5.630
 1777SOL     OW 6229   4.217   6.638   6.610
 1777SOL    HW1 6230   4.297   6.691   6.638
 1777SOL    HW2 6231   4.134   6.691   6.628
 1778SOL     OW 6232   4.860   1.117   4.445
 1778SOL    HW1 6233   4.938   1.068   4.484
 1778SOL    HW2 6234   4.891   1.206   4.411
 1779SOL     OW 6235   5.351   6.583   5.399
 1779SOL    HW1 6236   5.352   6.655   5.469
 1779SOL    HW2 6237   5.392   6.617   5.315
 1780SOL     OW 6238   1.437   4.520   4.905
 1780SOL    HW1 6239   1.401   4.436   4.944
 1780SOL    HW2 6240   1.479   4.500   4.816
 1781SOL     OW 6241   5.122   7.029   4.632
 1781SOL    HW1 6242   5.182   6.953   4.661
 1781SOL    HW2 6243   5.175   0.084   4.632
 1782SOL     OW 6244   1.912   1.686   2.741
 1782SOL    HW1 6245   1.889   1.595   2.707
 1782SOL    HW2 6246   1.837   1.722   2.795
 1783SOL     OW 6247   2.038   3.367   5.976
 1783SOL    HW1 6248   2.097   3.440   5.943
 1783SOL    HW2 6249   1.944   3.383   5.947
 1784SOL     OW 6250   2.531   1.169   2.097
 1784SOL    HW1 6251   2.481   1.255   2.101
 1784SOL    HW2 6252   2.509   1.122   2.012
 1785SOL     OW 6253   6.895   6.173   4.269
 1785SOL    HW1 6254   6.993   6.188   4.286
 1785SOL    HW2 6255   6.860   6.243   4.207
 1786SOL     OW 6256   2.065   5.175   0.750
 1786SOL    HW1 6257   2.052   5.105   0.679
 1786SOL    HW2 6258   2.011   5.256   0.727
 1787SOL     OW 6259   2.025   2.555   5.378
 1787SOL    HW1 6260   1.927   2.539   5.390
 1787SOL    HW2 6261   2.067   2.475   5.336
 1788SOL     OW 6262   4.665   3.839   0.192
 1788SOL    HW1 6263   4.633   3.778   0.264
 1788SOL    HW2 6264   4.586   3.879   0.144
 1789SOL     OW 6265   6.302   3.302   2.220
 1789SOL    HW1 6266   6.257   3.213   2.221
 1789SOL    HW2 6267   6.267   3.358   2.296
 1790SOL     OW 6268   3.176   1.379   4.465
 1790SOL    HW1 6269   3.264   1.336   4.445
 1790SOL    HW2 6270   3.183   1.434   4.548
 1791SOL     OW 6271   6.085   0.877   3.429
 1791SOL    HW1 6272   6.149   0.802   3.409
 1791SOL    HW2 6273   6.137   0.957   3.457
 1792SOL     OW 6274   6.546   1.608   4.709
 1792SOL    HW1 6275   6.577   1.640   4.619
 1792SOL    HW2 6276   6.522   1.687   4.765
 1793SOL     OW 6277   6.192   1.566   5.097
 1793SOL    HW1 6278   6.238   1.655   5.097
 1793SOL    HW2 6279   6.226   1.510   5.022
 1794SOL     OW 6280   6.437   0.283   6.325
 1794SOL    HW1 6281   6.405   0.249   6.413
 1794SOL    HW2 6282   6.484   0.209   6.275
 1795SOL     OW 6283   5.532   5.031   0.975
 1795SOL    HW1 6284   5.492   4.971   0.906
 1795SOL    HW2 6285   5.625   5.057   0.948
 1796SOL     OW 6286   1.881   0.652   5.667
 1796SOL    HW1 6287   1.825   0.572   5.690
 1796SOL    HW2 6288   1.828   0.735   5.683
 1797SOL     OW 6289   1.469   6.804   4.906
 1797SOL    HW1 6290   1.534   6.845   4.842
 1797SOL    HW2 6291   1.515   6.735   4.961
 1798SOL     OW 6292   3.608   2.889   4.545
 1798SOL    HW1 6293   3.594   2.794   4.516
 1798SOL    HW2 6294   3.559   2.950   4.483
 1799SOL     OW 6295   4.092   1.970   6.842
 1799SOL    HW1 6296   4.040   1.923   6.914
 1799SOL    HW2 6297   4.086   2.069   6.856
 1800SOL     OW 6298   5.396   4.343   3.878
 1800SOL    HW1 6299   5.490   4.338   3.913
 1800SOL    HW2 6300   5.395   4.321   3.780
 1801SOL     OW 6301   0.677   1.839   1.795
 1801SOL    HW1 6302   0.619   1.911   1.758
 1801SOL    HW2 6303   0.771   1.851   1.763
 1802SOL     OW 6304   6.161   5.614   3.721
 1802SOL    HW1 6305   6.200   5.521   3.718
 1802SOL    HW2 6306   6.096   5.625   3.646
 1803SOL     OW 6307   0.171   6.435   2.463
 1803SOL    HW1 6308   0.220   6.487   2.533
 1803SOL    HW2 6309   0.230   6.361   2.430
 1804SOL     OW 6310   3.366   3.591   5.593
 1804SOL    HW1 6311   3.271   3.624   5.594
 1804SOL    HW2 6312   3.366   3.491   5.590
 1805SOL     OW 6313   1.248   6.087   5.683
 1805SOL    HW1 6314   1.218   6.019   5.750
 1805SOL    HW2 6315   1.293   6.041   5.607
 1806SOL     OW 6316   6.384   2.191   2.048
 1806SOL    HW1 6317   6.462   2.208   2.108
 1806SOL    HW2 6318   6.415   2.144   1.966
 1807SOL     OW 6319   6.456   3.773   0.453
 1807SOL    HW1 6320   6.442   3.683   0.494
 1807SOL    HW2 6321   6.374   3.829   0.466
 1808SOL     OW 6322   5.333   3.108   5.073
 1808SOL    HW1 6323   5.356   3.074   4.982
 1808SOL    HW2 6324   5.400   3.176   5.102
 1809SOL     OW 6325   2.758   1.852   5.342
 1809SOL    HW1 6326   2.770   1.791   5.420
 1809SOL    HW2 6327   2.713   1.936   5.372
 1810SOL     OW 6328   0.468   0.574   4.566
 1810SOL    HW1 6329   0.452   0.650   4.629
 1810SOL    HW2 6330   0.388   0.513   4.567
 1811SOL     OW 6331   4.501   4.650   1.338
 1811SOL    HW1 6332   4.551   4.564   1.350
 1811SOL    HW2 6333   4.478   4.688   1.428
 1812SOL     OW 6334   4.565   0.095   5.969
 1812SOL    HW1 6335   4.562   0.175   5.909
 1812SOL    HW2 6336   4.472   0.064   5.990
 1813SOL     OW 6337   4.741   4.263   2.271
 1813SOL    HW1 6338   4.813   4.320   2.231
 1813SOL    HW2 6339   4.667   4.252   2.205
 1814SOL     OW 6340   6.772   6.822   0.583
 1814SOL    HW1 6341   6.826   6.811   0.667
 1814SOL    HW2 6342   6.675   6.823   0.606
 1815SOL     OW 6343   5.661   5.726   2.527
 1815SOL    HW1 6344   5.620   5.732   2.436
 1815SOL    HW2 6345   5.622   5.648   2.576
 1816SOL     OW 6346   4.179   6.311   5.520
 1816SOL    HW1 6347   4.251   6.380   5.523
 1816SOL    HW2 6348   4.215   6.224   5.554
 1817SOL     OW 6349   2.670   2.039   2.799
 1817SOL    HW1 6350   2.645   1.977   2.874
 1817SOL    HW2 6351   2.729   2.111   2.835
 1818SOL     OW 6352   1.947   6.570   0.302
 1818SOL    HW1 6353   2.004   6.647   0.333
 1818SOL    HW2 6354   1.880   6.548   0.373
 1819SOL     OW 6355   1.449   5.115   2.094
 1819SOL    HW1 6356   1.509   5.049   2.049
 1819SOL    HW2 6357   1.420   5.079   2.183
 1820SOL     OW 6358   4.140   0.179   2.637
 1820SOL    HW1 6359   4.119   0.151   2.543
 1820SOL    HW2 6360   4.203   0.257   2.635
 1821SOL     OW 6361   3.285   1.119   1.851
 1821SOL    HW1 6362   3.242   1.087   1.766
 1821SOL    HW2 6363   3.333   1.205   1.833
 1822SOL     OW 6364   0.660   3.308   1.831
 1822SOL    HW1 6365   0.731   3.348   1.772
 1822SOL    HW2 6366   0.677   3.335   1.926
 1823SOL     OW 6367   3.665   6.249   2.716
 1823SOL    HW1 6368   3.731   6.316   2.750
 1823SOL    HW2 6369   3.703   6.200   2.638
 1824SOL     OW 6370   4.097   4.271   0.822
 1824SOL    HW1 6371   4.076   4.300   0.728
 1824SOL    HW2 6372   4.032   4.201   0.851
 1825SOL     OW 6373   0.300   2.723   4.877
 1825SOL    HW1 6374   0.226   2.672   4.920
 1825SOL    HW2 6375   0.264   2.807   4.837
 1826SOL     OW 6376   3.763   1.778   0.863
 1826SOL    HW1 6377   3.744   1.823   0.951
 1826SOL    HW2 6378   3.845   1.818   0.823
 1827SOL     OW 6379   5.039   5.329   0.810
 1827SOL    HW1 6380   5.050   5.297   0.904
 1827SOL    HW2 6381   5.038   5.251   0.748
 1828SOL     OW 6382   1.434   3.633   6.107
 1828SOL    HW1 6383   1.446   3.718   6.056
 1828SOL    HW2 6384   1.516   3.577   6.098
 1829SOL     OW 6385   3.508   0.984   3.178
 1829SOL    HW1 6386   3.489   0.923   3.254
 1829SOL    HW2 6387   3.560   0.936   3.108
 1830SOL     OW 6388   6.010   6.574   5.116
 1830SOL    HW1 6389   6.025   6.565   5.214
 1830SOL    HW2 6390   6.068   6.508   5.067
 1831SOL     OW 6391   5.204   5.875   2.906
 1831SOL    HW1 6392   5.196   5.924   2.819
 1831SOL    HW2 6393   5.217   5.941   2.979
 1832SOL     OW 6394   2.816   4.083   0.556
 1832SOL    HW1 6395   2.717   4.066   0.562
 1832SOL    HW2 6396   2.833   4.181   0.558
 1833SOL     OW 6397   4.767   6.942   1.190
 1833SOL    HW1 6398   4.832   6.991   1.131
 1833SOL    HW2 6399   4.807   6.927   1.280
 1834SOL     OW 6400   3.169   2.799   1.009
 1834SOL    HW1 6401   3.077   2.783   0.974
 1834SOL    HW2 6402   3.173   2.773   1.105
 1835SOL     OW 6403   1.266   5.414   0.954
 1835SOL    HW1 6404   1.289   5.496   1.007
 1835SOL    HW2 6405   1.345   5.353   0.952
 1836SOL     OW 6406   5.087   1.324   2.439
 1836SOL    HW1 6407   5.156   1.347   2.370
 1836SOL    HW2 6408   4.996   1.331   2.399
 1837SOL     OW 6409   1.746   1.157   5.441
 1837SOL    HW1 6410   1.808   1.214   5.387
 1837SOL    HW2 6411   1.674   1.214   5.481
 1838SOL     OW 6412   6.333   0.849   6.654
 1838SOL    HW1 6413   6.394   0.773   6.674
 1838SOL    HW2 6414   6.247   0.837   6.703
 1839SOL     OW 6415   6.358   1.408   6.442
 1839SOL    HW1 6416   6.360   1.472   6.518
 1839SOL    HW2 6417   6.283   1.432   6.380
 1840SOL     OW 6418   4.099   0.159   3.277
 1840SOL    HW1 6419   4.108   0.177   3.179
 1840SOL    HW2 6420   4.095   0.246   3.326
 1841SOL     OW 6421   2.478   0.323   2.297
 1841SOL    HW1 6422   2.456   0.270   2.215
 1841SOL    HW2 6423   2.420   0.403   2.302
 1842SOL     OW 6424   2.011   4.959   0.934
 1842SOL    HW1 6425   2.031   5.050   0.898
 1842SOL    HW2 6426   1.946   4.912   0.874
 1843SOL     OW 6427   3.995   1.115   4.574
 1843SOL    HW1 6428   3.963   1.150   4.486
 1843SOL    HW2 6429   3.987   1.187   4.643
 1844SOL     OW 6430   4.530   2.083   5.636
 1844SOL    HW1 6431   4.575   2.115   5.719
 1844SOL    HW2 6432   4.431   2.092   5.647
 1845SOL     OW 6433   3.003   0.512   3.745
 1845SOL    HW1 6434   2.968   0.573   3.816
 1845SOL    HW2 6435   2.938   0.509   3.669
 1846SOL     OW 6436   4.493   0.773   3.118
 1846SOL    HW1 6437   4.553   0.722   3.179
 1846SOL    HW2 6438   4.514   0.748   3.023
 1847SOL     OW 6439   1.840   0.888   4.946
 1847SOL    HW1 6440   1.881   0.943   4.873
 1847SOL    HW2 6441   1.753   0.851   4.913
 1848SOL     OW 6442   2.781   5.849   4.042
 1848SOL    HW1 6443   2.764   5.752   4.027
 1848SOL    HW2 6444   2.823   5.888   3.960
 1849SOL     OW 6445   4.906   3.188   2.211
 1849SOL    HW1 6446   4.843   3.155   2.141
 1849SOL    HW2 6447   4.995   3.143   2.200
 1850SOL     OW 6448   4.979   1.736   2.382
 1850SOL    HW1 6449   4.969   1.681   2.299
 1850SOL    HW2 6450   5.076   1.750   2.402
 1851SOL     OW 6451   0.329   3.080   6.300
 1851SOL    HW1 6452   0.378   3.062   6.215
 1851SOL    HW2 6453   0.247   3.134   6.281
 1852SOL     OW 6454   0.340   4.881   1.452
 1852SOL    HW1 6455   0.312   4.875   1.357
 1852SOL    HW2 6456   0.392   4.965   1.466
 1853SOL     OW 6457   6.809   2.212   4.258
 1853SOL    HW1 6458   6.771   2.129   4.299
 1853SOL    HW2 6459   6.885   2.244   4.315
 1854SOL     OW 6460   0.885   5.904   3.298
 1854SOL    HW1 6461   0.983   5.902   3.320
 1854SOL    HW2 6462   0.851   5.997   3.308
 1855SOL     OW 6463   5.655   3.296   4.562
 1855SOL    HW1 6464   5.733   3.329   4.508
 1855SOL    HW2 6465   5.668   3.322   4.657
 1856SOL     OW 6466   4.197   3.264   6.664
 1856SOL    HW1 6467   4.166   3.359   6.660
 1856SOL    HW2 6468   4.125   3.207   6.703
 1857SOL     OW 6469   5.738   1.221   0.395
 1857SOL    HW1 6470   5.761   1.260   0.484
 1857SOL    HW2 6471   5.699   1.130   0.407
 1858SOL     OW 6472   4.934   2.362   4.092
 1858SOL    HW1 6473   4.871   2.348   4.168
 1858SOL    HW2 6474   4.987   2.445   4.108
 1859SOL     OW 6475   5.209   1.829   4.602
 1859SOL    HW1 6476   5.143   1.793   4.536
 1859SOL    HW2 6477   5.293   1.775   4.599
 1860SOL     OW 6478   0.834   1.980   4.854
 1860SOL    HW1 6479   0.812   1.883   4.862
 1860SOL    HW2 6480   0.866   1.999   4.762
 1861SOL     OW 6481   5.735   0.072   2.902
 1861SOL    HW1 6482   5.835   0.072   2.902
 1861SOL    HW2 6483   5.701   0.101   2.991
 1862SOL     OW 6484   1.745   6.985   6.668
 1862SOL    HW1 6485   1.704   6.979   6.759
 1862SOL    HW2 6486   1.845   6.993   6.677
 1863SOL     OW 6487   0.326   3.047   1.393
 1863SOL    HW1 6488   0.376   3.042   1.480
 1863SOL    HW2 6489   0.287   3.138   1.382
 1864SOL     OW 6490   2.975   5.633   4.427
 1864SOL    HW1 6491   2.876   5.621   4.421
 1864SOL    HW2 6492   3.016   5.551   4.468
 1865SOL     OW 6493   3.953   1.378   1.370
 1865SOL    HW1 6494   4.052   1.386   1.379
 1865SOL    HW2 6495   3.923   1.414   1.282
 1866SOL     OW 6496   6.393   3.739   4.545
 1866SOL    HW1 6497   6.416   3.765   4.638
 1866SOL    HW2 6498   6.360   3.644   4.544
 1867SOL     OW 6499   2.458   2.893   1.584
 1867SOL    HW1 6500   2.444   2.806   1.537
 1867SOL    HW2 6501   2.419   2.888   1.676
 1868SOL     OW 6502   4.907   4.120   5.265
 1868SOL    HW1 6503   4.918   4.022   5.280
 1868SOL    HW2 6504   4.950   4.146   5.179
 1869SOL     OW 6505   5.078   2.574   4.217
 1869SOL    HW1 6506   5.071   2.666   4.257
 1869SOL    HW2 6507   5.151   2.524   4.264
 1870SOL     OW 6508   1.016   3.267   4.061
 1870SOL    HW1 6509   1.115   3.269   4.046
 1870SOL    HW2 6510   0.974   3.209   3.991
 1871SOL     OW 6511   6.926   6.484   0.246
 1871SOL    HW1 6512   6.949   6.390   0.271
 1871SOL    HW2 6513   6.838   6.485   0.199
 1872SOL     OW 6514   3.028   2.755   0.666
 1872SOL    HW1 6515   2.939   2.708   0.672
 1872SOL    HW2 6516   3.099   2.697   0.706
 1873SOL     OW 6517   6.055   1.007   6.825
 1873SOL    HW1 6518   6.024   0.928   6.878
 1873SOL    HW2 6519   6.117   1.062   6.881
 1874SOL     OW 6520   0.763   0.587   6.593
 1874SOL    HW1 6521   0.708   0.598   6.676
 1874SOL    HW2 6522   0.858   0.609   6.613
 1875SOL     OW 6523   6.214   6.257   0.358
 1875SOL    HW1 6524   6.260   6.263   0.447
 1875SOL    HW2 6525   6.195   6.349   0.324
 1876SOL     OW 6526   6.001   6.233   5.895
 1876SOL    HW1 6527   6.003   6.220   5.796
 1876SOL    HW2 6528   6.057   6.311   5.920
 1877SOL     OW 6529   6.953   1.024   2.418
 1877SOL    HW1 6530   0.012   0.988   2.446
 1877SOL    HW2 6531   6.882   0.990   2.479
 1878SOL     OW 6532   0.074   4.104   3.481
 1878SOL    HW1 6533   0.157   4.053   3.505
 1878SOL    HW2 6534   0.060   4.101   3.382
 1879SOL     OW 6535   2.522   5.193   4.844
 1879SOL    HW1 6536   2.510   5.255   4.766
 1879SOL    HW2 6537   2.619   5.173   4.856
 1880SOL     OW 6538   6.918   2.179   3.182
 1880SOL    HW1 6539   6.898   2.087   3.147
 1880SOL    HW2 6540   7.015   2.199   3.167
 1881SOL     OW 6541   0.823   2.174   3.333
 1881SOL    HW1 6542   0.797   2.266   3.363
 1881SOL    HW2 6543   0.746   2.131   3.286
 1882SOL     OW 6544   1.239   5.903   0.164
 1882SOL    HW1 6545   1.190   5.979   0.206
 1882SOL    HW2 6546   1.222   5.820   0.216
 1883SOL     OW 6547   1.562   3.410   2.766
 1883SOL    HW1 6548   1.635   3.467   2.804
 1883SOL    HW2 6549   1.511   3.368   2.841
 1884SOL     OW 6550   4.388   1.081   0.969
 1884SOL    HW1 6551   4.399   1.093   1.068
 1884SOL    HW2 6552   4.468   1.033   0.932
 1885SOL     OW 6553   6.662   2.168   0.813
 1885SOL    HW1 6554   6.696   2.099   0.749
 1885SOL    HW2 6555   6.564   2.184   0.797
 1886SOL     OW 6556   1.724   1.600   6.942
 1886SOL    HW1 6557   1.695   1.581   0.006
 1886SOL    HW2 6558   1.818   1.635   6.943
 1887SOL     OW 6559   0.466   4.509   5.758
 1887SOL    HW1 6560   0.414   4.542   5.836
 1887SOL    HW2 6561   0.411   4.445   5.705
 1888SOL     OW 6562   1.779   1.619   5.598
 1888SOL    HW1 6563   1.858   1.571   5.638
 1888SOL    HW2 6564   1.812   1.685   5.530
 1889SOL     OW 6565   4.495   3.574   0.069
 1889SOL    HW1 6566   4.521   3.480   0.087
 1889SOL    HW2 6567   4.496   3.626   0.154
 1890SOL     OW 6568   1.498   5.765   6.176
 1890SOL    HW1 6569   1.428   5.696   6.194
 1890SOL    HW2 6570   1.540   5.794   6.262
 1891SOL     OW 6571   5.948   3.279   5.722
 1891SOL    HW1 6572   6.008   3.225   5.781
 1891SOL    HW2 6573   5.888   3.217   5.670
 1892SOL     OW 6574   4.050   6.398   1.758
 1892SOL    HW1 6575   4.002   6.411   1.671
 1892SOL    HW2 6576   4.148   6.412   1.745
 1893SOL     OW 6577   3.456   2.054   4.755
 1893SOL    HW1 6578   3.416   2.130   4.703
 1893SOL    HW2 6579   3.472   2.082   4.849
 1894SOL     OW 6580   4.316   3.738   1.518
 1894SOL    HW1 6581   4.226   3.741   1.562
 1894SOL    HW2 6582   4.340   3.829   1.485
 1895SOL     OW 6583   6.086   0.827   1.896
 1895SOL    HW1 6584   6.148   0.905   1.892
 1895SOL    HW2 6585   6.056   0.803   1.804
 1896SOL     OW 6586   6.530   1.130   4.080
 1896SOL    HW1 6587   6.456   1.134   4.012
 1896SOL    HW2 6588   6.606   1.188   4.051
 1897SOL     OW 6589   6.819   5.733   3.048
 1897SOL    HW1 6590   6.789   5.798   2.979
 1897SOL    HW2 6591   6.770   5.750   3.133
 1898SOL     OW 6592   4.419   5.960   1.432
 1898SOL    HW1 6593   4.458   6.047   1.463
 1898SOL    HW2 6594   4.481   5.918   1.365
 1899SOL     OW 6595   0.223   3.822   2.857
 1899SOL    HW1 6596   0.229   3.908   2.806
 1899SOL    HW2 6597   0.141   3.772   2.830
 1900SOL     OW 6598   1.091   7.019   6.324
 1900SOL    HW1 6599   1.015   6.975   6.276
 1900SOL    HW2 6600   1.075   0.088   6.327
 1901SOL     OW 6601   2.460   1.354   0.391
 1901SOL    HW1 6602   2.422   1.441   0.358
 1901SOL    HW2 6603   2.558   1.350   0.369
 1902SOL     OW 6604   1.371   2.201   4.889
 1902SOL    HW1 6605   1.329   2.289   4.910
 1902SOL    HW2 6606   1.423   2.208   4.804
 1903SOL     OW 6607   6.782   4.131   3.221
 1903SOL    HW1 6608   6.779   4.105   3.125
 1903SOL    HW2 6609   6.703   4.188   3.243
 1904SOL     OW 6610   0.041   6.784   4.470
 1904SOL    HW1 6611   6.994   6.754   4.526
 1904SOL    HW2 6612   0.075   6.872   4.504
 1905SOL     OW 6613   6.988   2.595   3.995
 1905SOL    HW1 6614   6.894   2.573   3.969
 1905SOL    HW2 6615   0.005   2.638   3.918
 1906SOL     OW 6616   2.728   0.067   5.830
 1906SOL    HW1 6617   2.751   7.013   5.879
 1906SOL    HW2 6618   2.676   0.045   5.748
 1907SOL     OW 6619   2.856   0.045   3.572
 1907SOL    HW1 6620   2.828   0.003   3.659
 1907SOL    HW2 6621   2.920   0.119   3.589
 1908SOL     OW 6622   4.265   1.579   6.048
 1908SOL    HW1 6623   4.262   1.560   6.147
 1908SOL    HW2 6624   4.357   1.608   6.023
 1909SOL     OW 6625   2.156   4.601   4.757
 1909SOL    HW1 6626   2.228   4.532   4.771
 1909SOL    HW2 6627   2.118   4.591   4.665
 1910SOL     OW 6628   5.449   2.609   6.649
 1910SOL    HW1 6629   5.443   2.513   6.623
 1910SOL    HW2 6630   5.494   2.661   6.576
 1911SOL     OW 6631   6.528   2.080   5.508
 1911SOL    HW1 6632   6.608   2.029   5.539
 1911SOL    HW2 6633   6.453   2.065   5.572
 1912SOL     OW 6634   3.645   6.558   2.422
 1912SOL    HW1 6635   3.580   6.516   2.485
 1912SOL    HW2 6636   3.722   6.495   2.407
 1913SOL     OW 6637   1.868   6.565   5.279
 1913SOL    HW1 6638   1.912   6.648   5.314
 1913SOL    HW2 6639   1.936   6.507   5.235
 1914SOL     OW 6640   2.070   2.878   6.460
 1914SOL    HW1 6641   2.001   2.905   6.527
 1914SOL    HW2 6642   2.028   2.875   6.369
 1915SOL     OW 6643   4.049   1.220   5.919
 1915SOL    HW1 6644   4.106   1.302   5.912
 1915SOL    HW2 6645   4.105   1.139   5.902
 1916SOL     OW 6646   4.240   5.601   1.000
 1916SOL    HW1 6647   4.294   5.685   0.997
 1916SOL    HW2 6648   4.188   5.591   0.915
 1917SOL     OW 6649   3.791   3.312   4.465
 1917SOL    HW1 6650   3.808   3.214   4.452
 1917SOL    HW2 6651   3.698   3.325   4.499
 1918SOL     OW 6652   6.376   6.711   5.887
 1918SOL    HW1 6653   6.343   6.661   5.807
 1918SOL    HW2 6654   6.401   6.647   5.959
 1919SOL     OW 6655   1.456   6.076   1.798
 1919SOL    HW1 6656   1.418   6.109   1.712
 1919SOL    HW2 6657   1.452   6.148   1.867
 1920SOL     OW 6658   0.575   4.234   3.709
 1920SOL    HW1 6659   0.610   4.212   3.617
 1920SOL    HW2 6660   0.636   4.194   3.778
 1921SOL     OW 6661   0.285   5.423   0.055
 1921SOL    HW1 6662   0.191   5.415   0.087
 1921SOL    HW2 6663   0.288   5.414   6.986
 1922SOL     OW 6664   4.350   3.173   1.269
 1922SOL    HW1 6665   4.350   3.073   1.262
 1922SOL    HW2 6666   4.359   3.199   1.365
 1923SOL     OW 6667   3.422   1.213   0.183
 1923SOL    HW1 6668   3.429   1.265   0.098
 1923SOL    HW2 6669   3.348   1.147   0.176
 1924SOL     OW 6670   6.220   4.262   1.881
 1924SOL    HW1 6671   6.304   4.308   1.911
 1924SOL    HW2 6672   6.195   4.192   1.947
 1925SOL     OW 6673   3.034   3.437   1.749
 1925SOL    HW1 6674   2.983   3.509   1.797
 1925SOL    HW2 6675   3.125   3.429   1.789
 1926SOL     OW 6676   1.647   0.687   4.805
 1926SOL    HW1 6677   1.582   0.632   4.857
 1926SOL    HW2 6678   1.658   0.648   4.714
 1927SOL     OW 6679   3.216   4.375   6.456
 1927SOL    HW1 6680   3.127   4.368   6.412
 1927SOL    HW2 6681   3.243   4.472   6.462
 1928SOL     OW 6682   6.566   3.461   5.984
 1928SOL    HW1 6683   6.663   3.451   6.007
 1928SOL    HW2 6684   6.557   3.477   5.886
 1929SOL     OW 6685   1.006   5.455   1.677
 1929SOL    HW1 6686   1.105   5.452   1.665
 1929SOL    HW2 6687   0.976   5.550   1.688
 1930SOL     OW 6688   5.901   4.318   0.169
 1930SOL    HW1 6689   5.911   4.330   0.268
 1930SOL    HW2 6690   5.834   4.383   0.135
 1931SOL     OW 6691   0.009   3.634   2.791
 1931SOL    HW1 6692   0.003   3.572   2.869
 1931SOL    HW2 6693   6.958   3.622   2.733
 1932SOL     OW 6694   5.344   3.579   2.941
 1932SOL    HW1 6695   5.310   3.541   3.027
 1932SOL    HW2 6696   5.275   3.567   2.870
 1933SOL     OW 6697   2.633   5.260   0.882
 1933SOL    HW1 6698   2.563   5.214   0.937
 1933SOL    HW2 6699   2.666   5.340   0.931
 1934SOL     OW 6700   1.403   0.253   5.252
 1934SOL    HW1 6701   1.448   0.168   5.279
 1934SOL    HW2 6702   1.471   0.323   5.233
 1935SOL     OW 6703   3.000   0.001   4.818
 1935SOL    HW1 6704   2.946   0.009   4.734
 1935SOL    HW2 6705   2.953   0.049   4.893
 1936SOL     OW 6706   5.994   5.433   4.810
 1936SOL    HW1 6707   5.943   5.373   4.872
 1936SOL    HW2 6708   6.068   5.380   4.766
 1937SOL     OW 6709   4.242   6.859   2.312
 1937SOL    HW1 6710   4.205   6.838   2.221
 1937SOL    HW2 6711   4.327   6.910   2.303
 1938SOL     OW 6712   4.122   1.848   3.435
 1938SOL    HW1 6713   4.177   1.928   3.411
 1938SOL    HW2 6714   4.032   1.854   3.392
 1939SOL     OW 6715   1.297   0.107   4.015
 1939SOL    HW1 6716   1.234   0.182   4.037
 1939SOL    HW2 6717   1.288   0.083   3.919
 1940SOL     OW 6718   5.443   5.407   6.555
 1940SOL    HW1 6719   5.382   5.406   6.476
 1940SOL    HW2 6720   5.506   5.485   6.547
 1941SOL     OW 6721   6.633   3.867   2.968
 1941SOL    HW1 6722   6.574   3.878   3.048
 1941SOL    HW2 6723   6.718   3.918   2.982
 1942SOL     OW 6724   6.434   6.427   2.687
 1942SOL    HW1 6725   6.362   6.482   2.729
 1942SOL    HW2 6726   6.438   6.447   2.589
 1943SOL     OW 6727   3.160   6.184   1.892
 1943SOL    HW1 6728   3.212   6.099   1.892
 1943SOL    HW2 6729   3.169   6.228   1.803
 1944SOL     OW 6730   5.347   2.305   6.200
 1944SOL    HW1 6731   5.264   2.252   6.185
 1944SOL    HW2 6732   5.325   2.390   6.249
 1945SOL     OW 6733   4.426   5.437   3.330
 1945SOL    HW1 6734   4.479   5.376   3.388
 1945SOL    HW2 6735   4.486   5.503   3.286
 1946SOL     OW 6736   0.411   0.984   0.569
 1946SOL    HW1 6737   0.469   0.970   0.650
 1946SOL    HW2 6738   0.325   1.026   0.596
 1947SOL     OW 6739   5.240   6.594   4.403
 1947SOL    HW1 6740   5.211   6.616   4.496
 1947SOL    HW2 6741   5.161   6.558   4.352
 1948SOL     OW 6742   6.636   5.639   3.539
 1948SOL    HW1 6743   6.555   5.592   3.575
 1948SOL    HW2 6744   6.612   5.684   3.453
 1949SOL     OW 6745   3.999   4.274   5.755
 1949SOL    HW1 6746   4.014   4.369   5.729
 1949SOL    HW2 6747   3.903   4.261   5.781
 1950SOL     OW 6748   3.910   3.864   1.010
 1950SOL    HW1 6749   3.955   3.941   1.056
 1950SOL    HW2 6750   3.934   3.779   1.056
 1951SOL     OW 6751   6.552   2.905   0.388
 1951SOL    HW1 6752   6.601   2.840   0.329
 1951SOL    HW2 6753   6.607   2.988   0.398
 1952SOL     OW 6754   3.480   2.500   0.004
 1952SOL    HW1 6755   3.417   2.469   6.962
 1952SOL    HW2 6756   3.514   2.591   7.011
 1953SOL     OW 6757   6.341   2.112   6.427
 1953SOL    HW1 6758   6.332   2.116   6.328
 1953SOL    HW2 6759   6.286   2.184   6.469
 1954SOL     OW 6760   5.614   1.365   4.434
 1954SOL    HW1 6761   5.651   1.303   4.503
 1954SOL    HW2 6762   5.686   1.390   4.370
 1955SOL     OW 6763   1.514   0.205   2.345
 1955SOL    HW1 6764   1.504   0.122   2.401
 1955SOL    HW2 6765   1.430   0.220   2.293
 1956SOL     OW 6766   5.956   6.543   2.692
 1956SOL    HW1 6767   5.912   6.488   2.622
 1956SOL    HW2 6768   6.030   6.597   2.651
 1957SOL     OW 6769   6.538   5.173   5.115
 1957SOL    HW1 6770   6.565   5.160   5.020
 1957SOL    HW2 6771   6.523   5.084   5.158
 1958SOL     OW 6772   6.000   2.766   4.018
 1958SOL    HW1 6773   6.027   2.777   3.923
 1958SOL    HW2 6774   6.029   2.676   4.051
 1959SOL     OW 6775   0.542   2.252   6.228
 1959SOL    HW1 6776   0.564   2.259   6.325
 1959SOL    HW2 6777   0.614   2.295   6.174
 1960SOL     OW 6778   6.579   4.757   1.194
 1960SOL    HW1 6779   6.525   4.725   1.272
 1960SOL    HW2 6780   6.641   4.830   1.224
 1961SOL     OW 6781   5.651   4.646   4.623
 1961SOL    HW1 6782   5.576   4.600   4.670
 1961SOL    HW2 6783   5.617   4.687   4.538
 1962SOL     OW 6784   1.634   6.066   3.387
 1962SOL    HW1 6785   1.606   6.036   3.478
 1962SOL    HW2 6786   1.573   6.026   3.318
 1963SOL     OW 6787   0.498   0.671   1.881
 1963SOL    HW1 6788   0.409   0.641   1.846
 1963SOL    HW2 6789   0.497   0.770   1.895
 1964SOL     OW 6790   4.478   2.757   1.341
 1964SOL    HW1 6791   4.479   2.658   1.349
 1964SOL    HW2 6792   4.384   2.790   1.336
 1965SOL     OW 6793   0.643   3.132   2.805
 1965SOL    HW1 6794   0.721   3.074   2.781
 1965SOL    HW2 6795   0.664   3.183   2.888
 1966SOL     OW 6796   0.120   5.259   5.147
 1966SOL    HW1 6797   0.148   5.279   5.241
 1966SOL    HW2 6798   0.027   5.220   5.147
 1967SOL     OW 6799   4.244   2.050   5.651
 1967SOL    HW1 6800   4.200   2.061   5.562
 1967SOL    HW2 6801   4.191   2.100   5.720
 1968SOL     OW 6802   3.052   6.158   0.073
 1968SOL    HW1 6803   3.029   6.186   0.166
 1968SOL    HW2 6804   3.118   6.083   0.076
 1969SOL     OW 6805   0.506   1.179   1.509
 1969SOL    HW1 6806   0.563   1.208   1.431
 1969SOL    HW2 6807   0.564   1.140   1.580
 1970SOL     OW 6808   2.213   1.182   5.990
 1970SOL    HW1 6809   2.214   1.265   6.046
 1970SOL    HW2 6810   2.161   1.199   5.907
 1971SOL     OW 6811   6.511   6.555   6.080
 1971SOL    HW1 6812   6.572   6.578   6.155
 1971SOL    HW2 6813   6.498   6.455   6.076
 1972SOL     OW 6814   6.841   2.620   3.128
 1972SOL    HW1 6815   6.917   2.684   3.139
 1972SOL    HW2 6816   6.867   2.548   3.064
 1973SOL     OW 6817   2.775   3.787   1.580
 1973SOL    HW1 6818   2.733   3.873   1.548
 1973SOL    HW2 6819   2.704   3.725   1.612
 1974SOL     OW 6820   6.237   6.322   3.943
 1974SOL    HW1 6821   6.151   6.368   3.967
 1974SOL    HW2 6822   6.267   6.265   4.020
 1975SOL     OW 6823   2.555   1.415   3.427
 1975SOL    HW1 6824   2.576   1.321   3.456
 1975SOL    HW2 6825   2.611   1.438   3.347
 1976SOL     OW 6826   0.956   5.694   0.137
 1976SOL    HW1 6827   0.923   5.612   0.183
 1976SOL    HW2 6828   0.942   5.773   0.197
 1977SOL     OW 6829   1.358   2.266   3.565
 1977SOL    HW1 6830   1.394   2.222   3.482
 1977SOL    HW2 6831   1.307   2.199   3.619
 1978SOL     OW 6832   1.528   0.277   4.081
 1978SOL    HW1 6833   1.448   0.223   4.058
 1978SOL    HW2 6834   1.515   0.320   4.171
 1979SOL     OW 6835   6.375   4.011   4.810
 1979SOL    HW1 6836   6.282   3.985   4.782
 1979SOL    HW2 6837   6.426   3.929   4.836
 1980SOL     OW 6838   3.241   0.988   0.146
 1980SOL    HW1 6839   3.282   0.911   0.097
 1980SOL    HW2 6840   3.171   0.954   0.209
 1981SOL     OW 6841   5.671   2.311   2.196
 1981SOL    HW1 6842   5.723   2.389   2.232
 1981SOL    HW2 6843   5.720   2.227   2.215
 1982SOL     OW 6844   6.036   4.133   5.777
 1982SOL    HW1 6845   5.979   4.055   5.803
 1982SOL    HW2 6846   5.979   4.205   5.738
 1983SOL     OW 6847   0.716   2.317   2.428
 1983SOL    HW1 6848   0.697   2.408   2.466
 1983SOL    HW2 6849   0.802   2.283   2.466
 1984SOL     OW 6850   5.598   0.608   5.463
 1984SOL    HW1 6851   5.499   0.600   5.473
 1984SOL    HW2 6852   5.636   0.518   5.440
 1985SOL     OW 6853   1.231   0.683   2.054
 1985SOL    HW1 6854   1.327   0.659   2.040
 1985SOL    HW2 6855   1.180   0.603   2.084
 1986SOL     OW 6856   1.253   0.684   0.414
 1986SOL    HW1 6857   1.311   0.764   0.427
 1986SOL    HW2 6858   1.157   0.710   0.426
 1987SOL     OW 6859   1.665   3.137   2.030
 1987SOL    HW1 6860   1.725   3.098   2.100
 1987SOL    HW2 6861   1.717   3.204   1.976
 1988SOL     OW 6862   4.801   4.555   0.610
 1988SOL    HW1 6863   4.845   4.466   0.623
 1988SOL    HW2 6864   4.702   4.543   0.611
 1989SOL     OW 6865   2.654   0.078   5.298
 1989SOL    HW1 6866   2.599   0.019   5.357
 1989SOL    HW2 6867   2.600   0.156   5.268
 1990SOL     OW 6868   3.571   0.142   1.011
 1990SOL    HW1 6869   3.500   0.204   1.045
 1990SOL    HW2 6870   3.576   0.061   1.069
 1991SOL     OW 6871   4.163   5.084   6.461
 1991SOL    HW1 6872   4.194   5.178   6.464
 1991SOL    HW2 6873   4.237   5.023   6.489
 1992SOL     OW 6874   1.798   6.645   6.963
 1992SOL    HW1 6875   1.743   6.594   6.897
 1992SOL    HW2 6876   1.858   6.582   7.012
 1993SOL     OW 6877   4.067   3.348   5.382
 1993SOL    HW1 6878   4.111   3.425   5.429
 1993SOL    HW2 6879   3.988   3.381   5.330
 1994SOL     OW 6880   1.690   2.520   1.461
 1994SOL    HW1 6881   1.686   2.535   1.362
 1994SOL    HW2 6882   1.621   2.577   1.506
 1995SOL     OW 6883   6.274   2.771   1.613
 1995SOL    HW1 6884   6.366   2.809   1.622
 1995SOL    HW2 6885   6.218   2.803   1.688
 1996SOL     OW 6886   2.843   3.696   0.847
 1996SOL    HW1 6887   2.937   3.697   0.879
 1996SOL    HW2 6888   2.790   3.764   0.898
 1997SOL     OW 6889   5.147   0.393   5.713
 1997SOL    HW1 6890   5.102   0.310   5.748
 1997SOL    HW2 6891   5.167   0.454   5.789
 1998SOL     OW 6892   3.094   3.697   5.563
 1998SOL    HW1 6893   3.024   3.640   5.607
 1998SOL    HW2 6894   3.105   3.668   5.468
 1999SOL     OW 6895   2.978   6.973   2.013
 1999SOL    HW1 6896   2.944   6.939   2.101
 1999SOL    HW2 6897   3.035   0.024   2.028
 2000SOL     OW 6898   3.751   1.952   5.693
 2000SOL    HW1 6899   3.729   1.887   5.620
 2000SOL    HW2 6900   3.848   1.944   5.716
 2001SOL     OW 6901   3.428   2.164   1.833
 2001SOL    HW1 6902   3.499   2.227   1.864
 2001SOL    HW2 6903   3.383   2.202   1.752
 2002SOL     OW 6904   0.777   5.656   6.106
 2002SOL    HW1 6905   0.701   5.611   6.060
 2002SOL    HW2 6906   0.743   5.711   6.182
 2003SOL     OW 6907   5.050   0.111   3.351
 2003SOL    HW1 6908   5.149   0.119   3.362
 2003SOL    HW2 6909   5.010   0.072   3.434
 2004SOL     OW 6910   4.933   0.970   5.209
 2004SOL    HW1 6911   4.978   0.884   5.189
 2004SOL    HW2 6912   4.844   0.952   5.251
 2005SOL     OW 6913   1.185   5.432   0.094
 2005SOL    HW1 6914   1.204   5.529   0.111
 2005SOL    HW2 6915   1.203   5.411   7.028
 2006SOL     OW 6916   5.038   4.078   4.047
 2006SOL    HW1 6917   5.070   4.033   4.130
 2006SOL    HW2 6918   5.001   4.010   3.983
 2007SOL     OW 6919   4.652   5.875   0.783
 2007SOL    HW1 6920   4.699   5.960   0.759
 2007SOL    HW2 6921   4.619   5.831   0.699
 2008SOL     OW 6922   0.776   5.300   3.252
 2008SOL    HW1 6923   0.686   5.341   3.264
 2008SOL    HW2 6924   0.846   5.363   3.284
 2009SOL     OW 6925   6.870   0.333   1.257
 2009SOL    HW1 6926   6.775   0.363   1.263
 2009SOL    HW2 6927   6.912   0.371   1.175
 2010SOL     OW 6928   1.547   1.503   0.999
 2010SOL    HW1 6929   1.594   1.421   0.966
 2010SOL    HW2 6930   1.466   1.521   0.944
 2011SOL     OW 6931   6.467   1.870   4.827
 2011SOL    HW1 6932   6.428   1.834   4.912
 2011SOL    HW2 6933   6.533   1.942   4.849
 2012SOL     OW 6934   1.059   3.465   1.413
 2012SOL    HW1 6935   1.078   3.372   1.447
 2012SOL    HW2 6936   1.103   3.478   1.324
 2013SOL     OW 6937   5.470   0.576   3.166
 2013SOL    HW1 6938   5.520   0.533   3.241
 2013SOL    HW2 6939   5.418   0.654   3.202
 2014SOL     OW 6940   1.209   4.755   3.019
 2014SOL    HW1 6941   1.142   4.690   2.982
 2014SOL    HW2 6942   1.255   4.713   3.097
 2015SOL     OW 6943   2.538   1.306   6.673
 2015SOL    HW1 6944   2.567   1.320   6.579
 2015SOL    HW2 6945   2.594   1.361   6.735
 2016SOL     OW 6946   0.668   5.418   5.520
 2016SOL    HW1 6947   0.701   5.327   5.496
 2016SOL    HW2 6948   0.733   5.462   5.582
 2017SOL     OW 6949   3.273   6.306   4.560
 2017SOL    HW1 6950   3.216   6.358   4.496
 2017SOL    HW2 6951   3.246   6.209   4.558
 2018SOL     OW 6952   6.181   5.841   6.359
 2018SOL    HW1 6953   6.276   5.871   6.372
 2018SOL    HW2 6954   6.178   5.742   6.356
 2019SOL     OW 6955   4.860   2.883   2.207
 2019SOL    HW1 6956   4.820   2.953   2.148
 2019SOL    HW2 6957   4.901   2.811   2.151
 2020SOL     OW 6958   1.164   4.716   4.947
 2020SOL    HW1 6959   1.123   4.801   4.911
 2020SOL    HW2 6960   1.244   4.738   5.001
 2021SOL     OW 6961   2.239   6.570   3.272
 2021SOL    HW1 6962   2.306   6.529   3.333
 2021SOL    HW2 6963   2.203   6.501   3.209
 2022SOL     OW 6964   2.097   3.616   2.455
 2022SOL    HW1 6965   2.122   3.673   2.376
 2022SOL    HW2 6966   2.046   3.536   2.423
 2023SOL     OW 6967   0.133   1.433   0.382
 2023SOL    HW1 6968   0.169   1.361   0.322
 2023SOL    HW2 6969   0.081   1.498   0.328
 2024SOL     OW 6970   0.338   0.450   2.706
 2024SOL    HW1 6971   0.300   0.469   2.796
 2024SOL    HW2 6972   0.283   0.496   2.636
 2025SOL     OW 6973   1.498   2.630   2.109
 2025SOL    HW1 6974   1.519   2.725   2.084
 2025SOL    HW2 6975   1.574   2.571   2.084
 2026SOL     OW 6976   1.444   2.391   5.983
 2026SOL    HW1 6977   1.404   2.338   6.058
 2026SOL    HW2 6978   1.433   2.489   6.003
 2027SOL     OW 6979   1.766   1.435   1.383
 2027SOL    HW1 6980   1.844   1.495   1.403
 2027SOL    HW2 6981   1.712   1.422   1.466
 2028SOL     OW 6982   3.352   1.239   6.480
 2028SOL    HW1 6983   3.385   1.285   6.398
 2028SOL    HW2 6984   3.429   1.218   6.540
 2029SOL     OW 6985   0.103   0.562   0.446
 2029SOL    HW1 6986   0.095   0.521   0.355
 2029SOL    HW2 6987   0.059   0.503   0.513
 2030SOL     OW 6988   2.196   1.377   3.629
 2030SOL    HW1 6989   2.207   1.474   3.605
 2030SOL    HW2 6990   2.099   1.354   3.629
 2031SOL     OW 6991   5.025   6.112   2.104
 2031SOL    HW1 6992   5.113   6.124   2.149
 2031SOL    HW2 6993   4.990   6.202   2.075
 2032SOL     OW 6994   4.456   6.223   1.511
 2032SOL    HW1 6995   4.418   6.249   1.422
 2032SOL    HW2 6996   4.517   6.295   1.544
 2033SOL     OW 6997   3.608   5.104   6.665
 2033SOL    HW1 6998   3.630   5.074   6.758
 2033SOL    HW2 6999   3.519   5.150   6.665
 2034SOL     OW 7000   2.916   0.054   4.515
 2034SOL    HW1 7001   2.868   7.010   4.468
 2034SOL    HW2 7002   3.013   0.052   4.490
 2035SOL     OW 7003   0.474   0.801   2.424
 2035SOL    HW1 7004   0.547   0.840   2.368
 2035SOL    HW2 7005   0.412   0.748   2.366
 2036SOL     OW 7006   0.560   6.239   3.535
 2036SOL    HW1 7007   0.626   6.199   3.471
 2036SOL    HW2 7008   0.474   6.256   3.487
 2037SOL     OW 7009   6.885   2.344   6.136
 2037SOL    HW1 7010   6.889   2.329   6.037
 2037SOL    HW2 7011   6.969   2.312   6.179
 2038SOL     OW 7012   1.210   1.269   6.655
 2038SOL    HW1 7013   1.256   1.356   6.636
 2038SOL    HW2 7014   1.276   1.195   6.647
 2039SOL     OW 7015   0.226   4.873   2.448
 2039SOL    HW1 7016   0.286   4.935   2.396
 2039SOL    HW2 7017   0.131   4.886   2.418
 2040SOL     OW 7018   2.917   3.184   5.248
 2040SOL    HW1 7019   2.990   3.251   5.235
 2040SOL    HW2 7020   2.958   3.095   5.268
 2041SOL     OW 7021   6.449   5.847   6.382
 2041SOL    HW1 7022   6.434   5.781   6.455
 2041SOL    HW2 7023   6.547   5.853   6.362
 2042SOL     OW 7024   5.875   5.692   0.046
 2042SOL    HW1 7025   5.812   5.767   0.068
 2042SOL    HW2 7026   5.960   5.729   0.008
 2043SOL     OW 7027   6.671   4.180   2.536
 2043SOL    HW1 7028   6.634   4.090   2.510
 2043SOL    HW2 7029   6.757   4.168   2.585
 2044SOL     OW 7030   4.939   0.245   2.073
 2044SOL    HW1 7031   4.925   0.323   2.134
 2044SOL    HW2 7032   4.851   0.218   2.032
 2045SOL     OW 7033   2.099   4.503   5.199
 2045SOL    HW1 7034   2.011   4.460   5.220
 2045SOL    HW2 7035   2.150   4.444   5.136
 2046SOL     OW 7036   6.654   0.424   4.496
 2046SOL    HW1 7037   6.696   0.359   4.433
 2046SOL    HW2 7038   6.721   0.452   4.565
 2047SOL     OW 7039   4.365   2.154   7.019
 2047SOL    HW1 7040   4.322   2.149   0.079
 2047SOL    HW2 7041   4.378   2.061   6.983
 2048SOL     OW 7042   2.772   5.629   0.208
 2048SOL    HW1 7043   2.822   5.543   0.197
 2048SOL    HW2 7044   2.806   5.695   0.141
 2049SOL     OW 7045   4.189   1.851   6.383
 2049SOL    HW1 7046   4.159   1.804   6.466
 2049SOL    HW2 7047   4.282   1.887   6.397
 2050SOL     OW 7048   6.202   2.218   3.760
 2050SOL    HW1 7049   6.165   2.131   3.792
 2050SOL    HW2 7050   6.131   2.269   3.712
 2051SOL     OW 7051   0.026   4.932   0.357
 2051SOL    HW1 7052   0.120   4.909   0.382
 2051SOL    HW2 7053   6.998   4.928   0.438
 2052SOL     OW 7054   0.523   4.312   0.548
 2052SOL    HW1 7055   0.602   4.373   0.538
 2052SOL    HW2 7056   0.473   4.308   0.462
 2053SOL     OW 7057   6.440   0.744   0.391
 2053SOL    HW1 7058   6.348   0.734   0.353
 2053SOL    HW2 7059   6.507   0.705   0.328
 2054SOL     OW 7060   4.738   2.851   1.723
 2054SOL    HW1 7061   4.808   2.804   1.777
 2054SOL    HW2 7062   4.694   2.922   1.779
 2055SOL     OW 7063   5.936   2.658   2.814
 2055SOL    HW1 7064   5.867   2.671   2.886
 2055SOL    HW2 7065   5.897   2.604   2.740
 2056SOL     OW 7066   2.498   1.108   3.244
 2056SOL    HW1 7067   2.399   1.123   3.237
 2056SOL    HW2 7068   2.531   1.141   3.332
 2057SOL     OW 7069   5.421   2.218   3.960
 2057SOL    HW1 7070   5.490   2.184   3.896
 2057SOL    HW2 7071   5.462   2.286   4.020
 2058SOL     OW 7072   1.228   1.715   3.237
 2058SOL    HW1 7073   1.184   1.751   3.320
 2058SOL    HW2 7074   1.186   1.629   3.211
 2059SOL     OW 7075   2.911   6.224   6.109
 2059SOL    HW1 7076   2.924   6.266   6.019
 2059SOL    HW2 7077   2.912   6.295   6.179
 2060SOL     OW 7078   6.953   3.899   0.919
 2060SOL    HW1 7079   6.966   3.814   0.867
 2060SOL    HW2 7080   6.997   3.890   1.008
 2061SOL     OW 7081   0.662   1.797   3.176
 2061SOL    HW1 7082   0.624   1.711   3.211
 2061SOL    HW2 7083   0.646   1.803   3.078
 2062SOL     OW 7084   5.687   0.005   3.177
 2062SOL    HW1 7085   5.643   6.974   3.242
 2062SOL    HW2 7086   5.751   0.065   3.225
 2063SOL     OW 7087   1.146   0.770   6.390
 2063SOL    HW1 7088   1.179   0.780   6.484
 2063SOL    HW2 7089   1.225   0.767   6.328
 2064SOL     OW 7090   0.626   1.326   5.550
 2064SOL    HW1 7091   0.564   1.254   5.581
 2064SOL    HW2 7092   0.600   1.355   5.458
 2065SOL     OW 7093   6.596   3.560   2.912
 2065SOL    HW1 7094   6.615   3.657   2.895
 2065SOL    HW2 7095   6.499   3.548   2.930
 2066SOL     OW 7096   0.819   6.154   3.999
 2066SOL    HW1 7097   0.834   6.252   4.010
 2066SOL    HW2 7098   0.846   6.106   4.082
 2067SOL     OW 7099   6.597   6.133   0.751
 2067SOL    HW1 7100   6.585   6.050   0.806
 2067SOL    HW2 7101   6.512   6.154   0.703
 2068SOL     OW 7102   0.814   1.340   5.754
 2068SOL    HW1 7103   0.767   1.328   5.667
 2068SOL    HW2 7104   0.901   1.289   5.752
 2069SOL     OW 7105   0.722   2.901   3.414
 2069SOL    HW1 7106   0.810   2.897   3.461
 2069SOL    HW2 7107   0.701   2.812   3.374
 2070SOL     OW 7108   1.908   0.591   2.708
 2070SOL    HW1 7109   1.874   0.594   2.615
 2070SOL    HW2 7110   1.839   0.550   2.768
 2071SOL     OW 7111   6.886   5.665   5.539
 2071SOL    HW1 7112   6.816   5.726   5.503
 2071SOL    HW2 7113   6.931   5.618   5.462
 2072SOL     OW 7114   4.588   6.433   1.611
 2072SOL    HW1 7115   4.576   6.531   1.601
 2072SOL    HW2 7116   4.649   6.415   1.688
 2073SOL     OW 7117   3.559   0.215   4.491
 2073SOL    HW1 7118   3.487   0.164   4.539
 2073SOL    HW2 7119   3.543   0.313   4.502
 2074SOL     OW 7120   0.687   3.352   0.742
 2074SOL    HW1 7121   0.773   3.301   0.730
 2074SOL    HW2 7122   0.630   3.306   0.809
 2075SOL     OW 7123   5.414   2.933   1.927
 2075SOL    HW1 7124   5.322   2.897   1.913
 2075SOL    HW2 7125   5.443   2.983   1.845
 2076SOL     OW 7126   5.080   0.071   6.535
 2076SOL    HW1 7127   5.144   0.100   6.607
 2076SOL    HW2 7128   5.131   0.030   6.460
 2077SOL     OW 7129   4.596   2.463   2.446
 2077SOL    HW1 7130   4.585   2.499   2.538
 2077SOL    HW2 7131   4.508   2.467   2.397
 2078SOL     OW 7132   1.462   6.528   6.459
 2078SOL    HW1 7133   1.497   6.618   6.483
 2078SOL    HW2 7134   1.429   6.529   6.364
 2079SOL     OW 7135   5.721   1.358   3.546
 2079SOL    HW1 7136   5.801   1.337   3.602
 2079SOL    HW2 7137   5.647   1.296   3.570
 2080SOL     OW 7138   1.467   0.954   4.695
 2080SOL    HW1 7139   1.390   0.966   4.632
 2080SOL    HW2 7140   1.526   0.881   4.661
 2081SOL     OW 7141   2.021   5.551   4.824
 2081SOL    HW1 7142   2.049   5.646   4.841
 2081SOL    HW2 7143   2.100   5.491   4.833
 2082SOL     OW 7144   6.845   0.641   2.730
 2082SOL    HW1 7145   6.868   0.619   2.825
 2082SOL    HW2 7146   6.852   0.558   2.674
 2083SOL     OW 7147   4.604   4.682   6.822
 2083SOL    HW1 7148   4.598   4.583   6.839
 2083SOL    HW2 7149   4.512   4.721   6.821
 2084SOL     OW 7150   6.767   3.833   3.554
 2084SOL    HW1 7151   6.857   3.842   3.595
 2084SOL    HW2 7152   6.697   3.835   3.626
 2085SOL     OW 7153   4.821   1.169   6.605
 2085SOL    HW1 7154   4.917   1.168   6.576
 2085SOL    HW2 7155   4.813   1.123   6.693
 2086SOL     OW 7156   3.169   6.785   5.477
 2086SOL    HW1 7157   3.126   6.782   5.387
 2086SOL    HW2 7158   3.264   6.755   5.469
 2087SOL     OW 7159   5.259   0.118   2.277
 2087SOL    HW1 7160   5.305   0.041   2.320
 2087SOL    HW2 7161   5.221   0.090   2.189
 2088SOL     OW 7162   2.759   6.290   0.562
 2088SOL    HW1 7163   2.666   6.293   0.527
 2088SOL    HW2 7164   2.770   6.358   0.635
 2089SOL     OW 7165   5.259   2.194   6.590
 2089SOL    HW1 7166   5.201   2.135   6.534
 2089SOL    HW2 7167   5.335   2.140   6.627
 2090SOL     OW 7168   3.818   3.870   5.364
 2090SOL    HW1 7169   3.878   3.893   5.288
 2090SOL    HW2 7170   3.728   3.912   5.350
 2091SOL     OW 7171   6.614   5.491   6.828
 2091SOL    HW1 7172   6.652   5.403   6.858
 2091SOL    HW2 7173   6.613   5.494   6.728
 2092SOL     OW 7174   4.008   5.019   6.750
 2092SOL    HW1 7175   4.105   5.038   6.737
 2092SOL    HW2 7176   3.956   5.050   6.670
 2093SOL     OW 7177   2.225   2.565   1.669
 2093SOL    HW1 7178   2.235   2.469   1.695
 2093SOL    HW2 7179   2.289   2.586   1.595
 2094SOL     OW 7180   5.907   1.734   0.965
 2094SOL    HW1 7181   5.902   1.814   1.023
 2094SOL    HW2 7182   5.971   1.751   0.890
 2095SOL     OW 7183   5.387   0.149   4.873
 2095SOL    HW1 7184   5.437   0.089   4.936
 2095SOL    HW2 7185   5.436   0.236   4.863
 2096SOL     OW 7186   4.443   4.468   2.606
 2096SOL    HW1 7187   4.346   4.458   2.629
 2096SOL    HW2 7188   4.483   4.540   2.663
 2097SOL     OW 7189   1.524   2.898   7.009
 2097SOL    HW1 7190   1.516   2.885   6.911
 2097SOL    HW2 7191   1.576   2.981   7.028
 2098SOL     OW 7192   4.319   4.962   3.288
 2098SOL    HW1 7193   4.360   4.902   3.357
 2098SOL    HW2 7194   4.251   5.021   3.331
 2099SOL     OW 7195   2.680   3.114   5.363
 2099SOL    HW1 7196   2.741   3.167   5.305
 2099SOL    HW2 7197   2.607   3.074   5.307
 2100SOL     OW 7198   3.817   3.424   5.286
 2100SOL    HW1 7199   3.731   3.423   5.236
 2100SOL    HW2 7200   3.801   3.400   5.382
 2101SOL     OW 7201   1.582   6.298   2.983
 2101SOL    HW1 7202   1.647   6.298   3.059
 2101SOL    HW2 7203   1.621   6.246   2.907
 2102SOL     OW 7204   6.515   5.053   2.263
 2102SOL    HW1 7205   6.609   5.074   2.234
 2102SOL    HW2 7206   6.462   5.024   2.184
 2103SOL     OW 7207   2.991   3.530   6.144
 2103SOL    HW1 7208   2.990   3.444   6.194
 2103SOL    HW2 7209   3.009   3.513   6.047
 2104SOL     OW 7210   1.086   3.299   0.124
 2104SOL    HW1 7211   1.022   3.310   0.200
 2104SOL    HW2 7212   1.043   3.244   0.051
 2105SOL     OW 7213   5.030   5.579   4.464
 2105SOL    HW1 7214   5.022   5.543   4.557
 2105SOL    HW2 7215   5.105   5.645   4.461
 2106SOL     OW 7216   5.196   4.099   0.573
 2106SOL    HW1 7217   5.234   4.179   0.526
 2106SOL    HW2 7218   5.269   4.034   0.594
 2107SOL     OW 7219   4.740   3.022   5.558
 2107SOL    HW1 7220   4.819   2.964   5.538
 2107SOL    HW2 7221   4.731   3.092   5.487
 2108SOL     OW 7222   0.012   6.265   5.475
 2108SOL    HW1 7223   6.993   6.341   5.518
 2108SOL    HW2 7224   0.110   6.279   5.484
 2109SOL     OW 7225   4.822   6.380   3.009
 2109SOL    HW1 7226   4.760   6.458   3.013
 2109SOL    HW2 7227   4.769   6.295   3.018
 2110SOL     OW 7228   2.365   2.377   6.105
 2110SOL    HW1 7229   2.373   2.367   6.204
 2110SOL    HW2 7230   2.452   2.410   6.067
 2111SOL     OW 7231   1.363   1.896   6.973
 2111SOL    HW1 7232   1.434   1.923   0.008
 2111SOL    HW2 7233   1.390   1.923   6.881
 2112SOL     OW 7234   5.267   2.358   0.683
 2112SOL    HW1 7235   5.293   2.316   0.770
 2112SOL    HW2 7236   5.187   2.312   0.647
 2113SOL     OW 7237   1.042   0.386   5.280
 2113SOL    HW1 7238   0.981   0.338   5.343
 2113SOL    HW2 7239   1.031   0.485   5.292
 2114SOL     OW 7240   1.625   3.073   1.009
 2114SOL    HW1 7241   1.702   3.037   0.957
 2114SOL    HW2 7242   1.540   3.031   0.978
 2115SOL     OW 7243   2.034   3.569   2.801
 2115SOL    HW1 7244   1.966   3.528   2.740
 2115SOL    HW2 7245   2.080   3.644   2.754
 2116SOL     OW 7246   0.175   4.997   3.374
 2116SOL    HW1 7247   0.128   5.023   3.459
 2116SOL    HW2 7248   0.210   4.904   3.383
 2117SOL     OW 7249   6.697   4.257   1.451
 2117SOL    HW1 7250   6.707   4.224   1.358
 2117SOL    HW2 7251   6.723   4.185   1.515
 2118SOL     OW 7252   6.633   3.368   1.749
 2118SOL    HW1 7253   6.687   3.288   1.721
 2118SOL    HW2 7254   6.556   3.338   1.806
 2119SOL     OW 7255   2.696   5.706   1.390
 2119SOL    HW1 7256   2.605   5.669   1.375
 2119SOL    HW2 7257   2.710   5.721   1.488
 2120SOL     OW 7258   0.531   4.893   4.098
 2120SOL    HW1 7259   0.517   4.796   4.079
 2120SOL    HW2 7260   0.480   4.947   4.031
 2121SOL     OW 7261   1.018   4.167   5.302
 2121SOL    HW1 7262   0.961   4.119   5.367
 2121SOL    HW2 7263   1.060   4.101   5.239
 2122SOL     OW 7264   5.673   4.203   6.423
 2122SOL    HW1 7265   5.724   4.205   6.337
 2122SOL    HW2 7266   5.575   4.211   6.404
 2123SOL     OW 7267   6.763   5.411   1.785
 2123SOL    HW1 7268   6.674   5.455   1.774
 2123SOL    HW2 7269   6.820   5.430   1.705
 2124SOL     OW 7270   2.818   1.834   1.842
 2124SOL    HW1 7271   2.760   1.916   1.838
 2124SOL    HW2 7272   2.912   1.859   1.822
 2125SOL     OW 7273   2.001   0.598   1.307
 2125SOL    HW1 7274   2.095   0.617   1.278
 2125SOL    HW2 7275   1.969   0.515   1.262
 2126SOL     OW 7276   3.931   0.810   0.049
 2126SOL    HW1 7277   3.910   0.907   0.035
 2126SOL    HW2 7278   3.911   0.785   0.144
 2127SOL     OW 7279   6.708   2.961   4.569
 2127SOL    HW1 7280   6.747   2.934   4.480
 2127SOL    HW2 7281   6.735   3.054   4.591
 2128SOL     OW 7282   6.343   3.529   3.919
 2128SOL    HW1 7283   6.409   3.563   3.852
 2128SOL    HW2 7284   6.365   3.435   3.943
 2129SOL     OW 7285   4.293   3.303   5.612
 2129SOL    HW1 7286   4.364   3.281   5.680
 2129SOL    HW2 7287   4.324   3.273   5.522
 2130SOL     OW 7288   3.116   0.816   1.993
 2130SOL    HW1 7289   3.144   0.773   2.079
 2130SOL    HW2 7290   3.103   0.914   2.008
 2131SOL     OW 7291   6.563   0.035   0.305
 2131SOL    HW1 7292   6.608   6.977   0.288
 2131SOL    HW2 7293   6.632   0.106   0.316
 2132SOL     OW 7294   4.158   2.124   1.367
 2132SOL    HW1 7295   4.126   2.065   1.441
 2132SOL    HW2 7296   4.100   2.109   1.286
 2133SOL     OW 7297   2.599   3.147   6.276
 2133SOL    HW1 7298   2.678   3.208   6.283
 2133SOL    HW2 7299   2.565   3.127   6.368
 2134SOL     OW 7300   0.612   2.931   6.794
 2134SOL    HW1 7301   0.532   2.981   6.829
 2134SOL    HW2 7302   0.645   2.976   6.711
 2135SOL     OW 7303   0.517   3.745   4.375
 2135SOL    HW1 7304   0.525   3.779   4.281
 2135SOL    HW2 7305   0.422   3.721   4.393
 2136SOL     OW 7306   1.816   4.060   2.777
 2136SOL    HW1 7307   1.759   4.127   2.823
 2136SOL    HW2 7308   1.788   4.051   2.681
 2137SOL     OW 7309   2.743   5.439   5.269
 2137SOL    HW1 7310   2.678   5.427   5.345
 2137SOL    HW2 7311   2.806   5.513   5.291
 2138SOL     OW 7312   6.573   6.538   2.908
 2138SOL    HW1 7313   6.660   6.586   2.898
 2138SOL    HW2 7314   6.545   6.503   2.819
 2139SOL     OW 7315   4.503   0.872   3.490
 2139SOL    HW1 7316   4.555   0.789   3.508
 2139SOL    HW2 7317   4.465   0.906   3.576
 2140SOL     OW 7318   3.169   0.487   4.142
 2140SOL    HW1 7319   3.242   0.554   4.128
 2140SOL    HW2 7320   3.194   0.400   4.099
 2141SOL     OW 7321   6.417   3.043   2.539
 2141SOL    HW1 7322   6.425   3.001   2.449
 2141SOL    HW2 7323   6.508   3.052   2.580
 2142SOL     OW 7324   1.441   1.259   3.361
 2142SOL    HW1 7325   1.440   1.232   3.457
 2142SOL    HW2 7326   1.404   1.351   3.351
 2143SOL     OW 7327   2.994   4.880   1.244
 2143SOL    HW1 7328   3.070   4.904   1.184
 2143SOL    HW2 7329   2.908   4.887   1.194
 2144SOL     OW 7330   0.707   5.323   4.276
 2144SOL    HW1 7331   0.762   5.400   4.309
 2144SOL    HW2 7332   0.648   5.289   4.350
 2145SOL     OW 7333   3.998   6.344   4.251
 2145SOL    HW1 7334   4.020   6.292   4.333
 2145SOL    HW2 7335   3.899   6.353   4.242
 2146SOL     OW 7336   2.258   3.149   1.076
 2146SOL    HW1 7337   2.329   3.193   1.132
 2146SOL    HW2 7338   2.193   3.102   1.136
 2147SOL     OW 7339   5.945   1.581   6.513
 2147SOL    HW1 7340   5.890   1.534   6.582
 2147SOL    HW2 7341   5.954   1.677   6.538
 2148SOL     OW 7342   6.127   3.326   6.184
 2148SOL    HW1 7343   6.182   3.253   6.225
 2148SOL    HW2 7344   6.188   3.393   6.142
 2149SOL     OW 7345   2.691   1.834   0.856
 2149SOL    HW1 7346   2.667   1.763   0.789
 2149SOL    HW2 7347   2.607   1.878   0.889
 2150SOL     OW 7348   2.303   2.686   2.358
 2150SOL    HW1 7349   2.388   2.660   2.311
 2150SOL    HW2 7350   2.323   2.706   2.454
 2151SOL     OW 7351   2.016   6.771   6.522
 2151SOL    HW1 7352   2.027   6.777   6.622
 2151SOL    HW2 7353   1.955   6.844   6.491
 2152SOL     OW 7354   3.747   4.960   2.188
 2152SOL    HW1 7355   3.720   4.997   2.277
 2152SOL    HW2 7356   3.687   4.883   2.165
 2153SOL     OW 7357   4.280   1.656   2.643
 2153SOL    HW1 7358   4.220   1.647   2.722
 2153SOL    HW2 7359   4.230   1.697   2.567
 2154SOL     OW 7360   4.565   0.389   4.641
 2154SOL    HW1 7361   4.554   0.415   4.737
 2154SOL    HW2 7362   4.654   0.420   4.609
 2155SOL     OW 7363   4.276   0.100   0.798
 2155SOL    HW1 7364   4.306   0.019   0.746
 2155SOL    HW2 7365   4.178   0.112   0.786
 2156SOL     OW 7366   0.069   1.153   4.977
 2156SOL    HW1 7367   0.097   1.246   4.953
 2156SOL    HW2 7368   0.149   1.098   4.998
 2157SOL     OW 7369   5.984   6.458   3.091
 2157SOL    HW1 7370   5.919   6.456   3.167
 2157SOL    HW2 7371   6.023   6.366   3.079
 2158SOL     OW 7372   3.822   6.105   1.019
 2158SOL    HW1 7373   3.796   6.201   1.022
 2158SOL    HW2 7374   3.746   6.051   0.982
 2159SOL     OW 7375   1.561   1.095   4.902
 2159SOL    HW1 7376   1.531   1.039   4.824
 2159SOL    HW2 7377   1.653   1.128   4.885
 2160SOL     OW 7378   4.756   4.218   0.030
 2160SOL    HW1 7379   4.784   4.264   6.975
 2160SOL    HW2 7380   4.733   4.122   0.009
 2161SOL     OW 7381   5.783   4.688   2.105
 2161SOL    HW1 7382   5.752   4.632   2.028
 2161SOL    HW2 7383   5.810   4.629   2.181
 2162SOL     OW 7384   3.524   0.229   2.100
 2162SOL    HW1 7385   3.493   0.278   2.181
 2162SOL    HW2 7386   3.445   0.185   2.056
 2163SOL     OW 7387   1.434   4.593   0.597
 2163SOL    HW1 7388   1.531   4.598   0.575
 2163SOL    HW2 7389   1.414   4.503   0.637
 2164SOL     OW 7390   1.945   2.049   6.418
 2164SOL    HW1 7391   2.005   2.124   6.392
 2164SOL    HW2 7392   1.902   2.010   6.337
 2165SOL     OW 7393   6.910   2.236   3.465
 2165SOL    HW1 7394   6.934   2.216   3.370
 2165SOL    HW2 7395   6.985   2.210   3.525
 2166SOL     OW 7396   1.244   3.448   4.179
 2166SOL    HW1 7397   1.224   3.402   4.265
 2166SOL    HW2 7398   1.165   3.503   4.151
 2167SOL     OW 7399   1.673   2.428   3.888
 2167SOL    HW1 7400   1.612   2.468   3.820
 2167SOL    HW2 7401   1.712   2.500   3.945
 2168SOL     OW 7402   0.885   1.908   3.286
 2168SOL    HW1 7403   0.802   1.856   3.266
 2168SOL    HW2 7404   0.865   2.005   3.283
 2169SOL     OW 7405   5.577   1.709   0.257
 2169SOL    HW1 7406   5.601   1.762   0.176
 2169SOL    HW2 7407   5.617   1.618   0.250
 2170SOL     OW 7408   6.594   4.153   4.937
 2170SOL    HW1 7409   6.652   4.129   4.859
 2170SOL    HW2 7410   6.499   4.153   4.908
 2171SOL     OW 7411   0.470   5.818   1.503
 2171SOL    HW1 7412   0.486   5.916   1.506
 2171SOL    HW2 7413   0.541   5.775   1.447
 2172SOL     OW 7414   2.043   1.873   6.600
 2172SOL    HW1 7415   1.990   1.789   6.607
 2172SOL    HW2 7416   1.993   1.940   6.546
 2173SOL     OW 7417   4.516   0.375   5.524
 2173SOL    HW1 7418   4.485   0.283   5.546
 2173SOL    HW2 7419   4.483   0.401   5.433
 2174SOL     OW 7420   6.699   5.433   5.017
 2174SOL    HW1 7421   6.681   5.435   5.116
 2174SOL    HW2 7422   6.612   5.431   4.968
 2175SOL     OW 7423   1.501   3.292   4.301
 2175SOL    HW1 7424   1.403   3.291   4.319
 2175SOL    HW2 7425   1.519   3.256   4.209
 2176SOL     OW 7426   5.911   2.027   0.793
 2176SOL    HW1 7427   5.820   1.986   0.790
 2176SOL    HW2 7428   5.979   1.957   0.815
 2177SOL     OW 7429   0.105   1.369   2.656
 2177SOL    HW1 7430   0.109   1.448   2.717
 2177SOL    HW2 7431   0.038   1.303   2.691
 2178SOL     OW 7432   1.458   1.596   2.448
 2178SOL    HW1 7433   1.439   1.617   2.352
 2178SOL    HW2 7434   1.481   1.680   2.497
 2179SOL     OW 7435   1.803   4.888   5.951
 2179SOL    HW1 7436   1.748   4.861   6.030
 2179SOL    HW2 7437   1.851   4.974   5.972
 2180SOL     OW 7438   1.435   2.579   2.385
 2180SOL    HW1 7439   1.474   2.653   2.441
 2180SOL    HW2 7440   1.478   2.579   2.295
 2181SOL     OW 7441   4.459   4.877   4.447
 2181SOL    HW1 7442   4.537   4.855   4.389
 2181SOL    HW2 7443   4.489   4.884   4.542
 2182SOL     OW 7444   1.924   4.284   3.367
 2182SOL    HW1 7445   1.870   4.216   3.318
 2182SOL    HW2 7446   1.887   4.295   3.459
 2183SOL     OW 7447   2.364   3.919   0.120
 2183SOL    HW1 7448   2.431   3.933   0.192
 2183SOL    HW2 7449   2.355   4.003   0.066
 2184SOL     OW 7450   4.273   0.587   6.006
 2184SOL    HW1 7451   4.360   0.622   6.040
 2184SOL    HW2 7452   4.198   0.626   6.060
 2185SOL     OW 7453   0.789   0.466   0.400
 2185SOL    HW1 7454   0.841   0.521   0.466
 2185SOL    HW2 7455   0.796   0.508   0.309
 2186SOL     OW 7456   6.367   5.548   6.960
 2186SOL    HW1 7457   6.444   5.522   6.903
 2186SOL    HW2 7458   6.340   5.642   6.940
 2187SOL     OW 7459   6.996   6.044   2.384
 2187SOL    HW1 7460   6.980   6.139   2.411
 2187SOL    HW2 7461   0.061   6.020   2.404
 2188SOL     OW 7462   0.731   5.766   5.022
 2188SOL    HW1 7463   0.671   5.689   5.001
 2188SOL    HW2 7464   0.799   5.737   5.090
 2189SOL     OW 7465   2.222   6.975   1.941
 2189SOL    HW1 7466   2.291   6.974   1.869
 2189SOL    HW2 7467   2.196   0.039   1.960
 2190SOL     OW 7468   6.290   3.601   1.957
 2190SOL    HW1 7469   6.356   3.535   1.994
 2190SOL    HW2 7470   6.294   3.600   1.857
 2191SOL     OW 7471   2.325   2.153   5.908
 2191SOL    HW1 7472   2.304   2.232   5.966
 2191SOL    HW2 7473   2.376   2.184   5.828
 2192SOL     OW 7474   5.191   1.150   2.653
 2192SOL    HW1 7475   5.207   1.228   2.713
 2192SOL    HW2 7476   5.178   1.182   2.559
 2193SOL     OW 7477   6.254   6.938   6.721
 2193SOL    HW1 7478   6.240   6.971   6.815
 2193SOL    HW2 7479   6.308   6.854   6.724
 2194SOL     OW 7480   1.906   4.050   6.464
 2194SOL    HW1 7481   1.906   4.054   6.563
 2194SOL    HW2 7482   1.958   3.970   6.433
 2195SOL     OW 7483   6.802   6.823   5.532
 2195SOL    HW1 7484   6.754   6.748   5.576
 2195SOL    HW2 7485   6.751   6.854   5.452
 2196SOL     OW 7486   3.427   0.499   4.796
 2196SOL    HW1 7487   3.481   0.536   4.872
 2196SOL    HW2 7488   3.385   0.413   4.825
 2197SOL     OW 7489   2.626   3.633   6.423
 2197SOL    HW1 7490   2.674   3.719   6.439
 2197SOL    HW2 7491   2.614   3.620   6.325
 2198SOL     OW 7492   5.466   0.274   1.227
 2198SOL    HW1 7493   5.372   0.308   1.231
 2198SOL    HW2 7494   5.522   0.323   1.295
 2199SOL     OW 7495   5.128   6.368   3.848
 2199SOL    HW1 7496   5.053   6.394   3.909
 2199SOL    HW2 7497   5.090   6.337   3.760
 2200SOL     OW 7498   1.968   1.916   4.114
 2200SOL    HW1 7499   1.936   1.917   4.019
 2200SOL    HW2 7500   1.932   1.996   4.162
 2201SOL     OW 7501   6.234   3.011   3.375
 2201SOL    HW1 7502   6.264   3.076   3.306
 2201SOL    HW2 7503   6.137   2.990   3.362
 2202SOL     OW 7504   3.594   5.709   2.402
 2202SOL    HW1 7505   3.535   5.787   2.382
 2202SOL    HW2 7506   3.684   5.724   2.363
 2203SOL     OW 7507   2.284   3.457   1.252
 2203SOL    HW1 7508   2.200   3.412   1.283
 2203SOL    HW2 7509   2.288   3.456   1.152
 2204SOL     OW 7510   4.791   1.756   1.084
 2204SOL    HW1 7511   4.811   1.658   1.084
 2204SOL    HW2 7512   4.720   1.776   1.151
 2205SOL     OW 7513   0.945   6.490   6.575
 2205SOL    HW1 7514   0.988   6.531   6.494
 2205SOL    HW2 7515   0.960   6.550   6.654
 2206SOL     OW 7516   3.374   5.161   5.710
 2206SOL    HW1 7517   3.457   5.210   5.739
 2206SOL    HW2 7518   3.299   5.186   5.770
 2207SOL     OW 7519   2.575   5.064   6.350
 2207SOL    HW1 7520   2.556   5.141   6.290
 2207SOL    HW2 7521   2.672   5.038   6.342
 2208SOL     OW 7522   1.444   5.100   3.128
 2208SOL    HW1 7523   1.462   5.136   3.220
 2208SOL    HW2 7524   1.359   5.048   3.129
 2209SOL     OW 7525   1.588   0.257   5.557
 2209SOL    HW1 7526   1.531   0.176   5.561
 2209SOL    HW2 7527   1.673   0.236   5.508
 2210SOL     OW 7528   0.520   4.184   4.405
 2210SOL    HW1 7529   0.577   4.226   4.476
 2210SOL    HW2 7530   0.576   4.122   4.350
 2211SOL     OW 7531   6.539   0.428   0.501
 2211SOL    HW1 7532   6.633   0.444   0.530
 2211SOL    HW2 7533   6.536   0.417   0.402
 2212SOL     OW 7534   2.469   6.289   0.557
 2212SOL    HW1 7535   2.483   6.217   0.624
 2212SOL    HW2 7536   2.381   6.275   0.511
 2213SOL     OW 7537   3.291   1.399   5.179
 2213SOL    HW1 7538   3.317   1.471   5.114
 2213SOL    HW2 7539   3.193   1.380   5.169
 2214SOL     OW 7540   2.992   4.009   4.785
 2214SOL    HW1 7541   2.950   3.928   4.744
 2214SOL    HW2 7542   3.074   4.034   4.733
 2215SOL     OW 7543   5.638   1.413   0.210
 2215SOL    HW1 7544   5.723   1.437   0.163
 2215SOL    HW2 7545   5.653   1.334   0.269
 2216SOL     OW 7546   1.436   0.803   7.001
 2216SOL    HW1 7547   1.405   0.895   7.022
 2216SOL    HW2 7548   1.529   0.790   0.007
 2217SOL     OW 7549   3.788   6.984   2.383
 2217SOL    HW1 7550   3.755   6.993   2.477
 2217SOL    HW2 7551   3.799   6.888   2.361
 2218SOL     OW 7552   6.770   5.316   0.095
 2218SOL    HW1 7553   6.746   5.389   0.158
 2218SOL    HW2 7554   6.757   5.227   0.140
 2219SOL     OW 7555   5.582   1.494   0.563
 2219SOL    HW1 7556   5.586   1.591   0.540
 2219SOL    HW2 7557   5.609   1.481   0.659
 2220SOL     OW 7558   2.244   5.961   5.247
 2220SOL    HW1 7559   2.211   5.868   5.234
 2220SOL    HW2 7560   2.318   5.961   5.314
 2221SOL     OW 7561   5.879   1.519   5.529
 2221SOL    HW1 7562   5.788   1.480   5.521
 2221SOL    HW2 7563   5.947   1.453   5.499
 2222SOL     OW 7564   5.709   0.531   0.905
 2222SOL    HW1 7565   5.758   0.454   0.948
 2222SOL    HW2 7566   5.646   0.571   0.971
 2223SOL     OW 7567   5.648   1.244   5.866
 2223SOL    HW1 7568   5.690   1.158   5.838
 2223SOL    HW2 7569   5.710   1.295   5.925
 2224SOL     OW 7570   6.671   3.914   0.571
 2224SOL    HW1 7571   6.609   3.876   0.502
 2224SOL    HW2 7572   6.694   3.843   0.637
 2225SOL     OW 7573   6.320   6.862   4.236
 2225SOL    HW1 7574   6.310   6.911   4.323
 2225SOL    HW2 7575   6.235   6.871   4.183
 2226SOL     OW 7576   3.718   5.941   0.681
 2226SOL    HW1 7577   3.709   5.938   0.781
 2226SOL    HW2 7578   3.709   6.036   0.649
 2227SOL     OW 7579   5.720   2.768   0.181
 2227SOL    HW1 7580   5.815   2.800   0.181
 2227SOL    HW2 7581   5.690   2.756   0.276
 2228SOL     OW 7582   4.441   5.398   1.309
 2228SOL    HW1 7583   4.388   5.480   1.327
 2228SOL    HW2 7584   4.490   5.408   1.222
 2229SOL     OW 7585   4.440   2.440   5.525
 2229SOL    HW1 7586   4.425   2.388   5.609
 2229SOL    HW2 7587   4.409   2.534   5.539
 2230SOL     OW 7588   5.979   6.168   0.474
 2230SOL    HW1 7589   6.059   6.199   0.423
 2230SOL    HW2 7590   5.896   6.183   0.419
 2231SOL     OW 7591   0.244   1.010   1.563
 2231SOL    HW1 7592   0.289   1.097   1.542
 2231SOL    HW2 7593   0.146   1.024   1.568
 2232SOL     OW 7594   0.731   1.771   4.631
 2232SOL    HW1 7595   0.707   1.692   4.575
 2232SOL    HW2 7596   0.684   1.852   4.595
 2233SOL     OW 7597   2.170   3.131   0.653
 2233SOL    HW1 7598   2.133   3.183   0.730
 2233SOL    HW2 7599   2.096   3.104   0.592
 2234SOL     OW 7600   4.235   1.622   1.002
 2234SOL    HW1 7601   4.322   1.575   0.987
 2234SOL    HW2 7602   4.236   1.710   0.955
 2235SOL     OW 7603   3.177   0.517   1.579
 2235SOL    HW1 7604   3.132   0.556   1.498
 2235SOL    HW2 7605   3.152   0.570   1.660
 2236SOL     OW 7606   2.059   4.047   6.220
 2236SOL    HW1 7607   2.044   4.141   6.189
 2236SOL    HW2 7608   2.000   3.985   6.167
 2237SOL     OW 7609   5.970   4.352   3.950
 2237SOL    HW1 7610   5.929   4.398   4.029
 2237SOL    HW2 7611   6.007   4.419   3.887
 2238SOL     OW 7612   4.419   5.353   1.737
 2238SOL    HW1 7613   4.340   5.333   1.680
 2238SOL    HW2 7614   4.470   5.268   1.754
 2239SOL     OW 7615   3.864   4.884   4.202
 2239SOL    HW1 7616   3.809   4.804   4.180
 2239SOL    HW2 7617   3.809   4.948   4.256
 2240SOL     OW 7618   3.599   5.574   3.355
 2240SOL    HW1 7619   3.604   5.674   3.362
 2240SOL    HW2 7620   3.522   5.540   3.409
 2241SOL     OW 7621   0.399   5.704   3.149
 2241SOL    HW1 7622   0.305   5.739   3.147
 2241SOL    HW2 7623   0.418   5.655   3.064
 2242SOL     OW 7624   5.458   3.293   2.681
 2242SOL    HW1 7625   5.361   3.313   2.696
 2242SOL    HW2 7626   5.504   3.375   2.647
 2243SOL     OW 7627   1.681   6.794   5.671
 2243SOL    HW1 7628   1.707   6.851   5.593
 2243SOL    HW2 7629   1.764   6.761   5.717
 2244SOL     OW 7630   2.490   6.482   1.518
 2244SOL    HW1 7631   2.540   6.493   1.432
 2244SOL    HW2 7632   2.431   6.402   1.511
 2245SOL     OW 7633   0.431   1.758   1.524
 2245SOL    HW1 7634   0.331   1.760   1.516
 2245SOL    HW2 7635   0.468   1.683   1.470
 2246SOL     OW 7636   1.915   0.547   4.269
 2246SOL    HW1 7637   1.891   0.470   4.329
 2246SOL    HW2 7638   1.994   0.595   4.307
 2247SOL     OW 7639   3.441   2.875   3.509
 2247SOL    HW1 7640   3.514   2.893   3.574
 2247SOL    HW2 7641   3.452   2.934   3.429
 2248SOL     OW 7642   6.348   3.768   5.419
 2248SOL    HW1 7643   6.352   3.675   5.383
 2248SOL    HW2 7644   6.355   3.766   5.519
 2249SOL     OW 7645   5.640   6.577   3.773
 2249SOL    HW1 7646   5.554   6.525   3.772
 2249SOL    HW2 7647   5.662   6.603   3.868
 2250SOL     OW 7648   3.100   3.566   5.331
 2250SOL    HW1 7649   3.123   3.490   5.270
 2250SOL    HW2 7650   3.004   3.591   5.318
 2251SOL     OW 7651   5.084   0.443   6.660
 2251SOL    HW1 7652   5.180   0.469   6.648
 2251SOL    HW2 7653   5.047   0.412   6.573
 2252SOL     OW 7654   4.317   2.353   2.563
 2252SOL    HW1 7655   4.237   2.304   2.597
 2252SOL    HW2 7656   4.307   2.372   2.466
 2253SOL     OW 7657   0.080   4.107   0.053
 2253SOL    HW1 7658   7.029   4.075   0.003
 2253SOL    HW2 7659   0.159   4.107   7.021
 2254SOL     OW 7660   3.566   2.903   4.853
 2254SOL    HW1 7661   3.647   2.872   4.902
 2254SOL    HW2 7662   3.573   2.878   4.756
 2255SOL     OW 7663   4.001   3.224   5.876
 2255SOL    HW1 7664   3.914   3.274   5.871
 2255SOL    HW2 7665   4.025   3.192   5.785
 2256SOL     OW 7666   4.788   6.158   2.383
 2256SOL    HW1 7667   4.792   6.251   2.345
 2256SOL    HW2 7668   4.871   6.142   2.438
 2257SOL     OW 7669   0.196   2.048   4.124
 2257SOL    HW1 7670   0.272   2.016   4.069
 2257SOL    HW2 7671   0.126   2.089   4.064
 2258SOL     OW 7672   1.619   5.086   4.209
 2258SOL    HW1 7673   1.681   5.094   4.287
 2258SOL    HW2 7674   1.654   5.140   4.133
 2259SOL     OW 7675   5.045   3.423   6.052
 2259SOL    HW1 7676   5.125   3.473   6.020
 2259SOL    HW2 7677   5.004   3.471   6.130
 2260SOL     OW 7678   0.606   4.637   1.284
 2260SOL    HW1 7679   0.526   4.577   1.287
 2260SOL    HW2 7680   0.667   4.616   1.361
 2261SOL     OW 7681   5.602   4.898   0.342
 2261SOL    HW1 7682   5.572   4.985   0.381
 2261SOL    HW2 7683   5.646   4.842   0.413
 2262SOL     OW 7684   6.025   0.782   3.691
 2262SOL    HW1 7685   6.058   0.850   3.756
 2262SOL    HW2 7686   6.038   0.816   3.598
 2263SOL     OW 7687   3.173   5.832   6.836
 2263SOL    HW1 7688   3.112   5.904   6.801
 2263SOL    HW2 7689   3.262   5.872   6.857
 2264SOL     OW 7690   2.850   5.138   6.878
 2264SOL    HW1 7691   2.751   5.132   6.893
 2264SOL    HW2 7692   2.869   5.208   6.809
 2265SOL     OW 7693   1.696   0.739   3.869
 2265SOL    HW1 7694   1.684   0.639   3.870
 2265SOL    HW2 7695   1.776   0.763   3.923
 2266SOL     OW 7696   5.160   1.924   0.017
 2266SOL    HW1 7697   5.111   1.967   6.972
 2266SOL    HW2 7698   5.108   1.935   0.102
 2267SOL     OW 7699   4.689   2.128   4.802
 2267SOL    HW1 7700   4.770   2.111   4.746
 2267SOL    HW2 7701   4.661   2.223   4.793
 2268SOL     OW 7702   6.311   4.305   0.081
 2268SOL    HW1 7703   6.385   4.365   0.110
 2268SOL    HW2 7704   6.332   4.211   0.107
 2269SOL     OW 7705   6.884   4.766   5.523
 2269SOL    HW1 7706   6.935   4.845   5.491
 2269SOL    HW2 7707   6.905   4.751   5.620
 2270SOL     OW 7708   2.856   2.774   5.671
 2270SOL    HW1 7709   2.758   2.759   5.659
 2270SOL    HW2 7710   2.882   2.753   5.765
 2271SOL     OW 7711   5.548   4.214   0.241
 2271SOL    HW1 7712   5.609   4.135   0.254
 2271SOL    HW2 7713   5.580   4.290   0.299
 2272SOL     OW 7714   6.323   2.505   6.394
 2272SOL    HW1 7715   6.339   2.462   6.306
 2272SOL    HW2 7716   6.288   2.598   6.381
 2273SOL     OW 7717   1.629   1.758   1.984
 2273SOL    HW1 7718   1.671   1.811   2.058
 2273SOL    HW2 7719   1.585   1.677   2.022
 2274SOL     OW 7720   0.711   2.011   6.011
 2274SOL    HW1 7721   0.667   2.095   6.042
 2274SOL    HW2 7722   0.803   2.005   6.050
 2275SOL     OW 7723   6.354   6.445   4.409
 2275SOL    HW1 7724   6.419   6.369   4.410
 2275SOL    HW2 7725   6.341   6.478   4.315
 2276SOL     OW 7726   2.295   5.755   1.591
 2276SOL    HW1 7727   2.365   5.824   1.609
 2276SOL    HW2 7728   2.313   5.675   1.649
 2277SOL     OW 7729   4.109   3.698   4.551
 2277SOL    HW1 7730   4.127   3.744   4.639
 2277SOL    HW2 7731   4.092   3.601   4.567
 2278SOL     OW 7732   6.334   4.789   4.622
 2278SOL    HW1 7733   6.302   4.823   4.710
 2278SOL    HW2 7734   6.433   4.773   4.626
 2279SOL     OW 7735   5.691   6.664   5.576
 2279SOL    HW1 7736   5.651   6.573   5.587
 2279SOL    HW2 7737   5.703   6.684   5.478
 2280SOL     OW 7738   6.830   6.503   4.418
 2280SOL    HW1 7739   6.868   6.453   4.496
 2280SOL    HW2 7740   6.746   6.550   4.447
 2281SOL     OW 7741   3.344   1.359   1.734
 2281SOL    HW1 7742   3.354   1.459   1.733
 2281SOL    HW2 7743   3.296   1.330   1.651
 2282SOL     OW 7744   5.889   0.007   5.428
 2282SOL    HW1 7745   5.924   0.047   5.513
 2282SOL    HW2 7746   5.800   0.046   5.407
 2283SOL     OW 7747   0.941   5.246   1.166
 2283SOL    HW1 7748   0.970   5.307   1.092
 2283SOL    HW2 7749   0.928   5.299   1.250
 2284SOL     OW 7750   1.597   2.636   0.082
 2284SOL    HW1 7751   1.648   2.614   0.165
 2284SOL    HW2 7752   1.598   2.735   0.068
 2285SOL     OW 7753   1.957   2.631   1.155
 2285SOL    HW1 7754   2.032   2.569   1.129
 2285SOL    HW2 7755   1.979   2.675   1.242
 2286SOL     OW 7756   5.997   0.146   3.641
 2286SOL    HW1 7757   6.022   0.214   3.710
 2286SOL    HW2 7758   6.072   0.082   3.629
 2287SOL     OW 7759   2.163   6.995   3.338
 2287SOL    HW1 7760   2.127   0.030   3.406
 2287SOL    HW2 7761   2.112   6.909   3.344
 2288SOL     OW 7762   6.029   4.959   4.432
 2288SOL    HW1 7763   6.032   5.036   4.497
 2288SOL    HW2 7764   6.032   4.873   4.483
 2289SOL     OW 7765   0.920   4.723   1.263
 2289SOL    HW1 7766   0.882   4.671   1.339
 2289SOL    HW2 7767   0.847   4.771   1.215
 2290SOL     OW 7768   0.864   3.735   0.679
 2290SOL    HW1 7769   0.905   3.686   0.601
 2290SOL    HW2 7770   0.835   3.826   0.649
 2291SOL     OW 7771   2.263   2.733   5.757
 2291SOL    HW1 7772   2.256   2.669   5.681
 2291SOL    HW2 7773   2.358   2.763   5.768
 2292SOL     OW 7774   0.257   2.610   4.603
 2292SOL    HW1 7775   0.275   2.574   4.694
 2292SOL    HW2 7776   0.168   2.658   4.603
 2293SOL     OW 7777   4.725   5.846   1.880
 2293SOL    HW1 7778   4.800   5.844   1.946
 2293SOL    HW2 7779   4.666   5.924   1.899
 2294SOL     OW 7780   3.094   0.166   0.015
 2294SOL    HW1 7781   3.055   0.155   6.954
 2294SOL    HW2 7782   3.020   0.181   0.081
 2295SOL     OW 7783   0.602   2.082   3.192
 2295SOL    HW1 7784   0.514   2.099   3.236
 2295SOL    HW2 7785   0.602   1.990   3.152
 2296SOL     OW 7786   4.618   5.425   0.775
 2296SOL    HW1 7787   4.715   5.450   0.780
 2296SOL    HW2 7788   4.609   5.337   0.729
 2297SOL     OW 7789   3.994   4.230   5.294
 2297SOL    HW1 7790   3.990   4.137   5.257
 2297SOL    HW2 7791   4.080   4.273   5.264
 2298SOL     OW 7792   3.847   2.776   1.467
 2298SOL    HW1 7793   3.873   2.746   1.376
 2298SOL    HW2 7794   3.748   2.772   1.477
 2299SOL     OW 7795   4.928   6.380   5.307
 2299SOL    HW1 7796   4.946   6.282   5.296
 2299SOL    HW2 7797   4.849   6.405   5.251
 2300SOL     OW 7798   2.169   5.647   2.385
 2300SOL    HW1 7799   2.130   5.651   2.293
 2300SOL    HW2 7800   2.114   5.703   2.447
 2301SOL     OW 7801   3.373   3.048   3.038
 2301SOL    HW1 7802   3.380   3.076   2.942
 2301SOL    HW2 7803   3.433   2.969   3.054
 2302SOL     OW 7804   3.793   0.206   0.856
 2302SOL    HW1 7805   3.783   0.305   0.845
 2302SOL    HW2 7806   3.719   0.172   0.913
 2303SOL     OW 7807   2.120   2.949   6.037
 2303SOL    HW1 7808   2.065   2.866   6.038
 2303SOL    HW2 7809   2.150   2.968   5.944
 2304SOL     OW 7810   4.643   6.942   3.872
 2304SOL    HW1 7811   4.705   6.865   3.889
 2304SOL    HW2 7812   4.552   6.907   3.851
 2305SOL     OW 7813   2.579   6.595   3.119
 2305SOL    HW1 7814   2.655   6.659   3.106
 2305SOL    HW2 7815   2.497   6.632   3.075
 2306SOL     OW 7816   3.028   5.088   2.539
 2306SOL    HW1 7817   2.936   5.125   2.535
 2306SOL    HW2 7818   3.029   5.005   2.596
 2307SOL     OW 7819   6.946   4.368   2.505
 2307SOL    HW1 7820   6.861   4.366   2.453
 2307SOL    HW2 7821   7.024   4.355   2.443
 2308SOL     OW 7822   1.314   6.014   0.437
 2308SOL    HW1 7823   1.231   5.960   0.453
 2308SOL    HW2 7824   1.384   5.987   0.503
 2309SOL     OW 7825   1.373   0.155   6.457
 2309SOL    HW1 7826   1.400   0.121   6.367
 2309SOL    HW2 7827   1.274   0.168   6.460
 2310SOL     OW 7828   5.076   6.252   1.269
 2310SOL    HW1 7829   5.058   6.337   1.219
 2310SOL    HW2 7830   5.022   6.178   1.229
 2311SOL     OW 7831   2.096   6.153   2.126
 2311SOL    HW1 7832   2.105   6.155   2.225
 2311SOL    HW2 7833   2.000   6.162   2.100
 2312SOL     OW 7834   3.883   6.659   4.415
 2312SOL    HW1 7835   3.890   6.580   4.475
 2312SOL    HW2 7836   3.815   6.641   4.344
 2313SOL     OW 7837   5.093   5.398   1.761
 2313SOL    HW1 7838   5.043   5.425   1.679
 2313SOL    HW2 7839   5.151   5.319   1.741
 2314SOL     OW 7840   5.639   0.067   5.013
 2314SOL    HW1 7841   5.628   7.000   4.989
 2314SOL    HW2 7842   5.736   0.086   5.027
 2315SOL     OW 7843   4.437   3.233   5.387
 2315SOL    HW1 7844   4.407   3.138   5.386
 2315SOL    HW2 7845   4.537   3.237   5.385
 2316SOL     OW 7846   3.072   0.830   4.329
 2316SOL    HW1 7847   3.045   0.750   4.276
 2316SOL    HW2 7848   2.994   0.863   4.382
 2317SOL     OW 7849   0.148   6.484   3.427
 2317SOL    HW1 7850   0.166   6.577   3.393
 2317SOL    HW2 7851   0.050   6.466   3.419
 2318SOL     OW 7852   2.303   2.823   4.494
 2318SOL    HW1 7853   2.326   2.764   4.572
 2318SOL    HW2 7854   2.300   2.918   4.523
 2319SOL     OW 7855   2.213   5.377   4.137
 2319SOL    HW1 7856   2.246   5.452   4.195
 2319SOL    HW2 7857   2.286   5.351   4.073
 2320SOL     OW 7858   0.466   2.996   4.758
 2320SOL    HW1 7859   0.534   2.925   4.734
 2320SOL    HW2 7860   0.375   2.963   4.735
 2321SOL     OW 7861   2.108   6.452   6.843
 2321SOL    HW1 7862   2.080   6.357   6.832
 2321SOL    HW2 7863   2.069   6.489   6.927
 2322SOL     OW 7864   1.464   2.906   4.183
 2322SOL    HW1 7865   1.393   2.836   4.187
 2322SOL    HW2 7866   1.449   2.964   4.103
 2323SOL     OW 7867   3.485   5.340   1.661
 2323SOL    HW1 7868   3.539   5.344   1.576
 2323SOL    HW2 7869   3.475   5.432   1.699
 2324SOL     OW 7870   6.849   6.035   0.947
 2324SOL    HW1 7871   6.804   6.111   0.900
 2324SOL    HW2 7872   6.780   5.973   0.984
 2325SOL     OW 7873   1.069   4.855   1.482
 2325SOL    HW1 7874   1.009   4.828   1.558
 2325SOL    HW2 7875   1.031   4.822   1.396
 2326SOL     OW 7876   4.001   5.223   6.274
 2326SOL    HW1 7877   4.018   5.157   6.348
 2326SOL    HW2 7878   3.925   5.282   6.300
 2327SOL     OW 7879   6.381   2.311   4.194
 2327SOL    HW1 7880   6.368   2.326   4.292
 2327SOL    HW2 7881   6.475   2.336   4.169
 2328SOL     OW 7882   2.033   1.881   3.003
 2328SOL    HW1 7883   1.952   1.924   3.043
 2328SOL    HW2 7884   2.013   1.852   2.910
 2329SOL     OW 7885   1.176   4.531   4.630
 2329SOL    HW1 7886   1.221   4.588   4.561
 2329SOL    HW2 7887   1.230   4.531   4.714
 2330SOL     OW 7888   1.294   3.726   1.539
 2330SOL    HW1 7889   1.321   3.822   1.547
 2330SOL    HW2 7890   1.195   3.719   1.536
 2331SOL     OW 7891   4.004   5.763   6.736
 2331SOL    HW1 7892   4.056   5.778   6.652
 2331SOL    HW2 7893   4.050   5.693   6.791
 2332SOL     OW 7894   5.405   1.492   5.742
 2332SOL    HW1 7895   5.405   1.440   5.828
 2332SOL    HW2 7896   5.342   1.569   5.750
 2333SOL     OW 7897   0.168   4.821   3.047
 2333SOL    HW1 7898   0.239   4.890   3.057
 2333SOL    HW2 7899   0.207   4.739   3.004
 2334SOL     OW 7900   2.044   0.452   0.516
 2334SOL    HW1 7901   2.068   0.467   0.420
 2334SOL    HW2 7902   2.042   0.540   0.564
 2335SOL     OW 7903   6.849   0.638   3.007
 2335SOL    HW1 7904   6.795   0.632   3.090
 2335SOL    HW2 7905   6.933   0.689   3.025
 2336SOL     OW 7906   4.603   2.699   4.871
 2336SOL    HW1 7907   4.565   2.678   4.781
 2336SOL    HW2 7908   4.571   2.630   4.937
 2337SOL     OW 7909   4.616   1.360   2.036
 2337SOL    HW1 7910   4.523   1.332   2.062
 2337SOL    HW2 7911   4.681   1.328   2.104
 2338SOL     OW 7912   0.996   2.389   5.527
 2338SOL    HW1 7913   1.067   2.330   5.488
 2338SOL    HW2 7914   0.908   2.368   5.484
 2339SOL     OW 7915   3.322   3.716   4.609
 2339SOL    HW1 7916   3.229   3.695   4.580
 2339SOL    HW2 7917   3.322   3.742   4.705
 2340SOL     OW 7918   6.330   4.442   0.555
 2340SOL    HW1 7919   6.282   4.463   0.469
 2340SOL    HW2 7920   6.281   4.370   0.604
 2341SOL     OW 7921   4.238   4.540   1.347
 2341SOL    HW1 7922   4.196   4.585   1.268
 2341SOL    HW2 7923   4.319   4.591   1.374
 2342SOL     OW 7924   0.041   0.187   5.299
 2342SOL    HW1 7925   0.039   0.107   5.359
 2342SOL    HW2 7926   7.010   0.172   5.221
 2343SOL     OW 7927   2.352   5.781   2.690
 2343SOL    HW1 7928   2.363   5.702   2.750
 2343SOL    HW2 7929   2.255   5.794   2.669
 2344SOL     OW 7930   1.939   6.445   0.040
 2344SOL    HW1 7931   1.913   6.349   0.050
 2344SOL    HW2 7932   1.926   6.492   0.128
 2345SOL     OW 7933   3.707   5.514   4.577
 2345SOL    HW1 7934   3.698   5.603   4.531
 2345SOL    HW2 7935   3.636   5.506   4.647
 2346SOL     OW 7936   4.377   2.937   5.430
 2346SOL    HW1 7937   4.420   2.884   5.357
 2346SOL    HW2 7938   4.414   2.907   5.519
 2347SOL     OW 7939   2.580   3.153   1.636
 2347SOL    HW1 7940   2.654   3.152   1.704
 2347SOL    HW2 7941   2.562   3.060   1.604
 2348SOL     OW 7942   2.635   6.990   3.896
 2348SOL    HW1 7943   2.724   6.948   3.882
 2348SOL    HW2 7944   2.576   6.970   3.817
 2349SOL     OW 7945   0.663   3.982   6.327
 2349SOL    HW1 7946   0.586   4.014   6.382
 2349SOL    HW2 7947   0.659   3.882   6.318
 2350SOL     OW 7948   4.691   6.729   6.435
 2350SOL    HW1 7949   4.786   6.760   6.426
 2350SOL    HW2 7950   4.630   6.798   6.395
 2351SOL     OW 7951   2.914   5.261   3.807
 2351SOL    HW1 7952   2.877   5.222   3.723
 2351SOL    HW2 7953   3.003   5.220   3.827
 2352SOL     OW 7954   0.763   5.467   2.083
 2352SOL    HW1 7955   0.852   5.422   2.085
 2352SOL    HW2 7956   0.770   5.554   2.034
 2353SOL     OW 7957   2.992   4.487   5.817
 2353SOL    HW1 7958   3.062   4.485   5.747
 2353SOL    HW2 7959   2.903   4.468   5.776
 2354SOL     OW 7960   3.034   1.500   5.815
 2354SOL    HW1 7961   3.032   1.539   5.722
 2354SOL    HW2 7962   2.955   1.440   5.827
 2355SOL     OW 7963   2.407   5.443   0.461
 2355SOL    HW1 7964   2.477   5.373   0.443
 2355SOL    HW2 7965   2.400   5.458   0.559
 2356SOL     OW 7966   1.425   3.695   0.121
 2356SOL    HW1 7967   1.419   3.617   0.059
 2356SOL    HW2 7968   1.348   3.692   0.185
 2357SOL     OW 7969   4.626   6.580   2.993
 2357SOL    HW1 7970   4.621   6.614   3.087
 2357SOL    HW2 7971   4.563   6.631   2.935
 2358SOL     OW 7972   4.082   5.042   5.232
 2358SOL    HW1 7973   4.055   4.948   5.210
 2358SOL    HW2 7974   4.172   5.061   5.192
 2359SOL     OW 7975   6.736   1.022   6.067
 2359SOL    HW1 7976   6.730   0.927   6.098
 2359SOL    HW2 7977   6.653   1.070   6.093
 2360SOL     OW 7978   5.688   4.711   7.005
 2360SOL    HW1 7979   5.762   4.661   6.960
 2360SOL    HW2 7980   5.600   4.682   6.968
 2361SOL     OW 7981   2.359   0.489   4.894
 2361SOL    HW1 7982   2.300   0.535   4.828
 2361SOL    HW2 7983   2.364   0.543   4.978
 2362SOL     OW 7984   2.482   0.269   5.208
 2362SOL    HW1 7985   2.388   0.235   5.195
 2362SOL    HW2 7986   2.479   0.363   5.241
 2363SOL     OW 7987   4.358   2.240   5.216
 2363SOL    HW1 7988   4.370   2.198   5.126
 2363SOL    HW2 7989   4.426   2.205   5.279
 2364SOL     OW 7990   0.958   1.871   2.038
 2364SOL    HW1 7991   1.035   1.871   1.974
 2364SOL    HW2 7992   0.931   1.965   2.058
 2365SOL     OW 7993   6.524   2.999   6.730
 2365SOL    HW1 7994   6.498   3.095   6.735
 2365SOL    HW2 7995   6.477   2.955   6.654
 2366SOL     OW 7996   1.072   5.324   6.017
 2366SOL    HW1 7997   1.156   5.302   5.969
 2366SOL    HW2 7998   1.014   5.380   5.958
 2367SOL     OW 7999   3.112   4.841   0.592
 2367SOL    HW1 8000   3.155   4.925   0.625
 2367SOL    HW2 8001   3.118   4.838   0.492
 2368SOL     OW 8002   4.725   0.279   2.922
 2368SOL    HW1 8003   4.789   0.245   2.991
 2368SOL    HW2 8004   4.746   0.238   2.833
 2369SOL     OW 8005   0.968   2.574   5.737
 2369SOL    HW1 8006   0.982   2.508   5.663
 2369SOL    HW2 8007   1.019   2.544   5.818
 2370SOL     OW 8008   5.102   3.710   0.112
 2370SOL    HW1 8009   5.109   3.726   0.211
 2370SOL    HW2 8010   5.019   3.754   0.077
 2371SOL     OW 8011   0.405   6.746   2.070
 2371SOL    HW1 8012   0.459   6.697   2.002
 2371SOL    HW2 8013   0.466   6.793   2.134
 2372SOL     OW 8014   6.587   2.449   1.850
 2372SOL    HW1 8015   6.637   2.370   1.885
 2372SOL    HW2 8016   6.502   2.460   1.901
 2373SOL     OW 8017   0.606   1.297   0.218
 2373SOL    HW1 8018   0.609   1.298   0.118
 2373SOL    HW2 8019   0.568   1.210   0.250
 2374SOL     OW 8020   6.227   1.078   3.519
 2374SOL    HW1 8021   6.214   1.159   3.461
 2374SOL    HW2 8022   6.324   1.054   3.522
 2375SOL     OW 8023   2.645   7.029   4.699
 2375SOL    HW1 8024   2.608   6.942   4.729
 2375SOL    HW2 8025   2.715   7.014   4.630
 2376SOL     OW 8026   6.105   2.412   4.338
 2376SOL    HW1 8027   6.155   2.432   4.422
 2376SOL    HW2 8028   6.110   2.314   4.319
 2377SOL     OW 8029   3.562   4.145   2.992
 2377SOL    HW1 8030   3.538   4.165   3.087
 2377SOL    HW2 8031   3.479   4.144   2.936
 2378SOL     OW 8032   5.223   2.630   6.867
 2378SOL    HW1 8033   5.174   2.717   6.864
 2378SOL    HW2 8034   5.260   2.609   6.777
 2379SOL     OW 8035   5.571   2.507   6.888
 2379SOL    HW1 8036   5.503   2.435   6.904
 2379SOL    HW2 8037   5.540   2.566   6.813
 2380SOL     OW 8038   0.459   0.303   4.985
 2380SOL    HW1 8039   0.393   0.324   5.057
 2380SOL    HW2 8040   0.411   0.294   4.898
 2381SOL     OW 8041   1.758   3.718   4.317
 2381SOL    HW1 8042   1.692   3.656   4.360
 2381SOL    HW2 8043   1.850   3.695   4.346
 2382SOL     OW 8044   2.439   4.403   3.498
 2382SOL    HW1 8045   2.343   4.428   3.481
 2382SOL    HW2 8046   2.495   4.429   3.419
 2383SOL     OW 8047   6.152   6.764   0.777
 2383SOL    HW1 8048   6.190   6.761   0.685
 2383SOL    HW2 8049   6.182   6.848   0.823
 2384SOL     OW 8050   6.563   6.802   2.430
 2384SOL    HW1 8051   6.603   6.766   2.345
 2384SOL    HW2 8052   6.594   6.747   2.507
 2385SOL     OW 8053   0.640   6.745   1.137
 2385SOL    HW1 8054   0.696   6.735   1.219
 2385SOL    HW2 8055   0.545   6.720   1.157
 2386SOL     OW 8056   5.176   5.482   4.130
 2386SOL    HW1 8057   5.272   5.486   4.158
 2386SOL    HW2 8058   5.171   5.474   4.030
 2387SOL     OW 8059   1.008   1.237   3.792
 2387SOL    HW1 8060   1.068   1.246   3.871
 2387SOL    HW2 8061   1.041   1.295   3.718
 2388SOL     OW 8062   1.800   2.368   3.560
 2388SOL    HW1 8063   1.798   2.369   3.660
 2388SOL    HW2 8064   1.745   2.292   3.526
 2389SOL     OW 8065   4.919   3.784   2.945
 2389SOL    HW1 8066   4.895   3.724   3.021
 2389SOL    HW2 8067   4.884   3.876   2.962
 2390SOL     OW 8068   3.765   4.036   3.278
 2390SOL    HW1 8069   3.831   4.039   3.354
 2390SOL    HW2 8070   3.753   3.942   3.249
 2391SOL     OW 8071   4.943   4.783   5.687
 2391SOL    HW1 8072   4.869   4.838   5.726
 2391SOL    HW2 8073   4.921   4.686   5.694
 2392SOL     OW 8074   3.687   6.783   5.362
 2392SOL    HW1 8075   3.708   6.687   5.383
 2392SOL    HW2 8076   3.770   6.838   5.369
 2393SOL     OW 8077   4.769   4.243   6.242
 2393SOL    HW1 8078   4.728   4.261   6.332
 2393SOL    HW2 8079   4.816   4.155   6.244
 2394SOL     OW 8080   1.916   3.368   4.239
 2394SOL    HW1 8081   1.997   3.313   4.222
 2394SOL    HW2 8082   1.889   3.359   4.335
 2395SOL     OW 8083   6.660   2.794   6.869
 2395SOL    HW1 8084   6.691   2.722   6.808
 2395SOL    HW2 8085   6.589   2.848   6.823
 2396SOL     OW 8086   4.095   5.450   1.496
 2396SOL    HW1 8087   4.163   5.512   1.457
 2396SOL    HW2 8088   4.139   5.390   1.563
 2397SOL     OW 8089   0.520   4.182   6.998
 2397SOL    HW1 8090   0.598   4.133   6.960
 2397SOL    HW2 8091   0.552   4.258   0.024
 2398SOL     OW 8092   3.079   3.726   6.644
 2398SOL    HW1 8093   3.155   3.776   6.686
 2398SOL    HW2 8094   3.030   3.786   6.581
 2399SOL     OW 8095   4.805   1.365   2.476
 2399SOL    HW1 8096   4.723   1.421   2.484
 2399SOL    HW2 8097   4.863   1.378   2.556
 2400SOL     OW 8098   3.567   4.886   0.116
 2400SOL    HW1 8099   3.551   4.916   0.210
 2400SOL    HW2 8100   3.557   4.786   0.111
 2401SOL     OW 8101   3.969   6.737   6.655
 2401SOL    HW1 8102   3.896   6.708   6.717
 2401SOL    HW2 8103   3.935   6.810   6.596
 2402SOL     OW 8104   0.354   0.780   3.814
 2402SOL    HW1 8105   0.411   0.747   3.739
 2402SOL    HW2 8106   0.364   0.879   3.822
 2403SOL     OW 8107   2.404   2.535   0.971
 2403SOL    HW1 8108   2.392   2.457   0.910
 2403SOL    HW2 8109   2.463   2.510   1.047
 2404SOL     OW 8110   4.936   1.198   1.034
 2404SOL    HW1 8111   4.970   1.278   0.985
 2404SOL    HW2 8112   4.999   1.173   1.107
 2405SOL     OW 8113   3.738   3.646   2.900
 2405SOL    HW1 8114   3.838   3.644   2.894
 2405SOL    HW2 8115   3.700   3.575   2.839
 2406SOL     OW 8116   2.578   6.336   3.215
 2406SOL    HW1 8117   2.564   6.427   3.176
 2406SOL    HW2 8118   2.604   6.272   3.142
 2407SOL     OW 8119   5.133   2.328   2.686
 2407SOL    HW1 8120   5.187   2.349   2.605
 2407SOL    HW2 8121   5.043   2.371   2.678
 2408SOL     OW 8122   4.467   4.799   3.787
 2408SOL    HW1 8123   4.442   4.823   3.881
 2408SOL    HW2 8124   4.510   4.709   3.785
 2409SOL     OW 8125   1.185   3.299   1.934
 2409SOL    HW1 8126   1.167   3.371   2.001
 2409SOL    HW2 8127   1.233   3.338   1.855
 2410SOL     OW 8128   5.148   2.808   6.335
 2410SOL    HW1 8129   5.131   2.849   6.245
 2410SOL    HW2 8130   5.191   2.719   6.323
 2411SOL     OW 8131   4.051   5.347   5.733
 2411SOL    HW1 8132   4.097   5.356   5.645
 2411SOL    HW2 8133   4.120   5.349   5.806
 2412SOL     OW 8134   4.178   4.746   0.937
 2412SOL    HW1 8135   4.201   4.769   0.842
 2412SOL    HW2 8136   4.262   4.741   0.991
 2413SOL     OW 8137   6.383   2.201   0.353
 2413SOL    HW1 8138   6.340   2.268   0.413
 2413SOL    HW2 8139   6.355   2.109   0.380
 2414SOL     OW 8140   4.883   3.759   2.339
 2414SOL    HW1 8141   4.849   3.807   2.420
 2414SOL    HW2 8142   4.840   3.796   2.257
 2415SOL     OW 8143   0.084   0.146   1.633
 2415SOL    HW1 8144   7.028   0.130   1.584
 2415SOL    HW2 8145   0.064   0.172   1.727
 2416SOL     OW 8146   3.799   2.079   5.139
 2416SOL    HW1 8147   3.859   2.144   5.186
 2416SOL    HW2 8148   3.847   1.991   5.130
 2417SOL     OW 8149   3.719   3.652   6.093
 2417SOL    HW1 8150   3.738   3.734   6.038
 2417SOL    HW2 8151   3.804   3.602   6.108
 2418SOL     OW 8152   3.304   4.156   3.787
 2418SOL    HW1 8153   3.287   4.238   3.842
 2418SOL    HW2 8154   3.358   4.090   3.839
 2419SOL     OW 8155   0.981   5.988   4.645
 2419SOL    HW1 8156   1.032   6.037   4.574
 2419SOL    HW2 8157   0.883   5.995   4.626
 2420SOL     OW 8158   3.340   1.793   1.431
 2420SOL    HW1 8159   3.426   1.792   1.379
 2420SOL    HW2 8160   3.281   1.719   1.400
 2421SOL     OW 8161   3.001   1.250   5.310
 2421SOL    HW1 8162   2.979   1.292   5.222
 2421SOL    HW2 8163   2.954   1.299   5.383
 2422SOL     OW 8164   5.935   0.184   1.533
 2422SOL    HW1 8165   5.857   0.133   1.497
 2422SOL    HW2 8166   5.913   0.216   1.626
 2423SOL     OW 8167   1.194   6.721   3.877
 2423SOL    HW1 8168   1.251   6.768   3.944
 2423SOL    HW2 8169   1.178   6.627   3.907
 2424SOL     OW 8170   6.241   6.493   6.162
 2424SOL    HW1 8171   6.296   6.575   6.178
 2424SOL    HW2 8172   6.162   6.516   6.104
 2425SOL     OW 8173   6.495   0.400   3.986
 2425SOL    HW1 8174   6.427   0.347   4.038
 2425SOL    HW2 8175   6.587   0.369   4.010
 2426SOL     OW 8176   1.191   5.499   4.398
 2426SOL    HW1 8177   1.240   5.571   4.348
 2426SOL    HW2 8178   1.194   5.414   4.345
 2427SOL     OW 8179   5.726   5.187   6.041
 2427SOL    HW1 8180   5.635   5.164   6.006
 2427SOL    HW2 8181   5.723   5.274   6.090
 2428SOL     OW 8182   6.257   0.314   3.525
 2428SOL    HW1 8183   6.318   0.264   3.463
 2428SOL    HW2 8184   6.298   0.317   3.616
 2429SOL     OW 8185   6.093   5.136   4.038
 2429SOL    HW1 8186   6.065   5.145   3.943
 2429SOL    HW2 8187   6.169   5.199   4.056
 2430SOL     OW 8188   6.144   1.625   1.137
 2430SOL    HW1 8189   6.185   1.538   1.162
 2430SOL    HW2 8190   6.179   1.655   1.049
 2431SOL     OW 8191   4.427   0.865   2.296
 2431SOL    HW1 8192   4.347   0.854   2.354
 2431SOL    HW2 8193   4.496   0.919   2.344
 2432SOL     OW 8194   3.219   6.761   3.173
 2432SOL    HW1 8195   3.311   6.799   3.184
 2432SOL    HW2 8196   3.204   6.691   3.243
 2433SOL     OW 8197   3.404   0.474   1.393
 2433SOL    HW1 8198   3.306   0.463   1.410
 2433SOL    HW2 8199   3.452   0.391   1.422
 2434SOL     OW 8200   4.245   0.895   5.174
 2434SOL    HW1 8201   4.202   0.805   5.174
 2434SOL    HW2 8202   4.288   0.913   5.086
 2435SOL     OW 8203   4.184   4.632   6.076
 2435SOL    HW1 8204   4.269   4.633   6.128
 2435SOL    HW2 8205   4.204   4.636   5.978
 2436SOL     OW 8206   1.879   6.538   1.663
 2436SOL    HW1 8207   1.933   6.610   1.621
 2436SOL    HW2 8208   1.933   6.454   1.668
 2437SOL     OW 8209   4.666   6.010   0.384
 2437SOL    HW1 8210   4.667   6.085   0.451
 2437SOL    HW2 8211   4.618   5.932   0.423
 2438SOL     OW 8212   3.815   1.093   5.908
 2438SOL    HW1 8213   3.830   1.038   5.826
 2438SOL    HW2 8214   3.901   1.137   5.935
 2439SOL     OW 8215   0.665   4.305   6.281
 2439SOL    HW1 8216   0.585   4.252   6.253
 2439SOL    HW2 8217   0.748   4.251   6.266
 2440SOL     OW 8218   5.467   5.940   5.882
 2440SOL    HW1 8219   5.414   5.974   5.960
 2440SOL    HW2 8220   5.489   6.017   5.821
 2441SOL     OW 8221   0.193   0.258   0.279
 2441SOL    HW1 8222   0.264   0.268   0.209
 2441SOL    HW2 8223   0.126   0.332   0.269
 2442SOL     OW 8224   6.568   4.606   4.553
 2442SOL    HW1 8225   6.511   4.591   4.472
 2442SOL    HW2 8226   6.577   4.520   4.603
 2443SOL     OW 8227   4.405   6.250   5.822
 2443SOL    HW1 8228   4.490   6.197   5.812
 2443SOL    HW2 8229   4.332   6.206   5.770
 2444SOL     OW 8230   3.315   4.253   6.077
 2444SOL    HW1 8231   3.300   4.334   6.020
 2444SOL    HW2 8232   3.314   4.171   6.020
 2445SOL     OW 8233   0.250   0.829   2.094
 2445SOL    HW1 8234   0.286   0.857   2.005
 2445SOL    HW2 8235   0.151   0.843   2.095
 2446SOL     OW 8236   0.466   4.426   3.864
 2446SOL    HW1 8237   0.438   4.479   3.784
 2446SOL    HW2 8238   0.496   4.335   3.834
 2447SOL     OW 8239   2.696   2.320   0.761
 2447SOL    HW1 8240   2.795   2.330   0.762
 2447SOL    HW2 8241   2.656   2.385   0.697
 2448SOL     OW 8242   6.991   0.866   5.099
 2448SOL    HW1 8243   6.997   0.927   5.020
 2448SOL    HW2 8244   0.034   0.797   5.092
 2449SOL     OW 8245   0.507   5.076   0.992
 2449SOL    HW1 8246   0.426   5.132   1.010
 2449SOL    HW2 8247   0.488   4.981   1.018
 2450SOL     OW 8248   2.639   4.629   3.291
 2450SOL    HW1 8249   2.561   4.567   3.287
 2450SOL    HW2 8250   2.657   4.665   3.199
 2451SOL     OW 8251   0.614   6.935   3.553
 2451SOL    HW1 8252   0.588   6.897   3.642
 2451SOL    HW2 8253   0.622   0.004   3.560
 2452SOL     OW 8254   1.602   3.046   2.945
 2452SOL    HW1 8255   1.613   3.064   2.847
 2452SOL    HW2 8256   1.684   3.076   2.994
 2453SOL     OW 8257   6.140   3.881   0.723
 2453SOL    HW1 8258   6.161   3.803   0.783
 2453SOL    HW2 8259   6.113   3.959   0.780
 2454SOL     OW 8260   3.228   1.100   0.645
 2454SOL    HW1 8261   3.248   1.188   0.602
 2454SOL    HW2 8262   3.214   1.112   0.743
 2455SOL     OW 8263   5.409   6.288   0.814
 2455SOL    HW1 8264   5.328   6.244   0.776
 2455SOL    HW2 8265   5.384   6.339   0.897
 2456SOL     OW 8266   5.766   6.917   0.636
 2456SOL    HW1 8267   5.679   6.955   0.604
 2456SOL    HW2 8268   5.823   6.989   0.674
 2457SOL     OW 8269   6.777   6.296   0.586
 2457SOL    HW1 8270   6.857   6.294   0.647
 2457SOL    HW2 8271   6.694   6.286   0.641
 2458SOL     OW 8272   2.789   5.975   3.425
 2458SOL    HW1 8273   2.838   5.889   3.409
 2458SOL    HW2 8274   2.699   5.956   3.462
 2459SOL     OW 8275   2.834   6.799   0.308
 2459SOL    HW1 8276   2.784   6.848   0.380
 2459SOL    HW2 8277   2.921   6.845   0.291
 2460SOL     OW 8278   2.195   0.384   1.457
 2460SOL    HW1 8279   2.258   0.322   1.410
 2460SOL    HW2 8280   2.102   0.364   1.428
 2461SOL     OW 8281   4.854   0.636   2.918
 2461SOL    HW1 8282   4.918   0.642   2.841
 2461SOL    HW2 8283   4.769   0.683   2.895
 2462SOL     OW 8284   2.298   5.618   7.005
 2462SOL    HW1 8285   2.308   5.521   7.029
 2462SOL    HW2 8286   2.386   5.664   7.016
 2463SOL     OW 8287   5.675   2.647   4.456
 2463SOL    HW1 8288   5.596   2.675   4.403
 2463SOL    HW2 8289   5.734   2.590   4.400
 2464SOL     OW 8290   1.346   4.866   1.578
 2464SOL    HW1 8291   1.265   4.879   1.521
 2464SOL    HW2 8292   1.402   4.792   1.541
 2465SOL     OW 8293   6.990   5.290   1.186
 2465SOL    HW1 8294   7.006   5.231   1.107
 2465SOL    HW2 8295   6.966   5.234   1.265
 2466SOL     OW 8296   3.476   0.584   1.670
 2466SOL    HW1 8297   3.492   0.650   1.596
 2466SOL    HW2 8298   3.379   0.558   1.671
 2467SOL     OW 8299   5.767   1.026   5.699
 2467SOL    HW1 8300   5.831   1.063   5.631
 2467SOL    HW2 8301   5.761   0.927   5.688
 2468SOL     OW 8302   6.276   5.904   1.900
 2468SOL    HW1 8303   6.354   5.958   1.933
 2468SOL    HW2 8304   6.234   5.857   1.977
 2469SOL     OW 8305   3.603   4.760   5.323
 2469SOL    HW1 8306   3.551   4.675   5.318
 2469SOL    HW2 8307   3.599   4.796   5.416
 2470SOL     OW 8308   2.986   3.913   6.467
 2470SOL    HW1 8309   3.045   3.897   6.388
 2470SOL    HW2 8310   3.026   3.983   6.525
 2471SOL     OW 8311   2.339   6.667   1.640
 2471SOL    HW1 8312   2.398   6.608   1.585
 2471SOL    HW2 8313   2.387   6.751   1.662
 2472SOL     OW 8314   5.814   1.486   4.710
 2472SOL    HW1 8315   5.745   1.414   4.695
 2472SOL    HW2 8316   5.821   1.543   4.628
 2473SOL     OW 8317   2.258   4.150   4.490
 2473SOL    HW1 8318   2.220   4.236   4.456
 2473SOL    HW2 8319   2.285   4.160   4.585
 2474SOL     OW 8320   6.686   5.481   0.354
 2474SOL    HW1 8321   6.698   5.395   0.404
 2474SOL    HW2 8322   6.593   5.515   0.368
 2475SOL     OW 8323   4.552   1.743   0.807
 2475SOL    HW1 8324   4.506   1.681   0.870
 2475SOL    HW2 8325   4.572   1.829   0.854
 2476SOL     OW 8326   0.031   2.630   3.342
 2476SOL    HW1 8327   0.058   2.700   3.276
 2476SOL    HW2 8328   0.032   2.669   3.434
 2477SOL     OW 8329   6.203   0.156   2.074
 2477SOL    HW1 8330   6.224   0.115   2.163
 2477SOL    HW2 8331   6.279   0.138   2.011
 2478SOL     OW 8332   5.220   6.750   3.186
 2478SOL    HW1 8333   5.227   6.650   3.194
 2478SOL    HW2 8334   5.218   6.790   3.278
 2479SOL     OW 8335   0.520   3.452   1.409
 2479SOL    HW1 8336   0.566   3.367   1.432
 2479SOL    HW2 8337   0.464   3.481   1.486
 2480SOL     OW 8338   6.499   2.759   1.103
 2480SOL    HW1 8339   6.536   2.812   1.179
 2480SOL    HW2 8340   6.510   2.662   1.121
 2481SOL     OW 8341   3.448   6.162   0.322
 2481SOL    HW1 8342   3.507   6.084   0.346
 2481SOL    HW2 8343   3.371   6.166   0.386
 2482SOL     OW 8344   4.529   2.860   5.643
 2482SOL    HW1 8345   4.576   2.778   5.678
 2482SOL    HW2 8346   4.597   2.931   5.623
 2483SOL     OW 8347   2.118   1.345   0.737
 2483SOL    HW1 8348   2.051   1.386   0.799
 2483SOL    HW2 8349   2.211   1.368   0.768
 2484SOL     OW 8350   1.936   0.879   0.759
 2484SOL    HW1 8351   2.010   0.852   0.698
 2484SOL    HW2 8352   1.899   0.967   0.729
 2485SOL     OW 8353   4.841   5.105   2.927
 2485SOL    HW1 8354   4.857   5.012   2.959
 2485SOL    HW2 8355   4.927   5.157   2.930
 2486SOL     OW 8356   2.487   6.049   2.522
 2486SOL    HW1 8357   2.407   6.079   2.575
 2486SOL    HW2 8358   2.540   5.984   2.576
 2487SOL     OW 8359   4.004   6.161   0.725
 2487SOL    HW1 8360   4.066   6.082   0.730
 2487SOL    HW2 8361   4.013   6.215   0.809
 2488SOL     OW 8362   2.671   4.109   1.635
 2488SOL    HW1 8363   2.757   4.127   1.683
 2488SOL    HW2 8364   2.627   4.195   1.610
 2489SOL     OW 8365   2.418   4.980   3.992
 2489SOL    HW1 8366   2.420   5.062   4.048
 2489SOL    HW2 8367   2.498   4.924   4.013
 2490SOL     OW 8368   6.189   4.969   1.111
 2490SOL    HW1 8369   6.103   4.937   1.072
 2490SOL    HW2 8370   6.204   4.925   1.199
 2491SOL     OW 8371   2.876   5.974   3.081
 2491SOL    HW1 8372   2.966   5.982   3.124
 2491SOL    HW2 8373   2.871   5.890   3.028
 2492SOL     OW 8374   3.714   3.412   6.570
 2492SOL    HW1 8375   3.682   3.485   6.510
 2492SOL    HW2 8376   3.814   3.414   6.575
 2493SOL     OW 8377   6.204   0.195   3.038
 2493SOL    HW1 8378   6.174   0.196   3.133
 2493SOL    HW2 8379   6.303   0.180   3.035
 2494SOL     OW 8380   4.996   3.201   2.577
 2494SOL    HW1 8381   5.066   3.214   2.646
 2494SOL    HW2 8382   5.018   3.254   2.495
 2495SOL     OW 8383   5.375   0.757   5.326
 2495SOL    HW1 8384   5.385   0.665   5.288
 2495SOL    HW2 8385   5.413   0.823   5.262
 2496SOL     OW 8386   0.888   5.123   0.299
 2496SOL    HW1 8387   0.856   5.157   0.387
 2496SOL    HW2 8388   0.810   5.088   0.247
 2497SOL     OW 8389   0.317   1.672   0.017
 2497SOL    HW1 8390   0.315   1.573   0.033
 2497SOL    HW2 8391   0.277   1.719   0.095
 2498SOL     OW 8392   2.269   2.760   3.452
 2498SOL    HW1 8393   2.222   2.792   3.370
 2498SOL    HW2 8394   2.295   2.838   3.509
 2499SOL     OW 8395   5.424   0.790   4.466
 2499SOL    HW1 8396   5.489   0.823   4.397
 2499SOL    HW2 8397   5.333   0.826   4.445
 2500SOL     OW 8398   4.620   3.918   5.644
 2500SOL    HW1 8399   4.708   3.961   5.661
 2500SOL    HW2 8400   4.605   3.911   5.545
 2501SOL     OW 8401   6.338   4.911   6.955
 2501SOL    HW1 8402   6.295   4.945   6.871
 2501SOL    HW2 8403   6.341   4.811   6.953
 2502SOL     OW 8404   2.949   6.367   3.769
 2502SOL    HW1 8405   2.999   6.450   3.745
 2502SOL    HW2 8406   2.970   6.295   3.704
 2503SOL     OW 8407   3.823   5.824   5.972
 2503SOL    HW1 8408   3.829   5.880   6.054
 2503SOL    HW2 8409   3.833   5.882   5.891
 2504SOL     OW 8410   2.575   5.118   5.151
 2504SOL    HW1 8411   2.574   5.023   5.120
 2504SOL    HW2 8412   2.593   5.178   5.073
 2505SOL     OW 8413   3.938   5.848   4.657
 2505SOL    HW1 8414   3.843   5.832   4.629
 2505SOL    HW2 8415   3.957   5.946   4.654
 2506SOL     OW 8416   6.876   3.176   6.415
 2506SOL    HW1 8417   6.853   3.151   6.509
 2506SOL    HW2 8418   6.803   3.232   6.376
 2507SOL     OW 8419   5.866   5.119   0.308
 2507SOL    HW1 8420   5.820   5.121   0.219
 2507SOL    HW2 8421   5.800   5.142   0.380
 2508SOL     OW 8422   2.614   2.338   1.948
 2508SOL    HW1 8423   2.711   2.334   1.969
 2508SOL    HW2 8424   2.599   2.403   1.873
 2509SOL     OW 8425   5.460   1.579   2.195
 2509SOL    HW1 8426   5.381   1.526   2.166
 2509SOL    HW2 8427   5.461   1.585   2.295
 2510SOL     OW 8428   2.573   4.534   0.401
 2510SOL    HW1 8429   2.535   4.483   0.478
 2510SOL    HW2 8430   2.614   4.619   0.435
 2511SOL     OW 8431   1.395   1.716   5.006
 2511SOL    HW1 8432   1.432   1.807   5.021
 2511SOL    HW2 8433   1.435   1.676   4.923
 2512SOL     OW 8434   5.458   4.495   4.769
 2512SOL    HW1 8435   5.391   4.422   4.756
 2512SOL    HW2 8436   5.538   4.459   4.816
 2513SOL     OW 8437   0.706   2.327   6.025
 2513SOL    HW1 8438   0.731   2.418   6.056
 2513SOL    HW2 8439   0.704   2.324   5.926
 2514SOL     OW 8440   0.266   2.420   4.388
 2514SOL    HW1 8441   0.285   2.502   4.442
 2514SOL    HW2 8442   0.330   2.415   4.312
 2515SOL     OW 8443   1.246   6.686   0.765
 2515SOL    HW1 8444   1.178   6.631   0.716
 2515SOL    HW2 8445   1.199   6.748   0.828
 2516SOL     OW 8446   5.960   5.159   3.018
 2516SOL    HW1 8447   6.032   5.176   2.950
 2516SOL    HW2 8448   5.931   5.063   3.011
 2517SOL     OW 8449   2.211   4.482   6.355
 2517SOL    HW1 8450   2.217   4.386   6.381
 2517SOL    HW2 8451   2.205   4.539   6.437
 2518SOL     OW 8452   1.890   3.068   6.917
 2518SOL    HW1 8453   1.900   2.969   6.903
 2518SOL    HW2 8454   1.922   3.116   6.835
 2519SOL     OW 8455   4.397   5.124   4.297
 2519SOL    HW1 8456   4.478   5.148   4.244
 2519SOL    HW2 8457   4.416   5.041   4.350
 2520SOL     OW 8458   1.405   2.696   0.894
 2520SOL    HW1 8459   1.408   2.794   0.916
 2520SOL    HW2 8460   1.478   2.675   0.828
 2521SOL     OW 8461   0.983   0.124   5.777
 2521SOL    HW1 8462   0.983   0.090   5.871
 2521SOL    HW2 8463   0.889   0.126   5.742
 2522SOL     OW 8464   1.270   2.776   4.547
 2522SOL    HW1 8465   1.228   2.754   4.636
 2522SOL    HW2 8466   1.366   2.747   4.548
 2523SOL     OW 8467   6.855   3.183   1.162
 2523SOL    HW1 8468   6.887   3.168   1.068
 2523SOL    HW2 8469   6.755   3.180   1.164
 2524SOL     OW 8470   0.450   6.437   4.254
 2524SOL    HW1 8471   0.534   6.490   4.254
 2524SOL    HW2 8472   0.439   6.393   4.343
 2525SOL     OW 8473   1.071   4.000   4.324
 2525SOL    HW1 8474   1.092   3.903   4.310
 2525SOL    HW2 8475   1.084   4.023   4.420
 2526SOL     OW 8476   0.666   3.105   5.168
 2526SOL    HW1 8477   0.725   3.159   5.228
 2526SOL    HW2 8478   0.648   3.016   5.210
 2527SOL     OW 8479   6.195   6.606   5.449
 2527SOL    HW1 8480   6.109   6.654   5.429
 2527SOL    HW2 8481   6.212   6.537   5.379
 2528SOL     OW 8482   5.408   4.867   0.779
 2528SOL    HW1 8483   5.397   4.794   0.846
 2528SOL    HW2 8484   5.370   4.836   0.691
 2529SOL     OW 8485   4.782   4.900   5.868
 2529SOL    HW1 8486   4.793   4.863   5.960
 2529SOL    HW2 8487   4.686   4.890   5.839
 2530SOL     OW 8488   1.228   6.418   3.841
 2530SOL    HW1 8489   1.296   6.357   3.800
 2530SOL    HW2 8490   1.250   6.433   3.937
 2531SOL     OW 8491   5.563   6.592   5.019
 2531SOL    HW1 8492   5.517   6.577   4.931
 2531SOL    HW2 8493   5.652   6.546   5.017
 2532SOL     OW 8494   0.427   5.843   0.853
 2532SOL    HW1 8495   0.456   5.787   0.775
 2532SOL    HW2 8496   0.346   5.801   0.894
 2533SOL     OW 8497   5.142   6.492   4.675
 2533SOL    HW1 8498   5.147   6.421   4.604
 2533SOL    HW2 8499   5.059   6.479   4.728
 2534SOL     OW 8500   2.497   0.507   3.078
 2534SOL    HW1 8501   2.444   0.423   3.092
 2534SOL    HW2 8502   2.555   0.524   3.158
 2535SOL     OW 8503   1.869   2.103   5.784
 2535SOL    HW1 8504   1.918   2.016   5.772
 2535SOL    HW2 8505   1.775   2.092   5.753
 2536SOL     OW 8506   6.615   1.915   3.984
 2536SOL    HW1 8507   6.699   1.952   4.023
 2536SOL    HW2 8508   6.566   1.987   3.935
 2537SOL     OW 8509   5.116   6.591   0.390
 2537SOL    HW1 8510   5.058   6.604   0.309
 2537SOL    HW2 8511   5.059   6.579   0.471
 2538SOL     OW 8512   1.498   4.778   5.016
 2538SOL    HW1 8513   1.476   4.693   4.967
 2538SOL    HW2 8514   1.570   4.759   5.083
 2539SOL     OW 8515   4.543   0.051   5.331
 2539SOL    HW1 8516   4.518   6.993   5.372
 2539SOL    HW2 8517   4.599   0.103   5.396
 2540SOL     OW 8518   5.656   0.912   1.205
 2540SOL    HW1 8519   5.702   0.950   1.125
 2540SOL    HW2 8520   5.584   0.975   1.235
 2541SOL     OW 8521   1.644   0.514   5.371
 2541SOL    HW1 8522   1.733   0.555   5.353
 2541SOL    HW2 8523   1.600   0.491   5.284
 2542SOL     OW 8524   4.189   2.044   4.590
 2542SOL    HW1 8525   4.167   1.959   4.542
 2542SOL    HW2 8526   4.109   2.075   4.641
 2543SOL     OW 8527   1.328   0.367   3.030
 2543SOL    HW1 8528   1.369   0.445   3.078
 2543SOL    HW2 8529   1.318   0.388   2.933
 2544SOL     OW 8530   0.280   4.988   1.842
 2544SOL    HW1 8531   0.380   4.975   1.845
 2544SOL    HW2 8532   0.240   4.925   1.776
 2545SOL     OW 8533   2.088   2.081   1.191
 2545SOL    HW1 8534   2.053   2.064   1.283
 2545SOL    HW2 8535   2.012   2.078   1.125
 2546SOL     OW 8536   0.078   3.556   1.431
 2546SOL    HW1 8537   0.038   3.512   1.350
 2546SOL    HW2 8538   0.102   3.650   1.409
 2547SOL     OW 8539   5.383   5.272   1.028
 2547SOL    HW1 8540   5.296   5.268   1.077
 2547SOL    HW2 8541   5.431   5.185   1.037
 2548SOL     OW 8542   1.901   0.266   4.845
 2548SOL    HW1 8543   1.891   0.298   4.939
 2548SOL    HW2 8544   1.995   0.235   4.830
 2549SOL     OW 8545   2.020   2.819   1.681
 2549SOL    HW1 8546   2.046   2.803   1.777
 2549SOL    HW2 8547   2.022   2.732   1.631
 2550SOL     OW 8548   5.914   0.102   6.667
 2550SOL    HW1 8549   5.838   0.093   6.732
 2550SOL    HW2 8550   5.950   0.012   6.645
 2551SOL     OW 8551   3.468   4.575   0.168
 2551SOL    HW1 8552   3.418   4.494   0.199
 2551SOL    HW2 8553   3.544   4.546   0.110
 2552SOL     OW 8554   2.429   5.489   6.491
 2552SOL    HW1 8555   2.365   5.413   6.504
 2552SOL    HW2 8556   2.378   5.575   6.491
 2553SOL     OW 8557   3.711   2.548   6.141
 2553SOL    HW1 8558   3.780   2.578   6.208
 2553SOL    HW2 8559   3.744   2.466   6.094
 2554SOL     OW 8560   1.989   6.200   6.775
 2554SOL    HW1 8561   1.953   6.158   6.691
 2554SOL    HW2 8562   1.944   6.160   6.854
 2555SOL     OW 8563   6.621   6.106   6.550
 2555SOL    HW1 8564   6.667   6.075   6.467
 2555SOL    HW2 8565   6.528   6.072   6.552
 2556SOL     OW 8566   4.029   0.265   0.728
 2556SOL    HW1 8567   3.950   0.236   0.782
 2556SOL    HW2 8568   4.028   0.215   0.641
 2557SOL     OW 8569   3.093   1.099   6.998
 2557SOL    HW1 8570   3.153   1.057   0.035
 2557SOL    HW2 8571   3.141   1.110   6.911
 2558SOL     OW 8572   4.906   4.017   6.195
 2558SOL    HW1 8573   4.989   3.964   6.212
 2558SOL    HW2 8574   4.882   4.012   6.098
 2559SOL     OW 8575   6.873   3.547   3.632
 2559SOL    HW1 8576   6.925   3.605   3.571
 2559SOL    HW2 8577   6.926   3.465   3.654
 2560SOL     OW 8578   4.912   3.566   3.629
 2560SOL    HW1 8579   4.899   3.468   3.612
 2560SOL    HW2 8580   4.901   3.584   3.727
 2561SOL     OW 8581   3.729   1.460   3.291
 2561SOL    HW1 8582   3.755   1.507   3.376
 2561SOL    HW2 8583   3.703   1.366   3.312
 2562SOL     OW 8584   3.278   6.451   3.262
 2562SOL    HW1 8585   3.193   6.437   3.314
 2562SOL    HW2 8586   3.260   6.435   3.165
 2563SOL     OW 8587   3.494   1.659   6.497
 2563SOL    HW1 8588   3.408   1.686   6.541
 2563SOL    HW2 8589   3.512   1.720   6.419
 2564SOL     OW 8590   2.333   6.892   0.570
 2564SOL    HW1 8591   2.399   6.832   0.615
 2564SOL    HW2 8592   2.378   6.941   0.495
 2565SOL     OW 8593   0.509   1.390   6.308
 2565SOL    HW1 8594   0.418   1.383   6.266
 2565SOL    HW2 8595   0.508   1.344   6.397
 2566SOL     OW 8596   2.823   6.363   1.475
 2566SOL    HW1 8597   2.849   6.269   1.496
 2566SOL    HW2 8598   2.748   6.363   1.409
 2567SOL     OW 8599   2.200   1.242   1.319
 2567SOL    HW1 8600   2.136   1.319   1.321
 2567SOL    HW2 8601   2.149   1.157   1.326
 2568SOL     OW 8602   2.889   6.700   1.181
 2568SOL    HW1 8603   2.833   6.650   1.114
 2568SOL    HW2 8604   2.899   6.795   1.151
 2569SOL     OW 8605   2.930   1.949   1.440
 2569SOL    HW1 8606   2.845   1.903   1.469
 2569SOL    HW2 8607   2.972   1.993   1.519
 2570SOL     OW 8608   5.652   5.737   5.952
 2570SOL    HW1 8609   5.670   5.730   6.050
 2570SOL    HW2 8610   5.589   5.814   5.936
 2571SOL     OW 8611   3.825   2.927   5.005
 2571SOL    HW1 8612   3.841   2.995   5.076
 2571SOL    HW2 8613   3.843   2.836   5.042
 2572SOL     OW 8614   2.535   5.919   1.585
 2572SOL    HW1 8615   2.535   5.932   1.486
 2572SOL    HW2 8616   2.552   6.007   1.630
 2573SOL     OW 8617   6.492   2.103   3.797
 2573SOL    HW1 8618   6.547   2.133   3.720
 2573SOL    HW2 8619   6.410   2.160   3.804
 2574SOL     OW 8620   6.412   3.131   0.658
 2574SOL    HW1 8621   6.476   3.077   0.712
 2574SOL    HW2 8622   6.407   3.092   0.565
 2575SOL     OW 8623   5.339   3.826   1.236
 2575SOL    HW1 8624   5.250   3.869   1.251
 2575SOL    HW2 8625   5.328   3.726   1.230
 2576SOL     OW 8626   3.647   7.010   3.536
 2576SOL    HW1 8627   3.651   6.960   3.449
 2576SOL    HW2 8628   3.740   0.001   3.567
 2577SOL     OW 8629   4.167   0.645   3.960
 2577SOL    HW1 8630   4.071   0.655   3.986
 2577SOL    HW2 8631   4.214   0.589   4.028
 2578SOL     OW 8632   5.088   3.158   5.458
 2578SOL    HW1 8633   5.117   3.068   5.426
 2578SOL    HW2 8634   5.111   3.169   5.554
 2579SOL     OW 8635   1.088   1.523   5.615
 2579SOL    HW1 8636   1.069   1.597   5.551
 2579SOL    HW2 8637   1.161   1.551   5.677
 2580SOL     OW 8638   1.811   2.834   5.520
 2580SOL    HW1 8639   1.812   2.809   5.423
 2580SOL    HW2 8640   1.887   2.898   5.538
 2581SOL     OW 8641   5.569   4.884   1.806
 2581SOL    HW1 8642   5.660   4.850   1.783
 2581SOL    HW2 8643   5.522   4.817   1.863
 2582SOL     OW 8644   2.326   4.951   3.058
 2582SOL    HW1 8645   2.282   4.862   3.051
 2582SOL    HW2 8646   2.337   4.976   3.154
 2583SOL     OW 8647   1.382   0.794   1.241
 2583SOL    HW1 8648   1.417   0.788   1.147
 2583SOL    HW2 8649   1.313   0.722   1.255
 2584SOL     OW 8650   3.968   6.574   0.609
 2584SOL    HW1 8651   4.047   6.513   0.605
 2584SOL    HW2 8652   3.942   6.589   0.704
 2585SOL     OW 8653   3.286   0.640   0.729
 2585SOL    HW1 8654   3.305   0.719   0.672
 2585SOL    HW2 8655   3.250   0.669   0.817
 2586SOL     OW 8656   5.633   1.247   5.314
 2586SOL    HW1 8657   5.603   1.273   5.406
 2586SOL    HW2 8658   5.635   1.328   5.256
 2587SOL     OW 8659   6.858   0.257   4.369
 2587SOL    HW1 8660   6.904   0.206   4.442
 2587SOL    HW2 8661   6.902   0.239   4.282
 2588SOL     OW 8662   5.314   0.138   0.850
 2588SOL    HW1 8663   5.396   0.172   0.896
 2588SOL    HW2 8664   5.246   0.211   0.845
 2589SOL     OW 8665   0.059   6.867   5.148
 2589SOL    HW1 8666   0.121   6.919   5.090
 2589SOL    HW2 8667   7.020   6.821   5.091
 2590SOL     OW 8668   3.890   0.220   2.741
 2590SOL    HW1 8669   3.893   0.281   2.820
 2590SOL    HW2 8670   3.982   0.215   2.700
 2591SOL     OW 8671   5.988   6.211   1.325
 2591SOL    HW1 8672   5.954   6.257   1.244
 2591SOL    HW2 8673   6.069   6.158   1.302
 2592SOL     OW 8674   2.918   6.392   1.809
 2592SOL    HW1 8675   2.999   6.390   1.751
 2592SOL    HW2 8676   2.893   6.299   1.835
 2593SOL     OW 8677   4.052   0.067   2.398
 2593SOL    HW1 8678   4.121   0.010   2.353
 2593SOL    HW2 8679   3.961   0.037   2.369
 2594SOL     OW 8680   0.574   6.412   5.948
 2594SOL    HW1 8681   0.540   6.426   6.041
 2594SOL    HW2 8682   0.627   6.492   5.920
 2595SOL     OW 8683   0.251   2.340   5.669
 2595SOL    HW1 8684   0.186   2.398   5.717
 2595SOL    HW2 8685   0.338   2.389   5.659
 2596SOL     OW 8686   3.689   2.583   1.750
 2596SOL    HW1 8687   3.663   2.489   1.774
 2596SOL    HW2 8688   3.634   2.647   1.804
 2597SOL     OW 8689   1.949   4.207   1.011
 2597SOL    HW1 8690   1.954   4.195   0.912
 2597SOL    HW2 8691   1.975   4.122   1.057
 2598SOL     OW 8692   5.856   2.779   4.653
 2598SOL    HW1 8693   5.806   2.707   4.604
 2598SOL    HW2 8694   5.878   2.853   4.590
 2599SOL     OW 8695   4.100   5.955   6.910
 2599SOL    HW1 8696   4.043   5.927   6.833
 2599SOL    HW2 8697   4.107   6.055   6.912
 2600SOL     OW 8698   4.912   3.613   4.351
 2600SOL    HW1 8699   4.987   3.647   4.294
 2600SOL    HW2 8700   4.844   3.568   4.294
 2601SOL     OW 8701   3.395   2.284   6.566
 2601SOL    HW1 8702   3.395   2.366   6.509
 2601SOL    HW2 8703   3.484   2.274   6.611
 2602SOL     OW 8704   6.792   4.571   3.429
 2602SOL    HW1 8705   6.883   4.603   3.458
 2602SOL    HW2 8706   6.722   4.633   3.466
 2603SOL     OW 8707   2.262   2.283   1.344
 2603SOL    HW1 8708   2.178   2.324   1.382
 2603SOL    HW2 8709   2.238   2.221   1.269
 2604SOL     OW 8710   5.150   1.093   1.189
 2604SOL    HW1 8711   5.122   1.069   1.282
 2604SOL    HW2 8712   5.149   1.011   1.132
 2605SOL     OW 8713   4.130   4.707   3.263
 2605SOL    HW1 8714   4.053   4.644   3.256
 2605SOL    HW2 8715   4.109   4.777   3.332
 2606SOL     OW 8716   6.931   4.907   0.602
 2606SOL    HW1 8717   6.847   4.948   0.636
 2606SOL    HW2 8718   6.938   4.813   0.634
 2607SOL     OW 8719   0.620   1.933   5.060
 2607SOL    HW1 8720   0.659   1.860   5.005
 2607SOL    HW2 8721   0.648   2.022   5.023
 2608SOL     OW 8722   4.932   6.345   2.733
 2608SOL    HW1 8723   4.945   6.421   2.669
 2608SOL    HW2 8724   4.902   6.379   2.821
 2609SOL     OW 8725   0.825   2.396   1.413
 2609SOL    HW1 8726   0.848   2.456   1.489
 2609SOL    HW2 8727   0.739   2.348   1.433
 2610SOL     OW 8728   6.813   5.256   4.462
 2610SOL    HW1 8729   6.774   5.317   4.530
 2610SOL    HW2 8730   6.848   5.173   4.507
 2611SOL     OW 8731   6.186   6.825   1.113
 2611SOL    HW1 8732   6.276   6.782   1.107
 2611SOL    HW2 8733   6.178   6.895   1.042
 2612SOL     OW 8734   6.749   6.255   5.417
 2612SOL    HW1 8735   6.771   6.348   5.447
 2612SOL    HW2 8736   6.725   6.256   5.320
 2613SOL     OW 8737   3.116   6.167   2.604
 2613SOL    HW1 8738   3.051   6.091   2.614
 2613SOL    HW2 8739   3.209   6.133   2.619
 2614SOL     OW 8740   6.384   6.120   5.891
 2614SOL    HW1 8741   6.294   6.081   5.909
 2614SOL    HW2 8742   6.443   6.106   5.970
 2615SOL     OW 8743   6.129   4.969   3.301
 2615SOL    HW1 8744   6.170   5.017   3.224
 2615SOL    HW2 8745   6.081   4.888   3.269
 2616SOL     OW 8746   3.836   3.025   4.102
 2616SOL    HW1 8747   3.891   3.099   4.140
 2616SOL    HW2 8748   3.750   3.018   4.152
 2617SOL     OW 8749   3.111   5.799   1.143
 2617SOL    HW1 8750   3.119   5.848   1.056
 2617SOL    HW2 8751   3.018   5.763   1.153
 2618SOL     OW 8752   0.495   6.780   3.763
 2618SOL    HW1 8753   0.473   6.825   3.850
 2618SOL    HW2 8754   0.503   6.681   3.778
 2619SOL     OW 8755   3.344   1.307   2.551
 2619SOL    HW1 8756   3.356   1.209   2.561
 2619SOL    HW2 8757   3.353   1.352   2.640
 2620SOL     OW 8758   1.148   5.988   3.669
 2620SOL    HW1 8759   1.049   6.000   3.664
 2620SOL    HW2 8760   1.170   5.890   3.665
 2621SOL     OW 8761   1.482   5.756   3.577
 2621SOL    HW1 8762   1.529   5.833   3.621
 2621SOL    HW2 8763   1.546   5.704   3.522
 2622SOL     OW 8764   2.065   2.677   6.693
 2622SOL    HW1 8765   2.153   2.715   6.662
 2622SOL    HW2 8766   2.079   2.624   6.776
 2623SOL     OW 8767   4.026   1.554   4.839
 2623SOL    HW1 8768   4.124   1.570   4.838
 2623SOL    HW2 8769   3.982   1.614   4.772
 2624SOL     OW 8770   6.716   2.936   4.088
 2624SOL    HW1 8771   6.641   2.892   4.137
 2624SOL    HW2 8772   6.788   2.870   4.068
 2625SOL     OW 8773   2.151   2.965   5.178
 2625SOL    HW1 8774   2.231   2.951   5.120
 2625SOL    HW2 8775   2.180   2.989   5.270
 2626SOL     OW 8776   0.630   6.504   3.712
 2626SOL    HW1 8777   0.649   6.406   3.717
 2626SOL    HW2 8778   0.716   6.555   3.722
 2627SOL     OW 8779   0.444   0.806   4.152
 2627SOL    HW1 8780   0.503   0.829   4.074
 2627SOL    HW2 8781   0.500   0.780   4.230
 2628SOL     OW 8782   3.718   5.831   6.738
 2628SOL    HW1 8783   3.715   5.817   6.837
 2628SOL    HW2 8784   3.811   5.851   6.709
 2629SOL     OW 8785   3.658   4.005   2.086
 2629SOL    HW1 8786   3.617   3.930   2.034
 2629SOL    HW2 8787   3.688   3.972   2.175
 2630SOL     OW 8788   3.759   1.996   2.486
 2630SOL    HW1 8789   3.764   2.050   2.402
 2630SOL    HW2 8790   3.787   1.902   2.466
 2631SOL     OW 8791   4.381   6.865   3.553
 2631SOL    HW1 8792   4.419   6.956   3.539
 2631SOL    HW2 8793   4.389   6.839   3.649
 2632SOL     OW 8794   2.882   1.975   5.848
 2632SOL    HW1 8795   2.806   2.007   5.904
 2632SOL    HW2 8796   2.862   1.991   5.751
 2633SOL     OW 8797   6.586   2.368   6.149
 2633SOL    HW1 8798   6.579   2.342   6.245
 2633SOL    HW2 8799   6.682   2.373   6.123
 2634SOL     OW 8800   2.235   4.137   3.570
 2634SOL    HW1 8801   2.222   4.198   3.648
 2634SOL    HW2 8802   2.289   4.183   3.500
 2635SOL     OW 8803   5.444   5.771   3.941
 2635SOL    HW1 8804   5.528   5.717   3.951
 2635SOL    HW2 8805   5.396   5.774   4.029
 2636SOL     OW 8806   5.335   0.467   6.107
 2636SOL    HW1 8807   5.274   0.509   6.174
 2636SOL    HW2 8808   5.384   0.391   6.150
 2637SOL     OW 8809   6.266   0.679   3.445
 2637SOL    HW1 8810   6.328   0.619   3.395
 2637SOL    HW2 8811   6.287   0.675   3.543
 2638SOL     OW 8812   6.630   6.873   2.975
 2638SOL    HW1 8813   6.717   6.826   2.961
 2638SOL    HW2 8814   6.559   6.806   2.998
 2639SOL     OW 8815   6.780   6.644   1.650
 2639SOL    HW1 8816   6.685   6.652   1.620
 2639SOL    HW2 8817   6.841   6.654   1.572
 2640SOL     OW 8818   6.935   6.445   5.651
 2640SOL    HW1 8819   0.001   6.464   5.672
 2640SOL    HW2 8820   6.909   6.494   5.568
 2641SOL     OW 8821   5.964   3.004   1.526
 2641SOL    HW1 8822   5.976   3.074   1.456
 2641SOL    HW2 8823   5.976   2.914   1.485
 2642SOL     OW 8824   5.065   0.409   4.750
 2642SOL    HW1 8825   5.117   0.353   4.687
 2642SOL    HW2 8826   4.976   0.432   4.710
 2643SOL     OW 8827   0.832   4.742   3.235
 2643SOL    HW1 8828   0.761   4.749   3.164
 2643SOL    HW2 8829   0.837   4.827   3.286
 2644SOL     OW 8830   0.507   4.361   5.168
 2644SOL    HW1 8831   0.447   4.372   5.247
 2644SOL    HW2 8832   0.526   4.263   5.155
 2645SOL     OW 8833   4.735   6.749   5.458
 2645SOL    HW1 8834   4.721   6.653   5.482
 2645SOL    HW2 8835   4.793   6.756   5.377
 2646SOL     OW 8836   6.227   6.664   6.524
 2646SOL    HW1 8837   6.300   6.729   6.545
 2646SOL    HW2 8838   6.265   6.572   6.518
 2647SOL     OW 8839   5.522   0.833   0.853
 2647SOL    HW1 8840   5.492   0.920   0.893
 2647SOL    HW2 8841   5.523   0.763   0.924
 2648SOL     OW 8842   6.749   6.548   3.827
 2648SOL    HW1 8843   6.770   6.542   3.730
 2648SOL    HW2 8844   6.704   6.635   3.847
 2649SOL     OW 8845   3.968   2.018   6.297
 2649SOL    HW1 8846   3.913   1.935   6.281
 2649SOL    HW2 8847   4.051   1.993   6.347
 2650SOL     OW 8848   0.726   4.035   3.851
 2650SOL    HW1 8849   0.800   3.974   3.881
 2650SOL    HW2 8850   0.640   3.984   3.847
 2651SOL     OW 8851   1.570   1.833   0.700
 2651SOL    HW1 8852   1.573   1.810   0.797
 2651SOL    HW2 8853   1.532   1.925   0.689
 2652SOL     OW 8854   3.045   3.717   3.457
 2652SOL    HW1 8855   3.026   3.656   3.380
 2652SOL    HW2 8856   3.018   3.810   3.434
 2653SOL     OW 8857   5.050   6.927   4.963
 2653SOL    HW1 8858   5.120   6.855   4.969
 2653SOL    HW2 8859   5.087   7.012   5.000
 2654SOL     OW 8860   4.590   3.315   0.092
 2654SOL    HW1 8861   4.587   3.254   0.171
 2654SOL    HW2 8862   4.514   3.293   0.031
 2655SOL     OW 8863   4.786   4.588   4.459
 2655SOL    HW1 8864   4.741   4.648   4.392
 2655SOL    HW2 8865   4.884   4.583   4.439
 2656SOL     OW 8866   4.235   4.720   4.374
 2656SOL    HW1 8867   4.239   4.686   4.280
 2656SOL    HW2 8868   4.322   4.762   4.398
 2657SOL     OW 8869   2.555   4.516   6.526
 2657SOL    HW1 8870   2.625   4.571   6.571
 2657SOL    HW2 8871   2.567   4.520   6.427
 2658SOL     OW 8872   5.395   4.224   6.617
 2658SOL    HW1 8873   5.349   4.237   6.705
 2658SOL    HW2 8874   5.476   4.283   6.613
 2659SOL     OW 8875   5.816   2.486   4.296
 2659SOL    HW1 8876   5.897   2.447   4.342
 2659SOL    HW2 8877   5.739   2.422   4.305
 2660SOL     OW 8878   0.752   1.775   0.683
 2660SOL    HW1 8879   0.701   1.832   0.619
 2660SOL    HW2 8880   0.710   1.781   0.774
 2661SOL     OW 8881   2.321   6.527   1.989
 2661SOL    HW1 8882   2.291   6.615   2.027
 2661SOL    HW2 8883   2.367   6.543   1.901
 2662SOL     OW 8884   4.449   0.145   4.609
 2662SOL    HW1 8885   4.486   0.235   4.633
 2662SOL    HW2 8886   4.519   0.075   4.624
 2663SOL     OW 8887   2.476   5.029   0.969
 2663SOL    HW1 8888   2.466   5.004   1.065
 2663SOL    HW2 8889   2.410   4.977   0.914
 2664SOL     OW 8890   3.860   3.679   3.421
 2664SOL    HW1 8891   3.921   3.707   3.346
 2664SOL    HW2 8892   3.769   3.715   3.405
 2665SOL     OW 8893   3.302   1.794   5.040
 2665SOL    HW1 8894   3.359   1.713   5.026
 2665SOL    HW2 8895   3.242   1.807   4.962
 2666SOL     OW 8896   5.002   3.530   1.274
 2666SOL    HW1 8897   5.091   3.553   1.234
 2666SOL    HW2 8898   5.007   3.539   1.374
 2667SOL     OW 8899   1.590   5.927   4.791
 2667SOL    HW1 8900   1.511   5.971   4.748
 2667SOL    HW2 8901   1.604   5.837   4.752
 2668SOL     OW 8902   6.446   3.278   3.673
 2668SOL    HW1 8903   6.494   3.236   3.750
 2668SOL    HW2 8904   6.364   3.225   3.652
 2669SOL     OW 8905   2.986   4.789   5.535
 2669SOL    HW1 8906   3.062   4.829   5.587
 2669SOL    HW2 8907   3.022   4.726   5.466
 2670SOL     OW 8908   5.989   1.292   6.266
 2670SOL    HW1 8909   5.945   1.281   6.355
 2670SOL    HW2 8910   6.072   1.236   6.263
 2671SOL     OW 8911   3.144   4.861   0.296
 2671SOL    HW1 8912   3.168   4.950   0.335
 2671SOL    HW2 8913   3.167   4.859   0.199
 2672SOL     OW 8914   0.653   5.453   6.681
 2672SOL    HW1 8915   0.564   5.416   6.654
 2672SOL    HW2 8916   0.708   5.469   6.600
 2673SOL     OW 8917   5.346   2.741   3.933
 2673SOL    HW1 8918   5.286   2.808   3.978
 2673SOL    HW2 8919   5.378   2.675   4.000
 2674SOL     OW 8920   2.256   4.465   4.380
 2674SOL    HW1 8921   2.256   4.449   4.281
 2674SOL    HW2 8922   2.350   4.461   4.413
 2675SOL     OW 8923   0.697   4.391   5.467
 2675SOL    HW1 8924   0.687   4.459   5.394
 2675SOL    HW2 8925   0.776   4.415   5.523
 2676SOL     OW 8926   4.268   0.896   2.903
 2676SOL    HW1 8927   4.246   0.930   2.812
 2676SOL    HW2 8928   4.264   0.972   2.969
 2677SOL     OW 8929   3.556   5.145   1.346
 2677SOL    HW1 8930   3.594   5.099   1.426
 2677SOL    HW2 8931   3.550   5.244   1.364
 2678SOL     OW 8932   0.226   4.297   0.832
 2678SOL    HW1 8933   0.136   4.311   0.872
 2678SOL    HW2 8934   0.268   4.386   0.813
 2679SOL     OW 8935   4.466   5.425   1.008
 2679SOL    HW1 8936   4.518   5.449   0.926
 2679SOL    HW2 8937   4.386   5.484   1.016
 2680SOL     OW 8938   1.607   1.625   1.230
 2680SOL    HW1 8939   1.579   1.582   1.144
 2680SOL    HW2 8940   1.657   1.558   1.285
 2681SOL     OW 8941   1.473   2.457   4.367
 2681SOL    HW1 8942   1.382   2.453   4.407
 2681SOL    HW2 8943   1.475   2.403   4.283
 2682SOL     OW 8944   5.514   3.159   2.351
 2682SOL    HW1 8945   5.470   3.070   2.358
 2682SOL    HW2 8946   5.444   3.229   2.335
 2683SOL     OW 8947   1.653   3.534   0.533
 2683SOL    HW1 8948   1.721   3.551   0.604
 2683SOL    HW2 8949   1.656   3.437   0.507
 2684SOL     OW 8950   4.049   5.045   2.836
 2684SOL    HW1 8951   4.132   5.068   2.887
 2684SOL    HW2 8952   3.974   5.030   2.900
 2685SOL     OW 8953   6.824   6.544   5.415
 2685SOL    HW1 8954   6.762   6.583   5.483
 2685SOL    HW2 8955   6.819   6.598   5.331
 2686SOL     OW 8956   1.710   2.259   5.048
 2686SOL    HW1 8957   1.638   2.326   5.032
 2686SOL    HW2 8958   1.790   2.281   4.992
 2687SOL     OW 8959   4.559   4.601   2.803
 2687SOL    HW1 8960   4.651   4.569   2.825
 2687SOL    HW2 8961   4.533   4.676   2.865
 2688SOL     OW 8962   4.550   5.723   6.400
 2688SOL    HW1 8963   4.511   5.811   6.428
 2688SOL    HW2 8964   4.532   5.654   6.470
 2689SOL     OW 8965   2.360   2.028   3.447
 2689SOL    HW1 8966   2.312   2.001   3.364
 2689SOL    HW2 8967   2.383   2.125   3.442
 2690SOL     OW 8968   3.094   3.137   3.771
 2690SOL    HW1 8969   3.055   3.152   3.861
 2690SOL    HW2 8970   3.182   3.186   3.764
 2691SOL     OW 8971   1.641   5.485   2.436
 2691SOL    HW1 8972   1.562   5.426   2.453
 2691SOL    HW2 8973   1.636   5.522   2.344
 2692SOL     OW 8974   5.285   5.878   4.150
 2692SOL    HW1 8975   5.206   5.919   4.103
 2692SOL    HW2 8976   5.345   5.950   4.184
 2693SOL     OW 8977   2.085   4.252   2.979
 2693SOL    HW1 8978   1.990   4.273   3.003
 2693SOL    HW2 8979   2.115   4.171   3.030
 2694SOL     OW 8980   3.468   0.803   2.541
 2694SOL    HW1 8981   3.413   0.724   2.570
 2694SOL    HW2 8982   3.559   0.772   2.514
 2695SOL     OW 8983   5.242   1.827   2.519
 2695SOL    HW1 8984   5.231   1.887   2.597
 2695SOL    HW2 8985   5.309   1.866   2.456
 2696SOL     OW 8986   3.357   2.872   5.148
 2696SOL    HW1 8987   3.329   2.794   5.205
 2696SOL    HW2 8988   3.447   2.903   5.178
 2697SOL     OW 8989   4.791   1.944   3.904
 2697SOL    HW1 8990   4.889   1.926   3.895
 2697SOL    HW2 8991   4.757   1.906   3.990
 2698SOL     OW 8992   2.261   5.436   0.925
 2698SOL    HW1 8993   2.230   5.349   0.962
 2698SOL    HW2 8994   2.182   5.498   0.915
 2699SOL     OW 8995   3.393   5.643   0.501
 2699SOL    HW1 8996   3.419   5.599   0.415
 2699SOL    HW2 8997   3.351   5.576   0.562
 2700SOL     OW 8998   2.086   3.338   2.107
 2700SOL    HW1 8999   2.148   3.361   2.032
 2700SOL    HW2 9000   2.111   3.250   2.146
 2701SOL     OW 9001   4.106   0.108   6.366
 2701SOL    HW1 9002   4.127   0.205   6.377
 2701SOL    HW2 9003   4.081   0.090   6.271
 2702SOL     OW 9004   0.012   1.407   3.760
 2702SOL    HW1 9005   7.025   1.503   3.735
 2702SOL    HW2 9006   6.991   1.347   3.698
 2703SOL     OW 9007   2.144   1.009   2.619
 2703SOL    HW1 9008   2.197   0.978   2.540
 2703SOL    HW2 9009   2.206   1.029   2.695
 2704SOL     OW 9010   0.909   5.414   0.635
 2704SOL    HW1 9011   0.963   5.376   0.560
 2704SOL    HW2 9012   0.956   5.398   0.721
 2705SOL     OW 9013   0.990   5.373   4.002
 2705SOL    HW1 9014   1.041   5.339   4.082
 2705SOL    HW2 9015   0.982   5.472   4.007
 2706SOL     OW 9016   0.205   0.748   1.412
 2706SOL    HW1 9017   0.250   0.809   1.477
 2706SOL    HW2 9018   0.113   0.726   1.445
 2707SOL     OW 9019   2.338   0.842   5.675
 2707SOL    HW1 9020   2.349   0.825   5.577
 2707SOL    HW2 9021   2.415   0.896   5.708
 2708SOL     OW 9022   1.655   3.043   1.653
 2708SOL    HW1 9023   1.733   3.093   1.692
 2708SOL    HW2 9024   1.639   2.960   1.705
 2709SOL     OW 9025   5.683   6.408   1.108
 2709SOL    HW1 9026   5.663   6.506   1.105
 2709SOL    HW2 9027   5.619   6.363   1.170
 2710SOL     OW 9028   6.749   3.213   2.993
 2710SOL    HW1 9029   6.775   3.245   2.902
 2710SOL    HW2 9030   6.679   3.143   2.985
 2711SOL     OW 9031   3.174   0.531   2.920
 2711SOL    HW1 9032   3.182   0.498   3.014
 2711SOL    HW2 9033   3.169   0.453   2.858
 2712SOL     OW 9034   4.053   5.209   0.819
 2712SOL    HW1 9035   4.152   5.221   0.830
 2712SOL    HW2 9036   4.006   5.292   0.849
 2713SOL     OW 9037   1.531   2.699   4.576
 2713SOL    HW1 9038   1.567   2.781   4.622
 2713SOL    HW2 9039   1.593   2.673   4.502
 2714SOL     OW 9040   4.817   2.385   0.101
 2714SOL    HW1 9041   4.880   2.457   0.130
 2714SOL    HW2 9042   4.736   2.427   0.059
 2715SOL     OW 9043   5.917   0.165   0.091
 2715SOL    HW1 9044   5.992   0.153   0.157
 2715SOL    HW2 9045   5.853   0.233   0.125
 2716SOL     OW 9046   6.137   5.219   1.961
 2716SOL    HW1 9047   6.170   5.174   1.878
 2716SOL    HW2 9048   6.189   5.304   1.975
 2717SOL     OW 9049   1.254   5.430   2.012
 2717SOL    HW1 9050   1.285   5.386   2.097
 2717SOL    HW2 9051   1.288   5.377   1.934
 2718SOL     OW 9052   2.120   3.548   4.108
 2718SOL    HW1 9053   2.190   3.482   4.082
 2718SOL    HW2 9054   2.054   3.504   4.169
 2719SOL     OW 9055   5.045   4.878   1.537
 2719SOL    HW1 9056   4.996   4.875   1.450
 2719SOL    HW2 9057   5.106   4.800   1.543
 2720SOL     OW 9058   2.169   6.007   3.358
 2720SOL    HW1 9059   2.125   6.078   3.414
 2720SOL    HW2 9060   2.136   5.917   3.387
 2721SOL     OW 9061   2.891   0.164   5.388
 2721SOL    HW1 9062   2.842   0.239   5.431
 2721SOL    HW2 9063   2.829   0.087   5.373
 2722SOL     OW 9064   6.432   5.423   2.755
 2722SOL    HW1 9065   6.415   5.514   2.793
 2722SOL    HW2 9066   6.444   5.358   2.830
 2723SOL     OW 9067   1.687   0.244   6.275
 2723SOL    HW1 9068   1.786   0.250   6.267
 2723SOL    HW2 9069   1.663   0.196   6.360
 2724SOL     OW 9070   3.392   6.743   5.971
 2724SOL    HW1 9071   3.442   6.769   6.054
 2724SOL    HW2 9072   3.345   6.823   5.934
 2725SOL     OW 9073   6.276   5.049   3.089
 2725SOL    HW1 9074   6.312   5.141   3.072
 2725SOL    HW2 9075   6.216   5.023   3.013
 2726SOL     OW 9076   6.120   4.373   1.034
 2726SOL    HW1 9077   6.162   4.288   1.001
 2726SOL    HW2 9078   6.028   4.380   0.997
 2727SOL     OW 9079   0.220   4.819   2.722
 2727SOL    HW1 9080   0.299   4.814   2.782
 2727SOL    HW2 9081   0.250   4.837   2.628
 2728SOL     OW 9082   3.205   0.324   5.369
 2728SOL    HW1 9083   3.222   0.238   5.320
 2728SOL    HW2 9084   3.120   0.315   5.422
 2729SOL     OW 9085   0.063   5.708   1.574
 2729SOL    HW1 9086   0.089   5.770   1.500
 2729SOL    HW2 9087   0.124   5.720   1.652
 2730SOL     OW 9088   1.602   6.316   0.738
 2730SOL    HW1 9089   1.557   6.404   0.750
 2730SOL    HW2 9090   1.602   6.266   0.825
 2731SOL     OW 9091   3.588   3.634   1.440
 2731SOL    HW1 9092   3.513   3.698   1.421
 2731SOL    HW2 9093   3.644   3.670   1.515
 2732SOL     OW 9094   6.192   3.215   2.565
 2732SOL    HW1 9095   6.271   3.154   2.557
 2732SOL    HW2 9096   6.108   3.164   2.548
 2733SOL     OW 9097   0.274   7.027   5.052
 2733SOL    HW1 9098   0.351   6.964   5.062
 2733SOL    HW2 9099   0.309   0.091   5.044
 2734SOL     OW 9100   2.105   5.174   2.390
 2734SOL    HW1 9101   2.118   5.241   2.463
 2734SOL    HW2 9102   2.032   5.110   2.417
 2735SOL     OW 9103   0.820   3.338   2.702
 2735SOL    HW1 9104   0.799   3.241   2.715
 2735SOL    HW2 9105   0.737   3.387   2.676
 2736SOL     OW 9106   5.179   0.569   3.820
 2736SOL    HW1 9107   5.273   0.536   3.831
 2736SOL    HW2 9108   5.147   0.606   3.907
 2737SOL     OW 9109   3.118   3.249   5.524
 2737SOL    HW1 9110   3.071   3.160   5.519
 2737SOL    HW2 9111   3.202   3.239   5.576
 2738SOL     OW 9112   5.197   5.376   4.404
 2738SOL    HW1 9113   5.191   5.281   4.433
 2738SOL    HW2 9114   5.112   5.424   4.430
 2739SOL     OW 9115   6.381   4.865   0.346
 2739SOL    HW1 9116   6.432   4.951   0.346
 2739SOL    HW2 9117   6.389   4.822   0.435
 2740SOL     OW 9118   5.409   2.420   2.144
 2740SOL    HW1 9119   5.491   2.374   2.179
 2740SOL    HW2 9120   5.356   2.456   2.220
 2741SOL     OW 9121   6.990   1.678   6.581
 2741SOL    HW1 9122   0.020   1.686   6.660
 2741SOL    HW2 9123   0.013   1.648   6.502
 2742SOL     OW 9124   1.515   5.347   6.085
 2742SOL    HW1 9125   1.606   5.339   6.127
 2742SOL    HW2 9126   1.514   5.424   6.022
 2743SOL     OW 9127   6.189   5.335   1.566
 2743SOL    HW1 9128   6.195   5.433   1.549
 2743SOL    HW2 9129   6.189   5.286   1.479
 2744SOL     OW 9130   3.655   3.049   6.725
 2744SOL    HW1 9131   3.615   3.058   6.634
 2744SOL    HW2 9132   3.582   3.028   6.791
 2745SOL     OW 9133   1.600   6.992   6.915
 2745SOL    HW1 9134   1.576   6.994   7.012
 2745SOL    HW2 9135   1.554   6.916   6.871
 2746SOL     OW 9136   2.144   2.603   4.390
 2746SOL    HW1 9137   2.192   2.652   4.463
 2746SOL    HW2 9138   2.205   2.596   4.310
 2747SOL     OW 9139   5.572   3.998   5.256
 2747SOL    HW1 9140   5.529   3.939   5.324
 2747SOL    HW2 9141   5.574   3.950   5.168
 2748SOL     OW 9142   3.636   1.375   1.426
 2748SOL    HW1 9143   3.595   1.455   1.383
 2748SOL    HW2 9144   3.735   1.384   1.427
 2749SOL     OW 9145   5.522   4.750   4.098
 2749SOL    HW1 9146   5.565   4.839   4.118
 2749SOL    HW2 9147   5.480   4.752   4.007
 2750SOL     OW 9148   0.644   5.622   1.693
 2750SOL    HW1 9149   0.560   5.648   1.644
 2750SOL    HW2 9150   0.629   5.634   1.791
 2751SOL     OW 9151   1.882   6.984   0.522
 2751SOL    HW1 9152   1.868   0.053   0.526
 2751SOL    HW2 9153   1.879   6.954   0.426
 2752SOL     OW 9154   5.592   5.588   5.177
 2752SOL    HW1 9155   5.533   5.660   5.214
 2752SOL    HW2 9156   5.535   5.520   5.130
 2753SOL     OW 9157   1.719   6.997   6.035
 2753SOL    HW1 9158   1.815   6.987   6.006
 2753SOL    HW2 9159   1.683   0.053   5.999
 2754SOL     OW 9160   6.513   0.622   4.401
 2754SOL    HW1 9161   6.567   0.543   4.429
 2754SOL    HW2 9162   6.536   0.646   4.307
 2755SOL     OW 9163   2.758   6.623   2.794
 2755SOL    HW1 9164   2.713   6.533   2.798
 2755SOL    HW2 9165   2.693   6.693   2.823
 2756SOL     OW 9166   5.929   3.909   4.312
 2756SOL    HW1 9167   5.942   3.975   4.238
 2756SOL    HW2 9168   6.019   3.879   4.346
 2757SOL     OW 9169   2.823   1.820   6.727
 2757SOL    HW1 9170   2.780   1.730   6.732
 2757SOL    HW2 9171   2.757   1.887   6.692
 2758SOL     OW 9172   5.261   6.141   3.601
 2758SOL    HW1 9173   5.300   6.068   3.658
 2758SOL    HW2 9174   5.191   6.102   3.542
 2759SOL     OW 9175   3.504   5.158   5.066
 2759SOL    HW1 9176   3.406   5.142   5.052
 2759SOL    HW2 9177   3.545   5.077   5.108
 2760SOL     OW 9178   6.411   5.313   3.001
 2760SOL    HW1 9179   6.473   5.271   3.066
 2760SOL    HW2 9180   6.404   5.411   3.020
 2761SOL     OW 9181   1.875   3.957   3.693
 2761SOL    HW1 9182   1.786   3.930   3.655
 2761SOL    HW2 9183   1.892   3.906   3.777
 2762SOL     OW 9184   1.157   2.448   6.497
 2762SOL    HW1 9185   1.100   2.523   6.462
 2762SOL    HW2 9186   1.220   2.484   6.566
 2763SOL     OW 9187   5.381   1.841   5.887
 2763SOL    HW1 9188   5.404   1.793   5.971
 2763SOL    HW2 9189   5.300   1.799   5.845
 2764SOL     OW 9190   0.152   5.185   2.909
 2764SOL    HW1 9191   0.194   5.183   3.000
 2764SOL    HW2 9192   0.183   5.266   2.860
 2765SOL     OW 9193   0.295   0.350   0.879
 2765SOL    HW1 9194   0.351   0.355   0.796
 2765SOL    HW2 9195   0.306   0.260   0.921
 2766SOL     OW 9196   4.213   0.861   0.062
 2766SOL    HW1 9197   4.118   0.830   0.060
 2766SOL    HW2 9198   4.240   0.892   7.001
 2767SOL     OW 9199   5.991   6.074   6.732
 2767SOL    HW1 9200   6.043   6.071   6.817
 2767SOL    HW2 9201   6.025   6.148   6.675
 2768SOL     OW 9202   4.367   1.230   0.051
 2768SOL    HW1 9203   4.313   1.161   0.003
 2768SOL    HW2 9204   4.447   1.187   0.092
 2769SOL     OW 9205   2.030   4.314   6.126
 2769SOL    HW1 9206   1.991   4.341   6.039
 2769SOL    HW2 9207   2.093   4.384   6.158
 2770SOL     OW 9208   3.752   6.096   6.348
 2770SOL    HW1 9209   3.798   6.110   6.435
 2770SOL    HW2 9210   3.708   6.181   6.319
 2771SOL     OW 9211   5.584   6.840   4.633
 2771SOL    HW1 9212   5.600   6.929   4.589
 2771SOL    HW2 9213   5.559   6.854   4.728
 2772SOL     OW 9214   3.348   1.225   2.270
 2772SOL    HW1 9215   3.304   1.265   2.351
 2772SOL    HW2 9216   3.347   1.291   2.195
 2773SOL     OW 9217   0.202   2.956   3.969
 2773SOL    HW1 9218   0.268   2.992   3.904
 2773SOL    HW2 9219   0.238   2.872   4.010
 2774SOL     OW 9220   5.161   3.290   2.818
 2774SOL    HW1 9221   5.090   3.325   2.880
 2774SOL    HW2 9222   5.231   3.242   2.871
 2775SOL     OW 9223   6.649   3.582   3.839
 2775SOL    HW1 9224   6.711   3.582   3.918
 2775SOL    HW2 9225   6.688   3.525   3.766
 2776SOL     OW 9226   5.256   5.154   6.123
 2776SOL    HW1 9227   5.302   5.125   6.207
 2776SOL    HW2 9228   5.164   5.185   6.145
 2777SOL     OW 9229   2.251   1.775   6.392
 2777SOL    HW1 9230   2.165   1.771   6.443
 2777SOL    HW2 9231   2.328   1.782   6.456
 2778SOL     OW 9232   2.067   5.850   6.596
 2778SOL    HW1 9233   2.021   5.903   6.525
 2778SOL    HW2 9234   2.006   5.839   6.674
 2779SOL     OW 9235   5.828   6.519   2.261
 2779SOL    HW1 9236   5.730   6.532   2.245
 2779SOL    HW2 9237   5.865   6.455   2.194
 2780SOL     OW 9238   6.856   0.100   6.093
 2780SOL    HW1 9239   6.889   0.014   6.053
 2780SOL    HW2 9240   6.924   0.171   6.078
 2781SOL     OW 9241   5.763   0.510   2.903
 2781SOL    HW1 9242   5.817   0.439   2.857
 2781SOL    HW2 9243   5.666   0.486   2.896
 2782SOL     OW 9244   4.464   1.363   5.666
 2782SOL    HW1 9245   4.476   1.284   5.605
 2782SOL    HW2 9246   4.550   1.381   5.714
 2783SOL     OW 9247   6.132   3.564   1.420
 2783SOL    HW1 9248   6.040   3.580   1.384
 2783SOL    HW2 9249   6.157   3.640   1.480
 2784SOL     OW 9250   2.919   1.719   2.417
 2784SOL    HW1 9251   2.924   1.712   2.317
 2784SOL    HW2 9252   3.006   1.754   2.452
 2785SOL     OW 9253   5.110   1.992   1.044
 2785SOL    HW1 9254   5.055   1.944   1.113
 2785SOL    HW2 9255   5.194   2.026   1.086
 2786SOL     OW 9256   6.591   5.709   1.230
 2786SOL    HW1 9257   6.601   5.806   1.251
 2786SOL    HW2 9258   6.591   5.656   1.315
 2787SOL     OW 9259   6.561   5.883   5.768
 2787SOL    HW1 9260   6.495   5.958   5.763
 2787SOL    HW2 9261   6.652   5.916   5.742
 2788SOL     OW 9262   3.173   6.186   6.415
 2788SOL    HW1 9263   3.234   6.168   6.492
 2788SOL    HW2 9264   3.082   6.152   6.436
 2789SOL     OW 9265   1.515   2.504   3.651
 2789SOL    HW1 9266   1.563   2.558   3.582
 2789SOL    HW2 9267   1.506   2.409   3.618
 2790SOL     OW 9268   3.157   5.088   0.704
 2790SOL    HW1 9269   3.093   5.146   0.754
 2790SOL    HW2 9270   3.237   5.070   0.762
 2791SOL     OW 9271   0.277   4.283   2.297
 2791SOL    HW1 9272   0.189   4.326   2.279
 2791SOL    HW2 9273   0.307   4.233   2.216
 2792SOL     OW 9274   3.205   1.108   4.316
 2792SOL    HW1 9275   3.170   1.085   4.406
 2792SOL    HW2 9276   3.249   1.198   4.319
 2793SOL     OW 9277   5.104   3.837   1.755
 2793SOL    HW1 9278   5.159   3.782   1.692
 2793SOL    HW2 9279   5.129   3.815   1.849
 2794SOL     OW 9280   0.127   1.470   5.895
 2794SOL    HW1 9281   0.110   1.547   5.834
 2794SOL    HW2 9282   0.042   1.445   5.942
 2795SOL     OW 9283   0.683   5.134   0.806
 2795SOL    HW1 9284   0.768   5.089   0.834
 2795SOL    HW2 9285   0.610   5.110   0.870
 2796SOL     OW 9286   0.473   5.246   4.443
 2796SOL    HW1 9287   0.471   5.150   4.412
 2796SOL    HW2 9288   0.385   5.289   4.421
 2797SOL     OW 9289   5.276   5.357   5.804
 2797SOL    HW1 9290   5.198   5.408   5.840
 2797SOL    HW2 9291   5.327   5.414   5.739
 2798SOL     OW 9292   6.882   5.784   2.520
 2798SOL    HW1 9293   6.930   5.838   2.450
 2798SOL    HW2 9294   6.924   5.694   2.526
 2799SOL     OW 9295   4.947   5.577   5.681
 2799SOL    HW1 9296   5.000   5.542   5.758
 2799SOL    HW2 9297   4.948   5.510   5.607
 2800SOL     OW 9298   5.969   0.918   6.535
 2800SOL    HW1 9299   6.009   0.837   6.493
 2800SOL    HW2 9300   6.039   0.989   6.545
 2801SOL     OW 9301   1.483   5.512   5.887
 2801SOL    HW1 9302   1.480   5.467   5.798
 2801SOL    HW2 9303   1.406   5.576   5.894
 2802SOL     OW 9304   6.992   6.011   5.448
 2802SOL    HW1 9305   6.897   5.989   5.422
 2802SOL    HW2 9306   7.004   6.110   5.450
 2803SOL     OW 9307   3.348   4.319   5.677
 2803SOL    HW1 9308   3.436   4.335   5.631
 2803SOL    HW2 9309   3.360   4.248   5.746
 2804SOL     OW 9310   0.229   3.301   3.962
 2804SOL    HW1 9311   0.226   3.345   4.052
 2804SOL    HW2 9312   0.309   3.242   3.956
 2805SOL     OW 9313   5.669   3.837   2.229
 2805SOL    HW1 9314   5.733   3.811   2.301
 2805SOL    HW2 9315   5.582   3.789   2.244
 2806SOL     OW 9316   1.764   4.612   6.641
 2806SOL    HW1 9317   1.818   4.538   6.683
 2806SOL    HW2 9318   1.775   4.695   6.695
 2807SOL     OW 9319   3.601   0.641   3.090
 2807SOL    HW1 9320   3.521   0.689   3.052
 2807SOL    HW2 9321   3.575   0.595   3.175
 2808SOL     OW 9322   5.831   6.148   0.915
 2808SOL    HW1 9323   5.748   6.117   0.869
 2808SOL    HW2 9324   5.843   6.246   0.899
 2809SOL     OW 9325   5.719   3.110   1.904
 2809SOL    HW1 9326   5.697   3.020   1.942
 2809SOL    HW2 9327   5.702   3.180   1.973
 2810SOL     OW 9328   2.423   5.485   2.644
 2810SOL    HW1 9329   2.439   5.473   2.742
 2810SOL    HW2 9330   2.503   5.528   2.602
 2811SOL     OW 9331   1.043   1.109   2.686
 2811SOL    HW1 9332   1.131   1.128   2.642
 2811SOL    HW2 9333   1.022   1.012   2.678
 2812SOL     OW 9334   6.769   3.109   0.482
 2812SOL    HW1 9335   6.866   3.087   0.466
 2812SOL    HW2 9336   6.749   3.199   0.442
 2813SOL     OW 9337   0.411   1.529   0.937
 2813SOL    HW1 9338   0.496   1.534   0.884
 2813SOL    HW2 9339   0.434   1.529   1.035
 2814SOL     OW 9340   3.280   4.056   5.898
 2814SOL    HW1 9341   3.353   3.989   5.914
 2814SOL    HW2 9342   3.207   4.014   5.844
 2815SOL     OW 9343   0.584   6.122   5.906
 2815SOL    HW1 9344   0.657   6.091   5.967
 2815SOL    HW2 9345   0.574   6.221   5.913
 2816SOL     OW 9346   0.213   5.768   4.992
 2816SOL    HW1 9347   0.182   5.675   4.974
 2816SOL    HW2 9348   0.185   5.796   5.084
 2817SOL     OW 9349   3.790   1.302   2.008
 2817SOL    HW1 9350   3.736   1.364   1.951
 2817SOL    HW2 9351   3.739   1.281   2.092
 2818SOL     OW 9352   0.352   1.077   0.909
 2818SOL    HW1 9353   0.436   1.090   0.962
 2818SOL    HW2 9354   0.305   1.165   0.900
 2819SOL     OW 9355   1.502   0.481   1.167
 2819SOL    HW1 9356   1.414   0.477   1.215
 2819SOL    HW2 9357   1.552   0.396   1.182
 2820SOL     OW 9358   1.261   1.969   2.200
 2820SOL    HW1 9359   1.357   1.986   2.223
 2820SOL    HW2 9360   1.256   1.915   2.116
 2821SOL     OW 9361   3.239   5.140   5.992
 2821SOL    HW1 9362   3.202   5.211   5.932
 2821SOL    HW2 9363   3.301   5.181   6.058
 2822SOL     OW 9364   3.727   2.708   0.202
 2822SOL    HW1 9365   3.728   2.763   0.118
 2822SOL    HW2 9366   3.735   2.611   0.178
 2823SOL     OW 9367   5.266   0.999   0.049
 2823SOL    HW1 9368   5.226   1.067   0.110
 2823SOL    HW2 9369   5.365   0.995   0.066
 2824SOL     OW 9370   1.528   3.468   5.070
 2824SOL    HW1 9371   1.574   3.415   5.141
 2824SOL    HW2 9372   1.471   3.539   5.112
 2825SOL     OW 9373   5.367   0.529   6.641
 2825SOL    HW1 9374   5.380   0.608   6.700
 2825SOL    HW2 9375   5.408   0.546   6.551
 2826SOL     OW 9376   1.517   3.338   6.315
 2826SOL    HW1 9377   1.583   3.263   6.325
 2826SOL    HW2 9378   1.425   3.303   6.327
 2827SOL     OW 9379   0.566   0.507   6.300
 2827SOL    HW1 9380   0.593   0.558   6.218
 2827SOL    HW2 9381   0.616   0.542   6.379
 2828SOL     OW 9382   1.713   3.530   1.225
 2828SOL    HW1 9383   1.761   3.496   1.305
 2828SOL    HW2 9384   1.644   3.596   1.254
 2829SOL     OW 9385   3.576   3.845   2.969
 2829SOL    HW1 9386   3.651   3.781   2.957
 2829SOL    HW2 9387   3.610   3.928   3.015
 2830SOL     OW 9388   3.578   4.294   5.204
 2830SOL    HW1 9389   3.669   4.272   5.170
 2830SOL    HW2 9390   3.521   4.212   5.204
 2831SOL     OW 9391   0.137   1.926   2.552
 2831SOL    HW1 9392   0.204   1.853   2.541
 2831SOL    HW2 9393   0.085   1.936   2.467
 2832SOL     OW 9394   0.603   3.199   1.452
 2832SOL    HW1 9395   0.692   3.194   1.407
 2832SOL    HW2 9396   0.597   3.128   1.522
 2833SOL     OW 9397   2.327   1.176   2.407
 2833SOL    HW1 9398   2.405   1.211   2.459
 2833SOL    HW2 9399   2.340   1.079   2.389
 2834SOL     OW 9400   4.861   6.114   5.085
 2834SOL    HW1 9401   4.859   6.075   4.993
 2834SOL    HW2 9402   4.823   6.206   5.083
 2835SOL     OW 9403   1.202   6.305   7.012
 2835SOL    HW1 9404   1.187   6.242   6.936
 2835SOL    HW2 9405   1.264   6.378   6.983
 2836SOL     OW 9406   3.764   6.286   3.143
 2836SOL    HW1 9407   3.837   6.218   3.147
 2836SOL    HW2 9408   3.704   6.274   3.222
 2837SOL     OW 9409   5.706   4.204   2.209
 2837SOL    HW1 9410   5.773   4.236   2.143
 2837SOL    HW2 9411   5.753   4.166   2.289
 2838SOL     OW 9412   4.965   4.077   6.697
 2838SOL    HW1 9413   5.040   4.040   6.642
 2838SOL    HW2 9414   4.990   4.074   6.793
 2839SOL     OW 9415   6.703   2.279   3.066
 2839SOL    HW1 9416   6.653   2.346   3.121
 2839SOL    HW2 9417   6.793   2.262   3.107
 2840SOL     OW 9418   1.439   5.299   2.941
 2840SOL    HW1 9419   1.453   5.223   3.004
 2840SOL    HW2 9420   1.520   5.310   2.884
 2841SOL     OW 9421   6.249   2.370   0.526
 2841SOL    HW1 9422   6.268   2.451   0.581
 2841SOL    HW2 9423   6.194   2.306   0.579
 2842SOL     OW 9424   1.443   5.653   4.987
 2842SOL    HW1 9425   1.474   5.736   5.035
 2842SOL    HW2 9426   1.523   5.602   4.954
 2843SOL     OW 9427   2.531   2.481   2.479
 2843SOL    HW1 9428   2.508   2.465   2.383
 2843SOL    HW2 9429   2.609   2.425   2.505
 2844SOL     OW 9430   4.880   4.520   1.551
 2844SOL    HW1 9431   4.960   4.483   1.598
 2844SOL    HW2 9432   4.891   4.506   1.453
 2845SOL     OW 9433   5.121   2.677   3.726
 2845SOL    HW1 9434   5.178   2.689   3.808
 2845SOL    HW2 9435   5.062   2.596   3.738
 2846SOL     OW 9436   3.605   0.762   0.147
 2846SOL    HW1 9437   3.650   0.777   0.235
 2846SOL    HW2 9438   3.623   0.840   0.087
 2847SOL     OW 9439   4.780   4.090   1.926
 2847SOL    HW1 9440   4.703   4.151   1.944
 2847SOL    HW2 9441   4.803   4.094   1.829
 2848SOL     OW 9442   1.221   2.304   5.383
 2848SOL    HW1 9443   1.252   2.216   5.347
 2848SOL    HW2 9444   1.221   2.372   5.309
 2849SOL     OW 9445   3.644   0.977   1.723
 2849SOL    HW1 9446   3.607   0.993   1.814
 2849SOL    HW2 9447   3.605   1.044   1.659
 2850SOL     OW 9448   1.924   6.943   3.836
 2850SOL    HW1 9449   1.904   0.006   3.868
 2850SOL    HW2 9450   2.011   6.942   3.787
 2851SOL     OW 9451   3.964   3.383   6.860
 2851SOL    HW1 9452   3.875   3.337   6.862
 2851SOL    HW2 9453   4.031   3.330   6.912
 2852SOL     OW 9454   6.502   4.679   0.177
 2852SOL    HW1 9455   6.434   4.743   0.212
 2852SOL    HW2 9456   6.520   4.609   0.246
 2853SOL     OW 9457   0.287   3.034   6.728
 2853SOL    HW1 9458   0.243   3.002   6.811
 2853SOL    HW2 9459   0.218   3.055   6.659
 2854SOL     OW 9460   3.645   1.153   6.459
 2854SOL    HW1 9461   3.605   1.077   6.407
 2854SOL    HW2 9462   3.735   1.126   6.493
 2855SOL     OW 9463   0.872   2.349   4.236
 2855SOL    HW1 9464   0.953   2.377   4.286
 2855SOL    HW2 9465   0.882   2.254   4.206
 2856SOL     OW 9466   1.529   2.698   2.967
 2856SOL    HW1 9467   1.463   2.715   2.894
 2856SOL    HW2 9468   1.552   2.601   2.969
 2857SOL     OW 9469   0.317   3.372   0.810
 2857SOL    HW1 9470   0.351   3.444   0.871
 2857SOL    HW2 9471   0.332   3.283   0.852
 2858SOL     OW 9472   5.769   6.131   2.772
 2858SOL    HW1 9473   5.718   6.193   2.712
 2858SOL    HW2 9474   5.795   6.049   2.720
 2859SOL     OW 9475   5.143   5.346   0.444
 2859SOL    HW1 9476   5.132   5.445   0.452
 2859SOL    HW2 9477   5.207   5.313   0.514
 2860SOL     OW 9478   1.910   6.613   1.939
 2860SOL    HW1 9479   1.905   6.612   1.839
 2860SOL    HW2 9480   1.977   6.545   1.969
 2861SOL     OW 9481   3.084   5.161   5.588
 2861SOL    HW1 9482   3.155   5.129   5.527
 2861SOL    HW2 9483   2.997   5.167   5.539
 2862SOL     OW 9484   4.663   2.587   1.666
 2862SOL    HW1 9485   4.567   2.572   1.645
 2862SOL    HW2 9486   4.682   2.686   1.666
 2863SOL     OW 9487   5.255   0.865   6.303
 2863SOL    HW1 9488   5.268   0.899   6.210
 2863SOL    HW2 9489   5.185   0.794   6.302
 2864SOL     OW 9490   4.435   2.912   1.114
 2864SOL    HW1 9491   4.372   2.852   1.064
 2864SOL    HW2 9492   4.484   2.859   1.183
 2865SOL     OW 9493   4.606   6.453   4.152
 2865SOL    HW1 9494   4.585   6.466   4.249
 2865SOL    HW2 9495   4.636   6.359   4.137
 2866SOL     OW 9496   5.675   3.952   0.214
 2866SOL    HW1 9497   5.739   3.876   0.223
 2866SOL    HW2 9498   5.670   3.981   0.119
 2867SOL     OW 9499   6.422   6.535   2.129
 2867SOL    HW1 9500   6.414   6.447   2.176
 2867SOL    HW2 9501   6.340   6.590   2.146
 2868SOL     OW 9502   0.864   0.978   5.740
 2868SOL    HW1 9503   0.823   0.926   5.815
 2868SOL    HW2 9504   0.959   0.998   5.761
 2869SOL     OW 9505   6.253   0.132   4.047
 2869SOL    HW1 9506   6.205   0.178   3.972
 2869SOL    HW2 9507   6.320   0.068   4.009
 2870SOL     OW 9508   0.839   1.643   0.065
 2870SOL    HW1 9509   0.931   1.680   0.078
 2870SOL    HW2 9510   0.841   1.544   0.081
 2871SOL     OW 9511   6.705   0.936   0.708
 2871SOL    HW1 9512   6.760   1.019   0.691
 2871SOL    HW2 9513   6.644   0.921   0.630
 2872SOL     OW 9514   2.844   1.442   1.330
 2872SOL    HW1 9515   2.776   1.493   1.277
 2872SOL    HW2 9516   2.931   1.492   1.329
 2873SOL     OW 9517   0.083   5.428   1.770
 2873SOL    HW1 9518   0.108   5.337   1.805
 2873SOL    HW2 9519   0.028   5.476   1.839
 2874SOL     OW 9520   4.111   0.196   3.002
 2874SOL    HW1 9521   4.178   0.130   2.970
 2874SOL    HW2 9522   4.156   0.282   3.024
 2875SOL     OW 9523   3.382   6.832   2.775
 2875SOL    HW1 9524   3.404   6.866   2.684
 2875SOL    HW2 9525   3.294   6.870   2.804
 2876SOL     OW 9526   1.198   6.425   1.752
 2876SOL    HW1 9527   1.192   6.499   1.819
 2876SOL    HW2 9528   1.273   6.443   1.688
 2877SOL     OW 9529   2.187   1.620   6.676
 2877SOL    HW1 9530   2.179   1.614   6.576
 2877SOL    HW2 9531   2.206   1.530   6.714
 2878SOL     OW 9532   2.931   3.349   4.412
 2878SOL    HW1 9533   2.877   3.373   4.493
 2878SOL    HW2 9534   2.978   3.262   4.428
 2879SOL     OW 9535   4.535   5.278   5.998
 2879SOL    HW1 9536   4.518   5.219   6.077
 2879SOL    HW2 9537   4.450   5.289   5.946
 2880SOL     OW 9538   1.078   1.659   3.917
 2880SOL    HW1 9539   1.165   1.621   3.883
 2880SOL    HW2 9540   1.032   1.592   3.975
 2881SOL     OW 9541   3.249   5.431   0.142
 2881SOL    HW1 9542   3.195   5.407   0.223
 2881SOL    HW2 9543   3.191   5.425   0.061
 2882SOL     OW 9544   5.962   6.362   1.081
 2882SOL    HW1 9545   5.991   6.450   1.118
 2882SOL    HW2 9546   5.862   6.353   1.090
 2883SOL     OW 9547   6.485   6.514   3.604
 2883SOL    HW1 9548   6.572   6.563   3.597
 2883SOL    HW2 9549   6.418   6.572   3.650
 2884SOL     OW 9550   6.768   5.108   2.180
 2884SOL    HW1 9551   6.836   5.179   2.160
 2884SOL    HW2 9552   6.790   5.025   2.130
 2885SOL     OW 9553   1.522   1.943   4.500
 2885SOL    HW1 9554   1.606   1.996   4.492
 2885SOL    HW2 9555   1.518   1.899   4.590
 2886SOL     OW 9556   2.963   4.487   0.023
 2886SOL    HW1 9557   2.864   4.494   0.035
 2886SOL    HW2 9558   3.002   4.579   0.018
 2887SOL     OW 9559   0.035   6.367   3.925
 2887SOL    HW1 9560   0.113   6.349   3.985
 2887SOL    HW2 9561   6.981   6.372   3.979
 2888SOL     OW 9562   0.002   5.336   0.071
 2888SOL    HW1 9563   6.936   5.327   0.100
 2888SOL    HW2 9564   0.008   5.318   7.002
 2889SOL     OW 9565   3.269   6.411   2.982
 2889SOL    HW1 9566   3.334   6.449   2.916
 2889SOL    HW2 9567   3.176   6.431   2.951
 2890SOL     OW 9568   2.521   5.984   0.992
 2890SOL    HW1 9569   2.430   5.992   0.951
 2890SOL    HW2 9570   2.579   5.926   0.935
 2891SOL     OW 9571   0.856   3.622   2.959
 2891SOL    HW1 9572   0.798   3.636   2.879
 2891SOL    HW2 9573   0.887   3.527   2.961
 2892SOL     OW 9574   6.193   3.226   0.868
 2892SOL    HW1 9575   6.142   3.142   0.887
 2892SOL    HW2 9576   6.252   3.211   0.789
 2893SOL     OW 9577   1.902   5.631   4.590
 2893SOL    HW1 9578   1.960   5.711   4.574
 2893SOL    HW2 9579   1.923   5.592   4.679
 2894SOL     OW 9580   2.038   4.678   2.119
 2894SOL    HW1 9581   2.108   4.743   2.150
 2894SOL    HW2 9582   2.041   4.671   2.019
 2895SOL     OW 9583   3.341   0.674   6.279
 2895SOL    HW1 9584   3.334   0.772   6.258
 2895SOL    HW2 9585   3.319   0.660   6.376
 2896SOL     OW 9586   5.722   0.381   6.342
 2896SOL    HW1 9587   5.803   0.427   6.378
 2896SOL    HW2 9588   5.724   0.284   6.368
 2897SOL     OW 9589   3.830   4.877   2.757
 2897SOL    HW1 9590   3.902   4.927   2.807
 2897SOL    HW2 9591   3.816   4.788   2.800
 2898SOL     OW 9592   5.721   4.118   3.662
 2898SOL    HW1 9593   5.694   4.214   3.674
 2898SOL    HW2 9594   5.758   4.083   3.748
 2899SOL     OW 9595   6.257   2.339   1.778
 2899SOL    HW1 9596   6.301   2.376   1.860
 2899SOL    HW2 9597   6.271   2.401   1.701
 2900SOL     OW 9598   3.785   5.126   0.239
 2900SOL    HW1 9599   3.831   5.214   0.234
 2900SOL    HW2 9600   3.850   5.055   0.265
 2901SOL     OW 9601   1.482   4.964   3.626
 2901SOL    HW1 9602   1.463   4.929   3.535
 2901SOL    HW2 9603   1.489   4.888   3.690
 2902SOL     OW 9604   0.277   6.078   3.892
 2902SOL    HW1 9605   0.206   6.011   3.869
 2902SOL    HW2 9606   0.356   6.065   3.831
 2903SOL     OW 9607   4.363   6.021   0.719
 2903SOL    HW1 9608   4.316   6.074   0.790
 2903SOL    HW2 9609   4.445   5.979   0.758
 2904SOL     OW 9610   2.874   4.813   5.222
 2904SOL    HW1 9611   2.886   4.714   5.218
 2904SOL    HW2 9612   2.964   4.857   5.229
 2905SOL     OW 9613   1.391   4.041   3.421
 2905SOL    HW1 9614   1.429   3.949   3.406
 2905SOL    HW2 9615   1.336   4.040   3.505
 2906SOL     OW 9616   5.205   6.296   2.378
 2906SOL    HW1 9617   5.302   6.280   2.397
 2906SOL    HW2 9618   5.149   6.227   2.425
 2907SOL     OW 9619   0.946   1.173   4.100
 2907SOL    HW1 9620   0.868   1.203   4.045
 2907SOL    HW2 9621   0.953   1.229   4.182
 2908SOL     OW 9622   5.263   0.126   3.812
 2908SOL    HW1 9623   5.306   0.211   3.784
 2908SOL    HW2 9624   5.281   0.110   3.909
 2909SOL     OW 9625   1.204   6.459   2.859
 2909SOL    HW1 9626   1.172   6.457   2.954
 2909SOL    HW2 9627   1.130   6.431   2.798
 2910SOL     OW 9628   6.764   1.022   3.844
 2910SOL    HW1 9629   6.730   1.088   3.778
 2910SOL    HW2 9630   6.768   1.065   3.935
 2911SOL     OW 9631   1.142   4.651   3.969
 2911SOL    HW1 9632   1.066   4.600   3.929
 2911SOL    HW2 9633   1.159   4.617   4.062
 2912SOL     OW 9634   0.249   6.740   0.055
 2912SOL    HW1 9635   0.198   6.713   0.137
 2912SOL    HW2 9636   0.342   6.704   0.061
 2913SOL     OW 9637   2.477   4.493   2.412
 2913SOL    HW1 9638   2.408   4.563   2.396
 2913SOL    HW2 9639   2.565   4.536   2.433
 2914SOL     OW 9640   5.112   5.017   1.234
 2914SOL    HW1 9641   5.208   5.030   1.262
 2914SOL    HW2 9642   5.057   5.093   1.268
 2915SOL     OW 9643   2.989   2.220   3.561
 2915SOL    HW1 9644   3.017   2.315   3.574
 2915SOL    HW2 9645   3.069   2.160   3.566
 2916SOL     OW 9646   1.863   5.366   0.367
 2916SOL    HW1 9647   1.764   5.350   0.367
 2916SOL    HW2 9648   1.902   5.335   0.453
 2917SOL     OW 9649   3.142   0.313   3.632
 2917SOL    HW1 9650   3.081   0.240   3.662
 2917SOL    HW2 9651   3.106   0.401   3.662
 2918SOL     OW 9652   6.079   3.537   0.487
 2918SOL    HW1 9653   6.077   3.591   0.402
 2918SOL    HW2 9654   6.060   3.441   0.465
 2919SOL     OW 9655   6.654   6.286   3.508
 2919SOL    HW1 9656   6.582   6.349   3.537
 2919SOL    HW2 9657   6.739   6.337   3.494
 2920SOL     OW 9658   2.390   0.907   2.149
 2920SOL    HW1 9659   2.389   0.876   2.054
 2920SOL    HW2 9660   2.431   0.998   2.154
 2921SOL     OW 9661   0.009   0.401   5.492
 2921SOL    HW1 9662   6.952   0.421   5.537
 2921SOL    HW2 9663   7.024   0.331   5.422
 2922SOL     OW 9664   4.065   0.228   2.101
 2922SOL    HW1 9665   4.074   0.296   2.028
 2922SOL    HW2 9666   3.975   0.186   2.096
 2923SOL     OW 9667   6.713   5.104   4.247
 2923SOL    HW1 9668   6.808   5.102   4.215
 2923SOL    HW2 9669   6.708   5.155   4.333
 2924SOL     OW 9670   6.511   1.534   5.071
 2924SOL    HW1 9671   6.512   1.571   5.164
 2924SOL    HW2 9672   6.439   1.578   5.018
 2925SOL     OW 9673   5.480   1.247   6.711
 2925SOL    HW1 9674   5.519   1.338   6.721
 2925SOL    HW2 9675   5.380   1.254   6.710
 2926SOL     OW 9676   6.548   2.336   5.411
 2926SOL    HW1 9677   6.601   2.328   5.327
 2926SOL    HW2 9678   6.569   2.258   5.471
 2927SOL     OW 9679   2.041   3.490   0.777
 2927SOL    HW1 9680   2.125   3.525   0.819
 2927SOL    HW2 9681   1.973   3.564   0.773
 2928SOL     OW 9682   6.511   1.699   0.104
 2928SOL    HW1 9683   6.585   1.765   0.092
 2928SOL    HW2 9684   6.424   1.744   0.087
 2929SOL     OW 9685   1.517   2.536   4.960
 2929SOL    HW1 9686   1.502   2.584   5.046
 2929SOL    HW2 9687   1.590   2.580   4.909
 2930SOL     OW 9688   6.167   5.844   5.371
 2930SOL    HW1 9689   6.258   5.886   5.365
 2930SOL    HW2 9690   6.175   5.747   5.394
 2931SOL     OW 9691   4.333   5.048   0.554
 2931SOL    HW1 9692   4.249   5.101   0.547
 2931SOL    HW2 9693   4.394   5.070   0.478
 2932SOL     OW 9694   6.449   5.230   1.951
 2932SOL    HW1 9695   6.542   5.197   1.937
 2932SOL    HW2 9696   6.448   5.298   2.025
 2933SOL     OW 9697   0.578   0.267   1.902
 2933SOL    HW1 9698   0.497   0.219   1.936
 2933SOL    HW2 9699   0.600   0.342   1.964
 2934SOL     OW 9700   4.712   2.895   1.447
 2934SOL    HW1 9701   4.755   2.867   1.533
 2934SOL    HW2 9702   4.614   2.873   1.450
 2935SOL     OW 9703   0.945   2.643   6.496
 2935SOL    HW1 9704   0.878   2.667   6.426
 2935SOL    HW2 9705   0.923   2.691   6.581
 2936SOL     OW 9706   4.117   6.790   0.545
 2936SOL    HW1 9707   4.050   6.718   0.562
 2936SOL    HW2 9708   4.104   6.827   0.452
 2937SOL     OW 9709   4.423   4.778   1.108
 2937SOL    HW1 9710   4.386   4.854   1.161
 2937SOL    HW2 9711   4.466   4.712   1.170
 2938SOL     OW 9712   6.120   5.734   6.981
 2938SOL    HW1 9713   6.122   5.635   6.969
 2938SOL    HW2 9714   6.152   5.778   6.897
 2939SOL     OW 9715   0.753   0.256   1.414
 2939SOL    HW1 9716   0.733   0.272   1.511
 2939SOL    HW2 9717   0.703   0.322   1.358
 2940SOL     OW 9718   5.840   5.654   4.317
 2940SOL    HW1 9719   5.859   5.567   4.271
 2940SOL    HW2 9720   5.912   5.720   4.295
 2941SOL     OW 9721   2.412   2.493   3.218
 2941SOL    HW1 9722   2.500   2.489   3.171
 2941SOL    HW2 9723   2.426   2.527   3.311
 2942SOL     OW 9724   3.527   2.706   0.405
 2942SOL    HW1 9725   3.455   2.640   0.383
 2942SOL    HW2 9726   3.569   2.739   0.321
 2943SOL     OW 9727   6.147   4.491   3.772
 2943SOL    HW1 9728   6.119   4.571   3.720
 2943SOL    HW2 9729   6.228   4.513   3.826
 2944SOL     OW 9730   2.692   6.285   3.735
 2944SOL    HW1 9731   2.681   6.229   3.653
 2944SOL    HW2 9732   2.789   6.308   3.746
 2945SOL     OW 9733   5.274   3.713   1.557
 2945SOL    HW1 9734   5.196   3.658   1.528
 2945SOL    HW2 9735   5.359   3.673   1.523
 2946SOL     OW 9736   1.583   4.166   5.555
 2946SOL    HW1 9737   1.535   4.148   5.641
 2946SOL    HW2 9738   1.520   4.204   5.488
 2947SOL     OW 9739   0.104   6.017   0.380
 2947SOL    HW1 9740   0.112   5.933   0.325
 2947SOL    HW2 9741   0.166   6.086   0.343
 2948SOL     OW 9742   6.315   4.558   3.421
 2948SOL    HW1 9743   6.360   4.640   3.456
 2948SOL    HW2 9744   6.349   4.477   3.470
 2949SOL     OW 9745   0.866   6.264   6.457
 2949SOL    HW1 9746   0.899   6.340   6.513
 2949SOL    HW2 9747   0.944   6.209   6.425
 2950SOL     OW 9748   5.831   4.901   2.995
 2950SOL    HW1 9749   5.733   4.883   2.991
 2950SOL    HW2 9750   5.880   4.816   3.013
 2951SOL     OW 9751   5.443   1.083   1.928
 2951SOL    HW1 9752   5.418   0.989   1.947
 2951SOL    HW2 9753   5.534   1.103   1.966
 2952SOL     OW 9754   6.308   0.140   4.801
 2952SOL    HW1 9755   6.401   0.171   4.779
 2952SOL    HW2 9756   6.242   0.208   4.771
 2953SOL     OW 9757   6.536   4.492   3.080
 2953SOL    HW1 9758   6.585   4.457   3.160
 2953SOL    HW2 9759   6.548   4.428   3.003
 2954SOL     OW 9760   6.991   4.495   6.395
 2954SOL    HW1 9761   0.045   4.544   6.419
 2954SOL    HW2 9762   6.998   4.462   6.300
 2955SOL     OW 9763   1.339   4.348   7.025
 2955SOL    HW1 9764   1.316   4.432   6.976
 2955SOL    HW2 9765   1.258   4.289   7.028
 2956SOL     OW 9766   0.227   5.513   4.006
 2956SOL    HW1 9767   0.172   5.498   3.923
 2956SOL    HW2 9768   0.241   5.611   4.019
 2957SOL     OW 9769   4.073   4.957   1.387
 2957SOL    HW1 9770   4.032   5.008   1.463
 2957SOL    HW2 9771   4.039   4.863   1.387
 2958SOL     OW 9772   2.328   5.095   3.287
 2958SOL    HW1 9773   2.393   5.027   3.321
 2958SOL    HW2 9774   2.292   5.148   3.364
 2959SOL     OW 9775   5.274   2.684   2.687
 2959SOL    HW1 9776   5.176   2.689   2.666
 2959SOL    HW2 9777   5.312   2.776   2.691
 2960SOL     OW 9778   3.232   0.541   0.262
 2960SOL    HW1 9779   3.247   0.443   0.256
 2960SOL    HW2 9780   3.136   0.561   0.241
 2961SOL     OW 9781   6.132   4.992   2.842
 2961SOL    HW1 9782   6.193   4.914   2.831
 2961SOL    HW2 9783   6.152   5.061   2.773
 2962SOL     OW 9784   5.083   6.626   3.467
 2962SOL    HW1 9785   5.165   6.570   3.464
 2962SOL    HW2 9786   5.015   6.588   3.404
 2963SOL     OW 9787   1.469   1.125   6.606
 2963SOL    HW1 9788   1.474   1.187   6.684
 2963SOL    HW2 9789   1.527   1.045   6.622
 2964SOL     OW 9790   0.799   2.788   6.309
 2964SOL    HW1 9791   0.774   2.876   6.269
 2964SOL    HW2 9792   0.730   2.762   6.376
 2965SOL     OW 9793   1.192   0.325   4.332
 2965SOL    HW1 9794   1.292   0.328   4.330
 2965SOL    HW2 9795   1.158   0.316   4.238
 2966SOL     OW 9796   4.745   5.691   4.149
 2966SOL    HW1 9797   4.833   5.666   4.107
 2966SOL    HW2 9798   4.686   5.610   4.153
 2967SOL     OW 9799   5.937   1.444   5.833
 2967SOL    HW1 9800   5.998   1.505   5.885
 2967SOL    HW2 9801   5.914   1.488   5.746
 2968SOL     OW 9802   1.891   3.037   0.871
 2968SOL    HW1 9803   1.931   2.954   0.909
 2968SOL    HW2 9804   1.961   3.108   0.865
 2969SOL     OW 9805   4.987   3.954   4.806
 2969SOL    HW1 9806   4.997   3.996   4.896
 2969SOL    HW2 9807   4.921   4.006   4.752
 2970SOL     OW 9808   2.945   2.732   5.398
 2970SOL    HW1 9809   2.930   2.769   5.490
 2970SOL    HW2 9810   2.999   2.798   5.345
 2971SOL     OW 9811   6.047   4.065   0.287
 2971SOL    HW1 9812   6.054   4.131   0.361
 2971SOL    HW2 9813   5.971   4.090   0.227
 2972SOL     OW 9814   5.710   5.140   0.082
 2972SOL    HW1 9815   5.664   5.053   0.068
 2972SOL    HW2 9816   5.662   5.211   0.030
 2973SOL     OW 9817   4.908   6.641   2.639
 2973SOL    HW1 9818   4.899   6.731   2.595
 2973SOL    HW2 9819   4.917   6.654   2.738
 2974SOL     OW 9820   5.933   4.361   3.117
 2974SOL    HW1 9821   5.928   4.398   3.210
 2974SOL    HW2 9822   5.875   4.280   3.111
 2975SOL     OW 9823   4.917   4.542   4.147
 2975SOL    HW1 9824   4.962   4.571   4.232
 2975SOL    HW2 9825   4.871   4.621   4.106
 2976SOL     OW 9826   5.040   1.808   3.077
 2976SOL    HW1 9827   5.118   1.841   3.024
 2976SOL    HW2 9828   4.964   1.788   3.015
 2977SOL     OW 9829   0.961   0.715   2.039
 2977SOL    HW1 9830   1.057   0.694   2.058
 2977SOL    HW2 9831   0.905   0.694   2.120
 2978SOL     OW 9832   4.142   4.322   6.859
 2978SOL    HW1 9833   4.055   4.294   6.901
 2978SOL    HW2 9834   4.217   4.301   6.921
 2979SOL     OW 9835   3.170   1.551   4.277
 2979SOL    HW1 9836   3.227   1.537   4.195
 2979SOL    HW2 9837   3.162   1.465   4.327
 2980SOL     OW 9838   2.349   4.556   6.123
 2980SOL    HW1 9839   2.315   4.534   6.214
 2980SOL    HW2 9840   2.415   4.487   6.094
 2981SOL     OW 9841   2.377   1.810   0.117
 2981SOL    HW1 9842   2.466   1.852   0.100
 2981SOL    HW2 9843   2.336   1.782   0.030
 2982SOL     OW 9844   2.177   6.628   2.482
 2982SOL    HW1 9845   2.145   6.624   2.388
 2982SOL    HW2 9846   2.249   6.697   2.490
 2983SOL     OW 9847   6.969   2.367   0.581
 2983SOL    HW1 9848   6.875   2.400   0.584
 2983SOL    HW2 9849   6.971   2.275   0.541
 2984SOL     OW 9850   6.189   4.971   6.180
 2984SOL    HW1 9851   6.181   4.933   6.088
 2984SOL    HW2 9852   6.140   4.912   6.245
 2985SOL     OW 9853   0.647   1.228   4.383
 2985SOL    HW1 9854   0.656   1.130   4.368
 2985SOL    HW2 9855   0.718   1.259   4.446
 2986SOL     OW 9856   3.077   3.852   2.514
 2986SOL    HW1 9857   3.159   3.795   2.526
 2986SOL    HW2 9858   3.102   3.948   2.525
 2987SOL     OW 9859   1.850   1.849   4.402
 2987SOL    HW1 9860   1.757   1.834   4.369
 2987SOL    HW2 9861   1.896   1.917   4.345
 2988SOL     OW 9862   1.586   0.264   1.722
 2988SOL    HW1 9863   1.573   0.195   1.793
 2988SOL    HW2 9864   1.617   0.220   1.638
 2989SOL     OW 9865   5.170   4.041   5.343
 2989SOL    HW1 9866   5.249   4.101   5.332
 2989SOL    HW2 9867   5.130   4.054   5.434
 2990SOL     OW 9868   5.095   2.138   4.476
 2990SOL    HW1 9869   5.163   2.134   4.549
 2990SOL    HW2 9870   5.056   2.230   4.471
 2991SOL     OW 9871   6.524   3.686   6.925
 2991SOL    HW1 9872   6.509   3.744   7.005
 2991SOL    HW2 9873   6.454   3.706   6.856
 2992SOL     OW 9874   0.901   4.663   4.759
 2992SOL    HW1 9875   0.839   4.604   4.811
 2992SOL    HW2 9876   0.981   4.611   4.732
 2993SOL     OW 9877   6.996   5.191   0.399
 2993SOL    HW1 9878   7.018   5.098   0.367
 2993SOL    HW2 9879   0.005   5.258   0.336
 2994SOL     OW 9880   4.885   6.130   6.879
 2994SOL    HW1 9881   4.814   6.094   6.818
 2994SOL    HW2 9882   4.845   6.197   6.941
 2995SOL     OW 9883   4.731   0.422   0.118
 2995SOL    HW1 9884   4.697   0.328   0.109
 2995SOL    HW2 9885   4.752   0.459   0.028
 2996SOL     OW 9886   1.312   1.482   4.629
 2996SOL    HW1 9887   1.237   1.419   4.649
 2996SOL    HW2 9888   1.279   1.577   4.638
 2997SOL     OW 9889   4.263   0.642   3.310
 2997SOL    HW1 9890   4.204   0.695   3.371
 2997SOL    HW2 9891   4.290   0.699   3.233
 2998SOL     OW 9892   3.309   0.020   3.765
 2998SOL    HW1 9893   3.311   0.078   3.683
 2998SOL    HW2 9894   3.390   0.040   3.820
 2999SOL     OW 9895   2.903   4.729   6.289
 2999SOL    HW1 9896   2.861   4.647   6.329
 2999SOL    HW2 9897   2.969   4.701   6.219
 3000SOL     OW 9898   2.449   4.086   6.398
 3000SOL    HW1 9899   2.413   4.044   6.315
 3000SOL    HW2 9900   2.517   4.026   6.439
 3001SOL     OW 9901   6.035   2.268   0.171
 3001SOL    HW1 9902   5.987   2.323   0.103
 3001SOL    HW2 9903   6.114   2.224   0.128
 3002SOL     OW 9904   3.179   1.486   0.994
 3002SOL    HW1 9905   3.211   1.567   0.946
 3002SOL    HW2 9906   3.115   1.436   0.935
 3003SOL     OW 9907   1.220   6.432   1.306
 3003SOL    HW1 9908   1.250   6.342   1.274
 3003SOL    HW2 9909   1.126   6.449   1.274
 3004SOL     OW 9910   1.732   4.915   3.882
 3004SOL    HW1 9911   1.751   5.009   3.855
 3004SOL    HW2 9912   1.633   4.900   3.885
 3005SOL     OW 9913   1.065   3.248   5.522
 3005SOL    HW1 9914   1.125   3.319   5.560
 3005SOL    HW2 9915   1.112   3.161   5.521
 3006SOL     OW 9916   5.570   0.925   5.451
 3006SOL    HW1 9917   5.522   0.878   5.377
 3006SOL    HW2 9918   5.601   1.015   5.419
 3007SOL     OW 9919   4.398   5.518   0.090
 3007SOL    HW1 9920   4.498   5.526   0.096
 3007SOL    HW2 9921   4.373   5.486   7.029
 3008SOL     OW 9922   3.587   2.689   6.424
 3008SOL    HW1 9923   3.587   2.712   6.521
 3008SOL    HW2 9924   3.540   2.602   6.410
 3009SOL     OW 9925   0.151   2.239   3.122
 3009SOL    HW1 9926   0.221   2.228   3.050
 3009SOL    HW2 9927   0.167   2.324   3.171
 3010SOL     OW 9928   3.560   5.678   5.216
 3010SOL    HW1 9929   3.631   5.615   5.184
 3010SOL    HW2 9930   3.512   5.637   5.294
 3011SOL     OW 9931   6.546   0.251   1.580
 3011SOL    HW1 9932   6.536   0.268   1.482
 3011SOL    HW2 9933   6.642   0.230   1.600
 3012SOL     OW 9934   2.626   3.728   0.088
 3012SOL    HW1 9935   2.621   3.756   0.183
 3012SOL    HW2 9936   2.554   3.774   0.035
 3013SOL     OW 9937   6.313   5.349   3.275
 3013SOL    HW1 9938   6.346   5.441   3.253
 3013SOL    HW2 9939   6.374   5.307   3.342
 3014SOL     OW 9940   4.890   1.490   6.629
 3014SOL    HW1 9941   4.865   1.394   6.617
 3014SOL    HW2 9942   4.814   1.540   6.669
 3015SOL     OW 9943   2.509   1.340   0.656
 3015SOL    HW1 9944   2.594   1.392   0.654
 3015SOL    HW2 9945   2.464   1.346   0.566
 3016SOL     OW 9946   3.400   6.928   4.083
 3016SOL    HW1 9947   3.476   6.881   4.038
 3016SOL    HW2 9948   3.360   6.866   4.152
 3017SOL     OW 9949   6.081   4.670   2.305
 3017SOL    HW1 9950   5.989   4.696   2.337
 3017SOL    HW2 9951   6.130   4.623   2.379
 3018SOL     OW 9952   3.770   0.016   6.793
 3018SOL    HW1 9953   3.684   6.995   6.791
 3018SOL    HW2 9954   3.759   0.102   6.743
 3019SOL     OW 9955   0.936   7.028   0.378
 3019SOL    HW1 9956   0.860   0.059   0.353
 3019SOL    HW2 9957   0.902   6.935   0.389
 3020SOL     OW 9958   4.535   3.168   0.316
 3020SOL    HW1 9959   4.540   3.080   0.364
 3020SOL    HW2 9960   4.499   3.237   0.378
 3021SOL     OW 9961   2.515   6.719   4.513
 3021SOL    HW1 9962   2.536   6.698   4.417
 3021SOL    HW2 9963   2.420   6.695   4.532
 3022SOL     OW 9964   3.713   6.005   4.071
 3022SOL    HW1 9965   3.616   6.027   4.082
 3022SOL    HW2 9966   3.749   6.051   3.990
 3023SOL     OW 9967   3.707   0.003   2.660
 3023SOL    HW1 9968   3.774   0.075   2.675
 3023SOL    HW2 9969   3.646   7.026   2.739
 3024SOL     OW 9970   6.166   5.576   5.445
 3024SOL    HW1 9971   6.101   5.574   5.521
 3024SOL    HW2 9972   6.258   5.558   5.480
 3025SOL     OW 9973   4.105   6.134   1.397
 3025SOL    HW1 9974   4.126   6.103   1.304
 3025SOL    HW2 9975   4.169   6.094   1.461
 3026SOL     OW 9976   0.118   0.956   6.406
 3026SOL    HW1 9977   0.062   0.975   6.487
 3026SOL    HW2 9978   0.109   0.859   6.382
 3027SOL     OW 9979   3.990   1.509   2.048
 3027SOL    HW1 9980   4.049   1.500   2.128
 3027SOL    HW2 9981   3.970   1.418   2.011
 3028SOL     OW 9982   1.775   3.939   6.168
 3028SOL    HW1 9983   1.728   4.004   6.228
 3028SOL    HW2 9984   1.836   3.882   6.222
 3029SOL     OW 9985   0.798   2.419   3.477
 3029SOL    HW1 9986   0.700   2.403   3.481
 3029SOL    HW2 9987   0.818   2.514   3.500
 3030SOL     OW 9988   1.395   4.054   1.018
 3030SOL    HW1 9989   1.471   4.115   1.042
 3030SOL    HW2 9990   1.404   4.027   0.922
 3031SOL     OW 9991   1.361   4.965   1.196
 3031SOL    HW1 9992   1.427   5.020   1.247
 3031SOL    HW2 9993   1.268   4.994   1.219
 3032SOL     OW 9994   1.697   6.156   2.775
 3032SOL    HW1 9995   1.676   6.093   2.701
 3032SOL    HW2 9996   1.783   6.202   2.756
 3033SOL     OW 9997   6.126   2.068   3.248
 3033SOL    HW1 9998   6.115   1.978   3.290
 3033SOL    HW2 9999   6.069   2.074   3.166
 3034SOL     OW10000   1.347   6.031   3.882
 3034SOL    HW110001   1.255   6.046   3.845
 3034SOL    HW210002   1.369   5.933   3.879
 3035SOL     OW10003   1.132   3.167   6.147
 3035SOL    HW110004   1.159   3.220   6.067
 3035SOL    HW210005   1.065   3.219   6.200
 3036SOL     OW10006   1.259   1.690   5.777
 3036SOL    HW110007   1.271   1.721   5.871
 3036SOL    HW210008   1.258   1.769   5.716
 3037SOL     OW10009   6.985   4.992   5.364
 3037SOL    HW110010   7.028   4.938   5.292
 3037SOL    HW210011   6.897   5.028   5.331
 3038SOL     OW10012   5.365   4.681   6.135
 3038SOL    HW110013   5.381   4.777   6.112
 3038SOL    HW210014   5.338   4.631   6.053
 3039SOL     OW10015   0.102   2.980   6.952
 3039SOL    HW110016   0.004   2.992   6.933
 3039SOL    HW210017   0.125   3.024   0.008
 3040SOL     OW10018   3.205   4.546   5.673
 3040SOL    HW110019   3.211   4.607   5.594
 3040SOL    HW210020   3.246   4.458   5.650
 3041SOL     OW10021   0.867   4.330   5.859
 3041SOL    HW110022   0.924   4.288   5.929
 3041SOL    HW210023   0.772   4.331   5.888
 3042SOL     OW10024   6.449   5.749   2.294
 3042SOL    HW110025   6.492   5.682   2.355
 3042SOL    HW210026   6.497   5.749   2.207
 3043SOL     OW10027   3.164   3.448   0.485
 3043SOL    HW110028   3.246   3.489   0.443
 3043SOL    HW210029   3.191   3.365   0.535
 3044SOL     OW10030   2.785   4.619   5.633
 3044SOL    HW110031   2.747   4.594   5.544
 3044SOL    HW210032   2.881   4.645   5.622
 3045SOL     OW10033   4.437   0.120   3.198
 3045SOL    HW110034   4.438   0.212   3.159
 3045SOL    HW210035   4.376   0.117   3.277
 3046SOL     OW10036   4.205   6.188   6.469
 3046SOL    HW110037   4.298   6.217   6.488
 3046SOL    HW210038   4.161   6.254   6.408
 3047SOL     OW10039   6.271   6.777   0.499
 3047SOL    HW110040   6.254   6.845   0.427
 3047SOL    HW210041   6.356   6.800   0.546
 3048SOL     OW10042   4.303   2.557   1.133
 3048SOL    HW110043   4.271   2.640   1.087
 3048SOL    HW210044   4.394   2.534   1.099
 3049SOL     OW10045   1.205   0.774   3.884
 3049SOL    HW110046   1.155   0.832   3.950
 3049SOL    HW210047   1.299   0.762   3.915
 3050SOL     OW10048   2.035   2.403   1.423
 3050SOL    HW110049   2.029   2.488   1.475
 3050SOL    HW210050   1.978   2.410   1.341
 3051SOL     OW10051   2.654   0.008   6.254
 3051SOL    HW110052   2.643   6.939   6.266
 3051SOL    HW210053   2.577   0.055   6.298
 3052SOL     OW10054   5.683   5.998   2.273
 3052SOL    HW110055   5.744   6.012   2.351
 3052SOL    HW210056   5.645   5.906   2.276
 3053SOL     OW10057   0.998   4.342   1.075
 3053SOL    HW110058   0.912   4.324   1.122
 3053SOL    HW210059   1.014   4.271   1.006
 3054SOL     OW10060   5.751   1.020   2.991
 3054SOL    HW110061   5.688   0.986   3.061
 3054SOL    HW210062   5.795   0.943   2.946
 3055SOL     OW10063   5.789   6.634   5.822
 3055SOL    HW110064   5.809   6.536   5.823
 3055SOL    HW210065   5.764   6.663   5.730
 3056SOL     OW10066   6.325   1.707   6.132
 3056SOL    HW110067   6.316   1.767   6.053
 3056SOL    HW210068   6.253   1.728   6.198
 3057SOL     OW10069   5.354   5.889   3.706
 3057SOL    HW110070   5.390   5.845   3.788
 3057SOL    HW210071   5.352   5.822   3.631
 3058SOL     OW10072   6.223   3.855   1.203
 3058SOL    HW110073   6.272   3.916   1.142
 3058SOL    HW210074   6.192   3.905   1.283
 3059SOL     OW10075   2.560   1.661   4.405
 3059SOL    HW110076   2.644   1.636   4.454
 3059SOL    HW210077   2.581   1.729   4.336
 3060SOL     OW10078   2.972   5.202   6.466
 3060SOL    HW110079   2.910   5.137   6.421
 3060SOL    HW210080   2.967   5.290   6.418
 3061SOL     OW10081   6.152   5.420   6.009
 3061SOL    HW110082   6.082   5.353   5.986
 3061SOL    HW210083   6.113   5.512   6.004
 3062SOL     OW10084   3.826   5.617   1.084
 3062SOL    HW110085   3.911   5.656   1.121
 3062SOL    HW210086   3.751   5.680   1.103
 3063SOL     OW10087   1.186   4.493   0.321
 3063SOL    HW110088   1.277   4.494   0.281
 3063SOL    HW210089   1.118   4.489   0.247
 3064SOL     OW10090   4.564   3.081   6.964
 3064SOL    HW110091   4.659   3.110   6.950
 3064SOL    HW210092   4.502   3.152   6.931
 3065SOL     OW10093   1.374   1.469   6.541
 3065SOL    HW110094   1.458   1.429   6.504
 3065SOL    HW210095   1.368   1.565   6.514
 3066SOL     OW10096   4.784   5.199   6.009
 3066SOL    HW110097   4.770   5.112   5.962
 3066SOL    HW210098   4.700   5.253   6.006
 3067SOL     OW10099   2.270   2.203   0.489
 3067SOL    HW110100   2.213   2.151   0.553
 3067SOL    HW210101   2.252   2.173   0.396
 3068SOL     OW10102   0.384   1.322   1.225
 3068SOL    HW110103   0.335   1.240   1.254
 3068SOL    HW210104   0.329   1.403   1.246
 3069SOL     OW10105   6.222   6.618   3.405
 3069SOL    HW110106   6.306   6.666   3.382
 3069SOL    HW210107   6.158   6.624   3.328
 3070SOL     OW10108   2.769   1.074   0.008
 3070SOL    HW110109   2.860   1.110   7.018
 3070SOL    HW210110   2.708   1.095   6.962
 3071SOL     OW10111   6.980   4.656   3.699
 3071SOL    HW110112   6.998   4.619   3.608
 3071SOL    HW210113   6.892   4.622   3.733
 3072SOL     OW10114   1.782   5.740   0.408
 3072SOL    HW110115   1.846   5.711   0.479
 3072SOL    HW210116   1.832   5.785   0.334
 3073SOL     OW10117   0.426   4.416   1.345
 3073SOL    HW110118   0.351   4.457   1.396
 3073SOL    HW210119   0.501   4.394   1.407
 3074SOL     OW10120   1.395   4.406   1.411
 3074SOL    HW110121   1.339   4.472   1.461
 3074SOL    HW210122   1.345   4.375   1.330
 3075SOL     OW10123   2.469   5.292   4.037
 3075SOL    HW110124   2.492   5.291   3.940
 3075SOL    HW210125   2.526   5.361   4.084
 3076SOL     OW10126   6.608   1.279   4.505
 3076SOL    HW110127   6.662   1.237   4.578
 3076SOL    HW210128   6.638   1.373   4.491
 3077SOL     OW10129   6.046   3.381   1.948
 3077SOL    HW110130   6.039   3.428   1.860
 3077SOL    HW210131   6.062   3.449   2.021
 3078SOL     OW10132   6.714   2.801   2.271
 3078SOL    HW110133   6.637   2.845   2.317
 3078SOL    HW210134   6.693   2.705   2.255
 3079SOL     OW10135   2.876   2.291   4.126
 3079SOL    HW110136   2.926   2.253   4.205
 3079SOL    HW210137   2.932   2.281   4.044
 3080SOL     OW10138   4.511   3.949   1.697
 3080SOL    HW110139   4.492   3.965   1.600
 3080SOL    HW210140   4.461   4.015   1.752
 3081SOL     OW10141   0.916   4.846   7.001
 3081SOL    HW110142   0.975   4.865   6.922
 3081SOL    HW210143   0.930   4.752   0.001
 3082SOL     OW10144   3.048   5.465   4.641
 3082SOL    HW110145   3.077   5.378   4.678
 3082SOL    HW210146   2.959   5.491   4.681
 3083SOL     OW10147   3.196   5.297   2.509
 3083SOL    HW110148   3.124   5.228   2.517
 3083SOL    HW210149   3.169   5.379   2.559
 3084SOL     OW10150   0.129   4.054   2.405
 3084SOL    HW110151   0.040   4.044   2.360
 3084SOL    HW210152   0.167   4.144   2.383
 3085SOL     OW10153   4.907   4.746   0.954
 3085SOL    HW110154   4.994   4.762   1.000
 3085SOL    HW210155   4.917   4.762   0.856
 3086SOL     OW10156   4.758   1.341   0.042
 3086SOL    HW110157   4.698   1.414   0.010
 3086SOL    HW210158   4.845   1.380   0.072
 3087SOL     OW10159   2.119   6.573   2.227
 3087SOL    HW110160   2.135   6.506   2.155
 3087SOL    HW210161   2.115   6.665   2.187
 3088SOL     OW10162   1.345   3.023   5.568
 3088SOL    HW110163   1.392   3.062   5.647
 3088SOL    HW210164   1.300   2.938   5.595
 3089SOL     OW10165   4.767   1.299   5.290
 3089SOL    HW110166   4.805   1.352   5.215
 3089SOL    HW210167   4.841   1.257   5.343
 3090SOL     OW10168   1.607   1.110   1.917
 3090SOL    HW110169   1.671   1.165   1.971
 3090SOL    HW210170   1.637   1.109   1.821
 3091SOL     OW10171   1.340   0.982   0.690
 3091SOL    HW110172   1.340   0.938   0.600
 3091SOL    HW210173   1.259   1.040   0.699
 3092SOL     OW10174   5.101   6.678   1.710
 3092SOL    HW110175   5.144   6.764   1.739
 3092SOL    HW210176   5.148   6.601   1.752
 3093SOL     OW10177   5.667   6.214   5.588
 3093SOL    HW110178   5.583   6.218   5.534
 3093SOL    HW210179   5.699   6.119   5.593
 3094SOL     OW10180   2.959   0.645   4.145
 3094SOL    HW110181   2.882   0.583   4.157
 3094SOL    HW210182   3.044   0.592   4.143
 3095SOL     OW10183   2.204   3.168   5.558
 3095SOL    HW110184   2.281   3.127   5.509
 3095SOL    HW210185   2.168   3.245   5.506
 3096SOL     OW10186   0.551   4.030   4.902
 3096SOL    HW110187   0.536   4.095   4.828
 3096SOL    HW210188   0.552   3.937   4.866
 3097SOL     OW10189   5.902   2.824   0.418
 3097SOL    HW110190   5.943   2.773   0.493
 3097SOL    HW210191   5.806   2.845   0.441
 3098SOL     OW10192   1.514   2.890   2.028
 3098SOL    HW110193   1.569   2.972   2.012
 3098SOL    HW210194   1.418   2.916   2.038
 3099SOL     OW10195   0.857   6.273   3.616
 3099SOL    HW110196   0.801   6.278   3.534
 3099SOL    HW210197   0.855   6.179   3.652
 3100SOL     OW10198   0.046   6.720   2.542
 3100SOL    HW110199   0.121   6.781   2.569
 3100SOL    HW210200   0.068   6.679   2.453
 3101SOL     OW10201   4.716   6.696   6.118
 3101SOL    HW110202   4.690   6.616   6.172
 3101SOL    HW210203   4.784   6.670   6.050
 3102SOL     OW10204   6.619   5.845   0.319
 3102SOL    HW110205   6.568   5.760   0.333
 3102SOL    HW210206   6.586   5.891   0.236
 3103SOL     OW10207   5.167   0.701   0.863
 3103SOL    HW110208   5.126   0.756   0.790
 3103SOL    HW210209   5.226   0.631   0.823
 3104SOL     OW10210   4.328   0.165   6.749
 3104SOL    HW110211   4.320   0.098   6.676
 3104SOL    HW210212   4.294   0.127   6.834
 3105SOL     OW10213   4.747   3.197   0.999
 3105SOL    HW110214   4.672   3.262   0.993
 3105SOL    HW210215   4.728   3.130   1.071
 3106SOL     OW10216   5.367   6.947   5.465
 3106SOL    HW110217   5.358   7.025   5.403
 3106SOL    HW210218   5.377   6.980   5.558
 3107SOL     OW10219   4.429   1.581   4.154
 3107SOL    HW110220   4.436   1.625   4.244
 3107SOL    HW210221   4.505   1.612   4.097
 3108SOL     OW10222   2.127   4.934   4.697
 3108SOL    HW110223   2.203   4.878   4.665
 3108SOL    HW210224   2.054   4.874   4.733
 3109SOL     OW10225   6.435   0.433   4.795
 3109SOL    HW110226   6.486   0.470   4.717
 3109SOL    HW210227   6.384   0.507   4.839
 3110SOL     OW10228   2.429   4.453   3.215
 3110SOL    HW110229   2.341   4.433   3.258
 3110SOL    HW210230   2.433   4.409   3.125
 3111SOL     OW10231   6.478   4.840   3.826
 3111SOL    HW110232   6.433   4.919   3.869
 3111SOL    HW210233   6.475   4.851   3.726
 3112SOL     OW10234   3.014   3.376   6.767
 3112SOL    HW110235   3.061   3.397   6.681
 3112SOL    HW210236   2.964   3.456   6.798
 3113SOL     OW10237   3.202   5.748   2.658
 3113SOL    HW110238   3.302   5.746   2.666
 3113SOL    HW210239   3.167   5.829   2.704
 3114SOL     OW10240   4.216   1.352   0.234
 3114SOL    HW110241   4.177   1.289   0.300
 3114SOL    HW210242   4.263   1.300   0.162
 3115SOL     OW10243   3.857   4.674   5.320
 3115SOL    HW110244   3.764   4.711   5.326
 3115SOL    HW210245   3.859   4.581   5.358
 3116SOL     OW10246   0.658   1.945   0.498
 3116SOL    HW110247   0.683   1.866   0.442
 3116SOL    HW210248   0.588   1.999   0.451
 3117SOL     OW10249   4.929   2.843   5.493
 3117SOL    HW110250   4.882   2.762   5.458
 3117SOL    HW210251   4.977   2.889   5.418
 3118SOL     OW10252   1.256   0.363   2.370
 3118SOL    HW110253   1.185   0.372   2.301
 3118SOL    HW210254   1.337   0.413   2.341
 3119SOL     OW10255   2.934   2.481   5.313
 3119SOL    HW110256   3.026   2.464   5.276
 3119SOL    HW210257   2.929   2.574   5.348
 3120SOL     OW10258   3.031   0.711   5.974
 3120SOL    HW110259   3.090   0.707   6.055
 3120SOL    HW210260   2.967   0.634   5.976
 3121SOL     OW10261   5.412   1.745   4.265
 3121SOL    HW110262   5.322   1.726   4.224
 3121SOL    HW210263   5.421   1.843   4.282
 3122SOL     OW10264   4.462   4.694   5.041
 3122SOL    HW110265   4.401   4.768   5.012
 3122SOL    HW210266   4.419   4.606   5.018
 3123SOL     OW10267   1.856   0.560   3.626
 3123SOL    HW110268   1.777   0.517   3.670
 3123SOL    HW210269   1.829   0.648   3.587
 3124SOL     OW10270   5.182   6.827   4.206
 3124SOL    HW110271   5.129   6.812   4.122
 3124SOL    HW210272   5.269   6.779   4.199
 3125SOL     OW10273   0.673   2.862   5.296
 3125SOL    HW110274   0.772   2.863   5.281
 3125SOL    HW210275   0.638   2.770   5.276
 3126SOL     OW10276   5.689   4.778   6.323
 3126SOL    HW110277   5.682   4.777   6.423
 3126SOL    HW210278   5.604   4.812   6.284
 3127SOL     OW10279   1.462   2.842   5.210
 3127SOL    HW110280   1.547   2.789   5.208
 3127SOL    HW210281   1.395   2.795   5.267
 3128SOL     OW10282   3.989   0.792   0.343
 3128SOL    HW110283   4.055   0.866   0.352
 3128SOL    HW210284   4.014   0.717   0.404
 3129SOL     OW10285   4.986   3.409   0.979
 3129SOL    HW110286   4.945   3.318   0.972
 3129SOL    HW210287   4.982   3.440   1.074
 3130SOL     OW10288   1.629   4.234   1.365
 3130SOL    HW110289   1.553   4.300   1.373
 3130SOL    HW210290   1.712   4.283   1.340
 3131SOL     OW10291   7.008   3.242   2.271
 3131SOL    HW110292   6.989   3.143   2.267
 3131SOL    HW210293   0.043   3.260   2.345
 3132SOL     OW10294   4.450   5.139   6.656
 3132SOL    HW110295   4.390   5.063   6.682
 3132SOL    HW210296   4.526   5.145   6.721
 3133SOL     OW10297   3.847   1.539   3.566
 3133SOL    HW110298   3.794   1.621   3.588
 3133SOL    HW210299   3.928   1.565   3.512
 3134SOL     OW10300   3.821   5.118   1.964
 3134SOL    HW110301   3.828   5.027   1.924
 3134SOL    HW210302   3.774   5.113   2.052
 3135SOL     OW10303   5.462   6.465   6.276
 3135SOL    HW110304   5.510   6.422   6.199
 3135SOL    HW210305   5.467   6.404   6.355
 3136SOL     OW10306   5.781   0.308   1.750
 3136SOL    HW110307   5.739   0.389   1.708
 3136SOL    HW210308   5.818   0.333   1.839
 3137SOL     OW10309   6.954   6.693   2.239
 3137SOL    HW110310   6.863   6.699   2.281
 3137SOL    HW210311   6.947   6.715   2.142
 3138SOL     OW10312   6.303   5.382   3.653
 3138SOL    HW110313   6.351   5.376   3.565
 3138SOL    HW210314   6.366   5.357   3.726
 3139SOL     OW10315   3.326   4.784   1.493
 3139SOL    HW110316   3.250   4.724   1.517
 3139SOL    HW210317   3.385   4.798   1.573
 3140SOL     OW10318   0.114   5.826   5.252
 3140SOL    HW110319   0.156   5.749   5.301
 3140SOL    HW210320   0.109   5.905   5.312
 3141SOL     OW10321   6.963   0.884   6.633
 3141SOL    HW110322   6.973   0.973   6.677
 3141SOL    HW210323   0.015   0.829   6.650
 3142SOL     OW10324   3.779   1.176   2.652
 3142SOL    HW110325   3.691   1.154   2.695
 3142SOL    HW210326   3.843   1.207   2.722
 3143SOL     OW10327   6.267   2.043   6.670
 3143SOL    HW110328   6.328   2.106   6.719
 3143SOL    HW210329   6.301   2.031   6.577
 3144SOL     OW10330   4.220   3.701   7.017
 3144SOL    HW110331   4.240   3.627   0.051
 3144SOL    HW210332   4.301   3.718   6.960
 3145SOL     OW10333   1.867   6.511   2.579
 3145SOL    HW110334   1.955   6.557   2.573
 3145SOL    HW210335   1.835   6.488   2.487
 3146SOL     OW10336   0.722   0.978   5.110
 3146SOL    HW110337   0.785   0.909   5.074
 3146SOL    HW210338   0.723   1.058   5.050
 3147SOL     OW10339   3.386   5.311   6.629
 3147SOL    HW110340   3.330   5.358   6.561
 3147SOL    HW210341   3.428   5.379   6.690
 3148SOL     OW10342   0.277   0.527   3.936
 3148SOL    HW110343   0.326   0.454   3.888
 3148SOL    HW210344   0.333   0.610   3.937
 3149SOL     OW10345   3.183   1.467   6.663
 3149SOL    HW110346   3.231   1.381   6.681
 3149SOL    HW210347   3.220   1.509   6.580
 3150SOL     OW10348   6.601   5.716   5.544
 3150SOL    HW110349   6.556   5.627   5.554
 3150SOL    HW210350   6.568   5.779   5.614
 3151SOL     OW10351   0.234   1.864   5.864
 3151SOL    HW110352   0.241   1.937   5.796
 3151SOL    HW210353   0.290   1.888   5.944
 3152SOL     OW10354   1.159   4.545   6.920
 3152SOL    HW110355   1.140   4.593   6.834
 3152SOL    HW210356   1.074   4.535   6.972
 3153SOL     OW10357   5.948   5.084   6.853
 3153SOL    HW110358   5.940   5.172   6.900
 3153SOL    HW210359   5.857   5.045   6.840
 3154SOL     OW10360   5.882   0.849   0.911
 3154SOL    HW110361   5.881   0.771   0.848
 3154SOL    HW210362   5.913   0.818   1.001
 3155SOL     OW10363   6.557   4.482   0.367
 3155SOL    HW110364   6.520   4.463   0.457
 3155SOL    HW210365   6.562   4.397   0.314
 3156SOL     OW10366   3.218   4.081   2.074
 3156SOL    HW110367   3.173   3.992   2.063
 3156SOL    HW210368   3.188   4.142   2.001
 3157SOL     OW10369   1.638   1.994   5.425
 3157SOL    HW110370   1.726   1.947   5.430
 3157SOL    HW210371   1.576   1.944   5.365
 3158SOL     OW10372   2.928   1.635   5.041
 3158SOL    HW110373   2.977   1.703   5.095
 3158SOL    HW210374   2.908   1.672   4.950
 3159SOL     OW10375   5.702   0.588   6.646
 3159SOL    HW110376   5.687   0.685   6.626
 3159SOL    HW210377   5.682   0.571   6.742
 3160SOL     OW10378   1.764   6.950   5.448
 3160SOL    HW110379   1.822   7.002   5.509
 3160SOL    HW210380   1.814   6.870   5.414
 3161SOL     OW10381   2.089   2.530   2.848
 3161SOL    HW110382   2.064   2.621   2.814
 3161SOL    HW210383   2.153   2.487   2.783
 3162SOL     OW10384   1.869   5.679   0.699
 3162SOL    HW110385   1.850   5.776   0.687
 3162SOL    HW210386   1.955   5.668   0.748
 3163SOL     OW10387   3.150   3.298   0.177
 3163SOL    HW110388   3.138   3.262   0.084
 3163SOL    HW210389   3.242   3.273   0.210
 3164SOL     OW10390   3.493   5.816   2.661
 3164SOL    HW110391   3.529   5.781   2.575
 3164SOL    HW210392   3.563   5.808   2.732
 3165SOL     OW10393   1.007   5.760   1.360
 3165SOL    HW110394   0.998   5.763   1.260
 3165SOL    HW210395   1.088   5.707   1.384
 3166SOL     OW10396   4.438   1.272   4.480
 3166SOL    HW110397   4.506   1.345   4.480
 3166SOL    HW210398   4.484   1.184   4.476
 3167SOL     OW10399   5.563   4.518   0.666
 3167SOL    HW110400   5.515   4.604   0.651
 3167SOL    HW210401   5.496   4.445   0.683
 3168SOL     OW10402   5.358   2.254   0.956
 3168SOL    HW110403   5.390   2.160   0.966
 3168SOL    HW210404   5.437   2.316   0.954
 3169SOL     OW10405   1.829   4.081   3.149
 3169SOL    HW110406   1.785   4.057   3.236
 3169SOL    HW210407   1.844   3.998   3.095
 3170SOL     OW10408   4.404   6.058   2.972
 3170SOL    HW110409   4.375   5.962   2.965
 3170SOL    HW210410   4.346   6.105   3.038
 3171SOL     OW10411   5.833   1.991   1.733
 3171SOL    HW110412   5.823   2.024   1.827
 3171SOL    HW210413   5.915   2.031   1.693
 3172SOL     OW10414   0.319   5.681   0.263
 3172SOL    HW110415   0.326   5.622   0.344
 3172SOL    HW210416   0.232   5.731   0.267
 3173SOL     OW10417   3.227   2.786   6.477
 3173SOL    HW110418   3.286   2.867   6.485
 3173SOL    HW210419   3.132   2.812   6.491
 3174SOL     OW10420   2.345   2.835   6.208
 3174SOL    HW110421   2.367   2.886   6.291
 3174SOL    HW210422   2.264   2.875   6.164
 3175SOL     OW10423   5.867   1.117   1.540
 3175SOL    HW110424   5.907   1.120   1.632
 3175SOL    HW210425   5.898   1.197   1.488
 3176SOL     OW10426   0.569   2.967   5.568
 3176SOL    HW110427   0.621   2.947   5.485
 3176SOL    HW210428   0.480   3.006   5.543
 3177SOL     OW10429   5.315   4.250   4.149
 3177SOL    HW110430   5.316   4.343   4.112
 3177SOL    HW210431   5.294   4.253   4.247
 3178SOL     OW10432   6.191   2.573   0.294
 3178SOL    HW110433   6.152   2.497   0.346
 3178SOL    HW210434   6.276   2.602   0.337
 3179SOL     OW10435   1.691   1.435   1.642
 3179SOL    HW110436   1.640   1.512   1.680
 3179SOL    HW210437   1.778   1.425   1.691
 3180SOL     OW10438   5.415   6.787   0.481
 3180SOL    HW110439   5.383   6.774   0.387
 3180SOL    HW210440   5.443   6.699   0.519
 3181SOL     OW10441   6.864   1.970   4.098
 3181SOL    HW110442   6.938   1.902   4.089
 3181SOL    HW210443   6.843   1.983   4.195
 3182SOL     OW10444   2.738   0.864   6.692
 3182SOL    HW110445   2.746   0.775   6.648
 3182SOL    HW210446   2.776   0.859   6.785
 3183SOL     OW10447   4.314   4.632   1.935
 3183SOL    HW110448   4.394   4.599   1.984
 3183SOL    HW210449   4.238   4.644   1.999
 3184SOL     OW10450   0.299   1.687   2.528
 3184SOL    HW110451   0.390   1.646   2.532
 3184SOL    HW210452   0.252   1.673   2.616
 3185SOL     OW10453   5.773   6.627   6.458
 3185SOL    HW110454   5.776   6.531   6.486
 3185SOL    HW210455   5.735   6.683   6.532
 3186SOL     OW10456   2.900   1.511   0.209
 3186SOL    HW110457   2.972   1.564   0.253
 3186SOL    HW210458   2.940   1.445   0.145
 3187SOL     OW10459   3.499   5.282   2.210
 3187SOL    HW110460   3.413   5.253   2.250
 3187SOL    HW210461   3.511   5.238   2.121
 3188SOL     OW10462   2.051   5.842   4.477
 3188SOL    HW110463   2.126   5.810   4.535
 3188SOL    HW210464   2.069   5.936   4.448
 3189SOL     OW10465   1.961   1.590   0.560
 3189SOL    HW110466   1.977   1.496   0.532
 3189SOL    HW210467   1.917   1.592   0.650
 3190SOL     OW10468   6.896   5.995   6.752
 3190SOL    HW110469   6.935   6.087   6.752
 3190SOL    HW210470   6.891   5.961   6.846
 3191SOL     OW10471   4.340   5.022   1.546
 3191SOL    HW110472   4.366   5.051   1.638
 3191SOL    HW210473   4.281   4.941   1.552
 3192SOL     OW10474   6.981   2.672   0.831
 3192SOL    HW110475   6.976   2.642   0.735
 3192SOL    HW210476   6.913   2.622   0.884
 3193SOL     OW10477   3.926   1.550   5.108
 3193SOL    HW110478   3.958   1.457   5.126
 3193SOL    HW210479   3.964   1.582   5.022
 3194SOL     OW10480   0.232   1.323   5.189
 3194SOL    HW110481   0.237   1.423   5.191
 3194SOL    HW210482   0.313   1.287   5.143
 3195SOL     OW10483   0.774   1.180   1.328
 3195SOL    HW110484   0.840   1.255   1.316
 3195SOL    HW210485   0.779   1.119   1.248
 3196SOL     OW10486   6.553   0.726   6.812
 3196SOL    HW110487   6.614   0.802   6.838
 3196SOL    HW210488   6.597   0.672   6.740
 3197SOL     OW10489   2.486   7.005   5.476
 3197SOL    HW110490   2.511   6.935   5.543
 3197SOL    HW210491   2.474   0.063   5.521
 3198SOL     OW10492   6.440   2.683   3.344
 3198SOL    HW110493   6.347   2.650   3.361
 3198SOL    HW210494   6.439   2.749   3.269
 3199SOL     OW10495   5.438   4.630   3.001
 3199SOL    HW110496   5.480   4.713   3.038
 3199SOL    HW210497   5.509   4.567   2.970
 3200SOL     OW10498   5.683   2.697   2.956
 3200SOL    HW110499   5.621   2.631   2.998
 3200SOL    HW210500   5.660   2.789   2.988
 3201SOL     OW10501   6.505   4.901   3.193
 3201SOL    HW110502   6.550   4.830   3.138
 3201SOL    HW210503   6.424   4.934   3.145
 3202SOL     OW10504   0.794   5.173   0.546
 3202SOL    HW110505   0.835   5.251   0.593
 3202SOL    HW210506   0.762   5.106   0.613
 3203SOL     OW10507   5.676   1.831   1.185
 3203SOL    HW110508   5.724   1.747   1.213
 3203SOL    HW210509   5.741   1.895   1.145
 3204SOL     OW10510   3.467   0.838   3.399
 3204SOL    HW110511   3.492   0.926   3.438
 3204SOL    HW210512   3.368   0.825   3.407
 3205SOL     OW10513   5.053   2.741   5.764
 3205SOL    HW110514   4.996   2.792   5.829
 3205SOL    HW210515   4.996   2.701   5.693
 3206SOL     OW10516   2.049   3.964   1.163
 3206SOL    HW110517   2.113   3.937   1.091
 3206SOL    HW210518   2.098   3.971   1.250
 3207SOL     OW10519   1.554   0.857   6.748
 3207SOL    HW110520   1.533   0.767   6.712
 3207SOL    HW210521   1.547   0.856   6.848
 3208SOL     OW10522   5.489   6.149   6.181
 3208SOL    HW110523   5.510   6.168   6.276
 3208SOL    HW210524   5.391   6.133   6.170
 3209SOL     OW10525   3.072   5.175   4.677
 3209SOL    HW110526   3.100   5.207   4.586
 3209SOL    HW210527   2.978   5.140   4.672
 3210SOL     OW10528   1.151   5.089   1.345
 3210SOL    HW110529   1.078   5.148   1.310
 3210SOL    HW210530   1.114   5.030   1.418
 3211SOL     OW10531   1.913   4.452   0.570
 3211SOL    HW110532   1.985   4.432   0.503
 3211SOL    HW210533   1.954   4.479   0.657
 3212SOL     OW10534   3.474   6.956   2.540
 3212SOL    HW110535   3.561   7.002   2.555
 3212SOL    HW210536   3.405   7.022   2.509
 3213SOL     OW10537   1.540   0.614   6.596
 3213SOL    HW110538   1.509   0.612   6.501
 3213SOL    HW210539   1.539   0.522   6.634
 3214SOL     OW10540   4.860   5.569   2.574
 3214SOL    HW110541   4.845   5.475   2.542
 3214SOL    HW210542   4.795   5.589   2.648
 3215SOL     OW10543   0.586   3.878   0.703
 3215SOL    HW110544   0.586   3.778   0.711
 3215SOL    HW210545   0.499   3.914   0.737
 3216SOL     OW10546   5.486   5.340   0.801
 3216SOL    HW110547   5.441   5.320   0.889
 3216SOL    HW210548   5.559   5.274   0.785
 3217SOL     OW10549   0.215   5.260   2.545
 3217SOL    HW110550   0.274   5.304   2.477
 3217SOL    HW210551   0.137   5.217   2.500
 3218SOL     OW10552   5.520   2.585   3.170
 3218SOL    HW110553   5.438   2.528   3.178
 3218SOL    HW210554   5.561   2.596   3.260
 3219SOL     OW10555   7.022   0.558   4.561
 3219SOL    HW110556   6.992   0.537   4.654
 3219SOL    HW210557   6.942   0.576   4.503
 3220SOL     OW10558   0.390   5.788   6.344
 3220SOL    HW110559   0.303   5.796   6.295
 3220SOL    HW210560   0.379   5.826   6.436
 3221SOL     OW10561   3.212   0.058   2.643
 3221SOL    HW110562   3.151   0.034   2.719
 3221SOL    HW210563   3.297   0.095   2.680
 3222SOL     OW10564   2.745   1.349   2.704
 3222SOL    HW110565   2.799   1.394   2.633
 3222SOL    HW210566   2.800   1.339   2.786
 3223SOL     OW10567   2.567   6.683   0.234
 3223SOL    HW110568   2.595   6.587   0.224
 3223SOL    HW210569   2.648   6.740   0.246
 3224SOL     OW10570   4.968   2.739   4.961
 3224SOL    HW110571   4.951   2.643   4.985
 3224SOL    HW210572   4.882   2.783   4.935
 3225SOL     OW10573   4.508   1.622   5.526
 3225SOL    HW110574   4.456   1.689   5.579
 3225SOL    HW210575   4.500   1.532   5.569
 3226SOL     OW10576   2.248   1.148   2.010
 3226SOL    HW110577   2.209   1.071   2.060
 3226SOL    HW210578   2.237   1.231   2.064
 3227SOL     OW10579   3.451   3.468   6.872
 3227SOL    HW110580   3.523   3.530   6.840
 3227SOL    HW210581   3.380   3.521   6.919
 3228SOL     OW10582   6.685   3.718   0.769
 3228SOL    HW110583   6.761   3.673   0.817
 3228SOL    HW210584   6.635   3.649   0.716
 3229SOL     OW10585   3.897   0.752   5.762
 3229SOL    HW110586   3.898   0.698   5.678
 3229SOL    HW210587   3.937   0.842   5.745
 3230SOL     OW10588   1.993   5.640   6.056
 3230SOL    HW110589   2.062   5.702   6.094
 3230SOL    HW210590   1.988   5.653   5.957
 3231SOL     OW10591   2.563   0.537   2.559
 3231SOL    HW110592   2.524   0.545   2.468
 3231SOL    HW210593   2.519   0.601   2.621
 3232SOL     OW10594   4.058   6.274   3.984
 3232SOL    HW110595   4.059   6.302   4.080
 3232SOL    HW210596   4.095   6.348   3.927
 3233SOL     OW10597   6.783   2.515   0.352
 3233SOL    HW110598   6.798   2.582   0.425
 3233SOL    HW210599   6.727   2.555   0.281
 3234SOL     OW10600   0.716   2.791   0.305
 3234SOL    HW110601   0.630   2.743   0.320
 3234SOL    HW210602   0.744   2.780   0.210
 3235SOL     OW10603   6.377   0.147   1.850
 3235SOL    HW110604   6.341   0.128   1.759
 3235SOL    HW210605   6.432   0.231   1.847
 3236SOL     OW10606   0.833   4.199   0.678
 3236SOL    HW110607   0.770   4.147   0.736
 3236SOL    HW210608   0.925   4.161   0.688
 3237SOL     OW10609   5.857   1.103   2.561
 3237SOL    HW110610   5.797   1.166   2.609
 3237SOL    HW210611   5.941   1.089   2.614
 3238SOL     OW10612   5.778   5.518   0.253
 3238SOL    HW110613   5.824   5.593   0.205
 3238SOL    HW210614   5.730   5.460   0.188
 3239SOL     OW10615   0.477   0.837   3.089
 3239SOL    HW110616   0.444   0.850   2.996
 3239SOL    HW210617   0.461   0.920   3.142
 3240SOL     OW10618   7.026   0.489   6.255
 3240SOL    HW110619   0.006   0.405   6.202
 3240SOL    HW210620   6.940   0.487   6.306
 3241SOL     OW10621   5.027   1.555   5.818
 3241SOL    HW110622   4.948   1.604   5.780
 3241SOL    HW210623   5.021   1.554   5.918
 3242SOL     OW10624   4.530   3.712   6.166
 3242SOL    HW110625   4.455   3.775   6.185
 3242SOL    HW210626   4.607   3.734   6.226
 3243SOL     OW10627   4.445   5.131   0.250
 3243SOL    HW110628   4.522   5.068   0.234
 3243SOL    HW210629   4.477   5.208   0.305
 3244SOL     OW10630   5.592   6.260   7.029
 3244SOL    HW110631   5.638   6.213   6.954
 3244SOL    HW210632   5.629   6.352   0.009
 3245SOL     OW10633   4.819   1.581   4.651
 3245SOL    HW110634   4.870   1.652   4.602
 3245SOL    HW210635   4.812   1.606   4.748
 3246SOL     OW10636   6.845   6.935   2.733
 3246SOL    HW110637   6.786   6.982   2.668
 3246SOL    HW210638   6.939   6.933   2.698
 3247SOL     OW10639   6.053   4.512   2.079
 3247SOL    HW110640   6.145   4.473   2.078
 3247SOL    HW210641   6.043   4.572   2.159
 3248SOL     OW10642   5.433   2.231   2.407
 3248SOL    HW110643   5.413   2.328   2.395
 3248SOL    HW210644   5.355   2.177   2.376
 3249SOL     OW10645   3.372   3.856   3.478
 3249SOL    HW110646   3.320   3.802   3.412
 3249SOL    HW210647   3.343   3.833   3.571
 3250SOL     OW10648   5.467   0.147   2.500
 3250SOL    HW110649   5.543   0.114   2.443
 3250SOL    HW210650   5.501   0.174   2.589
 3251SOL     OW10651   3.445   0.934   4.007
 3251SOL    HW110652   3.367   0.996   4.017
 3251SOL    HW210653   3.522   0.984   3.969
 3252SOL     OW10654   3.072   0.763   2.451
 3252SOL    HW110655   3.032   0.853   2.462
 3252SOL    HW210656   3.138   0.764   2.376
 3253SOL     OW10657   4.407   3.834   0.496
 3253SOL    HW110658   4.360   3.890   0.428
 3253SOL    HW210659   4.344   3.813   0.571
 3254SOL     OW10660   5.179   6.482   6.787
 3254SOL    HW110661   5.257   6.545   6.795
 3254SOL    HW210662   5.106   6.526   6.736
 3255SOL     OW10663   4.701   6.231   1.189
 3255SOL    HW110664   4.725   6.302   1.255
 3255SOL    HW210665   4.650   6.158   1.235
 3256SOL     OW10666   3.670   1.946   1.055
 3256SOL    HW110667   3.643   1.915   1.146
 3256SOL    HW210668   3.611   2.023   1.028
 3257SOL     OW10669   1.702   1.727   1.715
 3257SOL    HW110670   1.670   1.726   1.810
 3257SOL    HW210671   1.798   1.754   1.713
 3258SOL     OW10672   4.041   5.438   3.467
 3258SOL    HW110673   4.030   5.525   3.515
 3258SOL    HW210674   3.955   5.415   3.420
 3259SOL     OW10675   4.715   5.240   4.429
 3259SOL    HW110676   4.740   5.216   4.523
 3259SOL    HW210677   4.793   5.227   4.369
 3260SOL     OW10678   1.580   3.428   1.661
 3260SOL    HW110679   1.537   3.517   1.676
 3260SOL    HW210680   1.650   3.436   1.591
 3261SOL     OW10681   5.310   0.675   1.262
 3261SOL    HW110682   5.251   0.742   1.215
 3261SOL    HW210683   5.313   0.696   1.359
 3262SOL     OW10684   3.936   2.133   1.974
 3262SOL    HW110685   3.961   2.162   1.882
 3262SOL    HW210686   3.836   2.127   1.981
 3263SOL     OW10687   3.214   1.523   2.976
 3263SOL    HW110688   3.271   1.457   2.928
 3263SOL    HW210689   3.189   1.487   3.066
 3264SOL     OW10690   2.378   5.708   1.030
 3264SOL    HW110691   2.320   5.630   1.004
 3264SOL    HW210692   2.326   5.793   1.018
 3265SOL     OW10693   5.452   0.062   6.550
 3265SOL    HW110694   5.500   0.065   6.462
 3265SOL    HW210695   5.393   0.142   6.558
 3266SOL     OW10696   2.792   4.868   6.780
 3266SOL    HW110697   2.829   4.959   6.798
 3266SOL    HW210698   2.847   4.799   6.828
 3267SOL     OW10699   3.245   6.712   2.322
 3267SOL    HW110700   3.198   6.770   2.388
 3267SOL    HW210701   3.179   6.667   2.263
 3268SOL     OW10702   2.114   4.270   1.222
 3268SOL    HW110703   2.043   4.253   1.291
 3268SOL    HW210704   2.073   4.261   1.131
 3269SOL     OW10705   6.551   5.993   2.024
 3269SOL    HW110706   6.585   5.908   2.064
 3269SOL    HW210707   6.588   6.004   1.932
 3270SOL     OW10708   1.437   3.524   6.643
 3270SOL    HW110709   1.480   3.614   6.657
 3270SOL    HW210710   1.505   3.459   6.611
 3271SOL     OW10711   6.978   3.027   1.493
 3271SOL    HW110712   6.976   3.126   1.475
 3271SOL    HW210713   7.021   2.981   1.416
 3272SOL     OW10714   2.942   4.295   6.423
 3272SOL    HW110715   2.862   4.241   6.449
 3272SOL    HW210716   2.995   4.246   6.355
 3273SOL     OW10717   6.621   4.972   6.964
 3273SOL    HW110718   6.527   4.948   6.988
 3273SOL    HW210719   6.623   5.062   6.921
 3274SOL     OW10720   5.906   0.383   0.464
 3274SOL    HW110721   5.818   0.397   0.511
 3274SOL    HW210722   5.969   0.335   0.525
 3275SOL     OW10723   4.829   1.132   6.875
 3275SOL    HW110724   4.927   1.134   6.856
 3275SOL    HW210725   4.811   1.180   6.961
 3276SOL     OW10726   4.444   6.799   6.642
 3276SOL    HW110727   4.474   6.891   6.669
 3276SOL    HW210728   4.524   6.746   6.613
 3277SOL     OW10729   3.760   0.901   1.168
 3277SOL    HW110730   3.767   0.964   1.245
 3277SOL    HW210731   3.719   0.949   1.090
 3278SOL     OW10732   1.364   0.632   5.928
 3278SOL    HW110733   1.375   0.731   5.938
 3278SOL    HW210734   1.274   0.605   5.961
 3279SOL     OW10735   5.301   0.165   0.450
 3279SOL    HW110736   5.239   0.110   0.393
 3279SOL    HW210737   5.364   0.105   0.498
 3280SOL     OW10738   5.033   4.870   5.207
 3280SOL    HW110739   4.947   4.821   5.219
 3280SOL    HW210740   5.086   4.829   5.133
 3281SOL     OW10741   0.915   5.006   0.942
 3281SOL    HW110742   0.973   4.946   0.887
 3281SOL    HW210743   0.973   5.068   0.996
 3282SOL     OW10744   6.755   5.128   5.285
 3282SOL    HW110745   6.761   5.193   5.361
 3282SOL    HW210746   6.661   5.095   5.277
 3283SOL     OW10747   3.087   1.369   1.239
 3283SOL    HW110748   3.042   1.281   1.226
 3283SOL    HW210749   3.128   1.398   1.152
 3284SOL     OW10750   1.357   5.793   5.732
 3284SOL    HW110751   1.391   5.797   5.638
 3284SOL    HW210752   1.282   5.727   5.737
 3285SOL     OW10753   4.436   2.112   5.001
 3285SOL    HW110754   4.408   2.022   4.967
 3285SOL    HW210755   4.525   2.104   5.046
 3286SOL     OW10756   3.305   2.759   1.762
 3286SOL    HW110757   3.300   2.672   1.712
 3286SOL    HW210758   3.392   2.765   1.810
 3287SOL     OW10759   0.484   0.013   0.251
 3287SOL    HW110760   0.461   0.037   0.157
 3287SOL    HW210761   0.413   6.985   0.289
 3288SOL     OW10762   1.963   6.882   0.272
 3288SOL    HW110763   2.034   6.835   0.325
 3288SOL    HW210764   2.000   6.908   0.183
 3289SOL     OW10765   2.556   1.667   6.154
 3289SOL    HW110766   2.604   1.753   6.138
 3289SOL    HW210767   2.576   1.604   6.080
 3290SOL     OW10768   6.550   5.054   0.585
 3290SOL    HW110769   6.600   4.969   0.599
 3290SOL    HW210770   6.489   5.070   0.663
 3291SOL     OW10771   2.114   1.501   6.001
 3291SOL    HW110772   2.134   1.462   5.911
 3291SOL    HW210773   2.041   1.569   5.992
 3292SOL     OW10774   0.079   1.129   0.524
 3292SOL    HW110775   0.042   1.186   0.450
 3292SOL    HW210776   0.130   1.186   0.588
 3293SOL     OW10777   6.523   4.445   1.549
 3293SOL    HW110778   6.568   4.378   1.489
 3293SOL    HW210779   6.568   4.443   1.638
 3294SOL     OW10780   5.277   2.965   6.516
 3294SOL    HW110781   5.373   2.950   6.493
 3294SOL    HW210782   5.219   2.924   6.445
 3295SOL     OW10783   0.817   2.956   1.961
 3295SOL    HW110784   0.830   2.858   1.952
 3295SOL    HW210785   0.903   3.003   1.944
 3296SOL     OW10786   1.141   0.705   2.927
 3296SOL    HW110787   1.095   0.789   2.899
 3296SOL    HW210788   1.083   0.654   2.990
 3297SOL     OW10789   2.763   1.346   5.421
 3297SOL    HW110790   2.754   1.266   5.362
 3297SOL    HW210791   2.673   1.389   5.432
 3298SOL     OW10792   6.782   2.438   5.877
 3298SOL    HW110793   6.792   2.538   5.870
 3298SOL    HW210794   6.697   2.411   5.832
 3299SOL     OW10795   3.892   5.986   2.908
 3299SOL    HW110796   3.891   6.072   2.858
 3299SOL    HW210797   3.914   5.911   2.845
 3300SOL     OW10798   1.177   0.319   6.134
 3300SOL    HW110799   1.273   0.296   6.150
 3300SOL    HW210800   1.170   0.413   6.101
 3301SOL     OW10801   1.887   3.012   3.465
 3301SOL    HW110802   1.869   3.007   3.367
 3301SOL    HW210803   1.979   3.046   3.480
 3302SOL     OW10804   0.626   4.895   5.142
 3302SOL    HW110805   0.708   4.839   5.154
 3302SOL    HW210806   0.611   4.913   5.045
 3303SOL     OW10807   2.862   3.602   0.306
 3303SOL    HW110808   2.764   3.615   0.296
 3303SOL    HW210809   2.901   3.679   0.357
 3304SOL     OW10810   1.766   5.194   6.261
 3304SOL    HW110811   1.778   5.160   6.168
 3304SOL    HW210812   1.851   5.236   6.293
 3305SOL     OW10813   2.786   1.469   2.170
 3305SOL    HW110814   2.876   1.432   2.197
 3305SOL    HW210815   2.715   1.423   2.223
 3306SOL     OW10816   1.399   4.988   4.581
 3306SOL    HW110817   1.433   5.081   4.567
 3306SOL    HW210818   1.332   4.988   4.656
 3307SOL     OW10819   0.873   6.815   5.710
 3307SOL    HW110820   0.948   6.784   5.651
 3307SOL    HW210821   0.909   6.881   5.776
 3308SOL     OW10822   3.242   5.537   1.512
 3308SOL    HW110823   3.287   5.601   1.574
 3308SOL    HW210824   3.173   5.485   1.563
 3309SOL     OW10825   6.999   4.890   3.862
 3309SOL    HW110826   6.969   4.800   3.830
 3309SOL    HW210827   0.030   4.879   3.941
 3310SOL     OW10828   6.757   4.174   4.672
 3310SOL    HW110829   6.833   4.212   4.619
 3310SOL    HW210830   6.689   4.245   4.688
 3311SOL     OW10831   3.224   4.201   0.566
 3311SOL    HW110832   3.297   4.162   0.622
 3311SOL    HW210833   3.224   4.300   0.576
 3312SOL     OW10834   4.072   3.718   5.770
 3312SOL    HW110835   4.100   3.625   5.793
 3312SOL    HW210836   4.148   3.766   5.726
 3313SOL     OW10837   1.020   6.842   3.662
 3313SOL    HW110838   1.081   6.786   3.719
 3313SOL    HW210839   1.046   6.831   3.566
 3314SOL     OW10840   2.567   1.222   2.549
 3314SOL    HW110841   2.611   1.215   2.460
 3314SOL    HW210842   2.632   1.260   2.615
 3315SOL     OW10843   0.226   3.848   4.607
 3315SOL    HW110844   0.127   3.837   4.616
 3315SOL    HW210845   0.250   3.945   4.610
 3316SOL     OW10846   4.470   0.939   5.296
 3316SOL    HW110847   4.511   0.849   5.315
 3316SOL    HW210848   4.374   0.927   5.272
 3317SOL     OW10849   5.013   2.611   2.197
 3317SOL    HW110850   5.023   2.560   2.282
 3317SOL    HW210851   5.042   2.554   2.120
 3318SOL     OW10852   1.807   1.577   0.785
 3318SOL    HW110853   1.852   1.504   0.836
 3318SOL    HW210854   1.724   1.542   0.743
 3319SOL     OW10855   5.615   1.311   3.921
 3319SOL    HW110856   5.567   1.399   3.926
 3319SOL    HW210857   5.593   1.266   3.834
 3320SOL     OW10858   5.903   1.060   0.197
 3320SOL    HW110859   5.993   1.083   0.157
 3320SOL    HW210860   5.880   1.128   0.266
 3321SOL     OW10861   5.525   1.773   0.529
 3321SOL    HW110862   5.508   1.872   0.535
 3321SOL    HW210863   5.503   1.741   0.437
 3322SOL     OW10864   6.645   2.631   1.607
 3322SOL    HW110865   6.636   2.557   1.674
 3322SOL    HW210866   6.638   2.719   1.654
 3323SOL     OW10867   2.345   2.965   0.249
 3323SOL    HW110868   2.275   2.896   0.268
 3323SOL    HW210869   2.435   2.929   0.273
 3324SOL     OW10870   4.176   4.854   6.239
 3324SOL    HW110871   4.090   4.902   6.219
 3324SOL    HW210872   4.192   4.784   6.170
 3325SOL     OW10873   0.180   3.915   0.206
 3325SOL    HW110874   0.130   3.979   0.147
 3325SOL    HW210875   0.274   3.909   0.176
 3326SOL     OW10876   4.590   1.809   1.770
 3326SOL    HW110877   4.639   1.869   1.832
 3326SOL    HW210878   4.609   1.714   1.794
 3327SOL     OW10879   3.074   5.514   1.914
 3327SOL    HW110880   3.090   5.478   2.006
 3327SOL    HW210881   3.036   5.606   1.920
 3328SOL     OW10882   3.911   1.848   0.648
 3328SOL    HW110883   4.005   1.882   0.655
 3328SOL    HW210884   3.880   1.854   0.553
 3329SOL     OW10885   5.800   0.379   5.659
 3329SOL    HW110886   5.852   0.311   5.711
 3329SOL    HW210887   5.745   0.434   5.721
 3330SOL     OW10888   6.292   3.630   1.651
 3330SOL    HW110889   6.343   3.692   1.592
 3330SOL    HW210890   6.314   3.535   1.628
 3331SOL     OW10891   2.363   3.296   1.638
 3331SOL    HW110892   2.382   3.368   1.705
 3331SOL    HW210893   2.443   3.238   1.629
 3332SOL     OW10894   5.833   5.921   0.317
 3332SOL    HW110895   5.810   5.991   0.385
 3332SOL    HW210896   5.918   5.876   0.343
 3333SOL     OW10897   3.670   5.806   6.321
 3333SOL    HW110898   3.717   5.894   6.321
 3333SOL    HW210899   3.716   5.744   6.385
 3334SOL     OW10900   3.337   3.752   1.372
 3334SOL    HW110901   3.316   3.800   1.287
 3334SOL    HW210902   3.252   3.734   1.421
 3335SOL     OW10903   4.798   5.148   5.555
 3335SOL    HW110904   4.836   5.182   5.469
 3335SOL    HW210905   4.872   5.113   5.613
 3336SOL     OW10906   2.982   5.386   4.935
 3336SOL    HW110907   2.969   5.306   4.876
 3336SOL    HW210908   2.988   5.356   5.030
 3337SOL     OW10909   3.330   3.016   2.091
 3337SOL    HW110910   3.263   2.977   2.028
 3337SOL    HW210911   3.414   2.962   2.088
 3338SOL     OW10912   6.079   2.989   0.925
 3338SOL    HW110913   5.984   2.991   0.955
 3338SOL    HW210914   6.134   2.940   0.992
 3339SOL     OW10915   6.687   0.564   6.657
 3339SOL    HW110916   6.743   0.617   6.593
 3339SOL    HW210917   6.683   0.469   6.627
 3340SOL     OW10918   3.727   0.393   1.168
 3340SOL    HW110919   3.722   0.416   1.071
 3340SOL    HW210920   3.690   0.468   1.223
 3341SOL     OW10921   1.433   6.144   4.159
 3341SOL    HW110922   1.422   6.097   4.246
 3341SOL    HW210923   1.368   6.108   4.093
 3342SOL     OW10924   2.577   6.436   4.297
 3342SOL    HW110925   2.581   6.456   4.395
 3342SOL    HW210926   2.635   6.357   4.277
 3343SOL     OW10927   4.740   3.004   0.604
 3343SOL    HW110928   4.682   2.951   0.542
 3343SOL    HW210929   4.708   2.990   0.698
 3344SOL     OW10930   6.155   3.558   4.571
 3344SOL    HW110931   6.091   3.489   4.605
 3344SOL    HW210932   6.165   3.549   4.472
 3345SOL     OW10933   1.376   3.776   5.411
 3345SOL    HW110934   1.292   3.818   5.377
 3345SOL    HW210935   1.456   3.826   5.376
 3346SOL     OW10936   1.734   1.037   1.168
 3346SOL    HW110937   1.668   1.012   1.097
 3346SOL    HW210938   1.777   0.954   1.205
 3347SOL     OW10939   0.662   4.641   3.461
 3347SOL    HW110940   0.732   4.573   3.484
 3347SOL    HW210941   0.680   4.677   3.369
 3348SOL     OW10942   3.140   3.061   3.158
 3348SOL    HW110943   3.227   3.051   3.108
 3348SOL    HW210944   3.137   2.995   3.233
 3349SOL     OW10945   0.822   4.804   4.559
 3349SOL    HW110946   0.830   4.740   4.635
 3349SOL    HW210947   0.913   4.834   4.531
 3350SOL     OW10948   1.161   2.230   6.659
 3350SOL    HW110949   1.134   2.301   6.593
 3350SOL    HW210950   1.081   2.201   6.711
 3351SOL     OW10951   5.335   6.920   2.576
 3351SOL    HW110952   5.302   6.916   2.671
 3351SOL    HW210953   5.376   7.010   2.559
 3352SOL     OW10954   0.436   3.388   0.519
 3352SOL    HW110955   0.390   3.476   0.516
 3352SOL    HW210956   0.410   3.340   0.603
 3353SOL     OW10957   1.470   6.241   2.014
 3353SOL    HW110958   1.531   6.321   2.008
 3353SOL    HW210959   1.382   6.269   2.051
 3354SOL     OW10960   5.422   2.727   4.354
 3354SOL    HW110961   5.417   2.826   4.368
 3354SOL    HW210962   5.345   2.682   4.400
 3355SOL     OW10963   1.448   1.433   0.011
 3355SOL    HW110964   1.359   1.471   0.037
 3355SOL    HW210965   1.515   1.456   0.081
 3356SOL     OW10966   2.088   3.470   6.702
 3356SOL    HW110967   2.163   3.522   6.743
 3356SOL    HW210968   2.119   3.377   6.684
 3357SOL     OW10969   2.682   4.788   1.827
 3357SOL    HW110970   2.733   4.718   1.877
 3357SOL    HW210971   2.746   4.853   1.785
 3358SOL     OW10972   4.819   0.168   1.520
 3358SOL    HW110973   4.720   0.183   1.524
 3358SOL    HW210974   4.860   0.231   1.455
 3359SOL     OW10975   6.698   0.225   4.063
 3359SOL    HW110976   6.642   0.160   4.115
 3359SOL    HW210977   6.790   0.229   4.104
 3360SOL     OW10978   6.977   0.919   0.161
 3360SOL    HW110979   0.022   0.882   0.216
 3360SOL    HW210980   6.954   0.854   0.089
 3361SOL     OW10981   0.411   5.371   2.380
 3361SOL    HW110982   0.469   5.441   2.338
 3361SOL    HW210983   0.469   5.303   2.426
 3362SOL     OW10984   4.185   1.560   3.975
 3362SOL    HW110985   4.271   1.588   4.018
 3362SOL    HW210986   4.204   1.517   3.887
 3363SOL     OW10987   0.799   0.187   7.023
 3363SOL    HW110988   0.751   0.116   6.972
 3363SOL    HW210989   0.898   0.177   7.010
 3364SOL     OW10990   1.229   4.155   4.169
 3364SOL    HW110991   1.171   4.102   4.231
 3364SOL    HW210992   1.175   4.228   4.127
 3365SOL     OW10993   0.282   2.270   5.146
 3365SOL    HW110994   0.288   2.337   5.220
 3365SOL    HW210995   0.186   2.259   5.119
 3366SOL     OW10996   6.104   0.279   5.944
 3366SOL    HW110997   6.192   0.322   5.921
 3366SOL    HW210998   6.036   0.350   5.962
 3367SOL     OW10999   1.975   2.990   1.475
 3367SOL    HW111000   2.006   2.929   1.548
 3367SOL    HW211001   2.020   3.078   1.484
 3368SOL     OW11002   0.772   5.844   6.397
 3368SOL    HW111003   0.807   5.842   6.490
 3368SOL    HW211004   0.848   5.837   6.332
 3369SOL     OW11005   3.453   2.385   5.919
 3369SOL    HW111006   3.498   2.352   5.836
 3369SOL    HW211007   3.446   2.485   5.916
 3370SOL     OW11008   6.798   6.220   5.788
 3370SOL    HW111009   6.810   6.294   5.721
 3370SOL    HW211010   6.767   6.138   5.741
 3371SOL     OW11011   0.508   4.362   2.456
 3371SOL    HW111012   0.525   4.457   2.428
 3371SOL    HW211013   0.423   4.330   2.415
 3372SOL     OW11014   1.152   1.681   1.838
 3372SOL    HW111015   1.061   1.647   1.860
 3372SOL    HW211016   1.217   1.651   1.908
 3373SOL     OW11017   6.207   1.305   3.386
 3373SOL    HW111018   6.113   1.309   3.351
 3373SOL    HW211019   6.216   1.368   3.464
 3374SOL     OW11020   2.418   5.185   4.484
 3374SOL    HW111021   2.321   5.198   4.465
 3374SOL    HW211022   2.458   5.271   4.514
 3375SOL     OW11023   4.506   5.040   5.574
 3375SOL    HW111024   4.582   5.081   5.523
 3375SOL    HW211025   4.518   5.056   5.672
 3376SOL     OW11026   4.052   3.567   2.887
 3376SOL    HW111027   4.075   3.558   2.984
 3376SOL    HW211028   4.071   3.660   2.856
 3377SOL     OW11029   0.156   5.966   4.378
 3377SOL    HW111030   0.120   5.920   4.297
 3377SOL    HW211031   0.166   6.063   4.360
 3378SOL     OW11032   6.301   0.619   0.603
 3378SOL    HW111033   6.373   0.661   0.548
 3378SOL    HW211034   6.221   0.604   0.546
 3379SOL     OW11035   6.951   5.277   6.063
 3379SOL    HW111036   6.947   5.269   5.963
 3379SOL    HW211037   6.994   5.196   6.102
 3380SOL     OW11038   6.137   6.002   5.946
 3380SOL    HW111039   6.094   5.960   6.026
 3380SOL    HW211040   6.095   6.091   5.928
 3381SOL     OW11041   1.147   2.601   0.957
 3381SOL    HW111042   1.234   2.648   0.966
 3381SOL    HW211043   1.094   2.644   0.883
 3382SOL     OW11044   0.931   0.931   0.308
 3382SOL    HW111045   0.885   0.925   0.397
 3382SOL    HW211046   0.879   0.879   0.241
 3383SOL     OW11047   4.619   5.601   3.190
 3383SOL    HW111048   4.622   5.680   3.252
 3383SOL    HW211049   4.662   5.626   3.103
 3384SOL     OW11050   2.863   3.414   5.094
 3384SOL    HW111051   2.834   3.488   5.155
 3384SOL    HW211052   2.876   3.330   5.148
 3385SOL     OW11053   0.280   3.940   3.554
 3385SOL    HW111054   0.365   3.893   3.530
 3385SOL    HW211055   0.298   4.004   3.630
 3386SOL     OW11056   6.816   3.383   6.038
 3386SOL    HW111057   6.842   3.378   5.942
 3386SOL    HW211058   6.825   3.292   6.080
 3387SOL     OW11059   2.964   0.712   2.857
 3387SOL    HW111060   2.883   0.653   2.858
 3387SOL    HW211061   3.046   0.655   2.861
 3388SOL     OW11062   6.425   3.085   1.841
 3388SOL    HW111063   6.334   3.099   1.879
 3388SOL    HW211064   6.418   3.038   1.754
 3389SOL     OW11065   4.664   5.174   4.929
 3389SOL    HW111066   4.592   5.194   4.996
 3389SOL    HW211067   4.746   5.141   4.977
 3390SOL     OW11068   5.774   4.742   6.017
 3390SOL    HW111069   5.823   4.682   6.081
 3390SOL    HW211070   5.823   4.828   6.006
 3391SOL     OW11071   5.529   2.773   4.657
 3391SOL    HW111072   5.584   2.706   4.606
 3391SOL    HW211073   5.557   2.865   4.631
 3392SOL     OW11074   2.846   0.505   3.543
 3392SOL    HW111075   2.766   0.531   3.598
 3392SOL    HW211076   2.814   0.462   3.458
 3393SOL     OW11077   0.241   6.521   0.395
 3393SOL    HW111078   0.318   6.583   0.384
 3393SOL    HW211079   0.223   6.473   0.309
 3394SOL     OW11080   6.116   3.463   1.008
 3394SOL    HW111081   6.087   3.428   1.097
 3394SOL    HW211082   6.143   3.387   0.949
 3395SOL     OW11083   6.196   3.137   3.618
 3395SOL    HW111084   6.217   3.100   3.528
 3395SOL    HW211085   6.111   3.096   3.651
 3396SOL     OW11086   6.363   2.201   3.306
 3396SOL    HW111087   6.407   2.139   3.371
 3396SOL    HW211088   6.275   2.162   3.277
 3397SOL     OW11089   2.873   1.196   5.627
 3397SOL    HW111090   2.844   1.247   5.546
 3397SOL    HW211091   2.844   1.245   5.710
 3398SOL     OW11092   1.622   6.876   4.025
 3398SOL    HW111093   1.583   6.919   3.943
 3398SOL    HW211094   1.634   6.779   4.009
 3399SOL     OW11095   5.326   4.721   4.990
 3399SOL    HW111096   5.322   4.703   4.892
 3399SOL    HW211097   5.397   4.789   5.008
 3400SOL     OW11098   4.381   1.785   5.715
 3400SOL    HW111099   4.328   1.862   5.681
 3400SOL    HW211100   4.320   1.707   5.732
 3401SOL     OW11101   6.905   3.708   1.296
 3401SOL    HW111102   6.870   3.698   1.390
 3401SOL    HW211103   6.915   3.617   1.255
 3402SOL     OW11104   4.197   6.406   0.653
 3402SOL    HW111105   4.185   6.409   0.753
 3402SOL    HW211106   4.288   6.438   0.629
 3403SOL     OW11107   3.916   0.431   5.025
 3403SOL    HW111108   3.873   0.354   4.978
 3403SOL    HW211109   3.845   0.487   5.067
 3404SOL     OW11110   5.639   1.774   6.687
 3404SOL    HW111111   5.562   1.718   6.655
 3404SOL    HW211112   5.667   1.742   6.777
 3405SOL     OW11113   6.406   3.878   4.244
 3405SOL    HW111114   6.492   3.831   4.262
 3405SOL    HW211115   6.394   3.889   4.145
 3406SOL     OW11116   0.811   4.173   2.367
 3406SOL    HW111117   0.820   4.226   2.451
 3406SOL    HW211118   0.874   4.208   2.298
 3407SOL     OW11119   1.348   5.273   0.227
 3407SOL    HW111120   1.283   5.315   0.163
 3407SOL    HW211121   1.322   5.178   0.244
 3408SOL     OW11122   5.012   4.213   5.029
 3408SOL    HW111123   4.929   4.244   4.983
 3408SOL    HW211124   5.067   4.293   5.055
 3409SOL     OW11125   3.319   6.426   6.086
 3409SOL    HW111126   3.356   6.511   6.124
 3409SOL    HW211127   3.340   6.350   6.146
 3410SOL     OW11128   6.285   6.032   0.219
 3410SOL    HW111129   6.243   6.104   0.274
 3410SOL    HW211130   6.279   6.056   0.123
 3411SOL     OW11131   0.525   2.691   2.156
 3411SOL    HW111132   0.550   2.777   2.113
 3411SOL    HW211133   0.562   2.615   2.102
 3412SOL     OW11134   4.507   2.730   6.340
 3412SOL    HW111135   4.435   2.797   6.355
 3412SOL    HW211136   4.535   2.731   6.244
 3413SOL     OW11137   4.925   0.516   2.568
 3413SOL    HW111138   4.941   0.613   2.548
 3413SOL    HW211139   4.835   0.506   2.612
 3414SOL     OW11140   1.854   1.128   5.887
 3414SOL    HW111141   1.891   1.045   5.929
 3414SOL    HW211142   1.816   1.187   5.959
 3415SOL     OW11143   1.586   4.506   4.640
 3415SOL    HW111144   1.571   4.499   4.541
 3415SOL    HW211145   1.678   4.540   4.657
 3416SOL     OW11146   0.047   5.624   7.010
 3416SOL    HW111147   0.005   5.540   0.015
 3416SOL    HW211148   0.035   5.629   6.911
 3417SOL     OW11149   0.488   6.045   3.740
 3417SOL    HW111150   0.513   5.954   3.707
 3417SOL    HW211151   0.507   6.113   3.669
 3418SOL     OW11152   3.896   0.313   5.422
 3418SOL    HW111153   3.974   0.263   5.460
 3418SOL    HW211154   3.812   0.267   5.448
 3419SOL     OW11155   3.845   5.258   4.800
 3419SOL    HW111156   3.813   5.304   4.717
 3419SOL    HW211157   3.792   5.289   4.878
 3420SOL     OW11158   5.313   2.642   3.517
 3420SOL    HW111159   5.253   2.688   3.583
 3420SOL    HW211160   5.274   2.652   3.425
 3421SOL     OW11161   6.155   0.746   6.351
 3421SOL    HW111162   6.234   0.689   6.373
 3421SOL    HW211163   6.095   0.698   6.288
 3422SOL     OW11164   2.079   6.441   1.121
 3422SOL    HW111165   2.136   6.486   1.052
 3422SOL    HW211166   2.053   6.350   1.090
 3423SOL     OW11167   2.375   6.586   0.456
 3423SOL    HW111168   2.440   6.596   0.381
 3423SOL    HW211169   2.424   6.560   0.539
 3424SOL     OW11170   3.072   6.887   2.481
 3424SOL    HW111171   3.044   6.822   2.552
 3424SOL    HW211172   3.127   6.959   2.522
 3425SOL     OW11173   5.480   4.006   2.468
 3425SOL    HW111174   5.561   3.951   2.492
 3425SOL    HW211175   5.414   4.002   2.543
 3426SOL     OW11176   2.910   3.041   7.015
 3426SOL    HW111177   2.956   2.960   0.021
 3426SOL    HW211178   2.847   3.014   6.942
 3427SOL     OW11179   6.907   6.766   6.508
 3427SOL    HW111180   6.902   6.767   6.408
 3427SOL    HW211181   6.839   6.702   6.544
 3428SOL     OW11182   3.534   5.075   1.093
 3428SOL    HW111183   3.575   4.986   1.075
 3428SOL    HW211184   3.536   5.094   1.191
 3429SOL     OW11185   1.154   0.904   6.917
 3429SOL    HW111186   1.189   0.810   6.914
 3429SOL    HW211187   1.056   0.902   6.938
 3430SOL     OW11188   0.271   6.330   5.100
 3430SOL    HW111189   0.191   6.376   5.138
 3430SOL    HW211190   0.287   6.244   5.148
 3431SOL     OW11191   1.988   0.034   1.172
 3431SOL    HW111192   1.950   0.051   1.081
 3431SOL    HW211193   1.915   0.010   1.235
 3432SOL     OW11194   2.494   2.706   6.718
 3432SOL    HW111195   2.528   2.740   6.806
 3432SOL    HW211196   2.488   2.781   6.653
 3433SOL     OW11197   1.166   6.853   6.524
 3433SOL    HW111198   1.094   6.913   6.489
 3433SOL    HW211199   1.242   6.849   6.458
 3434SOL     OW11200   3.787   2.508   1.039
 3434SOL    HW111201   3.760   2.504   0.943
 3434SOL    HW211202   3.709   2.534   1.095
 3435SOL     OW11203   1.136   1.539   1.268
 3435SOL    HW111204   1.203   1.606   1.299
 3435SOL    HW211205   1.167   1.447   1.291
 3436SOL     OW11206   3.760   6.541   5.702
 3436SOL    HW111207   3.798   6.633   5.711
 3436SOL    HW211208   3.678   6.533   5.758
 3437SOL     OW11209   3.340   0.580   6.580
 3437SOL    HW111210   3.361   0.547   6.672
 3437SOL    HW211211   3.252   0.627   6.581
 3438SOL     OW11212   1.453   2.500   0.366
 3438SOL    HW111213   1.441   2.484   0.268
 3438SOL    HW211214   1.486   2.594   0.381
 3439SOL     OW11215   2.188   6.612   5.791
 3439SOL    HW111216   2.241   6.538   5.751
 3439SOL    HW211217   2.248   6.672   5.844
 3440SOL     OW11218   3.864   3.065   1.543
 3440SOL    HW111219   3.814   3.145   1.510
 3440SOL    HW211220   3.846   2.987   1.483
 3441SOL     OW11221   4.907   0.533   3.737
 3441SOL    HW111222   4.871   0.497   3.824
 3441SOL    HW211223   5.006   0.545   3.744
 3442SOL     OW11224   2.919   4.816   2.476
 3442SOL    HW111225   2.924   4.718   2.458
 3442SOL    HW211226   2.863   4.860   2.406
 3443SOL     OW11227   5.460   0.324   2.162
 3443SOL    HW111228   5.403   0.376   2.099
 3443SOL    HW211229   5.403   0.268   2.222
 3444SOL     OW11230   4.819   5.348   6.999
 3444SOL    HW111231   4.772   5.279   6.943
 3444SOL    HW211232   4.877   5.404   6.940
 3445SOL     OW11233   5.963   5.514   4.105
 3445SOL    HW111234   5.897   5.442   4.129
 3445SOL    HW211235   6.053   5.473   4.092
 3446SOL     OW11236   6.108   1.069   2.741
 3446SOL    HW111237   6.057   0.991   2.779
 3446SOL    HW211238   6.190   1.086   2.796
 3447SOL     OW11239   5.158   4.864   0.998
 3447SOL    HW111240   5.163   4.906   0.907
 3447SOL    HW211241   5.118   4.929   1.062
 3448SOL     OW11242   3.121   0.413   0.670
 3448SOL    HW111243   3.181   0.350   0.720
 3448SOL    HW211244   3.166   0.502   0.662
 3449SOL     OW11245   6.417   6.537   3.901
 3449SOL    HW111246   6.406   6.449   3.856
 3449SOL    HW211247   6.413   6.524   4.001
 3450SOL     OW11248   0.350   2.775   6.612
 3450SOL    HW111249   0.350   2.707   6.685
 3450SOL    HW211250   0.365   2.866   6.651
 3451SOL     OW11251   1.340   5.434   3.152
 3451SOL    HW111252   1.373   5.393   3.067
 3451SOL    HW211253   1.271   5.503   3.130
 3452SOL     OW11254   5.727   2.017   6.722
 3452SOL    HW111255   5.746   2.034   6.819
 3452SOL    HW211256   5.701   1.922   6.709
 3453SOL     OW11257   0.261   6.744   6.164
 3453SOL    HW111258   0.200   6.756   6.243
 3453SOL    HW211259   0.210   6.701   6.090
 3454SOL     OW11260   1.812   0.943   0.020
 3454SOL    HW111261   1.770   0.856   0.045
 3454SOL    HW211262   1.901   0.927   7.008
 3455SOL     OW11263   2.126   3.185   4.136
 3455SOL    HW111264   2.188   3.125   4.187
 3455SOL    HW211265   2.034   3.146   4.137
 3456SOL     OW11266   5.483   6.164   2.386
 3456SOL    HW111267   5.554   6.129   2.324
 3456SOL    HW211268   5.501   6.132   2.479
 3457SOL     OW11269   2.690   5.576   3.991
 3457SOL    HW111270   2.771   5.518   3.995
 3457SOL    HW211271   2.647   5.567   3.901
 3458SOL     OW11272   4.868   0.009   0.549
 3458SOL    HW111273   4.928   0.024   0.470
 3458SOL    HW211274   4.783   6.997   0.518
 3459SOL     OW11275   6.516   3.859   2.721
 3459SOL    HW111276   6.417   3.847   2.728
 3459SOL    HW211277   6.555   3.875   2.812
 3460SOL     OW11278   2.583   3.303   0.475
 3460SOL    HW111279   2.651   3.287   0.404
 3460SOL    HW211280   2.499   3.253   0.454
 3461SOL     OW11281   4.571   5.873   4.562
 3461SOL    HW111282   4.520   5.881   4.477
 3461SOL    HW211283   4.658   5.826   4.545
 3462SOL     OW11284   0.127   3.691   2.191
 3462SOL    HW111285   0.091   3.609   2.147
 3462SOL    HW211286   0.074   3.711   2.273
 3463SOL     OW11287   1.148   3.242   3.167
 3463SOL    HW111288   1.071   3.178   3.165
 3463SOL    HW211289   1.192   3.237   3.257
 3464SOL     OW11290   6.703   2.506   6.466
 3464SOL    HW111291   6.676   2.588   6.516
 3464SOL    HW211292   6.625   2.443   6.461
 3465SOL     OW11293   0.246   3.085   2.119
 3465SOL    HW111294   0.282   3.069   2.027
 3465SOL    HW211295   0.148   3.104   2.113
 3466SOL     OW11296   6.524   4.662   6.516
 3466SOL    HW111297   6.587   4.637   6.442
 3466SOL    HW211298   6.570   4.653   6.604
 3467SOL     OW11299   2.218   1.851   0.797
 3467SOL    HW111300   2.260   1.932   0.840
 3467SOL    HW211301   2.288   1.780   0.786
 3468SOL     OW11302   5.341   0.771   3.267
 3468SOL    HW111303   5.259   0.764   3.211
 3468SOL    HW211304   5.320   0.819   3.352
 3469SOL     OW11305   4.878   0.735   4.398
 3469SOL    HW111306   4.971   0.756   4.429
 3469SOL    HW211307   4.814   0.757   4.472
 3470SOL     OW11308   0.395   2.145   1.827
 3470SOL    HW111309   0.486   2.126   1.865
 3470SOL    HW211310   0.335   2.066   1.844
 3471SOL     OW11311   4.642   4.371   4.480
 3471SOL    HW111312   4.685   4.460   4.467
 3471SOL    HW211313   4.551   4.383   4.521
 3472SOL     OW11314   2.692   1.151   2.310
 3472SOL    HW111315   2.772   1.106   2.271
 3472SOL    HW211316   2.623   1.165   2.239
 3473SOL     OW11317   6.954   2.502   2.373
 3473SOL    HW111318   6.924   2.549   2.457
 3473SOL    HW211319   0.003   2.550   2.335
 3474SOL     OW11320   0.359   4.605   2.346
 3474SOL    HW111321   0.292   4.575   2.414
 3474SOL    HW211322   0.345   4.703   2.328
 3475SOL     OW11323   1.015   4.208   3.727
 3475SOL    HW111324   1.017   4.212   3.827
 3475SOL    HW211325   0.942   4.266   3.692
 3476SOL     OW11326   2.102   1.798   2.601
 3476SOL    HW111327   2.035   1.755   2.662
 3476SOL    HW211328   2.095   1.756   2.510
 3477SOL     OW11329   2.075   4.922   1.417
 3477SOL    HW111330   2.027   4.949   1.334
 3477SOL    HW211331   2.009   4.883   1.483
 3478SOL     OW11332   2.214   5.798   6.148
 3478SOL    HW111333   2.296   5.740   6.143
 3478SOL    HW211334   2.228   5.869   6.217
 3479SOL     OW11335   0.973   0.937   2.929
 3479SOL    HW111336   0.998   1.005   2.997
 3479SOL    HW211337   0.878   0.951   2.902
 3480SOL     OW11338   6.761   5.411   4.671
 3480SOL    HW111339   6.785   5.507   4.689
 3480SOL    HW211340   6.801   5.353   4.741
 3481SOL     OW11341   5.134   0.746   0.058
 3481SOL    HW111342   5.049   0.732   0.006
 3481SOL    HW211343   5.190   0.814   0.011
 3482SOL     OW11344   6.370   0.974   2.128
 3482SOL    HW111345   6.285   1.003   2.173
 3482SOL    HW211346   6.448   1.021   2.170
 3483SOL     OW11347   5.080   1.735   1.588
 3483SOL    HW111348   5.042   1.668   1.523
 3483SOL    HW211349   5.055   1.708   1.681
 3484SOL     OW11350   0.832   2.838   0.520
 3484SOL    HW111351   0.911   2.781   0.541
 3484SOL    HW211352   0.781   2.799   0.444
 3485SOL     OW11353   1.638   1.451   4.335
 3485SOL    HW111354   1.574   1.426   4.262
 3485SOL    HW211355   1.619   1.544   4.365
 3486SOL     OW11356   2.499   0.200   3.264
 3486SOL    HW111357   2.595   0.190   3.238
 3486SOL    HW211358   2.452   0.113   3.250
 3487SOL     OW11359   7.021   1.961   0.321
 3487SOL    HW111360   6.972   2.048   0.325
 3487SOL    HW211361   7.002   1.907   0.403
 3488SOL     OW11362   6.000   0.427   5.020
 3488SOL    HW111363   5.905   0.422   5.053
 3488SOL    HW211364   6.055   0.478   5.087
 3489SOL     OW11365   4.049   0.414   1.889
 3489SOL    HW111366   3.965   0.461   1.917
 3489SOL    HW211367   4.106   0.477   1.837
 3490SOL     OW11368   4.328   3.906   1.216
 3490SOL    HW111369   4.296   3.845   1.143
 3490SOL    HW211370   4.427   3.898   1.224
 3491SOL     OW11371   4.388   2.322   5.769
 3491SOL    HW111372   4.306   2.279   5.806
 3491SOL    HW211373   4.452   2.343   5.843
 3492SOL     OW11374   6.712   4.017   0.841
 3492SOL    HW111375   6.801   3.971   0.837
 3492SOL    HW211376   6.678   4.034   0.749
 3493SOL     OW11377   4.718   4.221   4.948
 3493SOL    HW111378   4.672   4.309   4.952
 3493SOL    HW211379   4.663   4.152   4.995
 3494SOL     OW11380   3.094   1.107   2.054
 3494SOL    HW111381   3.166   1.124   1.987
 3494SOL    HW211382   3.006   1.136   2.017
 3495SOL     OW11383   6.145   4.691   1.826
 3495SOL    HW111384   6.169   4.605   1.781
 3495SOL    HW211385   6.095   4.671   1.911
 3496SOL     OW11386   6.141   5.221   0.657
 3496SOL    HW111387   6.091   5.305   0.635
 3496SOL    HW211388   6.194   5.192   0.577
 3497SOL     OW11389   2.539   1.335   3.961
 3497SOL    HW111390   2.527   1.261   4.027
 3497SOL    HW211391   2.614   1.313   3.899
 3498SOL     OW11392   2.994   1.943   1.155
 3498SOL    HW111393   2.895   1.938   1.139
 3498SOL    HW211394   3.012   1.930   1.253
 3499SOL     OW11395   5.661   4.010   4.357
 3499SOL    HW111396   5.758   3.995   4.335
 3499SOL    HW211397   5.633   4.099   4.322
 3500SOL     OW11398   1.678   3.015   3.859
 3500SOL    HW111399   1.708   3.090   3.800
 3500SOL    HW211400   1.757   2.969   3.898
 3501SOL     OW11401   2.564   5.607   5.783
 3501SOL    HW111402   2.651   5.635   5.824
 3501SOL    HW211403   2.570   5.511   5.754
 3502SOL     OW11404   6.601   1.945   1.536
 3502SOL    HW111405   6.694   1.984   1.533
 3502SOL    HW211406   6.535   2.015   1.509
 3503SOL     OW11407   6.310   6.126   4.976
 3503SOL    HW111408   6.287   6.042   5.025
 3503SOL    HW211409   6.246   6.140   4.901
 3504SOL     OW11410   2.600   0.637   1.807
 3504SOL    HW111411   2.687   0.646   1.757
 3504SOL    HW211412   2.614   0.580   1.888
 3505SOL     OW11413   5.446   4.255   6.202
 3505SOL    HW111414   5.478   4.161   6.214
 3505SOL    HW211415   5.511   4.305   6.144
 3506SOL     OW11416   5.700   4.700   5.625
 3506SOL    HW111417   5.728   4.796   5.626
 3506SOL    HW211418   5.664   4.675   5.716
 3507SOL     OW11419   2.626   0.816   1.086
 3507SOL    HW111420   2.550   0.845   1.029
 3507SOL    HW211421   2.592   0.788   1.176
 3508SOL     OW11422   1.794   2.472   5.686
 3508SOL    HW111423   1.887   2.455   5.718
 3508SOL    HW211424   1.796   2.494   5.589
 3509SOL     OW11425   4.791   0.516   6.461
 3509SOL    HW111426   4.763   0.492   6.554
 3509SOL    HW211427   4.806   0.432   6.409
 3510SOL     OW11428   1.344   1.121   1.856
 3510SOL    HW111429   1.316   1.191   1.791
 3510SOL    HW211430   1.442   1.130   1.874
 3511SOL     OW11431   2.276   4.948   1.781
 3511SOL    HW111432   2.363   4.955   1.831
 3511SOL    HW211433   2.258   5.034   1.734
 3512SOL     OW11434   0.808   4.595   0.242
 3512SOL    HW111435   0.771   4.568   0.331
 3512SOL    HW211436   0.863   4.678   0.253
 3513SOL     OW11437   5.364   2.148   0.354
 3513SOL    HW111438   5.401   2.140   0.261
 3513SOL    HW211439   5.316   2.063   0.378
 3514SOL     OW11440   0.325   1.207   1.963
 3514SOL    HW111441   0.333   1.299   2.001
 3514SOL    HW211442   0.260   1.209   1.886
 3515SOL     OW11443   4.299   5.910   3.365
 3515SOL    HW111444   4.255   5.996   3.390
 3515SOL    HW211445   4.390   5.906   3.406
 3516SOL     OW11446   5.235   6.914   0.872
 3516SOL    HW111447   5.261   7.008   0.892
 3516SOL    HW211448   5.146   6.913   0.826
 3517SOL     OW11449   0.813   2.024   1.200
 3517SOL    HW111450   0.897   2.054   1.156
 3517SOL    HW211451   0.812   1.924   1.206
 3518SOL     OW11452   4.760   2.949   4.495
 3518SOL    HW111453   4.839   2.953   4.555
 3518SOL    HW211454   4.789   2.921   4.403
 3519SOL     OW11455   1.340   1.070   6.316
 3519SOL    HW111456   1.302   1.162   6.307
 3519SOL    HW211457   1.319   1.034   6.407
 3520SOL     OW11458   3.069   5.419   6.951
 3520SOL    HW111459   3.133   5.487   6.916
 3520SOL    HW211460   3.006   5.391   6.878
 3521SOL     OW11461   4.953   2.625   0.155
 3521SOL    HW111462   4.919   2.622   0.249
 3521SOL    HW211463   5.052   2.616   0.155
 3522SOL     OW11464   0.251   4.715   1.212
 3522SOL    HW111465   0.199   4.734   1.128
 3522SOL    HW211466   0.227   4.624   1.245
 3523SOL     OW11467   1.322   4.517   5.832
 3523SOL    HW111468   1.383   4.553   5.762
 3523SOL    HW211469   1.361   4.533   5.923
 3524SOL     OW11470   4.869   1.477   1.702
 3524SOL    HW111471   4.870   1.469   1.602
 3524SOL    HW211472   4.775   1.495   1.732
 3525SOL     OW11473   0.132   4.398   3.317
 3525SOL    HW111474   0.158   4.333   3.389
 3525SOL    HW211475   0.101   4.347   3.237
 3526SOL     OW11476   2.434   6.863   4.046
 3526SOL    HW111477   2.417   6.772   4.007
 3526SOL    HW211478   2.479   6.920   3.977
 3527SOL     OW11479   5.580   3.673   6.106
 3527SOL    HW111480   5.528   3.675   6.191
 3527SOL    HW211481   5.575   3.762   6.061
 3528SOL     OW11482   1.417   6.080   5.279
 3528SOL    HW111483   1.387   6.129   5.197
 3528SOL    HW211484   1.465   6.143   5.340
 3529SOL     OW11485   3.869   0.243   0.172
 3529SOL    HW111486   3.952   0.277   0.217
 3529SOL    HW211487   3.801   0.316   0.170
 3530SOL     OW11488   6.505   5.465   2.404
 3530SOL    HW111489   6.588   5.419   2.373
 3530SOL    HW211490   6.528   5.528   2.479
 3531SOL     OW11491   5.354   3.085   1.187
 3531SOL    HW111492   5.448   3.096   1.154
 3531SOL    HW211493   5.315   3.175   1.207
 3532SOL     OW11494   2.842   0.335   1.858
 3532SOL    HW111495   2.904   0.302   1.787
 3532SOL    HW211496   2.853   0.278   1.940
 3533SOL     OW11497   1.031   1.796   2.797
 3533SOL    HW111498   1.032   1.842   2.885
 3533SOL    HW211499   0.971   1.846   2.734
 3534SOL     OW11500   6.857   1.649   0.775
 3534SOL    HW111501   6.831   1.627   0.869
 3534SOL    HW211502   6.931   1.588   0.746
 3535SOL     OW11503   1.526   5.518   0.181
 3535SOL    HW111504   1.616   5.482   0.159
 3535SOL    HW211505   1.458   5.445   0.179
 3536SOL     OW11506   2.843   1.664   3.362
 3536SOL    HW111507   2.754   1.697   3.395
 3536SOL    HW211508   2.898   1.633   3.440
 3537SOL     OW11509   3.376   6.319   2.258
 3537SOL    HW111510   3.296   6.272   2.220
 3537SOL    HW211511   3.348   6.371   2.339
 3538SOL     OW11512   1.794   6.830   6.330
 3538SOL    HW111513   1.770   6.807   6.236
 3538SOL    HW211514   1.856   6.908   6.331
 3539SOL     OW11515   4.080   3.150   5.630
 3539SOL    HW111516   4.152   3.220   5.628
 3539SOL    HW211517   4.106   3.074   5.571
 3540SOL     OW11518   2.248   2.531   5.548
 3540SOL    HW111519   2.162   2.555   5.503
 3540SOL    HW211520   2.325   2.564   5.493
 3541SOL     OW11521   1.697   3.108   6.349
 3541SOL    HW111522   1.797   3.098   6.345
 3541SOL    HW211523   1.655   3.032   6.298
 3542SOL     OW11524   1.739   5.536   2.949
 3542SOL    HW111525   1.838   5.547   2.952
 3542SOL    HW211526   1.704   5.528   3.043
 3543SOL     OW11527   1.047   2.363   4.722
 3543SOL    HW111528   0.953   2.392   4.705
 3543SOL    HW211529   1.088   2.421   4.793
 3544SOL     OW11530   2.203   4.213   6.423
 3544SOL    HW111531   2.296   4.196   6.391
 3544SOL    HW211532   2.139   4.158   6.370
 3545SOL     OW11533   3.862   5.820   0.449
 3545SOL    HW111534   3.909   5.900   0.411
 3545SOL    HW211535   3.823   5.843   0.538
 3546SOL     OW11536   1.452   4.238   4.333
 3546SOL    HW111537   1.370   4.222   4.279
 3546SOL    HW211538   1.492   4.150   4.361
 3547SOL     OW11539   6.776   4.433   3.821
 3547SOL    HW111540   6.693   4.390   3.784
 3547SOL    HW211541   6.849   4.365   3.826
 3548SOL     OW11542   5.626   1.619   6.027
 3548SOL    HW111543   5.640   1.713   6.059
 3548SOL    HW211544   5.672   1.607   5.939
 3549SOL     OW11545   0.010   5.254   5.810
 3549SOL    HW111546   0.004   5.183   5.740
 3549SOL    HW211547   0.095   5.244   5.861
 3550SOL     OW11548   6.169   2.333   2.661
 3550SOL    HW111549   6.134   2.361   2.751
 3550SOL    HW211550   6.131   2.393   2.591
 3551SOL     OW11551   3.590   0.801   2.067
 3551SOL    HW111552   3.608   0.758   1.978
 3551SOL    HW211553   3.590   0.901   2.056
 3552SOL     OW11554   5.439   6.461   2.014
 3552SOL    HW111555   5.491   6.402   1.952
 3552SOL    HW211556   5.492   6.545   2.031
 3553SOL     OW11557   5.005   4.296   1.087
 3553SOL    HW111558   4.982   4.357   1.011
 3553SOL    HW211559   5.074   4.339   1.145
 3554SOL     OW11560   4.414   2.330   0.874
 3554SOL    HW111561   4.355   2.329   0.793
 3554SOL    HW211562   4.391   2.253   0.934
 3555SOL     OW11563   1.339   4.011   3.963
 3555SOL    HW111564   1.272   4.058   4.022
 3555SOL    HW211565   1.431   4.035   3.992
 3556SOL     OW11566   4.328   1.423   3.359
 3556SOL    HW111567   4.252   1.372   3.320
 3556SOL    HW211568   4.379   1.364   3.422
 3557SOL     OW11569   1.044   0.284   4.103
 3557SOL    HW111570   0.952   0.257   4.131
 3557SOL    HW211571   1.042   0.376   4.064
 3558SOL     OW11572   1.570   6.776   1.428
 3558SOL    HW111573   1.486   6.744   1.384
 3558SOL    HW211574   1.623   6.697   1.458
 3559SOL     OW11575   0.330   6.078   5.195
 3559SOL    HW111576   0.366   6.113   5.281
 3559SOL    HW211577   0.384   5.999   5.165
 3560SOL     OW11578   0.677   6.072   1.406
 3560SOL    HW111579   0.708   5.997   1.464
 3560SOL    HW211580   0.655   6.038   1.315
 3561SOL     OW11581   4.077   4.769   5.176
 3561SOL    HW111582   3.996   4.743   5.228
 3561SOL    HW211583   4.159   4.745   5.228
 3562SOL     OW11584   5.244   1.181   3.138
 3562SOL    HW111585   5.335   1.184   3.095
 3562SOL    HW211586   5.178   1.144   3.073
 3563SOL     OW11587   5.852   1.566   0.137
 3563SOL    HW111588   5.832   1.664   0.134
 3563SOL    HW211589   5.938   1.547   0.090
 3564SOL     OW11590   1.410   4.456   3.884
 3564SOL    HW111591   1.363   4.472   3.797
 3564SOL    HW211592   1.436   4.359   3.890
 3565SOL     OW11593   4.087   5.831   4.929
 3565SOL    HW111594   4.035   5.853   4.846
 3565SOL    HW211595   4.023   5.816   5.004
 3566SOL     OW11596   6.898   3.858   5.885
 3566SOL    HW111597   6.977   3.861   5.947
 3566SOL    HW211598   6.819   3.823   5.935
 3567SOL     OW11599   0.322   3.273   0.195
 3567SOL    HW111600   0.388   3.200   0.182
 3567SOL    HW211601   0.357   3.340   0.260
 3568SOL     OW11602   4.536   5.521   4.246
 3568SOL    HW111603   4.504   5.613   4.265
 3568SOL    HW211604   4.592   5.489   4.322
 3569SOL     OW11605   2.505   2.501   5.759
 3569SOL    HW111606   2.514   2.485   5.857
 3569SOL    HW211607   2.492   2.599   5.743
 3570SOL     OW11608   5.191   0.114   5.078
 3570SOL    HW111609   5.119   0.184   5.073
 3570SOL    HW211610   5.250   0.122   4.997
 3571SOL     OW11611   1.521   0.515   5.097
 3571SOL    HW111612   1.435   0.515   5.045
 3571SOL    HW211613   1.516   0.585   5.168
 3572SOL     OW11614   5.607   3.247   2.978
 3572SOL    HW111615   5.588   3.198   2.893
 3572SOL    HW211616   5.533   3.230   3.043
 3573SOL     OW11617   6.189   3.777   3.040
 3573SOL    HW111618   6.175   3.873   3.062
 3573SOL    HW211619   6.244   3.734   3.112
 3574SOL     OW11620   0.481   2.736   0.884
 3574SOL    HW111621   0.457   2.694   0.971
 3574SOL    HW211622   0.405   2.791   0.850
 3575SOL     OW11623   5.134   5.627   2.956
 3575SOL    HW111624   5.101   5.620   3.050
 3575SOL    HW211625   5.162   5.722   2.937
 3576SOL     OW11626   0.601   1.698   6.978
 3576SOL    HW111627   0.507   1.674   7.005
 3576SOL    HW211628   0.663   1.679   0.024
 3577SOL     OW11629   1.534   2.933   6.741
 3577SOL    HW111630   1.533   3.007   6.674
 3577SOL    HW211631   1.540   2.845   6.694
 3578SOL     OW11632   5.069   1.664   1.005
 3578SOL    HW111633   4.998   1.733   0.988
 3578SOL    HW211634   5.036   1.574   0.975
 3579SOL     OW11635   6.844   2.032   2.525
 3579SOL    HW111636   6.899   2.042   2.608
 3579SOL    HW211637   6.865   2.106   2.461
 3580SOL     OW11638   5.859   3.759   0.610
 3580SOL    HW111639   5.813   3.714   0.686
 3580SOL    HW211640   5.924   3.826   0.645
 3581SOL     OW11641   0.524   5.451   3.321
 3581SOL    HW111642   0.500   5.457   3.418
 3581SOL    HW211643   0.473   5.519   3.269
 3582SOL     OW11644   1.446   4.363   5.342
 3582SOL    HW111645   1.388   4.283   5.329
 3582SOL    HW211646   1.427   4.430   5.270
 3583SOL     OW11647   1.706   4.543   6.956
 3583SOL    HW111648   1.717   4.466   6.894
 3583SOL    HW211649   1.757   4.622   6.922
 3584SOL     OW11650   5.588   4.356   5.734
 3584SOL    HW111651   5.538   4.441   5.750
 3584SOL    HW211652   5.633   4.361   5.645
 3585SOL     OW11653   2.758   2.327   4.601
 3585SOL    HW111654   2.732   2.235   4.571
 3585SOL    HW211655   2.845   2.352   4.559
 3586SOL     OW11656   6.395   1.803   5.090
 3586SOL    HW111657   6.365   1.891   5.127
 3586SOL    HW211658   6.484   1.779   5.129
 3587SOL     OW11659   2.077   5.688   5.794
 3587SOL    HW111660   2.162   5.640   5.773
 3587SOL    HW211661   2.035   5.720   5.709
 3588SOL     OW11662   6.954   2.894   5.001
 3588SOL    HW111663   7.011   2.976   5.006
 3588SOL    HW211664   7.011   2.813   5.015
 3589SOL     OW11665   5.559   0.734   5.995
 3589SOL    HW111666   5.575   0.703   6.088
 3589SOL    HW211667   5.602   0.823   5.982
 3590SOL     OW11668   6.689   3.320   0.353
 3590SOL    HW111669   6.712   3.378   0.275
 3590SOL    HW211670   6.611   3.261   0.328
 3591SOL     OW11671   5.652   3.586   0.190
 3591SOL    HW111672   5.709   3.634   0.257
 3591SOL    HW211673   5.684   3.492   0.180
 3592SOL     OW11674   0.486   6.827   2.777
 3592SOL    HW111675   0.434   6.896   2.828
 3592SOL    HW211676   0.427   6.784   2.709
 3593SOL     OW11677   0.356   3.966   5.764
 3593SOL    HW111678   0.437   3.967   5.823
 3593SOL    HW211679   0.309   4.054   5.771
 3594SOL     OW11680   4.688   0.626   3.588
 3594SOL    HW111681   4.759   0.590   3.648
 3594SOL    HW211682   4.610   0.563   3.588
 3595SOL     OW11683   5.407   5.858   6.590
 3595SOL    HW111684   5.396   5.802   6.672
 3595SOL    HW211685   5.317   5.887   6.557
 3596SOL     OW11686   4.888   3.245   3.292
 3596SOL    HW111687   4.906   3.335   3.252
 3596SOL    HW211688   4.871   3.179   3.219
 3597SOL     OW11689   2.035   2.716   5.164
 3597SOL    HW111690   2.056   2.668   5.249
 3597SOL    HW211691   2.079   2.806   5.165
 3598SOL     OW11692   1.909   6.771   5.855
 3598SOL    HW111693   1.844   6.760   5.930
 3598SOL    HW211694   2.002   6.764   5.891
 3599SOL     OW11695   4.998   1.947   0.247
 3599SOL    HW111696   4.966   2.031   0.201
 3599SOL    HW211697   4.933   1.922   0.318
 3600SOL     OW11698   0.893   2.719   2.347
 3600SOL    HW111699   0.968   2.719   2.414
 3600SOL    HW211700   0.815   2.670   2.385
 3601SOL     OW11701   5.274   2.963   6.083
 3601SOL    HW111702   5.204   3.017   6.130
 3601SOL    HW211703   5.237   2.874   6.060
 3602SOL     OW11704   1.242   3.959   1.265
 3602SOL    HW111705   1.260   3.972   1.168
 3602SOL    HW211706   1.325   3.929   1.312
 3603SOL     OW11707   3.741   0.933   4.543
 3603SOL    HW111708   3.704   0.987   4.468
 3603SOL    HW211709   3.683   0.853   4.559
 3604SOL     OW11710   7.023   0.073   3.828
 3604SOL    HW111711   6.954   0.143   3.813
 3604SOL    HW211712   6.986   0.002   3.888
 3605SOL     OW11713   0.992   4.147   3.275
 3605SOL    HW111714   1.023   4.055   3.301
 3605SOL    HW211715   1.071   4.205   3.258
 3606SOL     OW11716   0.911   6.954   4.208
 3606SOL    HW111717   0.843   7.027   4.194
 3606SOL    HW211718   0.934   6.913   4.120
 3607SOL     OW11719   5.578   4.476   1.912
 3607SOL    HW111720   5.655   4.492   1.850
 3607SOL    HW211721   5.576   4.380   1.940
 3608SOL     OW11722   5.000   1.400   4.746
 3608SOL    HW111723   4.932   1.450   4.693
 3608SOL    HW211724   5.014   1.446   4.834
 3609SOL     OW11725   2.288   0.028   4.417
 3609SOL    HW111726   2.217   6.988   4.411
 3609SOL    HW211727   2.350   0.020   4.339
 3610SOL     OW11728   1.642   0.942   6.464
 3610SOL    HW111729   1.567   0.959   6.400
 3610SOL    HW211730   1.660   0.844   6.468
 3611SOL     OW11731   4.010   4.825   3.761
 3611SOL    HW111732   4.018   4.727   3.745
 3611SOL    HW211733   4.043   4.846   3.853
 3612SOL     OW11734   0.715   0.736   6.394
 3612SOL    HW111735   0.719   0.826   6.437
 3612SOL    HW211736   0.725   0.665   6.463
 3613SOL     OW11737   4.799   4.562   2.213
 3613SOL    HW111738   4.840   4.653   2.208
 3613SOL    HW211739   4.870   4.492   2.202
 3614SOL     OW11740   3.744   3.586   0.715
 3614SOL    HW111741   3.745   3.546   0.806
 3614SOL    HW211742   3.662   3.555   0.666
 3615SOL     OW11743   5.520   2.895   6.418
 3615SOL    HW111744   5.611   2.898   6.460
 3615SOL    HW211745   5.528   2.860   6.325
 3616SOL     OW11746   0.924   0.359   6.272
 3616SOL    HW111747   0.921   0.421   6.350
 3616SOL    HW211748   1.019   0.347   6.242
 3617SOL     OW11749   4.299   0.540   5.708
 3617SOL    HW111750   4.299   0.598   5.789
 3617SOL    HW211751   4.370   0.571   5.645
 3618SOL     OW11752   2.362   3.221   5.328
 3618SOL    HW111753   2.434   3.158   5.298
 3618SOL    HW211754   2.402   3.310   5.349
 3619SOL     OW11755   5.800   3.017   6.164
 3619SOL    HW111756   5.828   3.107   6.197
 3619SOL    HW211757   5.858   2.989   6.087
 3620SOL     OW11758   5.837   5.622   5.293
 3620SOL    HW111759   5.747   5.598   5.258
 3620SOL    HW211760   5.839   5.607   5.392
 3621SOL     OW11761   3.092   3.020   4.724
 3621SOL    HW111762   3.177   3.005   4.774
 3621SOL    HW211763   3.030   3.075   4.780
 3622SOL     OW11764   1.895   1.156   0.689
 3622SOL    HW111765   1.823   1.208   0.642
 3622SOL    HW211766   1.984   1.199   0.672
 3623SOL     OW11767   6.369   5.750   4.370
 3623SOL    HW111768   6.287   5.773   4.423
 3623SOL    HW211769   6.447   5.743   4.432
 3624SOL     OW11770   1.255   0.072   2.393
 3624SOL    HW111771   1.226   0.168   2.393
 3624SOL    HW211772   1.298   0.050   2.480
 3625SOL     OW11773   0.013   3.243   6.773
 3625SOL    HW111774   0.031   3.239   6.872
 3625SOL    HW211775   6.988   3.165   6.745
 3626SOL     OW11776   0.871   3.193   5.358
 3626SOL    HW111777   0.893   3.098   5.333
 3626SOL    HW211778   0.939   3.227   5.423
 3627SOL     OW11779   4.352   3.250   1.514
 3627SOL    HW111780   4.386   3.343   1.507
 3627SOL    HW211781   4.402   3.202   1.586
 3628SOL     OW11782   1.299   1.583   2.029
 3628SOL    HW111783   1.399   1.585   2.036
 3628SOL    HW211784   1.264   1.498   2.068
 3629SOL     OW11785   0.680   0.331   5.142
 3629SOL    HW111786   0.596   0.345   5.090
 3629SOL    HW211787   0.658   0.313   5.238
 3630SOL     OW11788   6.142   2.563   3.756
 3630SOL    HW111789   6.204   2.554   3.678
 3630SOL    HW211790   6.179   2.513   3.834
 3631SOL     OW11791   1.738   6.971   3.256
 3631SOL    HW111792   1.687   0.025   3.238
 3631SOL    HW211793   1.827   6.975   3.211
 3632SOL     OW11794   5.187   4.569   0.384
 3632SOL    HW111795   5.231   4.641   0.330
 3632SOL    HW211796   5.088   4.581   0.382
 3633SOL     OW11797   4.570   2.706   6.074
 3633SOL    HW111798   4.533   2.796   6.048
 3633SOL    HW211799   4.670   2.708   6.062
 3634SOL     OW11800   1.859   6.020   6.122
 3634SOL    HW111801   1.876   5.962   6.202
 3634SOL    HW211802   1.769   6.000   6.085
 3635SOL     OW11803   3.089   1.115   0.921
 3635SOL    HW111804   3.031   1.049   0.968
 3635SOL    HW211805   3.041   1.203   0.914
 3636SOL     OW11806   6.720   5.603   0.852
 3636SOL    HW111807   6.664   5.647   0.782
 3636SOL    HW211808   6.745   5.511   0.823
 3637SOL     OW11809   0.532   2.623   1.156
 3637SOL    HW111810   0.629   2.639   1.174
 3637SOL    HW211811   0.503   2.537   1.198
 3638SOL     OW11812   6.865   4.013   2.954
 3638SOL    HW111813   6.896   4.056   2.869
 3638SOL    HW211814   6.933   3.944   2.982
 3639SOL     OW11815   3.834   5.091   6.498
 3639SOL    HW111816   3.752   5.067   6.550
 3639SOL    HW211817   3.847   5.024   6.425
 3640SOL     OW11818   4.853   1.535   0.349
 3640SOL    HW111819   4.890   1.560   0.439
 3640SOL    HW211820   4.753   1.539   0.353
 3641SOL     OW11821   5.736   3.817   1.599
 3641SOL    HW111822   5.682   3.899   1.622
 3641SOL    HW211823   5.722   3.747   1.669
 3642SOL     OW11824   4.702   2.314   6.382
 3642SOL    HW111825   4.630   2.377   6.409
 3642SOL    HW211826   4.751   2.283   6.463
 3643SOL     OW11827   4.079   5.894   5.598
 3643SOL    HW111828   3.997   5.917   5.650
 3643SOL    HW211829   4.053   5.838   5.519
 3644SOL     OW11830   2.537   0.990   1.536
 3644SOL    HW111831   2.438   0.979   1.546
 3644SOL    HW211832   2.561   1.086   1.550
 3645SOL     OW11833   1.461   3.485   4.010
 3645SOL    HW111834   1.431   3.442   3.925
 3645SOL    HW211835   1.386   3.482   4.077
 3646SOL     OW11836   1.542   3.959   5.271
 3646SOL    HW111837   1.575   3.933   5.180
 3646SOL    HW211838   1.612   4.013   5.318
 3647SOL     OW11839   2.514   5.768   0.065
 3647SOL    HW111840   2.605   5.803   0.040
 3647SOL    HW211841   2.512   5.747   0.162
 3648SOL     OW11842   5.084   5.961   3.439
 3648SOL    HW111843   5.093   5.899   3.361
 3648SOL    HW211844   5.015   5.925   3.501
 3649SOL     OW11845   6.507   3.156   0.224
 3649SOL    HW111846   6.516   3.067   0.179
 3649SOL    HW211847   6.483   3.225   0.156
 3650SOL     OW11848   6.425   4.862   0.998
 3650SOL    HW111849   6.362   4.915   1.054
 3650SOL    HW211850   6.490   4.814   1.056
 3651SOL     OW11851   2.201   0.256   4.823
 3651SOL    HW111852   2.241   0.344   4.847
 3651SOL    HW211853   2.273   0.195   4.789
 3652SOL     OW11854   5.985   6.794   3.383
 3652SOL    HW111855   5.949   6.736   3.456
 3652SOL    HW211856   5.934   6.779   3.299
 3653SOL     OW11857   1.752   0.830   3.069
 3653SOL    HW111858   1.813   0.855   3.144
 3653SOL    HW211859   1.761   0.895   2.995
 3654SOL     OW11860   4.612   5.769   0.501
 3654SOL    HW111861   4.560   5.684   0.512
 3654SOL    HW211862   4.695   5.752   0.448
 3655SOL     OW11863   3.549   1.022   4.375
 3655SOL    HW111864   3.524   1.109   4.417
 3655SOL    HW211865   3.467   0.976   4.342
 3656SOL     OW11866   0.862   5.890   1.527
 3656SOL    HW111867   0.885   5.835   1.607
 3656SOL    HW211868   0.922   5.865   1.451
 3657SOL     OW11869   4.690   5.500   4.812
 3657SOL    HW111870   4.602   5.468   4.778
 3657SOL    HW211871   4.694   5.490   4.911
 3658SOL     OW11872   2.242   5.261   6.519
 3658SOL    HW111873   2.297   5.186   6.555
 3658SOL    HW211874   2.152   5.260   6.562
 3659SOL     OW11875   1.087   2.114   6.344
 3659SOL    HW111876   1.041   2.137   6.259
 3659SOL    HW211877   1.020   2.083   6.412
 3660SOL     OW11878   6.254   5.969   4.511
 3660SOL    HW111879   6.269   6.039   4.442
 3660SOL    HW211880   6.224   6.012   4.596
 3661SOL     OW11881   0.816   0.647   4.769
 3661SOL    HW111882   0.784   0.612   4.857
 3661SOL    HW211883   0.780   0.739   4.755
 3662SOL     OW11884   4.188   1.021   4.764
 3662SOL    HW111885   4.270   1.077   4.763
 3662SOL    HW211886   4.126   1.052   4.692
 3663SOL     OW11887   1.845   2.753   6.901
 3663SOL    HW111888   1.921   2.693   6.877
 3663SOL    HW211889   1.759   2.706   6.887
 3664SOL     OW11890   4.908   2.471   1.746
 3664SOL    HW111891   4.808   2.482   1.749
 3664SOL    HW211892   4.952   2.560   1.760
 3665SOL     OW11893   0.462   5.882   5.869
 3665SOL    HW111894   0.362   5.879   5.874
 3665SOL    HW211895   0.494   5.975   5.887
 3666SOL     OW11896   0.954   3.378   2.932
 3666SOL    HW111897   0.938   3.361   2.835
 3666SOL    HW211898   1.034   3.325   2.962
 3667SOL     OW11899   0.433   1.410   3.533
 3667SOL    HW111900   0.529   1.422   3.558
 3667SOL    HW211901   0.377   1.479   3.581
 3668SOL     OW11902   1.645   0.566   1.730
 3668SOL    HW111903   1.699   0.540   1.809
 3668SOL    HW211904   1.608   0.658   1.744
 3669SOL     OW11905   5.473   1.618   3.910
 3669SOL    HW111906   5.399   1.686   3.914
 3669SOL    HW211907   5.505   1.600   4.003
 3670SOL     OW11908   3.022   5.376   0.743
 3670SOL    HW111909   3.011   5.451   0.808
 3670SOL    HW211910   2.947   5.378   0.677
 3671SOL     OW11911   0.028   1.721   4.016
 3671SOL    HW111912   6.964   1.710   3.984
 3671SOL    HW211913   0.060   1.637   4.059
 3672SOL     OW11914   4.620   2.182   2.732
 3672SOL    HW111915   4.606   2.120   2.654
 3672SOL    HW211916   4.570   2.147   2.811
 3673SOL     OW11917   3.805   5.347   6.592
 3673SOL    HW111918   3.851   5.410   6.528
 3673SOL    HW211919   3.810   5.254   6.555
 3674SOL     OW11920   1.751   5.724   5.078
 3674SOL    HW111921   1.664   5.771   5.066
 3674SOL    HW211922   1.755   5.645   5.017
 3675SOL     OW11923   0.810   2.592   4.138
 3675SOL    HW111924   0.737   2.543   4.093
 3675SOL    HW211925   0.875   2.527   4.179
 3676SOL     OW11926   5.638   3.042   2.630
 3676SOL    HW111927   5.710   3.072   2.693
 3676SOL    HW211928   5.627   3.110   2.557
 3677SOL     OW11929   2.568   0.644   5.033
 3677SOL    HW111930   2.645   0.588   5.004
 3677SOL    HW211931   2.554   0.633   5.131
 3678SOL     OW11932   1.949   1.265   3.877
 3678SOL    HW111933   1.987   1.255   3.785
 3678SOL    HW211934   1.920   1.360   3.890
 3679SOL     OW11935   0.036   0.428   3.153
 3679SOL    HW111936   0.102   0.501   3.172
 3679SOL    HW211937   6.982   0.445   3.204
 3680SOL     OW11938   4.600   2.543   4.620
 3680SOL    HW111939   4.697   2.534   4.642
 3680SOL    HW211940   4.547   2.480   4.677
 3681SOL     OW11941   1.254   0.833   6.636
 3681SOL    HW111942   1.299   0.916   6.669
 3681SOL    HW211943   1.229   0.775   6.715
 3682SOL     OW11944   5.635   2.825   0.495
 3682SOL    HW111945   5.630   2.732   0.530
 3682SOL    HW211946   5.592   2.888   0.559
 3683SOL     OW11947   0.157   0.879   3.977
 3683SOL    HW111948   0.227   0.824   3.932
 3683SOL    HW211949   0.166   0.870   4.076
 3684SOL     OW11950   1.343   5.591   6.734
 3684SOL    HW111951   1.287   5.626   6.660
 3684SOL    HW211952   1.363   5.664   6.799
 3685SOL     OW11953   2.474   6.067   5.527
 3685SOL    HW111954   2.562   6.060   5.574
 3685SOL    HW211955   2.406   6.012   5.576
 3686SOL     OW11956   6.381   4.602   3.941
 3686SOL    HW111957   6.432   4.657   3.875
 3686SOL    HW211958   6.400   4.635   4.034
 3687SOL     OW11959   4.704   6.935   3.482
 3687SOL    HW111960   4.652   7.020   3.469
 3687SOL    HW211961   4.784   6.954   3.539
 3688SOL     OW11962   6.342   3.300   6.566
 3688SOL    HW111963   6.298   3.382   6.529
 3688SOL    HW211964   6.276   3.224   6.566
 3689SOL     OW11965   2.238   2.044   5.516
 3689SOL    HW111966   2.264   2.125   5.568
 3689SOL    HW211967   2.284   2.044   5.427
 3690SOL     OW11968   4.854   5.791   0.969
 3690SOL    HW111969   4.867   5.709   1.024
 3690SOL    HW211970   4.781   5.776   0.903
 3691SOL     OW11971   2.342   2.103   6.272
 3691SOL    HW111972   2.256   2.149   6.296
 3691SOL    HW211973   2.333   2.005   6.289
 3692SOL     OW11974   6.860   4.295   5.875
 3692SOL    HW111975   6.816   4.227   5.934
 3692SOL    HW211976   6.790   4.343   5.822
 3693SOL     OW11977   1.676   1.691   2.869
 3693SOL    HW111978   1.712   1.626   2.936
 3693SOL    HW211979   1.576   1.692   2.875
 3694SOL     OW11980   1.608   6.923   2.295
 3694SOL    HW111981   1.536   6.883   2.352
 3694SOL    HW211982   1.653   6.850   2.243
 3695SOL     OW11983   5.642   1.686   2.058
 3695SOL    HW111984   5.738   1.659   2.047
 3695SOL    HW211985   5.597   1.625   2.123
 3696SOL     OW11986   4.234   0.094   5.415
 3696SOL    HW111987   4.225   0.179   5.362
 3696SOL    HW211988   4.329   0.084   5.445
 3697SOL     OW11989   6.714   6.241   3.049
 3697SOL    HW111990   6.759   6.241   2.959
 3697SOL    HW211991   6.668   6.328   3.064
 3698SOL     OW11992   2.023   0.916   3.628
 3698SOL    HW111993   1.934   0.872   3.622
 3698SOL    HW211994   2.093   0.855   3.588
 3699SOL     OW11995   1.885   1.724   3.526
 3699SOL    HW111996   1.813   1.662   3.558
 3699SOL    HW211997   1.918   1.692   3.437
 3700SOL     OW11998   1.563   5.269   4.698
 3700SOL    HW111999   1.553   5.212   4.779
 3700SOL    HW212000   1.478   5.321   4.683
 3701SOL     OW12001   0.945   6.380   2.692
 3701SOL    HW112002   0.884   6.427   2.756
 3701SOL    HW212003   0.896   6.305   2.648
 3702SOL     OW12004   5.330   6.546   2.966
 3702SOL    HW112005   5.233   6.519   2.967
 3702SOL    HW212006   5.380   6.493   3.035
 3703SOL     OW12007   0.931   0.243   6.654
 3703SOL    HW112008   0.954   0.196   6.738
 3703SOL    HW212009   0.927   0.342   6.671
 3704SOL     OW12010   5.550   2.915   0.856
 3704SOL    HW112011   5.579   3.010   0.868
 3704SOL    HW212012   5.476   2.910   0.789
 3705SOL     OW12013   4.753   4.758   4.037
 3705SOL    HW112014   4.810   4.834   4.068
 3705SOL    HW212015   4.713   4.780   3.948
 3706SOL     OW12016   0.649   4.554   6.938
 3706SOL    HW112017   0.625   4.482   7.003
 3706SOL    HW212018   0.664   4.515   6.848
 3707SOL     OW12019   4.309   5.875   4.006
 3707SOL    HW112020   4.240   5.892   3.936
 3707SOL    HW212021   4.395   5.848   3.962
 3708SOL     OW12022   4.359   6.677   1.061
 3708SOL    HW112023   4.369   6.752   1.127
 3708SOL    HW212024   4.448   6.659   1.018
 3709SOL     OW12025   2.625   0.221   1.753
 3709SOL    HW112026   2.577   0.200   1.838
 3709SOL    HW212027   2.709   0.271   1.773
 3710SOL     OW12028   0.842   5.489   4.874
 3710SOL    HW112029   0.770   5.481   4.805
 3710SOL    HW212030   0.891   5.403   4.883
 3711SOL     OW12031   1.025   6.126   4.868
 3711SOL    HW112032   1.103   6.076   4.906
 3711SOL    HW212033   0.999   6.084   4.781
 3712SOL     OW12034   1.449   6.083   0.153
 3712SOL    HW112035   1.475   6.086   0.250
 3712SOL    HW212036   1.381   6.010   0.139
 3713SOL     OW12037   0.754   0.568   5.014
 3713SOL    HW112038   0.722   0.578   5.109
 3713SOL    HW212039   0.820   0.493   5.010
 3714SOL     OW12040   6.100   4.773   6.544
 3714SOL    HW112041   6.176   4.761   6.480
 3714SOL    HW212042   6.093   4.692   6.603
 3715SOL     OW12043   1.338   4.998   2.313
 3715SOL    HW112044   1.285   4.972   2.232
 3715SOL    HW212045   1.277   5.042   2.379
 3716SOL     OW12046   6.252   5.560   4.562
 3716SOL    HW112047   6.327   5.616   4.526
 3716SOL    HW212048   6.281   5.515   4.646
 3717SOL     OW12049   6.284   1.226   0.671
 3717SOL    HW112050   6.253   1.307   0.721
 3717SOL    HW212051   6.273   1.145   0.728
 3718SOL     OW12052   6.530   0.335   6.696
 3718SOL    HW112053   6.501   0.332   6.792
 3718SOL    HW212054   6.477   0.268   6.644
 3719SOL     OW12055   4.075   3.343   6.398
 3719SOL    HW112056   4.172   3.364   6.409
 3719SOL    HW212057   4.020   3.409   6.450
 3720SOL     OW12058   5.511   4.153   0.555
 3720SOL    HW112059   5.496   4.080   0.488
 3720SOL    HW212060   5.524   4.240   0.507
 3721SOL     OW12061   0.057   5.177   0.651
 3721SOL    HW112062   0.026   5.178   0.556
 3721SOL    HW212063   0.137   5.236   0.661
 3722SOL     OW12064   5.469   5.954   1.893
 3722SOL    HW112065   5.510   5.864   1.884
 3722SOL    HW212066   5.371   5.949   1.876
 3723SOL     OW12067   4.800   5.654   0.318
 3723SOL    HW112068   4.754   5.585   0.262
 3723SOL    HW212069   4.895   5.628   0.332
 3724SOL     OW12070   1.202   4.602   5.454
 3724SOL    HW112071   1.208   4.680   5.516
 3724SOL    HW212072   1.276   4.608   5.386
 3725SOL     OW12073   0.833   5.835   6.685
 3725SOL    HW112074   0.844   5.932   6.708
 3725SOL    HW212075   0.783   5.789   6.758
 3726SOL     OW12076   5.161   3.905   6.224
 3726SOL    HW112077   5.234   3.895   6.291
 3726SOL    HW212078   5.187   3.976   6.157
 3727SOL     OW12079   6.451   3.351   5.062
 3727SOL    HW112080   6.400   3.265   5.066
 3727SOL    HW212081   6.540   3.340   5.105
 3728SOL     OW12082   2.196   3.727   6.953
 3728SOL    HW112083   2.108   3.773   6.970
 3728SOL    HW212084   2.217   3.667   0.000
 3729SOL     OW12085   0.730   0.961   4.360
 3729SOL    HW112086   0.820   0.949   4.318
 3729SOL    HW212087   0.685   0.872   4.367
 3730SOL     OW12088   3.941   6.248   5.675
 3730SOL    HW112089   3.881   6.327   5.660
 3730SOL    HW212090   4.021   6.254   5.615
 3731SOL     OW12091   0.318   1.402   0.047
 3731SOL    HW112092   0.390   1.373   7.014
 3731SOL    HW212093   0.285   1.323   0.099
 3732SOL     OW12094   1.853   2.147   0.502
 3732SOL    HW112095   1.846   2.053   0.535
 3732SOL    HW212096   1.761   2.185   0.491
 3733SOL     OW12097   2.068   2.183   3.612
 3733SOL    HW112098   2.013   2.256   3.572
 3733SOL    HW212099   2.153   2.173   3.561
 3734SOL     OW12100   4.606   0.430   1.352
 3734SOL    HW112101   4.700   0.446   1.322
 3734SOL    HW212102   4.563   0.363   1.291
 3735SOL     OW12103   4.238   0.696   2.454
 3735SOL    HW112104   4.259   0.720   2.549
 3735SOL    HW212105   4.144   0.663   2.449
 3736SOL     OW12106   6.790   1.129   0.986
 3736SOL    HW112107   6.796   1.162   1.080
 3736SOL    HW212108   6.728   1.050   0.982
 3737SOL     OW12109   5.778   1.702   3.365
 3737SOL    HW112110   5.772   1.669   3.271
 3737SOL    HW212111   5.772   1.802   3.367
 3738SOL     OW12112   6.472   6.744   1.076
 3738SOL    HW112113   6.540   6.740   1.003
 3738SOL    HW212114   6.511   6.709   1.161
 3739SOL     OW12115   2.691   4.370   1.509
 3739SOL    HW112116   2.764   4.437   1.525
 3739SOL    HW212117   2.719   4.308   1.436
 3740SOL     OW12118   6.056   5.655   0.367
 3740SOL    HW112119   6.112   5.579   0.404
 3740SOL    HW212120   6.101   5.693   0.286
 3741SOL     OW12121   4.475   3.193   6.592
 3741SOL    HW112122   4.449   3.098   6.609
 3741SOL    HW212123   4.393   3.249   6.583
 3742SOL     OW12124   4.409   0.333   0.678
 3742SOL    HW112125   4.385   0.247   0.723
 3742SOL    HW212126   4.341   0.403   0.703
 3743SOL     OW12127   5.465   4.072   1.282
 3743SOL    HW112128   5.416   3.990   1.253
 3743SOL    HW212129   5.546   4.046   1.334
 3744SOL     OW12130   1.216   6.385   2.093
 3744SOL    HW112131   1.145   6.315   2.084
 3744SOL    HW212132   1.222   6.414   2.189
 3745SOL     OW12133   5.661   3.723   2.601
 3745SOL    HW112134   5.644   3.634   2.558
 3745SOL    HW212135   5.637   3.718   2.698
 3746SOL     OW12136   5.873   0.064   3.405
 3746SOL    HW112137   5.889   0.105   3.495
 3746SOL    HW212138   5.891   6.996   3.409
 3747SOL     OW12139   4.910   6.483   5.701
 3747SOL    HW112140   4.832   6.475   5.763
 3747SOL    HW212141   4.935   6.579   5.691
 3748SOL     OW12142   5.355   0.501   1.996
 3748SOL    HW112143   5.276   0.462   1.949
 3748SOL    HW212144   5.427   0.521   1.929
 3749SOL     OW12145   2.032   4.343   3.660
 3749SOL    HW112146   1.985   4.288   3.729
 3749SOL    HW212147   2.072   4.424   3.702
 3750SOL     OW12148   5.886   4.382   0.846
 3750SOL    HW112149   5.823   4.422   0.913
 3750SOL    HW212150   5.835   4.319   0.787
 3751SOL     OW12151   6.949   2.900   0.958
 3751SOL    HW112152   6.940   2.894   1.058
 3751SOL    HW212153   6.958   2.808   0.920
 3752SOL     OW12154   1.071   6.609   0.526
 3752SOL    HW112155   1.004   6.679   0.505
 3752SOL    HW212156   1.049   6.525   0.478
 3753SOL     OW12157   0.103   0.650   4.315
 3753SOL    HW112158   0.072   0.636   4.409
 3753SOL    HW212159   0.113   0.748   4.298
 3754SOL     OW12160   4.607   6.082   1.890
 3754SOL    HW112161   4.642   6.162   1.940
 3754SOL    HW212162   4.515   6.061   1.922
 3755SOL     OW12163   5.381   5.570   4.897
 3755SOL    HW112164   5.379   5.471   4.881
 3755SOL    HW212165   5.449   5.612   4.836
 3756SOL     OW12166   1.938   0.417   6.254
 3756SOL    HW112167   2.030   0.455   6.254
 3756SOL    HW212168   1.926   0.360   6.172
 3757SOL     OW12169   4.295   6.342   6.899
 3757SOL    HW112170   4.347   6.261   6.873
 3757SOL    HW212171   4.215   6.315   6.952
 3758SOL     OW12172   1.804   1.049   4.395
 3758SOL    HW112173   1.801   1.061   4.295
 3758SOL    HW212174   1.864   1.117   4.435
 3759SOL     OW12175   4.000   5.067   5.852
 3759SOL    HW112176   4.032   5.156   5.886
 3759SOL    HW212177   4.067   5.030   5.788
 3760SOL     OW12178   0.787   3.272   4.226
 3760SOL    HW112179   0.747   3.181   4.216
 3760SOL    HW212180   0.879   3.273   4.188
 3761SOL     OW12181   0.730   6.874   4.879
 3761SOL    HW112182   0.652   6.813   4.894
 3761SOL    HW212183   0.776   6.848   4.793
 3762SOL     OW12184   0.883   5.519   6.861
 3762SOL    HW112185   0.862   5.606   6.906
 3762SOL    HW212186   0.812   5.452   6.884
 3763SOL     OW12187   6.735   5.041   0.183
 3763SOL    HW112188   6.809   4.976   0.203
 3763SOL    HW212189   6.668   4.997   0.122
 3764SOL     OW12190   1.937   0.213   3.792
 3764SOL    HW112191   1.843   0.239   3.768
 3764SOL    HW212192   1.966   0.263   3.873
 3765SOL     OW12193   5.457   1.436   1.296
 3765SOL    HW112194   5.382   1.408   1.356
 3765SOL    HW212195   5.471   1.535   1.304
 3766SOL     OW12196   1.233   1.214   4.403
 3766SOL    HW112197   1.333   1.212   4.397
 3766SOL    HW212198   1.206   1.258   4.488
 3767SOL     OW12199   2.198   5.410   0.293
 3767SOL    HW112200   2.267   5.443   0.359
 3767SOL    HW212201   2.119   5.471   0.295
 3768SOL     OW12202   2.488   5.743   5.415
 3768SOL    HW112203   2.486   5.643   5.423
 3768SOL    HW212204   2.530   5.782   5.497
 3769SOL     OW12205   5.710   5.769   4.874
 3769SOL    HW112206   5.709   5.809   4.965
 3769SOL    HW212207   5.696   5.670   4.882
 3770SOL     OW12208   1.784   0.595   6.892
 3770SOL    HW112209   1.812   0.504   6.923
 3770SOL    HW212210   1.794   0.602   6.793
 3771SOL     OW12211   5.625   2.518   0.124
 3771SOL    HW112212   5.660   2.610   0.142
 3771SOL    HW212213   5.597   2.512   0.028
 3772SOL     OW12214   6.646   1.449   6.943
 3772SOL    HW112215   6.738   1.478   6.969
 3772SOL    HW212216   6.578   1.503   6.994
 3773SOL     OW12217   6.248   3.082   6.294
 3773SOL    HW112218   6.268   2.989   6.263
 3773SOL    HW212219   6.333   3.127   6.322
 3774SOL     OW12220   0.458   6.601   6.741
 3774SOL    HW112221   0.393   6.675   6.726
 3774SOL    HW212222   0.465   6.545   6.659
 3775SOL     OW12223   5.292   4.214   1.972
 3775SOL    HW112224   5.354   4.203   2.049
 3775SOL    HW212225   5.207   4.163   1.990
 3776SOL     OW12226   3.827   0.947   0.885
 3776SOL    HW112227   3.883   0.957   0.803
 3776SOL    HW212228   3.852   0.862   0.932
 3777SOL     OW12229   2.977   4.862   4.371
 3777SOL    HW112230   2.911   4.790   4.390
 3777SOL    HW212231   2.946   4.948   4.414
 3778SOL     OW12232   2.898   5.294   3.228
 3778SOL    HW112233   2.867   5.199   3.229
 3778SOL    HW212234   2.976   5.303   3.166
 3779SOL     OW12235   1.797   4.665   0.955
 3779SOL    HW112236   1.790   4.733   0.881
 3779SOL    HW212237   1.809   4.713   1.042
 3780SOL     OW12238   4.450   4.766   5.575
 3780SOL    HW112239   4.492   4.856   5.573
 3780SOL    HW212240   4.368   4.769   5.633
 3781SOL     OW12241   1.506   6.683   4.652
 3781SOL    HW112242   1.421   6.701   4.703
 3781SOL    HW212243   1.494   6.710   4.557
 3782SOL     OW12244   3.027   2.195   4.336
 3782SOL    HW112245   3.108   2.136   4.328
 3782SOL    HW212246   2.956   2.147   4.387
 3783SOL     OW12247   5.495   6.189   5.190
 3783SOL    HW112248   5.446   6.221   5.109
 3783SOL    HW212249   5.508   6.090   5.184
 3784SOL     OW12250   5.070   1.888   3.729
 3784SOL    HW112251   4.976   1.880   3.695
 3784SOL    HW212252   5.096   1.985   3.731
 3785SOL     OW12253   1.386   1.072   6.967
 3785SOL    HW112254   1.445   1.136   6.918
 3785SOL    HW212255   1.302   1.057   6.914
 3786SOL     OW12256   2.593   6.766   2.555
 3786SOL    HW112257   2.547   6.688   2.598
 3786SOL    HW212258   2.671   6.733   2.501
 3787SOL     OW12259   5.965   6.094   3.176
 3787SOL    HW112260   5.993   6.151   3.099
 3787SOL    HW212261   5.959   6.150   3.258
 3788SOL     OW12262   0.481   2.940   3.576
 3788SOL    HW112263   0.575   2.971   3.558
 3788SOL    HW212264   0.419   2.983   3.510
 3789SOL     OW12265   0.838   2.849   4.094
 3789SOL    HW112266   0.770   2.868   4.023
 3789SOL    HW212267   0.834   2.752   4.119
 3790SOL     OW12268   1.769   3.586   5.237
 3790SOL    HW112269   1.684   3.572   5.287
 3790SOL    HW212270   1.773   3.680   5.205
 3791SOL     OW12271   6.073   0.081   0.553
 3791SOL    HW112272   6.169   0.104   0.567
 3791SOL    HW212273   6.026   0.079   0.641
 3792SOL     OW12274   6.903   1.099   4.077
 3792SOL    HW112275   6.970   1.124   4.008
 3792SOL    HW212276   6.872   1.181   4.125
 3793SOL     OW12277   3.829   0.048   3.006
 3793SOL    HW112278   3.853   7.002   2.946
 3793SOL    HW212279   3.907   0.111   3.013
 3794SOL     OW12280   2.868   4.405   1.231
 3794SOL    HW112281   2.808   4.397   1.151
 3794SOL    HW212282   2.949   4.458   1.206
 3795SOL     OW12283   3.961   6.496   6.952
 3795SOL    HW112284   3.903   6.570   6.986
 3795SOL    HW212285   3.969   6.503   6.852
 3796SOL     OW12286   2.717   1.960   1.149
 3796SOL    HW112287   2.685   1.907   1.071
 3796SOL    HW212288   2.665   1.935   1.231
 3797SOL     OW12289   6.154   4.183   2.588
 3797SOL    HW112290   6.156   4.260   2.651
 3797SOL    HW212291   6.177   4.214   2.496
 3798SOL     OW12292   3.792   5.333   3.328
 3798SOL    HW112293   3.758   5.269   3.397
 3798SOL    HW212294   3.743   5.420   3.336
 3799SOL     OW12295   7.009   2.445   4.402
 3799SOL    HW112296   6.986   2.443   4.499
 3799SOL    HW212297   0.077   2.429   4.391
 3800SOL     OW12298   5.112   2.776   4.393
 3800SOL    HW112299   5.165   2.755   4.475
 3800SOL    HW212300   5.049   2.851   4.411
 3801SOL     OW12301   6.977   6.291   3.675
 3801SOL    HW112302   7.015   6.201   3.654
 3801SOL    HW212303   7.002   6.317   3.769
 3802SOL     OW12304   0.355   2.326   3.980
 3802SOL    HW112305   0.335   2.341   3.883
 3802SOL    HW212306   0.275   2.350   4.034
 3803SOL     OW12307   3.707   2.275   1.243
 3803SOL    HW112308   3.741   2.347   1.302
 3803SOL    HW212309   3.709   2.188   1.292
 3804SOL     OW12310   5.518   1.909   3.773
 3804SOL    HW112311   5.455   1.945   3.704
 3804SOL    HW212312   5.570   1.832   3.735
 3805SOL     OW12313   2.795   3.499   1.483
 3805SOL    HW112314   2.860   3.423   1.483
 3805SOL    HW212315   2.770   3.522   1.389
 3806SOL     OW12316   2.594   3.918   0.273
 3806SOL    HW112317   2.619   3.879   0.362
 3806SOL    HW212318   2.660   3.989   0.249
 3807SOL     OW12319   2.671   0.608   3.748
 3807SOL    HW112320   2.729   0.647   3.819
 3807SOL    HW212321   2.599   0.673   3.724
 3808SOL     OW12322   4.113   0.862   1.168
 3808SOL    HW112323   4.083   0.781   1.217
 3808SOL    HW212324   4.102   0.943   1.227
 3809SOL     OW12325   6.330   2.581   0.680
 3809SOL    HW112326   6.400   2.606   0.748
 3809SOL    HW212327   6.245   2.630   0.700
 3810SOL     OW12328   4.601   2.452   5.272
 3810SOL    HW112329   4.691   2.408   5.271
 3810SOL    HW212330   4.541   2.404   5.337
 3811SOL     OW12331   0.809   4.366   3.673
 3811SOL    HW112332   0.852   4.376   3.583
 3811SOL    HW212333   0.710   4.365   3.663
 3812SOL     OW12334   5.482   0.800   4.941
 3812SOL    HW112335   5.550   0.802   4.867
 3812SOL    HW212336   5.471   0.706   4.972
 3813SOL     OW12337   3.628   4.411   0.410
 3813SOL    HW112338   3.674   4.359   0.482
 3813SOL    HW212339   3.694   4.436   0.339
 3814SOL     OW12340   0.280   6.922   1.354
 3814SOL    HW112341   0.366   6.876   1.379
 3814SOL    HW212342   0.274   7.010   1.401
 3815SOL     OW12343   4.846   2.612   0.403
 3815SOL    HW112344   4.747   2.605   0.415
 3815SOL    HW212345   4.882   2.686   0.461
 3816SOL     OW12346   6.924   5.732   0.680
 3816SOL    HW112347   6.873   5.676   0.745
 3816SOL    HW212348   6.876   5.818   0.664
 3817SOL     OW12349   5.127   3.044   3.755
 3817SOL    HW112350   5.074   2.999   3.683
 3817SOL    HW212351   5.064   3.086   3.821
 3818SOL     OW12352   5.114   0.562   0.275
 3818SOL    HW112353   5.062   0.637   0.236
 3818SOL    HW212354   5.164   0.515   0.203
 3819SOL     OW12355   5.451   5.562   1.015
 3819SOL    HW112356   5.470   5.658   0.995
 3819SOL    HW212357   5.444   5.511   0.929
 3820SOL     OW12358   6.903   6.868   4.216
 3820SOL    HW112359   6.933   6.773   4.229
 3820SOL    HW212360   6.947   6.927   4.283
 3821SOL     OW12361   2.034   3.032   1.194
 3821SOL    HW112362   1.973   3.111   1.207
 3821SOL    HW212363   2.046   2.984   1.280
 3822SOL     OW12364   1.277   5.729   2.544
 3822SOL    HW112365   1.263   5.673   2.462
 3822SOL    HW212366   1.290   5.824   2.518
 3823SOL     OW12367   4.108   2.223   5.840
 3823SOL    HW112368   4.027   2.278   5.816
 3823SOL    HW212369   4.103   2.197   5.936
 3824SOL     OW12370   6.204   1.949   5.948
 3824SOL    HW112371   6.161   2.022   6.001
 3824SOL    HW212372   6.135   1.901   5.894
 3825SOL     OW12373   0.330   6.760   1.094
 3825SOL    HW112374   0.255   6.816   1.131
 3825SOL    HW212375   0.376   6.811   1.022
 3826SOL     OW12376   1.153   3.739   6.719
 3826SOL    HW112377   1.164   3.640   6.728
 3826SOL    HW212378   1.224   3.775   6.657
 3827SOL     OW12379   3.266   3.211   0.545
 3827SOL    HW112380   3.184   3.154   0.536
 3827SOL    HW212381   3.334   3.165   0.601
 3828SOL     OW12382   4.382   2.436   1.368
 3828SOL    HW112383   4.468   2.467   1.329
 3828SOL    HW212384   4.308   2.447   1.302
 3829SOL     OW12385   1.951   4.819   4.231
 3829SOL    HW112386   1.989   4.896   4.283
 3829SOL    HW212387   1.889   4.767   4.290
 3830SOL     OW12388   1.103   0.792   4.596
 3830SOL    HW112389   1.055   0.717   4.550
 3830SOL    HW212390   1.090   0.784   4.695
 3831SOL     OW12391   4.583   1.915   2.169
 3831SOL    HW112392   4.548   2.005   2.196
 3831SOL    HW212393   4.602   1.861   2.251
 3832SOL     OW12394   5.998   0.607   2.018
 3832SOL    HW112395   6.051   0.669   1.961
 3832SOL    HW212396   6.019   0.623   2.114
 3833SOL     OW12397   1.121   5.941   5.878
 3833SOL    HW112398   1.120   5.865   5.943
 3833SOL    HW212399   1.045   5.930   5.813
 3834SOL     OW12400   3.367   2.869   0.574
 3834SOL    HW112401   3.425   2.792   0.547
 3834SOL    HW212402   3.287   2.873   0.513
 3835SOL     OW12403   3.254   5.446   4.947
 3835SOL    HW112404   3.243   5.385   4.869
 3835SOL    HW212405   3.350   5.471   4.958
 3836SOL     OW12406   2.154   3.854   4.610
 3836SOL    HW112407   2.127   3.837   4.705
 3836SOL    HW212408   2.210   3.936   4.605
 3837SOL     OW12409   4.999   3.270   6.945
 3837SOL    HW112410   5.070   3.335   6.919
 3837SOL    HW212411   5.031   3.215   7.021
 3838SOL     OW12412   6.631   4.148   4.433
 3838SOL    HW112413   6.670   4.169   4.523
 3838SOL    HW212414   6.543   4.102   4.445
 3839SOL     OW12415   4.257   0.273   4.371
 3839SOL    HW112416   4.339   0.216   4.372
 3839SOL    HW212417   4.186   0.229   4.427
 3840SOL     OW12418   1.622   1.175   5.723
 3840SOL    HW112419   1.719   1.179   5.745
 3840SOL    HW212420   1.592   1.264   5.688
 3841SOL     OW12421   6.739   3.646   4.728
 3841SOL    HW112422   6.823   3.603   4.762
 3841SOL    HW212423   6.675   3.575   4.699
 3842SOL     OW12424   1.392   4.971   0.319
 3842SOL    HW112425   1.331   4.893   0.303
 3842SOL    HW212426   1.486   4.944   0.298
 3843SOL     OW12427   0.145   4.047   1.480
 3843SOL    HW112428   0.128   3.981   1.554
 3843SOL    HW212429   0.172   4.135   1.519
 3844SOL     OW12430   7.028   4.514   5.372
 3844SOL    HW112431   7.001   4.579   5.444
 3844SOL    HW212432   0.052   4.562   5.303
 3845SOL     OW12433   3.665   3.036   2.862
 3845SOL    HW112434   3.650   2.956   2.920
 3845SOL    HW212435   3.730   3.013   2.790
 3846SOL     OW12436   0.353   4.575   4.244
 3846SOL    HW112437   0.402   4.611   4.165
 3846SOL    HW212438   0.257   4.561   4.220
 3847SOL     OW12439   6.435   1.738   5.754
 3847SOL    HW112440   6.477   1.649   5.739
 3847SOL    HW212441   6.351   1.745   5.701
 3848SOL     OW12442   3.049   5.599   3.087
 3848SOL    HW112443   3.072   5.564   3.178
 3848SOL    HW212444   3.125   5.581   3.024
 3849SOL     OW12445   0.454   1.082   5.580
 3849SOL    HW112446   0.488   1.020   5.509
 3849SOL    HW212447   0.497   1.060   5.667
 3850SOL     OW12448   2.408   3.653   1.657
 3850SOL    HW112449   2.445   3.741   1.688
 3850SOL    HW212450   2.421   3.585   1.730
 3851SOL     OW12451   1.246   4.265   2.432
 3851SOL    HW112452   1.224   4.195   2.500
 3851SOL    HW212453   1.218   4.354   2.466
 3852SOL     OW12454   4.692   0.092   4.744
 3852SOL    HW112455   4.700   0.115   4.841
 3852SOL    HW212456   4.774   0.121   4.695
 3853SOL     OW12457   1.493   3.413   2.494
 3853SOL    HW112458   1.475   3.316   2.477
 3853SOL    HW212459   1.497   3.430   2.592
 3854SOL     OW12460   0.519   4.022   3.065
 3854SOL    HW112461   0.442   4.027   3.129
 3854SOL    HW212462   0.507   3.945   3.003
 3855SOL     OW12463   5.474   5.676   6.818
 3855SOL    HW112464   5.565   5.665   6.780
 3855SOL    HW212465   5.413   5.607   6.779
 3856SOL     OW12466   7.015   6.338   4.861
 3856SOL    HW112467   0.021   6.254   4.900
 3856SOL    HW212468   7.005   6.327   4.762
 3857SOL     OW12469   1.198   6.453   5.290
 3857SOL    HW112470   1.222   6.452   5.387
 3857SOL    HW212471   1.148   6.370   5.267
 3858SOL     OW12472   1.600   5.982   6.037
 3858SOL    HW112473   1.555   5.901   6.074
 3858SOL    HW212474   1.572   5.996   5.942
 3859SOL     OW12475   0.117   1.815   2.977
 3859SOL    HW112476   0.038   1.779   3.027
 3859SOL    HW212477   0.090   1.894   2.923
 3860SOL     OW12478   2.142   6.092   4.408
 3860SOL    HW112479   2.086   6.124   4.332
 3860SOL    HW212480   2.238   6.115   4.390
 3861SOL     OW12481   5.464   4.769   1.570
 3861SOL    HW112482   5.453   4.815   1.482
 3861SOL    HW212483   5.494   4.835   1.639
 3862SOL     OW12484   6.528   6.883   5.440
 3862SOL    HW112485   6.429   6.888   5.446
 3862SOL    HW212486   6.556   6.893   5.344
 3863SOL     OW12487   3.873   4.268   6.992
 3863SOL    HW112488   3.820   4.214   6.927
 3863SOL    HW212489   3.823   4.351   7.015
 3864SOL     OW12490   3.805   2.041   5.973
 3864SOL    HW112491   3.902   2.029   5.995
 3864SOL    HW212492   3.781   1.983   5.895
 3865SOL     OW12493   4.159   0.587   1.715
 3865SOL    HW112494   4.081   0.646   1.695
 3865SOL    HW212495   4.210   0.569   1.630
 3866SOL     OW12496   4.439   0.717   0.191
 3866SOL    HW112497   4.517   0.778   0.204
 3866SOL    HW212498   4.362   0.768   0.152
 3867SOL     OW12499   2.119   3.713   3.727
 3867SOL    HW112500   2.068   3.743   3.808
 3867SOL    HW212501   2.122   3.788   3.660
 3868SOL     OW12502   2.094   6.389   1.986
 3868SOL    HW112503   2.107   6.300   2.029
 3868SOL    HW212504   2.182   6.423   1.954
 3869SOL     OW12505   0.465   2.799   4.177
 3869SOL    HW112506   0.548   2.854   4.172
 3869SOL    HW212507   0.460   2.739   4.097
 3870SOL     OW12508   3.960   5.320   0.179
 3870SOL    HW112509   3.940   5.304   0.082
 3870SOL    HW212510   4.055   5.349   0.189
 3871SOL     OW12511   3.436   0.197   2.688
 3871SOL    HW112512   3.512   0.251   2.650
 3871SOL    HW212513   3.470   0.138   2.761
 3872SOL     OW12514   3.873   2.964   1.192
 3872SOL    HW112515   3.940   3.028   1.153
 3872SOL    HW212516   3.915   2.874   1.202
 3873SOL     OW12517   5.306   5.867   1.290
 3873SOL    HW112518   5.406   5.873   1.295
 3873SOL    HW212519   5.271   5.812   1.365
 3874SOL     OW12520   4.199   6.549   0.354
 3874SOL    HW112521   4.120   6.500   0.392
 3874SOL    HW212522   4.225   6.624   0.416
 3875SOL     OW12523   1.258   3.652   2.738
 3875SOL    HW112524   1.195   3.602   2.679
 3875SOL    HW212525   1.327   3.698   2.682
 3876SOL     OW12526   4.555   4.840   6.374
 3876SOL    HW112527   4.534   4.933   6.343
 3876SOL    HW212528   4.534   4.832   6.472
 3877SOL     OW12529   6.908   1.803   1.265
 3877SOL    HW112530   6.990   1.860   1.267
 3877SOL    HW212531   6.892   1.764   1.356
 3878SOL     OW12532   2.614   6.149   6.000
 3878SOL    HW112533   2.658   6.219   6.056
 3878SOL    HW212534   2.677   6.117   5.930
 3879SOL     OW12535   4.938   5.499   1.534
 3879SOL    HW112536   4.843   5.517   1.559
 3879SOL    HW212537   4.958   5.542   1.446
 3880SOL     OW12538   5.955   3.761   2.859
 3880SOL    HW112539   5.949   3.859   2.840
 3880SOL    HW212540   6.027   3.745   2.926
 3881SOL     OW12541   1.647   5.433   0.982
 3881SOL    HW112542   1.678   5.515   1.029
 3881SOL    HW212543   1.635   5.453   0.885
 3882SOL     OW12544   6.556   0.795   5.892
 3882SOL    HW112545   6.494   0.765   5.964
 3882SOL    HW212546   6.646   0.753   5.905
 3883SOL     OW12547   5.136   1.306   4.045
 3883SOL    HW112548   5.219   1.345   4.084
 3883SOL    HW212549   5.149   1.292   3.947
 3884SOL     OW12550   1.491   6.322   4.467
 3884SOL    HW112551   1.504   6.416   4.500
 3884SOL    HW212552   1.401   6.289   4.497
 3885SOL     OW12553   6.433   1.095   4.636
 3885SOL    HW112554   6.488   1.171   4.602
 3885SOL    HW212555   6.411   1.033   4.561
 3886SOL     OW12556   6.436   6.991   5.939
 3886SOL    HW112557   6.483   6.904   5.927
 3886SOL    HW212558   6.371   7.004   5.864
 3887SOL     OW12559   4.796   1.900   5.599
 3887SOL    HW112560   4.817   1.836   5.673
 3887SOL    HW212561   4.699   1.925   5.603
 3888SOL     OW12562   6.594   1.444   6.671
 3888SOL    HW112563   6.606   1.455   6.770
 3888SOL    HW212564   6.631   1.523   6.624
 3889SOL     OW12565   0.782   5.181   6.767
 3889SOL    HW112566   0.752   5.091   6.737
 3889SOL    HW212567   0.755   5.250   6.700
 3890SOL     OW12568   6.288   6.259   3.013
 3890SOL    HW112569   6.268   6.284   3.107
 3890SOL    HW212570   6.338   6.334   2.968
 3891SOL     OW12571   5.064   5.232   4.730
 3891SOL    HW112572   5.101   5.227   4.823
 3891SOL    HW212573   5.017   5.319   4.717
 3892SOL     OW12574   0.906   0.307   3.090
 3892SOL    HW112575   0.961   0.272   3.014
 3892SOL    HW212576   0.894   0.235   3.158
 3893SOL     OW12577   3.665   5.835   3.419
 3893SOL    HW112578   3.701   5.823   3.512
 3893SOL    HW212579   3.741   5.847   3.355
 3894SOL     OW12580   3.643   2.489   0.547
 3894SOL    HW112581   3.631   2.579   0.507
 3894SOL    HW212582   3.558   2.436   0.538
 3895SOL     OW12583   1.572   1.417   5.572
 3895SOL    HW112584   1.512   1.441   5.649
 3895SOL    HW212585   1.653   1.475   5.574
 3896SOL     OW12586   0.529   1.723   6.005
 3896SOL    HW112587   0.509   1.675   5.920
 3896SOL    HW212588   0.587   1.666   6.063
 3897SOL     OW12589   2.737   6.403   2.356
 3897SOL    HW112590   2.656   6.418   2.298
 3897SOL    HW212591   2.789   6.488   2.363
 3898SOL     OW12592   3.161   3.032   4.202
 3898SOL    HW112593   3.116   3.080   4.127
 3898SOL    HW212594   3.117   3.056   4.288
 3899SOL     OW12595   5.430   0.972   5.156
 3899SOL    HW112596   5.461   0.935   5.069
 3899SOL    HW212597   5.470   1.063   5.169
 3900SOL     OW12598   6.498   2.382   3.484
 3900SOL    HW112599   6.546   2.451   3.431
 3900SOL    HW212600   6.432   2.335   3.425
 3901SOL     OW12601   1.428   6.476   4.936
 3901SOL    HW112602   1.441   6.498   5.032
 3901SOL    HW212603   1.512   6.496   4.885
 3902SOL     OW12604   5.698   4.932   2.050
 3902SOL    HW112605   5.753   4.850   2.065
 3902SOL    HW212606   5.636   4.918   1.974
 3903SOL     OW12607   3.793   2.409   0.242
 3903SOL    HW112608   3.876   2.458   0.269
 3903SOL    HW212609   3.728   2.409   0.318
 3904SOL     OW12610   1.036   6.938   0.138
 3904SOL    HW112611   0.969   6.865   0.123
 3904SOL    HW212612   1.007   6.994   0.216
 3905SOL     OW12613   6.867   6.460   6.331
 3905SOL    HW112614   6.791   6.521   6.311
 3905SOL    HW212615   6.894   6.412   6.248
 3906SOL     OW12616   1.565   5.272   3.606
 3906SOL    HW112617   1.474   5.275   3.646
 3906SOL    HW212618   1.627   5.223   3.667
 3907SOL     OW12619   6.859   0.869   4.693
 3907SOL    HW112620   6.789   0.890   4.762
 3907SOL    HW212621   6.814   0.836   4.610
 3908SOL     OW12622   1.425   1.064   5.568
 3908SOL    HW112623   1.453   1.065   5.472
 3908SOL    HW212624   1.504   1.085   5.626
 3909SOL     OW12625   5.363   3.453   5.650
 3909SOL    HW112626   5.322   3.382   5.708
 3909SOL    HW212627   5.323   3.448   5.559
 3910SOL     OW12628   3.518   3.771   1.981
 3910SOL    HW112629   3.488   3.696   2.040
 3910SOL    HW212630   3.438   3.813   1.936
 3911SOL     OW12631   5.199   0.403   1.221
 3911SOL    HW112632   5.171   0.385   1.127
 3911SOL    HW212633   5.205   0.501   1.237
 3912SOL     OW12634   3.147   2.287   6.313
 3912SOL    HW112635   3.108   2.376   6.337
 3912SOL    HW212636   3.186   2.292   6.221
 3913SOL     OW12637   3.747   6.678   0.452
 3913SOL    HW112638   3.713   6.760   0.496
 3913SOL    HW212639   3.806   6.628   0.515
 3914SOL     OW12640   5.899   1.437   1.010
 3914SOL    HW112641   5.918   1.396   1.099
 3914SOL    HW212642   5.905   1.536   1.017
 3915SOL     OW12643   4.114   5.843   0.160
 3915SOL    HW112644   4.203   5.825   0.202
 3915SOL    HW212645   4.115   5.814   0.064
 3916SOL     OW12646   2.895   0.706   3.214
 3916SOL    HW112647   2.956   0.726   3.138
 3916SOL    HW212648   2.894   0.783   3.277
 3917SOL     OW12649   2.463   5.459   0.735
 3917SOL    HW112650   2.381   5.500   0.774
 3917SOL    HW212651   2.497   5.388   0.797
 3918SOL     OW12652   5.566   0.999   0.418
 3918SOL    HW112653   5.565   0.900   0.436
 3918SOL    HW212654   5.495   1.043   0.473
 3919SOL     OW12655   4.546   1.503   1.256
 3919SOL    HW112656   4.497   1.589   1.267
 3919SOL    HW212657   4.601   1.485   1.337
 3920SOL     OW12658   3.188   1.530   6.221
 3920SOL    HW112659   3.181   1.622   6.259
 3920SOL    HW212660   3.100   1.484   6.229
 3921SOL     OW12661   0.591   2.411   6.482
 3921SOL    HW112662   0.569   2.508   6.473
 3921SOL    HW212663   0.512   2.363   6.521
 3922SOL     OW12664   4.713   4.884   1.763
 3922SOL    HW112665   4.771   4.806   1.785
 3922SOL    HW212666   4.628   4.878   1.815
 3923SOL     OW12667   6.003   0.730   1.638
 3923SOL    HW112668   5.963   0.787   1.567
 3923SOL    HW212669   6.086   0.686   1.603
 3924SOL     OW12670   0.092   4.574   4.157
 3924SOL    HW112671   0.026   4.646   4.177
 3924SOL    HW212672   0.114   4.574   4.060
 3925SOL     OW12673   4.911   3.964   0.136
 3925SOL    HW112674   4.954   3.997   0.220
 3925SOL    HW212675   4.816   3.938   0.155
 3926SOL     OW12676   1.373   0.824   6.229
 3926SOL    HW112677   1.435   0.834   6.151
 3926SOL    HW212678   1.340   0.914   6.257
 3927SOL     OW12679   0.573   2.558   4.761
 3927SOL    HW112680   0.505   2.624   4.792
 3927SOL    HW212681   0.557   2.470   4.806
 3928SOL     OW12682   2.208   6.956   3.711
 3928SOL    HW112683   2.231   7.019   3.785
 3928SOL    HW212684   2.287   6.944   3.651
 3929SOL     OW12685   6.696   1.867   5.256
 3929SOL    HW112686   6.745   1.801   5.313
 3929SOL    HW212687   6.648   1.932   5.314
 3930SOL     OW12688   1.347   2.629   3.835
 3930SOL    HW112689   1.418   2.584   3.781
 3930SOL    HW212690   1.306   2.703   3.781
 3931SOL     OW12691   1.498   2.633   1.649
 3931SOL    HW112692   1.508   2.556   1.713
 3931SOL    HW212693   1.555   2.709   1.679
 3932SOL     OW12694   2.190   5.532   3.887
 3932SOL    HW112695   2.161   5.600   3.955
 3932SOL    HW212696   2.274   5.563   3.843
 3933SOL     OW12697   2.061   5.004   0.523
 3933SOL    HW112698   2.009   4.940   0.466
 3933SOL    HW212699   2.111   5.068   0.465
 3934SOL     OW12700   1.020   1.546   2.667
 3934SOL    HW112701   1.021   1.466   2.727
 3934SOL    HW212702   1.040   1.628   2.720
 3935SOL     OW12703   6.202   3.544   6.468
 3935SOL    HW112704   6.227   3.604   6.392
 3935SOL    HW212705   6.121   3.581   6.515
 3936SOL     OW12706   6.576   5.415   5.251
 3936SOL    HW112707   6.537   5.341   5.195
 3936SOL    HW212708   6.583   5.384   5.346
 3937SOL     OW12709   6.999   5.504   2.499
 3937SOL    HW112710   0.042   5.492   2.431
 3937SOL    HW212711   6.954   5.417   2.517
 3938SOL     OW12712   6.909   3.759   3.323
 3938SOL    HW112713   6.987   3.814   3.291
 3938SOL    HW212714   6.876   3.796   3.409
 3939SOL     OW12715   0.605   1.137   2.446
 3939SOL    HW112716   0.672   1.171   2.381
 3939SOL    HW212717   0.532   1.090   2.397
 3940SOL     OW12718   3.187   4.849   2.013
 3940SOL    HW112719   3.157   4.785   1.941
 3940SOL    HW212720   3.111   4.864   2.077
 3941SOL     OW12721   5.969   6.748   4.255
 3941SOL    HW112722   5.958   6.676   4.323
 3941SOL    HW212723   6.065   6.754   4.226
 3942SOL     OW12724   1.114   6.149   6.377
 3942SOL    HW112725   1.170   6.223   6.338
 3942SOL    HW212726   1.171   6.093   6.437
 3943SOL     OW12727   0.854   3.354   1.620
 3943SOL    HW112728   0.834   3.257   1.610
 3943SOL    HW212729   0.883   3.391   1.532
 3944SOL     OW12730   6.552   2.673   6.624
 3944SOL    HW112731   6.507   2.605   6.681
 3944SOL    HW212732   6.486   2.743   6.597
 3945SOL     OW12733   1.056   1.105   3.161
 3945SOL    HW112734   1.144   1.066   3.190
 3945SOL    HW212735   1.067   1.203   3.144
 3946SOL     OW12736   7.005   3.028   0.412
 3946SOL    HW112737   0.005   3.047   0.318
 3946SOL    HW212738   0.020   3.092   0.474
 3947SOL     OW12739   5.790   5.768   0.902
 3947SOL    HW112740   5.695   5.742   0.922
 3947SOL    HW212741   5.842   5.771   0.987
 3948SOL     OW12742   1.611   2.519   6.189
 3948SOL    HW112743   1.545   2.517   6.264
 3948SOL    HW212744   1.687   2.456   6.209
 3949SOL     OW12745   6.314   6.291   2.280
 3949SOL    HW112746   6.332   6.206   2.230
 3949SOL    HW212747   6.230   6.280   2.333
 3950SOL     OW12748   4.044   4.646   1.158
 3950SOL    HW112749   4.092   4.680   1.077
 3950SOL    HW212750   3.958   4.695   1.170
 3951SOL     OW12751   0.232   2.063   5.662
 3951SOL    HW112752   0.166   2.024   5.598
 3951SOL    HW212753   0.222   2.163   5.664
 3952SOL     OW12754   5.943   2.750   5.376
 3952SOL    HW112755   5.886   2.687   5.323
 3952SOL    HW212756   5.901   2.763   5.467
 3953SOL     OW12757   3.066   4.201   6.188
 3953SOL    HW112758   3.165   4.208   6.172
 3953SOL    HW212759   3.021   4.281   6.150
 3954SOL     OW12760   0.073   3.573   4.667
 3954SOL    HW112761   0.027   3.662   4.654
 3954SOL    HW212762   0.052   3.538   4.758
 3955SOL     OW12763   5.364   5.846   6.992
 3955SOL    HW112764   5.420   5.787   6.934
 3955SOL    HW212765   5.269   5.841   6.963
 3956SOL     OW12766   0.541   2.804   5.918
 3956SOL    HW112767   0.552   2.750   6.001
 3956SOL    HW212768   0.445   2.806   5.892
 3957SOL     OW12769   2.792   0.011   4.111
 3957SOL    HW112770   2.822   0.105   4.095
 3957SOL    HW212771   2.725   7.014   4.041
 3958SOL     OW12772   6.719   5.859   6.395
 3958SOL    HW112773   6.722   5.805   6.480
 3958SOL    HW212774   6.812   5.886   6.370
 3959SOL     OW12775   3.096   5.437   0.372
 3959SOL    HW112776   3.062   5.529   0.388
 3959SOL    HW212777   3.152   5.408   0.450
 3960SOL     OW12778   3.674   2.968   0.057
 3960SOL    HW112779   3.732   3.016   0.123
 3960SOL    HW212780   3.635   3.035   7.023
 3961SOL     OW12781   4.996   1.176   1.985
 3961SOL    HW112782   4.948   1.257   1.953
 3961SOL    HW212783   5.080   1.163   1.932
 3962SOL     OW12784   0.594   6.139   6.954
 3962SOL    HW112785   0.677   6.162   6.903
 3962SOL    HW212786   0.524   6.105   6.891
 3963SOL     OW12787   4.940   5.195   4.282
 3963SOL    HW112788   5.007   5.183   4.356
 3963SOL    HW212789   4.984   5.239   4.204
 3964SOL     OW12790   5.111   6.010   5.391
 3964SOL    HW112791   5.041   5.953   5.434
 3964SOL    HW212792   5.160   6.062   5.461
 3965SOL     OW12793   3.669   4.496   6.987
 3965SOL    HW112794   3.714   4.555   6.921
 3965SOL    HW212795   3.586   4.457   6.946
 3966SOL     OW12796   6.295   4.980   5.550
 3966SOL    HW112797   6.241   5.049   5.597
 3966SOL    HW212798   6.388   4.979   5.588
 3967SOL     OW12799   0.536   6.137   4.880
 3967SOL    HW112800   0.599   6.162   4.953
 3967SOL    HW212801   0.588   6.111   4.798
 3968SOL     OW12802   5.274   0.339   2.501
 3968SOL    HW112803   5.323   0.258   2.469
 3968SOL    HW212804   5.265   0.404   2.426
 3969SOL     OW12805   0.969   4.723   2.765
 3969SOL    HW112806   1.063   4.691   2.760
 3969SOL    HW212807   0.906   4.646   2.750
 3970SOL     OW12808   4.941   4.898   3.411
 3970SOL    HW112809   4.987   4.826   3.464
 3970SOL    HW212810   4.851   4.866   3.383
 3971SOL     OW12811   1.909   5.842   3.101
 3971SOL    HW112812   1.970   5.771   3.137
 3971SOL    HW212813   1.958   5.928   3.093
 3972SOL     OW12814   0.654   6.290   0.498
 3972SOL    HW112815   0.626   6.293   0.593
 3972SOL    HW212816   0.642   6.197   0.463
 3973SOL     OW12817   3.702   4.145   3.660
 3973SOL    HW112818   3.743   4.093   3.586
 3973SOL    HW212819   3.609   4.172   3.635
 3974SOL     OW12820   6.957   1.191   6.222
 3974SOL    HW112821   6.907   1.164   6.304
 3974SOL    HW212822   6.976   1.111   6.166
 3975SOL     OW12823   6.772   1.090   6.430
 3975SOL    HW112824   6.784   1.007   6.484
 3975SOL    HW212825   6.674   1.102   6.409
 3976SOL     OW12826   1.597   4.213   1.057
 3976SOL    HW112827   1.659   4.267   1.001
 3976SOL    HW212828   1.649   4.163   1.126
 3977SOL     OW12829   2.392   6.455   6.456
 3977SOL    HW112830   2.315   6.396   6.480
 3977SOL    HW212831   2.380   6.544   6.501
 3978SOL     OW12832   5.744   1.783   5.739
 3978SOL    HW112833   5.738   1.765   5.641
 3978SOL    HW212834   5.695   1.867   5.760
 3979SOL     OW12835   1.474   6.653   2.257
 3979SOL    HW112836   1.478   6.728   2.323
 3979SOL    HW212837   1.476   6.690   2.164
 3980SOL     OW12838   4.854   3.221   4.407
 3980SOL    HW112839   4.857   3.299   4.469
 3980SOL    HW212840   4.799   3.148   4.447
 3981SOL     OW12841   0.175   1.800   0.202
 3981SOL    HW112842   0.106   1.864   0.237
 3981SOL    HW212843   0.235   1.771   0.276
 3982SOL     OW12844   2.473   1.132   4.137
 3982SOL    HW112845   2.409   1.059   4.159
 3982SOL    HW212846   2.475   1.199   4.211
 3983SOL     OW12847   3.295   6.524   4.371
 3983SOL    HW112848   3.219   6.587   4.389
 3983SOL    HW212849   3.363   6.570   4.315
 3984SOL     OW12850   1.414   6.791   2.000
 3984SOL    HW112851   1.407   6.874   2.055
 3984SOL    HW212852   1.505   6.787   1.958
 3985SOL     OW12853   1.691   3.648   6.858
 3985SOL    HW112854   1.615   3.616   6.914
 3985SOL    HW212855   1.734   3.570   6.812
 3986SOL     OW12856   0.117   1.966   1.352
 3986SOL    HW112857   0.197   1.989   1.296
 3986SOL    HW212858   0.113   2.026   1.432
 3987SOL     OW12859   2.232   5.459   5.881
 3987SOL    HW112860   2.255   5.497   5.792
 3987SOL    HW212861   2.164   5.517   5.926
 3988SOL     OW12862   3.720   2.098   0.163
 3988SOL    HW112863   3.706   2.077   0.259
 3988SOL    HW212864   3.816   2.119   0.146
 3989SOL     OW12865   6.311   6.903   0.001
 3989SOL    HW112866   6.398   6.929   6.987
 3989SOL    HW212867   6.276   6.981   0.052
 3990SOL     OW12868   0.169   2.979   4.750
 3990SOL    HW112869   0.094   2.947   4.691
 3990SOL    HW212870   0.164   3.079   4.757
 3991SOL     OW12871   0.377   2.142   3.608
 3991SOL    HW112872   0.465   2.142   3.656
 3991SOL    HW212873   0.392   2.122   3.511
 3992SOL     OW12874   3.993   3.509   6.604
 3992SOL    HW112875   3.991   3.492   6.703
 3992SOL    HW212876   4.023   3.603   6.587
 3993SOL     OW12877   3.045   2.181   2.765
 3993SOL    HW112878   3.027   2.180   2.666
 3993SOL    HW212879   3.121   2.120   2.786
 3994SOL     OW12880   2.493   2.547   4.467
 3994SOL    HW112881   2.586   2.509   4.461
 3994SOL    HW212882   2.427   2.473   4.473
 3995SOL     OW12883   2.181   4.308   3.284
 3995SOL    HW112884   2.088   4.290   3.316
 3995SOL    HW212885   2.213   4.230   3.229
 3996SOL     OW12886   1.336   0.937   4.438
 3996SOL    HW112887   1.313   1.026   4.400
 3996SOL    HW212888   1.254   0.881   4.445
 3997SOL     OW12889   4.793   3.941   3.278
 3997SOL    HW112890   4.744   3.967   3.195
 3997SOL    HW212891   4.847   4.019   3.310
 3998SOL     OW12892   6.373   2.175   2.519
 3998SOL    HW112893   6.447   2.237   2.495
 3998SOL    HW212894   6.301   2.226   2.566
 3999SOL     OW12895   6.048   4.020   3.154
 3999SOL    HW112896   5.960   4.062   3.132
 3999SOL    HW212897   6.119   4.091   3.157
 4000SOL     OW12898   2.739   5.622   2.585
 4000SOL    HW112899   2.672   5.617   2.511
 4000SOL    HW212900   2.831   5.628   2.547
 4001SOL     OW12901   2.947   3.826   5.915
 4001SOL    HW112902   3.035   3.839   5.868
 4001SOL    HW212903   2.936   3.729   5.937
 4002SOL     OW12904   3.476   3.177   5.394
 4002SOL    HW112905   3.442   3.209   5.306
 4002SOL    HW212906   3.544   3.242   5.429
 4003SOL     OW12907   2.829   1.485   6.491
 4003SOL    HW112908   2.733   1.509   6.472
 4003SOL    HW212909   2.886   1.518   6.416
 4004SOL     OW12910   6.067   3.394   3.106
 4004SOL    HW112911   6.031   3.388   3.013
 4004SOL    HW212912   5.992   3.399   3.171
 4005SOL     OW12913   4.264   3.702   1.061
 4005SOL    HW112914   4.168   3.684   1.039
 4005SOL    HW212915   4.300   3.625   1.114
 4006SOL     OW12916   5.590   5.331   1.984
 4006SOL    HW112917   5.574   5.378   1.897
 4006SOL    HW212918   5.641   5.247   1.967
 4007SOL     OW12919   0.346   1.876   3.120
 4007SOL    HW112920   0.364   1.780   3.142
 4007SOL    HW212921   0.275   1.882   3.050
 4008SOL     OW12922   3.044   6.992   0.459
 4008SOL    HW112923   3.016   6.907   0.504
 4008SOL    HW212924   3.135   7.018   0.490
 4009SOL     OW12925   4.850   1.948   1.609
 4009SOL    HW112926   4.780   1.878   1.590
 4009SOL    HW212927   4.940   1.912   1.587
 4010SOL     OW12928   3.138   4.423   1.553
 4010SOL    HW112929   3.186   4.509   1.567
 4010SOL    HW212930   3.199   4.347   1.575
 4011SOL     OW12931   7.013   6.228   1.116
 4011SOL    HW112932   0.040   6.277   1.051
 4011SOL    HW212933   6.943   6.176   1.067
 4012SOL     OW12934   4.424   6.863   2.022
 4012SOL    HW112935   4.332   6.865   2.061
 4012SOL    HW212936   4.437   6.779   1.970
 4013SOL     OW12937   1.859   6.815   1.323
 4013SOL    HW112938   1.763   6.837   1.305
 4013SOL    HW212939   1.894   6.877   1.394
 4014SOL     OW12940   3.705   6.352   4.218
 4014SOL    HW112941   3.694   6.446   4.185
 4014SOL    HW212942   3.670   6.288   4.149
 4015SOL     OW12943   4.792   4.755   6.280
 4015SOL    HW112944   4.845   4.703   6.346
 4015SOL    HW212945   4.706   4.784   6.321
 4016SOL     OW12946   3.189   5.092   0.441
 4016SOL    HW112947   3.182   5.117   0.537
 4016SOL    HW212948   3.260   5.147   0.397
 4017SOL     OW12949   0.144   4.845   5.217
 4017SOL    HW112950   0.183   4.753   5.219
 4017SOL    HW212951   0.216   4.912   5.235
 4018SOL     OW12952   4.327   0.103   2.134
 4018SOL    HW112953   4.333   0.048   2.051
 4018SOL    HW212954   4.239   0.151   2.136
 4019SOL     OW12955   5.425   3.707   2.244
 4019SOL    HW112956   5.402   3.634   2.179
 4019SOL    HW212957   5.371   3.694   2.328
 4020SOL     OW12958   6.384   3.483   4.832
 4020SOL    HW112959   6.417   3.448   4.919
 4020SOL    HW212960   6.457   3.478   4.764
 4021SOL     OW12961   3.392   3.989   5.339
 4021SOL    HW112962   3.393   3.889   5.339
 4021SOL    HW212963   3.423   4.023   5.428
 4022SOL     OW12964   3.875   6.650   0.189
 4022SOL    HW112965   3.806   6.664   0.260
 4022SOL    HW212966   3.953   6.711   0.204
 4023SOL     OW12967   6.904   0.779   5.638
 4023SOL    HW112968   6.880   0.841   5.712
 4023SOL    HW212969   6.989   0.809   5.595
 4024SOL     OW12970   2.134   5.192   4.815
 4024SOL    HW112971   2.096   5.163   4.902
 4024SOL    HW212972   2.112   5.125   4.744
 4025SOL     OW12973   0.821   6.237   4.303
 4025SOL    HW112974   0.899   6.295   4.278
 4025SOL    HW212975   0.763   6.286   4.368
 4026SOL     OW12976   6.162   6.199   4.368
 4026SOL    HW112977   6.190   6.263   4.440
 4026SOL    HW212978   6.063   6.203   4.356
 4027SOL     OW12979   2.836   1.763   6.983
 4027SOL    HW112980   2.822   1.822   6.903
 4027SOL    HW212981   2.844   1.819   0.035
 4028SOL     OW12982   4.144   1.583   3.498
 4028SOL    HW112983   4.220   1.540   3.449
 4028SOL    HW212984   4.143   1.681   3.477
 4029SOL     OW12985   2.440   4.094   5.982
 4029SOL    HW112986   2.449   4.053   5.891
 4029SOL    HW212987   2.403   4.026   6.045
 4030SOL     OW12988   7.004   1.052   1.227
 4030SOL    HW112989   0.069   1.042   1.199
 4030SOL    HW212990   6.957   0.964   1.216
 4031SOL     OW12991   5.236   6.490   3.277
 4031SOL    HW112992   5.272   6.407   3.233
 4031SOL    HW212993   5.310   6.537   3.325
 4032SOL     OW12994   0.231   7.011   1.950
 4032SOL    HW112995   0.251   6.944   2.022
 4032SOL    HW212996   0.146   0.029   1.971
 4033SOL     OW12997   1.685   2.264   2.409
 4033SOL    HW112998   1.771   2.274   2.360
 4033SOL    HW212999   1.611   2.305   2.355
 4034SOL     OW13000   5.705   1.794   5.470
 4034SOL    HW113001   5.748   1.882   5.491
 4034SOL    HW213002   5.727   1.768   5.376
 4035SOL     OW13003   6.490   0.811   1.623
 4035SOL    HW113004   6.471   0.834   1.719
 4035SOL    HW213005   6.411   0.835   1.567
 4036SOL     OW13006   4.098   5.043   2.468
 4036SOL    HW113007   4.001   5.021   2.474
 4036SOL    HW213008   4.118   5.122   2.527
 4037SOL     OW13009   2.003   1.626   6.411
 4037SOL    HW113010   1.943   1.652   6.336
 4037SOL    HW213011   2.027   1.529   6.403
 4038SOL     OW13012   4.643   2.893   0.363
 4038SOL    HW113013   4.550   2.856   0.368
 4038SOL    HW213014   4.661   2.926   0.270
 4039SOL     OW13015   4.643   5.914   2.186
 4039SOL    HW113016   4.649   5.967   2.270
 4039SOL    HW213017   4.599   5.826   2.206
 4040SOL     OW13018   2.630   6.773   4.801
 4040SOL    HW113019   2.719   6.759   4.757
 4040SOL    HW213020   2.634   6.743   4.896
 4041SOL     OW13021   1.782   5.600   1.164
 4041SOL    HW113022   1.851   5.531   1.141
 4041SOL    HW213023   1.824   5.672   1.219
 4042SOL     OW13024   5.876   6.212   4.363
 4042SOL    HW113025   5.881   6.140   4.294
 4042SOL    HW213026   5.781   6.227   4.389
 4043SOL     OW13027   0.111   2.178   6.554
 4043SOL    HW113028   0.114   2.092   6.604
 4043SOL    HW213029   0.069   2.163   6.464
 4044SOL     OW13030   5.403   5.858   3.246
 4044SOL    HW113031   5.324   5.918   3.262
 4044SOL    HW213032   5.403   5.828   3.151
 4045SOL     OW13033   4.450   6.460   5.968
 4045SOL    HW113034   4.430   6.378   5.914
 4045SOL    HW213035   4.442   6.437   6.066
 4046SOL     OW13036   0.723   1.986   2.841
 4046SOL    HW113037   0.798   1.995   2.776
 4046SOL    HW213038   0.678   1.898   2.827
 4047SOL     OW13039   2.680   2.356   6.827
 4047SOL    HW113040   2.585   2.371   6.801
 4047SOL    HW213041   2.741   2.400   6.761
 4048SOL     OW13042   5.823   1.470   1.492
 4048SOL    HW113043   5.731   1.447   1.460
 4048SOL    HW213044   5.861   1.543   1.436
 4049SOL     OW13045   5.284   5.409   6.319
 4049SOL    HW113046   5.204   5.468   6.331
 4049SOL    HW213047   5.276   5.359   6.233
 4050SOL     OW13048   0.831   6.273   1.866
 4050SOL    HW113049   0.834   6.345   1.935
 4050SOL    HW213050   0.901   6.292   1.797
 4051SOL     OW13051   4.352   1.616   6.326
 4051SOL    HW113052   4.320   1.710   6.331
 4051SOL    HW213053   4.363   1.579   6.418
 4052SOL     OW13054   5.704   1.988   3.414
 4052SOL    HW113055   5.674   2.058   3.478
 4052SOL    HW213056   5.706   2.026   3.321
 4053SOL     OW13057   2.612   6.064   4.777
 4053SOL    HW113058   2.688   6.040   4.837
 4053SOL    HW213059   2.561   5.982   4.752
 4054SOL     OW13060   5.067   4.091   0.896
 4054SOL    HW113061   5.131   4.128   0.829
 4054SOL    HW213062   5.042   4.162   0.961
 4055SOL     OW13063   2.506   4.154   0.794
 4055SOL    HW113064   2.495   4.102   0.709
 4055SOL    HW213065   2.560   4.101   0.859
 4056SOL     OW13066   5.507   4.254   1.046
 4056SOL    HW113067   5.521   4.351   1.068
 4056SOL    HW213068   5.466   4.208   1.124
 4057SOL     OW13069   0.112   2.593   0.575
 4057SOL    HW113070   0.069   2.506   0.600
 4057SOL    HW213071   0.072   2.627   0.490
 4058SOL     OW13072   3.310   6.689   5.001
 4058SOL    HW113073   3.354   6.775   5.025
 4058SOL    HW213074   3.216   6.706   4.973
 4059SOL     OW13075   0.585   1.703   2.585
 4059SOL    HW113076   0.634   1.630   2.633
 4059SOL    HW213077   0.599   1.693   2.487
 4060SOL     OW13078   5.871   4.997   5.624
 4060SOL    HW113079   5.876   5.066   5.552
 4060SOL    HW213080   5.778   4.995   5.662
 4061SOL     OW13081   2.559   5.071   2.189
 4061SOL    HW113082   2.605   5.158   2.173
 4061SOL    HW213083   2.485   5.084   2.255
 4062SOL     OW13084   2.237   0.613   1.935
 4062SOL    HW113085   2.274   0.526   1.904
 4062SOL    HW213086   2.307   0.684   1.928
 4063SOL     OW13087   6.038   6.852   0.258
 4063SOL    HW113088   6.027   6.900   0.171
 4063SOL    HW213089   6.125   6.879   0.300
 4064SOL     OW13090   2.412   0.906   4.368
 4064SOL    HW113091   2.334   0.935   4.312
 4064SOL    HW213092   2.393   0.925   4.464
 4065SOL     OW13093   1.457   6.764   1.669
 4065SOL    HW113094   1.447   6.832   1.742
 4065SOL    HW213095   1.503   6.806   1.591
 4066SOL     OW13096   6.201   4.311   2.948
 4066SOL    HW113097   6.273   4.242   2.956
 4066SOL    HW213098   6.182   4.350   3.038
 4067SOL     OW13099   6.362   3.472   2.966
 4067SOL    HW113100   6.353   3.384   2.919
 4067SOL    HW213101   6.274   3.518   2.969
 4068SOL     OW13102   1.982   1.661   4.570
 4068SOL    HW113103   2.013   1.721   4.643
 4068SOL    HW213104   1.948   1.715   4.494
 4069SOL     OW13105   3.793   5.404   6.858
 4069SOL    HW113106   3.800   5.319   6.912
 4069SOL    HW213107   3.826   5.387   6.766
 4070SOL     OW13108   0.231   2.517   2.973
 4070SOL    HW113109   0.294   2.553   3.042
 4070SOL    HW213110   0.262   2.427   2.943
 4071SOL     OW13111   1.048   1.359   5.013
 4071SOL    HW113112   0.988   1.346   5.092
 4071SOL    HW213113   1.131   1.408   5.042
 4072SOL     OW13114   0.919   5.493   4.351
 4072SOL    HW113115   1.007   5.454   4.379
 4072SOL    HW213116   0.921   5.592   4.361
 4073SOL     OW13117   3.029   5.990   6.685
 4073SOL    HW113118   3.067   6.082   6.670
 4073SOL    HW213119   2.953   5.975   6.622
 4074SOL     OW13120   0.475   4.838   1.137
 4074SOL    HW113121   0.377   4.822   1.145
 4074SOL    HW213122   0.525   4.768   1.187
 4075SOL     OW13123   4.697   1.748   1.500
 4075SOL    HW113124   4.708   1.651   1.477
 4075SOL    HW213125   4.666   1.798   1.420
 4076SOL     OW13126   2.518   3.298   6.571
 4076SOL    HW113127   2.488   3.282   6.665
 4076SOL    HW213128   2.493   3.391   6.543
 4077SOL     OW13129   3.437   1.576   0.104
 4077SOL    HW113130   3.339   1.579   0.123
 4077SOL    HW213131   3.488   1.595   0.188
 4078SOL     OW13132   1.630   5.352   2.024
 4078SOL    HW113133   1.693   5.399   1.962
 4078SOL    HW213134   1.569   5.293   1.971
 4079SOL     OW13135   2.203   0.716   3.591
 4079SOL    HW113136   2.164   0.623   3.591
 4079SOL    HW213137   2.288   0.715   3.537
 4080SOL     OW13138   4.774   3.115   6.102
 4080SOL    HW113139   4.758   3.081   6.195
 4080SOL    HW213140   4.763   3.214   6.101
 4081SOL     OW13141   1.810   2.606   4.049
 4081SOL    HW113142   1.900   2.580   4.017
 4081SOL    HW213143   1.806   2.705   4.062
 4082SOL     OW13144   1.085   4.214   0.075
 4082SOL    HW113145   0.990   4.219   0.104
 4082SOL    HW213146   1.142   4.188   0.153
 4083SOL     OW13147   6.824   3.300   2.726
 4083SOL    HW113148   6.920   3.311   2.700
 4083SOL    HW213149   6.770   3.376   2.688
 4084SOL     OW13150   5.490   2.628   4.125
 4084SOL    HW113151   5.466   2.680   4.208
 4084SOL    HW213152   5.580   2.657   4.093
 4085SOL     OW13153   3.390   5.595   1.751
 4085SOL    HW113154   3.463   5.663   1.743
 4085SOL    HW213155   3.354   5.595   1.844
 4086SOL     OW13156   1.762   6.031   1.787
 4086SOL    HW113157   1.664   6.047   1.795
 4086SOL    HW213158   1.792   6.057   1.695
 4087SOL     OW13159   2.687   2.129   3.719
 4087SOL    HW113160   2.621   2.109   3.648
 4087SOL    HW213161   2.710   2.227   3.717
 4088SOL     OW13162   0.261   1.870   0.543
 4088SOL    HW113163   0.257   1.850   0.641
 4088SOL    HW213164   0.268   1.784   0.491
 4089SOL     OW13165   5.952   6.320   3.965
 4089SOL    HW113166   5.873   6.379   3.980
 4089SOL    HW213167   5.928   6.247   3.901
 4090SOL     OW13168   0.977   4.231   6.233
 4090SOL    HW113169   0.948   4.177   6.154
 4090SOL    HW213170   0.968   4.176   6.316
 4091SOL     OW13171   6.821   6.131   0.114
 4091SOL    HW113172   6.850   6.123   0.209
 4091SOL    HW213173   6.796   6.040   0.079
 4092SOL     OW13174   6.646   2.721   5.212
 4092SOL    HW113175   6.555   2.726   5.254
 4092SOL    HW213176   6.661   2.801   5.154
 4093SOL     OW13177   4.708   0.506   2.707
 4093SOL    HW113178   4.743   0.491   2.799
 4093SOL    HW213179   4.656   0.426   2.678
 4094SOL     OW13180   2.565   5.912   4.210
 4094SOL    HW113181   2.627   5.913   4.289
 4094SOL    HW213182   2.620   5.912   4.126
 4095SOL     OW13183   0.340   3.604   6.805
 4095SOL    HW113184   0.341   3.598   6.905
 4095SOL    HW213185   0.400   3.679   6.776
 4096SOL     OW13186   4.764   6.234   6.525
 4096SOL    HW113187   4.745   6.137   6.538
 4096SOL    HW213188   4.852   6.245   6.479
 4097SOL     OW13189   3.286   4.868   5.942
 4097SOL    HW113190   3.206   4.813   5.966
 4097SOL    HW213191   3.267   4.965   5.960
 4098SOL     OW13192   0.791   3.091   1.703
 4098SOL    HW113193   0.692   3.100   1.696
 4098SOL    HW213194   0.815   3.056   1.793
 4099SOL     OW13195   2.448   4.855   1.190
 4099SOL    HW113196   2.381   4.819   1.124
 4099SOL    HW213197   2.474   4.782   1.254
 4100SOL     OW13198   6.891   5.286   4.853
 4100SOL    HW113199   6.899   5.199   4.901
 4100SOL    HW213200   6.848   5.354   4.913
 4101SOL     OW13201   5.898   1.507   0.455
 4101SOL    HW113202   5.908   1.428   0.515
 4101SOL    HW213203   5.853   1.480   0.371
 4102SOL     OW13204   6.530   0.546   0.856
 4102SOL    HW113205   6.625   0.514   0.864
 4102SOL    HW213206   6.491   0.513   0.770
 4103SOL     OW13207   0.280   0.628   0.653
 4103SOL    HW113208   0.212   0.617   0.581
 4103SOL    HW213209   0.252   0.701   0.715
 4104SOL     OW13210   0.808   4.858   2.454
 4104SOL    HW113211   0.852   4.891   2.537
 4104SOL    HW213212   0.871   4.870   2.376
 4105SOL     OW13213   4.001   6.421   2.021
 4105SOL    HW113214   4.004   6.413   1.921
 4105SOL    HW213215   4.093   6.442   2.055
 4106SOL     OW13216   6.639   2.340   4.089
 4106SOL    HW113217   6.673   2.367   3.999
 4106SOL    HW213218   6.714   2.307   4.145
 4107SOL     OW13219   1.587   6.076   1.223
 4107SOL    HW113220   1.686   6.090   1.230
 4107SOL    HW213221   1.568   5.983   1.193
 4108SOL     OW13222   6.588   4.179   5.503
 4108SOL    HW113223   6.682   4.189   5.469
 4108SOL    HW213224   6.528   4.240   5.453
 4109SOL     OW13225   5.297   6.429   5.110
 4109SOL    HW113226   5.301   6.362   5.036
 4109SOL    HW213227   5.387   6.470   5.122
 4110SOL     OW13228   4.629   3.504   6.540
 4110SOL    HW113229   4.705   3.547   6.589
 4110SOL    HW213230   4.546   3.560   6.553
 4111SOL     OW13231   3.648   3.608   6.784
 4111SOL    HW113232   3.714   3.536   6.763
 4111SOL    HW213233   3.657   3.683   6.718
 4112SOL     OW13234   5.150   0.263   5.448
 4112SOL    HW113235   5.146   0.332   5.520
 4112SOL    HW213236   5.071   0.273   5.387
 4113SOL     OW13237   4.834   6.666   4.380
 4113SOL    HW113238   4.906   6.733   4.398
 4113SOL    HW213239   4.791   6.685   4.292
 4114SOL     OW13240   3.248   2.199   4.591
 4114SOL    HW113241   3.229   2.125   4.526
 4114SOL    HW213242   3.184   2.274   4.575
 4115SOL     OW13243   4.009   5.065   2.206
 4115SOL    HW113244   4.063   5.027   2.282
 4115SOL    HW213245   3.931   5.005   2.188
 4116SOL     OW13246   3.783   2.166   1.731
 4116SOL    HW113247   3.873   2.209   1.732
 4116SOL    HW213248   3.716   2.227   1.773
 4117SOL     OW13249   0.900   4.949   2.054
 4117SOL    HW113250   0.838   4.880   2.017
 4117SOL    HW213251   0.874   4.971   2.148
 4118SOL     OW13252   2.813   6.703   7.004
 4118SOL    HW113253   2.792   6.705   0.072
 4118SOL    HW213254   2.791   6.612   6.968
 4119SOL     OW13255   3.774   1.952   3.782
 4119SOL    HW113256   3.847   1.992   3.726
 4119SOL    HW213257   3.807   1.867   3.822
 4120SOL     OW13258   4.032   0.134   0.480
 4120SOL    HW113259   4.047   0.221   0.433
 4120SOL    HW213260   4.080   0.061   0.431
 4121SOL     OW13261   6.167   1.024   5.053
 4121SOL    HW113262   6.085   0.966   5.053
 4121SOL    HW213263   6.152   1.101   5.114
 4122SOL     OW13264   0.937   5.540   5.199
 4122SOL    HW113265   0.846   5.516   5.165
 4122SOL    HW213266   1.007   5.507   5.136
 4123SOL     OW13267   4.234   4.728   5.784
 4123SOL    HW113268   4.175   4.799   5.744
 4123SOL    HW213269   4.232   4.647   5.726
 4124SOL     OW13270   5.916   4.979   6.073
 4124SOL    HW113271   5.944   4.943   6.162
 4124SOL    HW213272   5.843   5.046   6.086
 4125SOL     OW13273   4.629   1.579   2.537
 4125SOL    HW113274   4.631   1.600   2.635
 4125SOL    HW213275   4.537   1.555   2.509
 4126SOL     OW13276   1.752   3.530   3.367
 4126SOL    HW113277   1.795   3.609   3.323
 4126SOL    HW213278   1.660   3.517   3.330
 4127SOL     OW13279   4.560   4.756   4.710
 4127SOL    HW113280   4.636   4.716   4.761
 4127SOL    HW213281   4.518   4.828   4.764
 4128SOL     OW13282   1.419   3.226   2.160
 4128SOL    HW113283   1.517   3.219   2.141
 4128SOL    HW213284   1.400   3.315   2.202
 4129SOL     OW13285   4.769   2.075   6.810
 4129SOL    HW113286   4.737   1.994   6.761
 4129SOL    HW213287   4.851   2.052   6.863
 4130SOL     OW13288   6.668   2.841   5.525
 4130SOL    HW113289   6.756   2.863   5.569
 4130SOL    HW213290   6.678   2.758   5.471
 4131SOL     OW13291   1.756   6.568   3.686
 4131SOL    HW113292   1.775   6.479   3.729
 4131SOL    HW213293   1.663   6.567   3.648
 4132SOL     OW13294   5.097   4.162   3.727
 4132SOL    HW113295   5.111   4.125   3.635
 4132SOL    HW213296   5.000   4.183   3.740
 4133SOL     OW13297   3.120   6.998   1.634
 4133SOL    HW113298   3.105   6.940   1.714
 4133SOL    HW213299   3.119   0.065   1.662
 4134SOL     OW13300   2.240   2.474   0.484
 4134SOL    HW113301   2.141   2.477   0.476
 4134SOL    HW213302   2.271   2.379   0.490
 4135SOL     OW13303   1.663   1.417   2.976
 4135SOL    HW113304   1.660   1.457   3.067
 4135SOL    HW213305   1.733   1.345   2.973
 4136SOL     OW13306   1.387   2.377   3.160
 4136SOL    HW113307   1.358   2.288   3.197
 4136SOL    HW213308   1.309   2.425   3.122
 4137SOL     OW13309   1.474   4.660   0.854
 4137SOL    HW113310   1.451   4.648   0.757
 4137SOL    HW213311   1.478   4.571   0.899
 4138SOL     OW13312   3.575   4.940   3.018
 4138SOL    HW113313   3.476   4.931   3.016
 4138SOL    HW213314   3.607   4.943   3.113
 4139SOL     OW13315   2.564   2.347   4.796
 4139SOL    HW113316   2.471   2.361   4.764
 4139SOL    HW213317   2.624   2.330   4.718
 4140SOL     OW13318   3.097   0.622   5.480
 4140SOL    HW113319   3.157   0.640   5.558
 4140SOL    HW213320   3.005   0.598   5.513
 4141SOL     OW13321   5.647   6.705   1.329
 4141SOL    HW113322   5.679   6.712   1.235
 4141SOL    HW213323   5.548   6.716   1.332
 4142SOL     OW13324   6.261   5.474   0.464
 4142SOL    HW113325   6.267   5.464   0.563
 4142SOL    HW213326   6.237   5.387   0.422
 4143SOL     OW13327   0.415   2.843   0.501
 4143SOL    HW113328   0.436   2.757   0.548
 4143SOL    HW213329   0.348   2.826   0.429
 4144SOL     OW13330   4.647   3.878   6.578
 4144SOL    HW113331   4.612   3.954   6.633
 4144SOL    HW213332   4.704   3.819   6.636
 4145SOL     OW13333   6.828   5.718   1.093
 4145SOL    HW113334   6.750   5.699   1.152
 4145SOL    HW213335   6.805   5.693   0.999
 4146SOL     OW13336   6.664   1.305   5.407
 4146SOL    HW113337   6.760   1.321   5.431
 4146SOL    HW213338   6.660   1.243   5.328
 4147SOL     OW13339   4.659   3.080   5.805
 4147SOL    HW113340   4.596   3.157   5.792
 4147SOL    HW213341   4.712   3.066   5.721
 4148SOL     OW13342   0.820   0.179   4.492
 4148SOL    HW113343   0.831   0.277   4.473
 4148SOL    HW213344   0.842   0.161   4.588
 4149SOL     OW13345   0.254   2.322   0.707
 4149SOL    HW113346   0.207   2.234   0.698
 4149SOL    HW213347   0.257   2.367   0.618
 4150SOL     OW13348   0.268   1.009   5.073
 4150SOL    HW113349   0.359   1.024   5.033
 4150SOL    HW213350   0.262   0.914   5.105
 4151SOL     OW13351   3.844   6.478   6.008
 4151SOL    HW113352   3.872   6.542   6.079
 4151SOL    HW213353   3.755   6.505   5.972
 4152SOL     OW13354   3.108   6.179   1.208
 4152SOL    HW113355   3.018   6.137   1.195
 4152SOL    HW213356   3.167   6.156   1.131
 4153SOL     OW13357   4.321   4.739   6.877
 4153SOL    HW113358   4.318   4.730   6.977
 4153SOL    HW213359   4.249   4.683   6.837
 4154SOL     OW13360   0.337   4.606   4.679
 4154SOL    HW113361   0.360   4.544   4.754
 4154SOL    HW213362   0.312   4.695   4.715
 4155SOL     OW13363   6.848   1.634   2.768
 4155SOL    HW113364   6.783   1.578   2.820
 4155SOL    HW213365   6.848   1.605   2.673
 4156SOL     OW13366   4.901   6.546   4.831
 4156SOL    HW113367   4.866   6.484   4.761
 4156SOL    HW213368   4.901   6.639   4.797
 4157SOL     OW13369   4.183   6.695   4.157
 4157SOL    HW113370   4.185   6.671   4.254
 4157SOL    HW213371   4.272   6.735   4.131
 4158SOL     OW13372   1.602   5.216   3.359
 4158SOL    HW113373   1.675   5.148   3.352
 4158SOL    HW213374   1.596   5.250   3.452
 4159SOL     OW13375   2.126   2.982   3.787
 4159SOL    HW113376   2.054   2.957   3.852
 4159SOL    HW213377   2.208   2.927   3.806
 4160SOL     OW13378   6.406   0.697   1.057
 4160SOL    HW113379   6.440   0.651   0.975
 4160SOL    HW213380   6.345   0.772   1.030
 4161SOL     OW13381   1.032   0.517   6.470
 4161SOL    HW113382   1.038   0.528   6.569
 4161SOL    HW213383   1.077   0.595   6.425
 4162SOL     OW13384   6.340   6.215   5.653
 4162SOL    HW113385   6.364   6.180   5.743
 4162SOL    HW213386   6.411   6.190   5.587
 4163SOL     OW13387   6.493   0.241   3.355
 4163SOL    HW113388   6.536   0.165   3.404
 4163SOL    HW213389   6.500   0.225   3.257
 4164SOL     OW13390   1.102   6.611   6.390
 4164SOL    HW113391   1.107   6.690   6.451
 4164SOL    HW213392   1.167   6.621   6.315
 4165SOL     OW13393   4.539   0.292   6.862
 4165SOL    HW113394   4.461   0.257   6.811
 4165SOL    HW213395   4.522   0.280   6.960
 4166SOL     OW13396   5.957   3.974   1.005
 4166SOL    HW113397   5.928   3.879   1.016
 4166SOL    HW213398   5.882   4.034   1.032
 4167SOL     OW13399   1.407   4.383   0.969
 4167SOL    HW113400   1.344   4.400   1.045
 4167SOL    HW213401   1.479   4.321   0.999
 4168SOL     OW13402   0.008   4.826   1.323
 4168SOL    HW113403   0.016   4.922   1.351
 4168SOL    HW213404   0.099   4.790   1.300
 4169SOL     OW13405   5.873   3.488   3.977
 4169SOL    HW113406   5.826   3.479   4.065
 4169SOL    HW213407   5.854   3.408   3.920
 4170SOL     OW13408   2.941   3.644   4.918
 4170SOL    HW113409   2.935   3.551   4.955
 4170SOL    HW213410   2.943   3.709   4.994
 4171SOL     OW13411   4.932   4.818   1.280
 4171SOL    HW113412   4.851   4.866   1.314
 4171SOL    HW213413   4.996   4.884   1.241
 4172SOL     OW13414   0.241   1.612   6.106
 4172SOL    HW113415   0.333   1.627   6.070
 4172SOL    HW213416   0.185   1.565   6.039
 4173SOL     OW13417   5.280   3.454   5.383
 4173SOL    HW113418   5.286   3.546   5.344
 4173SOL    HW213419   5.259   3.389   5.310
 4174SOL     OW13420   5.302   0.393   4.034
 4174SOL    HW113421   5.297   0.326   4.109
 4174SOL    HW213422   5.335   0.349   3.951
 4175SOL     OW13423   2.056   5.826   4.838
 4175SOL    HW113424   1.989   5.890   4.875
 4175SOL    HW213425   2.124   5.876   4.784
 4176SOL     OW13426   2.833   6.525   2.042
 4176SOL    HW113427   2.856   6.453   1.976
 4176SOL    HW213428   2.917   6.557   2.086
 4177SOL     OW13429   6.769   4.349   4.244
 4177SOL    HW113430   6.746   4.437   4.204
 4177SOL    HW213431   6.687   4.307   4.284
 4178SOL     OW13432   4.461   1.283   3.821
 4178SOL    HW113433   4.501   1.294   3.913
 4178SOL    HW213434   4.372   1.238   3.829
 4179SOL     OW13435   5.368   2.387   3.605
 4179SOL    HW113436   5.302   2.385   3.680
 4179SOL    HW213437   5.364   2.475   3.559
 4180SOL     OW13438   5.775   3.270   1.682
 4180SOL    HW113439   5.774   3.207   1.761
 4180SOL    HW213440   5.764   3.364   1.714
 4181SOL     OW13441   1.776   2.295   6.210
 4181SOL    HW113442   1.864   2.331   6.179
 4181SOL    HW213443   1.723   2.264   6.131
 4182SOL     OW13444   6.855   6.322   2.801
 4182SOL    HW113445   6.863   6.416   2.767
 4182SOL    HW213446   6.897   6.259   2.735
 4183SOL     OW13447   4.716   0.670   0.760
 4183SOL    HW113448   4.678   0.599   0.702
 4183SOL    HW213449   4.775   0.730   0.705
 4184SOL     OW13450   4.709   4.966   1.341
 4184SOL    HW113451   4.636   5.030   1.362
 4184SOL    HW213452   4.685   4.913   1.259
 4185SOL     OW13453   0.866   6.117   2.570
 4185SOL    HW113454   0.876   6.055   2.648
 4185SOL    HW213455   0.780   6.097   2.522
 4186SOL     OW13456   1.716   4.841   1.279
 4186SOL    HW113457   1.673   4.918   1.326
 4186SOL    HW213458   1.650   4.766   1.270
 4187SOL     OW13459   3.644   4.242   6.085
 4187SOL    HW113460   3.609   4.150   6.097
 4187SOL    HW213461   3.598   4.304   6.149
 4188SOL     OW13462   4.851   0.046   3.980
 4188SOL    HW113463   4.772   7.028   3.941
 4188SOL    HW213464   4.852   0.033   4.079
 4189SOL     OW13465   3.261   1.094   4.986
 4189SOL    HW113466   3.210   1.063   5.066
 4189SOL    HW213467   3.348   1.046   4.980
 4190SOL     OW13468   1.385   0.289   6.792
 4190SOL    HW113469   1.304   0.319   6.843
 4190SOL    HW213470   1.370   0.196   6.758
 4191SOL     OW13471   5.810   3.665   3.092
 4191SOL    HW113472   5.842   3.713   3.010
 4191SOL    HW213473   5.812   3.566   3.075
 4192SOL     OW13474   6.756   0.812   3.527
 4192SOL    HW113475   6.799   0.871   3.459
 4192SOL    HW213476   6.812   0.811   3.610
 4193SOL     OW13477   2.598   6.994   1.986
 4193SOL    HW113478   2.603   6.941   2.070
 4193SOL    HW213479   2.661   6.955   1.918
 4194SOL     OW13480   6.346   1.437   5.394
 4194SOL    HW113481   6.433   1.413   5.438
 4194SOL    HW213482   6.359   1.517   5.336
 4195SOL     OW13483   3.098   0.653   1.317
 4195SOL    HW113484   3.016   0.703   1.345
 4195SOL    HW213485   3.174   0.717   1.307
 4196SOL     OW13486   6.010   2.017   3.855
 4196SOL    HW113487   5.929   2.005   3.797
 4196SOL    HW213488   5.997   1.969   3.941
 4197SOL     OW13489   4.469   4.954   5.275
 4197SOL    HW113490   4.430   4.866   5.249
 4197SOL    HW213491   4.405   5.003   5.335
 4198SOL     OW13492   5.807   3.225   6.463
 4198SOL    HW113493   5.832   3.268   6.376
 4198SOL    HW213494   5.708   3.229   6.475
 4199SOL     OW13495   1.902   3.476   6.212
 4199SOL    HW113496   1.823   3.467   6.151
 4199SOL    HW213497   1.983   3.437   6.167
 4200SOL     OW13498   3.416   6.560   5.201
 4200SOL    HW113499   3.510   6.555   5.168
 4200SOL    HW213500   3.362   6.618   5.140
 4201SOL     OW13501   5.598   6.014   3.874
 4201SOL    HW113502   5.503   6.003   3.847
 4201SOL    HW213503   5.615   5.965   3.959
 4202SOL     OW13504   4.293   5.718   5.615
 4202SOL    HW113505   4.378   5.743   5.662
 4202SOL    HW213506   4.217   5.771   5.652
 4203SOL     OW13507   4.452   5.637   2.165
 4203SOL    HW113508   4.415   5.578   2.093
 4203SOL    HW213509   4.391   5.636   2.244
 4204SOL     OW13510   3.776   3.243   2.003
 4204SOL    HW113511   3.814   3.150   1.996
 4204SOL    HW213512   3.684   3.238   2.043
 4205SOL     OW13513   3.815   5.288   4.492
 4205SOL    HW113514   3.768   5.369   4.527
 4205SOL    HW213515   3.907   5.313   4.461
 4206SOL     OW13516   5.901   0.936   5.453
 4206SOL    HW113517   5.882   0.990   5.371
 4206SOL    HW213518   5.996   0.904   5.450
 4207SOL     OW13519   2.442   1.924   1.001
 4207SOL    HW113520   2.402   1.855   1.063
 4207SOL    HW213521   2.384   2.006   1.002
 4208SOL     OW13522   0.887   2.163   6.742
 4208SOL    HW113523   0.816   2.176   6.810
 4208SOL    HW213524   0.873   2.227   6.666
 4209SOL     OW13525   1.118   1.304   4.656
 4209SOL    HW113526   1.127   1.231   4.725
 4209SOL    HW213527   1.065   1.379   4.695
 4210SOL     OW13528   2.803   3.190   1.826
 4210SOL    HW113529   2.879   3.164   1.886
 4210SOL    HW213530   2.805   3.289   1.811
 4211SOL     OW13531   4.474   6.159   5.404
 4211SOL    HW113532   4.468   6.256   5.379
 4211SOL    HW213533   4.432   6.104   5.332
 4212SOL     OW13534   6.109   1.878   2.203
 4212SOL    HW113535   6.045   1.841   2.270
 4212SOL    HW213536   6.123   1.976   2.221
 4213SOL     OW13537   2.139   1.462   2.974
 4213SOL    HW113538   2.232   1.490   2.949
 4213SOL    HW213539   2.112   1.382   2.921
 4214SOL     OW13540   0.178   4.043   5.515
 4214SOL    HW113541   0.080   4.032   5.495
 4214SOL    HW213542   0.197   4.008   5.607
 4215SOL     OW13543   6.730   5.652   4.491
 4215SOL    HW113544   6.825   5.684   4.480
 4215SOL    HW213545   6.701   5.604   4.409
 4216SOL     OW13546   1.319   1.879   2.664
 4216SOL    HW113547   1.308   1.805   2.730
 4216SOL    HW213548   1.240   1.881   2.602
 4217SOL     OW13549   6.026   0.054   2.867
 4217SOL    HW113550   6.084   0.106   2.931
 4217SOL    HW213551   6.050   6.987   2.872
 4218SOL     OW13552   5.095   0.053   1.273
 4218SOL    HW113553   5.076   0.017   1.182
 4218SOL    HW213554   5.038   0.133   1.289
 4219SOL     OW13555   2.729   5.468   4.988
 4219SOL    HW113556   2.738   5.461   5.088
 4219SOL    HW213557   2.800   5.412   4.945
 4220SOL     OW13558   6.368   2.581   3.619
 4220SOL    HW113559   6.430   2.659   3.619
 4220SOL    HW213560   6.415   2.501   3.582
 4221SOL     OW13561   6.395   5.678   6.635
 4221SOL    HW113562   6.343   5.687   6.721
 4221SOL    HW213563   6.347   5.617   6.573
 4222SOL     OW13564   5.959   2.253   2.203
 4222SOL    HW113565   6.046   2.216   2.236
 4222SOL    HW213566   5.964   2.266   2.104
 4223SOL     OW13567   3.077   3.114   4.463
 4223SOL    HW113568   3.158   3.172   4.453
 4223SOL    HW213569   3.079   3.069   4.552
 4224SOL     OW13570   4.844   3.095   3.721
 4224SOL    HW113571   4.803   3.004   3.734
 4224SOL    HW213572   4.804   3.159   3.785
 4225SOL     OW13573   5.042   0.625   5.305
 4225SOL    HW113574   5.133   0.661   5.326
 4225SOL    HW213575   5.002   0.585   5.387
 4226SOL     OW13576   1.829   0.423   3.247
 4226SOL    HW113577   1.831   0.350   3.316
 4226SOL    HW213578   1.765   0.494   3.274
 4227SOL     OW13579   3.567   4.797   6.672
 4227SOL    HW113580   3.564   4.895   6.690
 4227SOL    HW213581   3.498   4.750   6.727
 4228SOL     OW13582   6.320   4.638   3.145
 4228SOL    HW113583   6.396   4.599   3.093
 4228SOL    HW213584   6.312   4.591   3.233
 4229SOL     OW13585   3.912   4.627   6.123
 4229SOL    HW113586   3.893   4.598   6.217
 4229SOL    HW213587   4.010   4.625   6.107
 4230SOL     OW13588   2.813   0.540   4.403
 4230SOL    HW113589   2.756   0.615   4.438
 4230SOL    HW213590   2.762   0.454   4.410
 4231SOL     OW13591   5.252   6.784   4.700
 4231SOL    HW113592   5.280   6.808   4.793
 4231SOL    HW213593   5.217   6.690   4.700
 4232SOL     OW13594   0.471   5.222   1.446
 4232SOL    HW113595   0.519   5.306   1.474
 4232SOL    HW213596   0.529   5.171   1.383
 4233SOL     OW13597   6.851   0.467   6.907
 4233SOL    HW113598   6.928   0.430   6.854
 4233SOL    HW213599   6.780   0.497   6.844
 4234SOL     OW13600   1.422   0.036   5.623
 4234SOL    HW113601   1.412   6.975   5.664
 4234SOL    HW213602   1.361   0.100   5.671
 4235SOL     OW13603   6.195   3.938   5.282
 4235SOL    HW113604   6.199   3.881   5.200
 4235SOL    HW213605   6.257   3.901   5.351
 4236SOL     OW13606   0.031   3.185   3.281
 4236SOL    HW113607   0.087   3.204   3.201
 4236SOL    HW213608   6.976   3.238   3.275
 4237SOL     OW13609   6.172   4.757   4.216
 4237SOL    HW113610   6.129   4.831   4.267
 4237SOL    HW213611   6.272   4.762   4.227
 4238SOL     OW13612   4.301   4.676   4.112
 4238SOL    HW113613   4.348   4.612   4.173
 4238SOL    HW213614   4.369   4.732   4.064
 4239SOL     OW13615   5.598   0.073   4.155
 4239SOL    HW113616   5.594   0.172   4.151
 4239SOL    HW213617   5.657   0.045   4.232
 4240SOL     OW13618   2.174   6.291   6.504
 4240SOL    HW113619   2.156   6.292   6.406
 4240SOL    HW213620   2.210   6.202   6.531
 4241SOL     OW13621   5.791   0.328   1.072
 4241SOL    HW113622   5.716   0.267   1.048
 4241SOL    HW213623   5.808   0.322   1.171
 4242SOL     OW13624   2.051   6.764   3.288
 4242SOL    HW113625   1.963   6.750   3.335
 4242SOL    HW213626   2.111   6.686   3.306
 4243SOL     OW13627   1.066   3.791   2.891
 4243SOL    HW113628   0.981   3.741   2.908
 4243SOL    HW213629   1.134   3.729   2.852
 4244SOL     OW13630   4.516   5.734   0.958
 4244SOL    HW113631   4.591   5.768   0.900
 4244SOL    HW213632   4.553   5.669   1.025
 4245SOL     OW13633   7.025   2.249   0.111
 4245SOL    HW113634   0.003   2.180   0.039
 4245SOL    HW213635   6.931   2.252   0.144
 4246SOL     OW13636   5.447   3.226   3.233
 4246SOL    HW113637   5.368   3.178   3.195
 4246SOL    HW213638   5.438   3.233   3.332
 4247SOL     OW13639   2.037   5.019   4.398
 4247SOL    HW113640   2.135   5.010   4.416
 4247SOL    HW213641   1.993   5.067   4.474
 4248SOL     OW13642   1.643   0.992   3.459
 4248SOL    HW113643   1.619   0.998   3.362
 4248SOL    HW213644   1.588   1.057   3.511
 4249SOL     OW13645   6.564   1.901   3.208
 4249SOL    HW113646   6.489   1.909   3.274
 4249SOL    HW213647   6.555   1.972   3.138
 4250SOL     OW13648   0.264   6.281   4.097
 4250SOL    HW113649   0.332   6.350   4.118
 4250SOL    HW213650   0.294   6.227   4.019
 4251SOL     OW13651   6.003   2.700   6.947
 4251SOL    HW113652   5.964   2.741   7.029
 4251SOL    HW213653   6.070   2.631   6.973
 4252SOL     OW13654   5.977   5.874   6.122
 4252SOL    HW113655   6.038   5.851   6.198
 4252SOL    HW213656   5.889   5.907   6.158
 4253SOL     OW13657   3.837   6.370   2.412
 4253SOL    HW113658   3.855   6.304   2.484
 4253SOL    HW213659   3.764   6.335   2.352
 4254SOL     OW13660   2.305   4.687   1.760
 4254SOL    HW113661   2.299   4.787   1.763
 4254SOL    HW213662   2.380   4.657   1.819
 4255SOL     OW13663   0.072   3.287   4.262
 4255SOL    HW113664   0.170   3.304   4.249
 4255SOL    HW213665   0.020   3.363   4.224
 4256SOL     OW13666   1.048   5.637   1.992
 4256SOL    HW113667   1.112   5.568   2.024
 4256SOL    HW213668   1.098   5.711   1.947
 4257SOL     OW13669   6.355   0.690   4.895
 4257SOL    HW113670   6.323   0.768   4.842
 4257SOL    HW213671   6.295   0.677   4.974
 4258SOL     OW13672   3.651   5.826   1.181
 4258SOL    HW113673   3.604   5.776   1.254
 4258SOL    HW213674   3.613   5.918   1.173
 4259SOL     OW13675   1.918   6.546   1.298
 4259SOL    HW113676   1.986   6.502   1.238
 4259SOL    HW213677   1.907   6.642   1.270
 4260SOL     OW13678   5.053   6.967   3.832
 4260SOL    HW113679   4.975   6.989   3.892
 4260SOL    HW213680   5.123   0.007   3.842
 4261SOL     OW13681   2.031   0.159   3.534
 4261SOL    HW113682   2.028   0.135   3.631
 4261SOL    HW213683   1.941   0.189   3.504
 4262SOL     OW13684   1.640   4.536   5.429
 4262SOL    HW113685   1.712   4.477   5.466
 4262SOL    HW213686   1.566   4.480   5.393
 4263SOL     OW13687   3.052   1.132   3.651
 4263SOL    HW113688   3.028   1.229   3.647
 4263SOL    HW213689   3.005   1.089   3.728
 4264SOL     OW13690   5.863   1.316   4.311
 4264SOL    HW113691   5.937   1.357   4.365
 4264SOL    HW213692   5.854   1.363   4.224
 4265SOL     OW13693   3.520   0.778   0.970
 4265SOL    HW113694   3.522   0.707   1.040
 4265SOL    HW213695   3.465   0.855   1.002
 4266SOL     OW13696   1.481   7.029   0.136
 4266SOL    HW113697   1.519   6.998   0.224
 4266SOL    HW213698   1.381   7.020   0.138
 4267SOL     OW13699   1.983   4.017   3.990
 4267SOL    HW113700   1.950   3.924   3.970
 4267SOL    HW213701   2.075   4.029   3.953
 4268SOL     OW13702   1.885   5.381   6.889
 4268SOL    HW113703   1.931   5.349   6.806
 4268SOL    HW213704   1.923   5.469   6.916
 4269SOL     OW13705   3.329   1.553   3.974
 4269SOL    HW113706   3.414   1.603   3.958
 4269SOL    HW213707   3.260   1.583   3.908
 4270SOL     OW13708   3.536   3.006   1.579
 4270SOL    HW113709   3.505   3.066   1.505
 4270SOL    HW213710   3.615   3.046   1.624
 4271SOL     OW13711   6.715   0.938   0.235
 4271SOL    HW113712   6.810   0.912   0.220
 4271SOL    HW213713   6.698   0.951   0.333
 4272SOL     OW13714   6.837   3.267   5.011
 4272SOL    HW113715   6.919   3.232   5.056
 4272SOL    HW213716   6.762   3.269   5.077
 4273SOL     OW13717   5.301   5.958   4.924
 4273SOL    HW113718   5.371   5.906   4.973
 4273SOL    HW213719   5.232   5.990   4.989
 4274SOL     OW13720   0.922   0.074   1.591
 4274SOL    HW113721   0.857   0.046   1.522
 4274SOL    HW213722   1.011   0.031   1.573
 4275SOL     OW13723   0.484   1.962   4.548
 4275SOL    HW113724   0.560   2.025   4.564
 4275SOL    HW213725   0.402   1.997   4.594
 4276SOL     OW13726   2.848   5.264   3.520
 4276SOL    HW113727   2.870   5.289   3.426
 4276SOL    HW213728   2.790   5.182   3.520
 4277SOL     OW13729   6.620   4.361   3.329
 4277SOL    HW113730   6.530   4.354   3.372
 4277SOL    HW213731   6.672   4.434   3.373
 4278SOL     OW13732   7.021   6.813   3.582
 4278SOL    HW113733   0.061   6.839   3.515
 4278SOL    HW213734   0.035   6.787   3.667
 4279SOL     OW13735   1.445   0.816   2.327
 4279SOL    HW113736   1.350   0.794   2.346
 4279SOL    HW213737   1.455   0.842   2.231
 4280SOL     OW13738   6.268   6.482   5.678
 4280SOL    HW113739   6.244   6.530   5.594
 4280SOL    HW213740   6.240   6.387   5.671
 4281SOL     OW13741   5.156   4.860   4.154
 4281SOL    HW113742   5.074   4.915   4.137
 4281SOL    HW213743   5.233   4.898   4.103
 4282SOL     OW13744   3.297   4.739   1.016
 4282SOL    HW113745   3.309   4.705   1.110
 4282SOL    HW213746   3.278   4.837   1.019
 4283SOL     OW13747   4.687   1.349   3.306
 4283SOL    HW113748   4.634   1.273   3.269
 4283SOL    HW213749   4.716   1.329   3.399
 4284SOL     OW13750   4.296   5.750   6.929
 4284SOL    HW113751   4.241   5.671   6.957
 4284SOL    HW213752   4.240   5.832   6.930
 4285SOL     OW13753   2.485   1.060   5.976
 4285SOL    HW113754   2.435   0.979   6.006
 4285SOL    HW213755   2.422   1.139   5.974
 4286SOL     OW13756   6.777   0.429   6.391
 4286SOL    HW113757   6.694   0.441   6.337
 4286SOL    HW213758   6.794   0.332   6.404
 4287SOL     OW13759   5.001   1.481   6.101
 4287SOL    HW113760   5.082   1.527   6.136
 4287SOL    HW213761   4.969   1.413   6.167
 4288SOL     OW13762   0.182   5.910   2.744
 4288SOL    HW113763   0.241   5.990   2.730
 4288SOL    HW213764   0.087   5.939   2.748
 4289SOL     OW13765   1.527   2.345   5.731
 4289SOL    HW113766   1.506   2.353   5.829
 4289SOL    HW213767   1.605   2.402   5.708
 4290SOL     OW13768   0.449   6.302   4.581
 4290SOL    HW113769   0.452   6.327   4.678
 4290SOL    HW213770   0.410   6.210   4.572
 4291SOL     OW13771   5.170   3.280   6.598
 4291SOL    HW113772   5.101   3.208   6.604
 4291SOL    HW213773   5.162   3.327   6.510
 4292SOL     OW13774   6.195   3.289   0.160
 4292SOL    HW113775   6.161   3.313   0.251
 4292SOL    HW213776   6.129   3.319   0.091
 4293SOL     OW13777   4.046   3.952   6.753
 4293SOL    HW113778   3.985   4.011   6.700
 4293SOL    HW213779   3.991   3.894   6.815
 4294SOL     OW13780   2.021   2.189   6.037
 4294SOL    HW113781   2.071   2.102   6.033
 4294SOL    HW213782   1.939   2.182   5.979
 4295SOL     OW13783   4.234   6.577   2.850
 4295SOL    HW113784   4.186   6.642   2.909
 4295SOL    HW213785   4.177   6.555   2.771
 4296SOL     OW13786   3.139   0.208   0.891
 4296SOL    HW113787   3.050   0.231   0.929
 4296SOL    HW213788   3.133   0.120   0.844
 4297SOL     OW13789   6.449   6.396   1.861
 4297SOL    HW113790   6.460   6.456   1.941
 4297SOL    HW213791   6.361   6.349   1.867
 4298SOL     OW13792   3.674   6.406   1.852
 4298SOL    HW113793   3.633   6.449   1.933
 4298SOL    HW213794   3.723   6.324   1.879
 4299SOL     OW13795   0.634   3.287   0.331
 4299SOL    HW113796   0.636   3.191   0.360
 4299SOL    HW213797   0.564   3.336   0.383
 4300SOL     OW13798   2.897   0.551   0.667
 4300SOL    HW113799   2.949   0.633   0.689
 4300SOL    HW213800   2.958   0.472   0.666
 4301SOL     OW13801   3.423   0.168   1.496
 4301SOL    HW113802   3.520   0.168   1.474
 4301SOL    HW213803   3.408   0.121   1.583
 4302SOL     OW13804   6.333   0.321   6.925
 4302SOL    HW113805   6.331   0.256   7.001
 4302SOL    HW213806   6.249   0.374   6.924
 4303SOL     OW13807   0.030   4.598   3.449
 4303SOL    HW113808   0.068   4.512   3.415
 4303SOL    HW213809   0.044   4.670   3.382
 4304SOL     OW13810   3.836   4.055   1.879
 4304SOL    HW113811   3.908   3.986   1.891
 4304SOL    HW213812   3.772   4.050   1.955
 4305SOL     OW13813   0.733   6.541   4.738
 4305SOL    HW113814   0.752   6.463   4.798
 4305SOL    HW213815   0.647   6.584   4.767
 4306SOL     OW13816   4.968   4.663   5.013
 4306SOL    HW113817   4.971   4.645   4.915
 4306SOL    HW213818   4.873   4.677   5.042
 4307SOL     OW13819   5.726   3.045   5.739
 4307SOL    HW113820   5.643   3.011   5.695
 4307SOL    HW213821   5.702   3.093   5.823
 4308SOL     OW13822   5.763   5.154   1.874
 4308SOL    HW113823   5.795   5.062   1.895
 4308SOL    HW213824   5.795   5.181   1.783
 4309SOL     OW13825   0.898   3.301   0.309
 4309SOL    HW113826   0.929   3.392   0.334
 4309SOL    HW213827   0.804   3.287   0.342
 4310SOL     OW13828   1.208   2.692   2.147
 4310SOL    HW113829   1.191   2.771   2.088
 4310SOL    HW213830   1.294   2.648   2.120
 4311SOL     OW13831   1.002   6.658   2.155
 4311SOL    HW113832   1.081   6.653   2.093
 4311SOL    HW213833   1.008   6.742   2.209
 4312SOL     OW13834   1.326   5.527   2.718
 4312SOL    HW113835   1.382   5.528   2.800
 4312SOL    HW213836   1.334   5.614   2.671
 4313SOL     OW13837   3.528   2.322   0.196
 4313SOL    HW113838   3.615   2.275   0.178
 4313SOL    HW213839   3.510   2.388   0.123
 4314SOL     OW13840   6.320   1.811   5.494
 4314SOL    HW113841   6.225   1.783   5.511
 4314SOL    HW213842   6.342   1.889   5.552
 4315SOL     OW13843   1.986   1.635   4.084
 4315SOL    HW113844   1.951   1.727   4.105
 4315SOL    HW213845   2.085   1.637   4.080
 4316SOL     OW13846   4.860   6.691   2.902
 4316SOL    HW113847   4.761   6.680   2.907
 4316SOL    HW213848   4.883   6.789   2.906
 4317SOL     OW13849   4.339   0.581   5.385
 4317SOL    HW113850   4.422   0.619   5.344
 4317SOL    HW213851   4.287   0.653   5.430
 4318SOL     OW13852   0.609   0.722   4.370
 4318SOL    HW113853   0.683   0.663   4.338
 4318SOL    HW213854   0.539   0.666   4.415
 4319SOL     OW13855   1.871   2.342   1.210
 4319SOL    HW113856   1.785   2.293   1.195
 4319SOL    HW213857   1.926   2.339   1.126
 4320SOL     OW13858   4.088   6.080   1.112
 4320SOL    HW113859   3.994   6.102   1.087
 4320SOL    HW213860   4.146   6.083   1.031
 4321SOL     OW13861   6.834   4.891   3.272
 4321SOL    HW113862   6.780   4.822   3.222
 4321SOL    HW213863   6.905   4.927   3.211
 4322SOL     OW13864   6.856   3.441   5.383
 4322SOL    HW113865   6.953   3.452   5.407
 4322SOL    HW213866   6.804   3.519   5.417
 4323SOL     OW13867   4.112   5.538   6.936
 4323SOL    HW113868   4.121   5.444   6.902
 4323SOL    HW213869   4.016   5.555   6.958
 4324SOL     OW13870   6.701   3.675   5.509
 4324SOL    HW113871   6.638   3.647   5.582
 4324SOL    HW213872   6.723   3.772   5.520
 4325SOL     OW13873   2.866   2.029   2.317
 4325SOL    HW113874   2.832   1.991   2.403
 4325SOL    HW213875   2.796   2.020   2.246
 4326SOL     OW13876   5.850   3.189   2.740
 4326SOL    HW113877   5.887   3.251   2.808
 4326SOL    HW213878   5.924   3.134   2.701
 4327SOL     OW13879   3.962   5.279   3.147
 4327SOL    HW113880   3.888   5.306   3.208
 4327SOL    HW213881   3.925   5.225   3.071
 4328SOL     OW13882   6.343   4.267   4.663
 4328SOL    HW113883   6.278   4.299   4.594
 4328SOL    HW213884   6.374   4.175   4.639
 4329SOL     OW13885   6.247   3.423   5.489
 4329SOL    HW113886   6.291   3.453   5.404
 4329SOL    HW213887   6.184   3.348   5.470
 4330SOL     OW13888   2.253   6.362   4.545
 4330SOL    HW113889   2.263   6.459   4.522
 4330SOL    HW213890   2.204   6.315   4.471
 4331SOL     OW13891   0.143   0.341   1.278
 4331SOL    HW113892   0.050   0.368   1.301
 4331SOL    HW213893   0.202   0.423   1.277
 4332SOL     OW13894   6.013   3.524   2.695
 4332SOL    HW113895   5.982   3.607   2.741
 4332SOL    HW213896   5.988   3.528   2.598
 4333SOL     OW13897   4.197   1.832   5.033
 4333SOL    HW113898   4.242   1.852   5.120
 4333SOL    HW213899   4.250   1.762   4.985
 4334SOL     OW13900   1.425   2.891   2.766
 4334SOL    HW113901   1.459   2.939   2.847
 4334SOL    HW213902   1.469   2.927   2.684
 4335SOL     OW13903   3.622   3.008   1.093
 4335SOL    HW113904   3.584   2.930   1.142
 4335SOL    HW213905   3.720   3.015   1.111
 4336SOL     OW13906   1.913   4.837   5.058
 4336SOL    HW113907   1.993   4.780   5.079
 4336SOL    HW213908   1.831   4.792   5.092
 4337SOL     OW13909   1.505   5.813   1.897
 4337SOL    HW113910   1.574   5.761   1.846
 4337SOL    HW213911   1.497   5.905   1.858
 4338SOL     OW13912   6.048   0.261   6.262
 4338SOL    HW113913   5.962   0.300   6.296
 4338SOL    HW213914   6.030   0.208   6.178
 4339SOL     OW13915   3.437   2.507   6.157
 4339SOL    HW113916   3.422   2.451   6.075
 4339SOL    HW213917   3.532   2.540   6.158
 4340SOL     OW13918   5.731   2.716   1.006
 4340SOL    HW113919   5.677   2.794   0.974
 4340SOL    HW213920   5.746   2.724   1.104
 4341SOL     OW13921   1.382   5.250   1.875
 4341SOL    HW113922   1.337   5.196   1.804
 4341SOL    HW213923   1.371   5.205   1.964
 4342SOL     OW13924   4.930   3.693   3.211
 4342SOL    HW113925   5.020   3.729   3.233
 4342SOL    HW213926   4.860   3.760   3.238
 4343SOL     OW13927   3.416   6.709   6.264
 4343SOL    HW113928   3.494   6.646   6.273
 4343SOL    HW213929   3.424   6.781   6.333
 4344SOL     OW13930   0.319   3.092   3.357
 4344SOL    HW113931   0.232   3.061   3.320
 4344SOL    HW213932   0.335   3.187   3.330
 4345SOL     OW13933   2.992   3.255   3.071
 4345SOL    HW113934   3.037   3.176   3.112
 4345SOL    HW213935   2.924   3.291   3.134
 4346SOL     OW13936   2.037   2.759   2.247
 4346SOL    HW113937   2.075   2.823   2.181
 4346SOL    HW213938   2.099   2.750   2.325
 4347SOL     OW13939   6.299   6.002   2.261
 4347SOL    HW113940   6.345   5.913   2.256
 4347SOL    HW213941   6.201   5.989   2.245
 4348SOL     OW13942   0.216   5.640   4.351
 4348SOL    HW113943   0.205   5.680   4.260
 4348SOL    HW213944   0.293   5.684   4.398
 4349SOL     OW13945   6.842   3.203   3.754
 4349SOL    HW113946   6.911   3.271   3.778
 4349SOL    HW213947   6.769   3.247   3.702
 4350SOL     OW13948   5.039   1.830   4.828
 4350SOL    HW113949   5.096   1.816   4.747
 4350SOL    HW213950   5.084   1.896   4.889
 4351SOL     OW13951   1.807   6.217   1.288
 4351SOL    HW113952   1.872   6.207   1.212
 4351SOL    HW213953   1.768   6.309   1.286
 4352SOL     OW13954   5.440   3.479   1.680
 4352SOL    HW113955   5.352   3.464   1.634
 4352SOL    HW213956   5.430   3.548   1.751
 4353SOL     OW13957   2.901   3.617   6.815
 4353SOL    HW113958   2.805   3.613   6.786
 4353SOL    HW213959   2.955   3.663   6.745
 4354SOL     OW13960   0.580   1.083   5.820
 4354SOL    HW113961   0.555   1.169   5.862
 4354SOL    HW213962   0.676   1.085   5.794
 4355SOL     OW13963   1.187   6.717   3.218
 4355SOL    HW113964   1.115   6.758   3.273
 4355SOL    HW213965   1.211   6.778   3.143
 4356SOL     OW13966   4.165   3.467   5.824
 4356SOL    HW113967   4.097   3.412   5.872
 4356SOL    HW213968   4.185   3.426   5.735
 4357SOL     OW13969   0.164   1.728   1.483
 4357SOL    HW113970   0.104   1.726   1.563
 4357SOL    HW213971   0.125   1.787   1.412
 4358SOL     OW13972   0.398   0.599   0.015
 4358SOL    HW113973   0.429   0.505   0.026
 4358SOL    HW213974   0.298   0.601   0.011
 4359SOL     OW13975   1.846   0.330   6.559
 4359SOL    HW113976   1.893   0.340   6.471
 4359SOL    HW213977   1.766   0.271   6.548
 4360SOL     OW13978   0.992   2.069   4.184
 4360SOL    HW113979   1.091   2.078   4.174
 4360SOL    HW213980   0.966   1.972   4.174
 4361SOL     OW13981   2.204   2.800   1.287
 4361SOL    HW113982   2.208   2.900   1.290
 4361SOL    HW213983   2.213   2.769   1.192
 4362SOL     OW13984   0.781   5.950   4.363
 4362SOL    HW113985   0.770   6.049   4.359
 4362SOL    HW213986   0.695   5.908   4.392
 4363SOL     OW13987   3.997   1.195   1.833
 4363SOL    HW113988   4.030   1.259   1.762
 4363SOL    HW213989   3.919   1.235   1.880
 4364SOL     OW13990   3.279   3.679   2.595
 4364SOL    HW113991   3.302   3.582   2.604
 4364SOL    HW213992   3.331   3.732   2.661
 4365SOL     OW13993   3.103   1.552   1.997
 4365SOL    HW113994   3.108   1.564   1.898
 4365SOL    HW213995   3.033   1.613   2.035
 4366SOL     OW13996   6.518   6.032   6.110
 4366SOL    HW113997   6.565   6.116   6.137
 4366SOL    HW213998   6.453   6.005   6.182
 4367SOL     OW13999   3.144   5.072   2.851
 4367SOL    HW114000   3.224   5.099   2.797
 4367SOL    HW214001   3.112   4.982   2.822
 4368SOL     OW14002   4.172   5.805   3.001
 4368SOL    HW114003   4.219   5.720   3.027
 4368SOL    HW214004   4.133   5.847   3.083
 4369SOL     OW14005   4.765   5.382   3.269
 4369SOL    HW114006   4.862   5.384   3.244
 4369SOL    HW214007   4.715   5.448   3.213
 4370SOL     OW14008   3.744   3.753   1.640
 4370SOL    HW114009   3.751   3.664   1.685
 4370SOL    HW214010   3.835   3.792   1.630
 4371SOL     OW14011   2.201   1.323   2.219
 4371SOL    HW114012   2.207   1.264   2.299
 4371SOL    HW214013   2.271   1.395   2.225
 4372SOL     OW14014   1.914   3.492   3.922
 4372SOL    HW114015   1.893   3.444   4.007
 4372SOL    HW214016   1.951   3.427   3.855
 4373SOL     OW14017   4.162   1.171   6.317
 4373SOL    HW114018   4.243   1.126   6.279
 4373SOL    HW214019   4.187   1.219   6.402
 4374SOL     OW14020   2.049   1.957   1.487
 4374SOL    HW114021   1.974   1.936   1.424
 4374SOL    HW214022   2.027   2.040   1.538
 4375SOL     OW14023   4.200   6.443   3.327
 4375SOL    HW114024   4.294   6.475   3.324
 4375SOL    HW214025   4.139   6.516   3.298
 4376SOL     OW14026   6.440   0.449   1.731
 4376SOL    HW114027   6.489   0.381   1.676
 4376SOL    HW214028   6.352   0.469   1.689
 4377SOL     OW14029   6.143   5.401   7.022
 4377SOL    HW114030   6.230   5.449   7.016
 4377SOL    HW214031   6.112   5.399   0.087
 4378SOL     OW14032   1.140   4.704   2.349
 4378SOL    HW114033   1.217   4.768   2.346
 4378SOL    HW214034   1.125   4.666   2.258
 4379SOL     OW14035   2.267   0.887   2.378
 4379SOL    HW114036   2.176   0.847   2.364
 4379SOL    HW214037   2.310   0.906   2.290
 4380SOL     OW14038   2.220   5.661   5.121
 4380SOL    HW114039   2.308   5.612   5.126
 4380SOL    HW214040   2.145   5.596   5.134
 4381SOL     OW14041   2.616   4.728   4.673
 4381SOL    HW114042   2.635   4.706   4.769
 4381SOL    HW214043   2.522   4.758   4.663
 4382SOL     OW14044   5.392   4.208   5.278
 4382SOL    HW114045   5.477   4.156   5.269
 4382SOL    HW214046   5.371   4.221   5.375
 4383SOL     OW14047   0.905   1.692   5.451
 4383SOL    HW114048   0.863   1.765   5.397
 4383SOL    HW214049   0.980   1.652   5.399
 4384SOL     OW14050   5.122   0.818   6.651
 4384SOL    HW114051   5.206   0.763   6.655
 4384SOL    HW214052   5.062   0.783   6.579
 4385SOL     OW14053   0.115   2.406   4.100
 4385SOL    HW114054   0.120   2.446   4.191
 4385SOL    HW214055   0.070   2.471   4.038
 4386SOL     OW14056   1.127   3.913   6.248
 4386SOL    HW114057   1.068   3.967   6.308
 4386SOL    HW214058   1.205   3.878   6.300
 4387SOL     OW14059   0.404   2.144   2.143
 4387SOL    HW114060   0.340   2.154   2.067
 4387SOL    HW214061   0.481   2.087   2.114
 4388SOL     OW14062   4.266   0.974   6.534
 4388SOL    HW114063   4.311   0.920   6.606
 4388SOL    HW214064   4.183   0.928   6.505
 4389SOL     OW14065   5.718   2.179   1.140
 4389SOL    HW114066   5.671   2.221   1.062
 4389SOL    HW214067   5.651   2.157   1.211
 4390SOL     OW14068   4.035   2.274   1.748
 4390SOL    HW114069   4.004   2.354   1.697
 4390SOL    HW214070   4.134   2.278   1.759
 4391SOL     OW14071   1.563   6.264   6.485
 4391SOL    HW114072   1.531   6.357   6.501
 4391SOL    HW214073   1.570   6.247   6.387
 4392SOL     OW14074   5.715   4.059   4.916
 4392SOL    HW114075   5.666   3.988   4.966
 4392SOL    HW214076   5.798   4.083   4.965
 4393SOL     OW14077   5.017   6.168   2.550
 4393SOL    HW114078   4.989   6.229   2.624
 4393SOL    HW214079   5.076   6.096   2.586
 4394SOL     OW14080   5.919   5.525   2.700
 4394SOL    HW114081   5.969   5.439   2.694
 4394SOL    HW214082   5.968   5.587   2.762
 4395SOL     OW14083   4.127   2.299   1.116
 4395SOL    HW114084   4.168   2.387   1.138
 4395SOL    HW214085   4.194   2.226   1.130
 4396SOL     OW14086   2.208   1.972   3.961
 4396SOL    HW114087   2.288   1.985   4.019
 4396SOL    HW214088   2.134   1.930   4.015
 4397SOL     OW14089   0.034   1.694   3.760
 4397SOL    HW114090   7.030   1.773   3.708
 4397SOL    HW214091   0.035   1.716   3.857
 4398SOL     OW14092   1.600   4.489   4.366
 4398SOL    HW114093   1.696   4.461   4.358
 4398SOL    HW214094   1.541   4.411   4.342
 4399SOL     OW14095   2.292   0.603   1.242
 4399SOL    HW114096   2.296   0.540   1.319
 4399SOL    HW214097   2.366   0.670   1.250
 4400SOL     OW14098   2.073   6.624   5.023
 4400SOL    HW114099   2.169   6.634   4.998
 4400SOL    HW214100   2.062   6.544   5.082
 4401SOL     OW14101   5.654   5.766   6.211
 4401SOL    HW114102   5.565   5.778   6.255
 4401SOL    HW214103   5.723   5.820   6.259
 4402SOL     OW14104   1.819   6.257   3.222
 4402SOL    HW114105   1.765   6.201   3.285
 4402SOL    HW214106   1.850   6.339   3.270
 4403SOL     OW14107   6.810   0.159   3.303
 4403SOL    HW114108   6.743   0.139   3.375
 4403SOL    HW214109   6.901   0.168   3.345
 4404SOL     OW14110   1.124   3.582   4.954
 4404SOL    HW114111   1.042   3.636   4.975
 4404SOL    HW214112   1.115   3.491   4.995
 4405SOL     OW14113   3.049   4.900   6.542
 4405SOL    HW114114   2.950   4.915   6.539
 4405SOL    HW214115   3.096   4.988   6.553
 4406SOL     OW14116   5.185   4.409   0.773
 4406SOL    HW114117   5.211   4.506   0.775
 4406SOL    HW214118   5.266   4.352   0.785
 4407SOL     OW14119   0.295   5.255   0.995
 4407SOL    HW114120   0.332   5.308   0.918
 4407SOL    HW214121   0.195   5.254   0.990
 4408SOL     OW14122   5.103   1.043   0.548
 4408SOL    HW114123   5.050   0.975   0.599
 4408SOL    HW214124   5.137   1.003   0.463
 4409SOL     OW14125   3.677   0.706   1.818
 4409SOL    HW114126   3.612   0.640   1.780
 4409SOL    HW214127   3.689   0.782   1.754
 4410SOL     OW14128   2.225   4.522   0.154
 4410SOL    HW114129   2.157   4.548   0.086
 4410SOL    HW214130   2.307   4.579   0.142
 4411SOL     OW14131   3.998   3.335   3.308
 4411SOL    HW114132   3.959   3.245   3.287
 4411SOL    HW214133   3.955   3.371   3.391
 4412SOL     OW14134   3.892   1.724   4.647
 4412SOL    HW114135   3.804   1.684   4.621
 4412SOL    HW214136   3.877   1.819   4.676
 4413SOL     OW14137   5.034   5.728   5.104
 4413SOL    HW114138   4.958   5.678   5.146
 4413SOL    HW214139   5.017   5.826   5.113
 4414SOL     OW14140   4.585   4.616   2.024
 4414SOL    HW114141   4.656   4.614   2.094
 4414SOL    HW214142   4.609   4.552   1.950
 4415SOL     OW14143   4.312   3.941   6.753
 4415SOL    HW114144   4.212   3.932   6.751
 4415SOL    HW214145   4.353   3.851   6.771
 4416SOL     OW14146   2.925   1.122   4.207
 4416SOL    HW114147   2.916   1.097   4.303
 4416SOL    HW214148   3.022   1.122   4.182
 4417SOL     OW14149   6.558   4.448   2.480
 4417SOL    HW114150   6.576   4.352   2.498
 4417SOL    HW214151   6.586   4.502   2.559
 4418SOL     OW14152   4.714   6.707   4.134
 4418SOL    HW114153   4.779   6.702   4.058
 4418SOL    HW214154   4.663   6.620   4.139
 4419SOL     OW14155   5.182   5.578   0.836
 4419SOL    HW114156   5.190   5.488   0.879
 4419SOL    HW214157   5.255   5.590   0.769
 4420SOL     OW14158   5.277   1.995   0.642
 4420SOL    HW114159   5.306   1.937   0.717
 4420SOL    HW214160   5.277   1.942   0.557
 4421SOL     OW14161   1.559   1.105   3.178
 4421SOL    HW114162   1.539   1.132   3.084
 4421SOL    HW214163   1.522   1.173   3.241
 4422SOL     OW14164   2.290   3.800   5.830
 4422SOL    HW114165   2.329   3.890   5.850
 4422SOL    HW214166   2.289   3.786   5.732
 4423SOL     OW14167   1.180   2.799   5.653
 4423SOL    HW114168   1.122   2.767   5.578
 4423SOL    HW214169   1.209   2.721   5.709
 4424SOL     OW14170   5.792   6.578   3.539
 4424SOL    HW114171   5.884   6.577   3.577
 4424SOL    HW214172   5.725   6.574   3.613
 4425SOL     OW14173   3.363   5.524   5.802
 4425SOL    HW114174   3.384   5.482   5.714
 4425SOL    HW214175   3.294   5.469   5.849
 4426SOL     OW14176   6.303   1.500   4.845
 4426SOL    HW114177   6.320   1.401   4.851
 4426SOL    HW214178   6.328   1.533   4.755
 4427SOL     OW14179   0.056   0.124   2.272
 4427SOL    HW114180   0.144   0.077   2.279
 4427SOL    HW214181   0.037   0.172   2.357
 4428SOL     OW14182   2.812   5.023   3.193
 4428SOL    HW114183   2.733   4.969   3.164
 4428SOL    HW214184   2.893   4.991   3.146
 4429SOL     OW14185   2.924   0.248   4.057
 4429SOL    HW114186   3.020   0.229   4.077
 4429SOL    HW214187   2.901   0.340   4.089
 4430SOL     OW14188   5.016   2.861   3.548
 4430SOL    HW114189   4.920   2.848   3.523
 4430SOL    HW214190   5.050   2.778   3.593
 4431SOL     OW14191   1.782   1.937   2.146
 4431SOL    HW114192   1.854   1.949   2.214
 4431SOL    HW214193   1.808   1.984   2.062
 4432SOL     OW14194   2.983   3.849   3.874
 4432SOL    HW114195   3.028   3.916   3.815
 4432SOL    HW214196   2.949   3.773   3.818
 4433SOL     OW14197   6.250   6.991   4.451
 4433SOL    HW114198   6.319   0.032   4.468
 4433SOL    HW214199   6.208   6.964   4.538
 4434SOL     OW14200   4.888   1.180   4.049
 4434SOL    HW114201   4.976   1.223   4.069
 4434SOL    HW214202   4.897   1.080   4.055
 4435SOL     OW14203   3.979   3.627   1.150
 4435SOL    HW114204   3.902   3.592   1.204
 4435SOL    HW214205   4.050   3.557   1.146
 4436SOL     OW14206   3.078   2.498   0.361
 4436SOL    HW114207   3.087   2.411   0.409
 4436SOL    HW214208   2.991   2.541   0.385
 4437SOL     OW14209   4.931   1.289   3.511
 4437SOL    HW114210   4.868   1.231   3.563
 4437SOL    HW214211   5.005   1.233   3.473
 4438SOL     OW14212   3.748   1.935   6.828
 4438SOL    HW114213   3.824   1.930   6.893
 4438SOL    HW214214   3.663   1.914   6.876
 4439SOL     OW14215   0.689   5.682   1.366
 4439SOL    HW114216   0.761   5.735   1.410
 4439SOL    HW214217   0.727   5.597   1.331
 4440SOL     OW14218   1.572   4.922   6.736
 4440SOL    HW114219   1.492   4.872   6.770
 4440SOL    HW214220   1.541   5.000   6.682
 4441SOL     OW14221   0.077   1.345   2.097
 4441SOL    HW114222   0.072   1.354   1.997
 4441SOL    HW214223   0.049   1.430   2.140
 4442SOL     OW14224   3.041   5.763   3.861
 4442SOL    HW114225   3.082   5.839   3.912
 4442SOL    HW214226   2.992   5.800   3.781
 4443SOL     OW14227   0.818   2.722   6.739
 4443SOL    HW114228   0.823   2.822   6.732
 4443SOL    HW214229   0.879   2.691   6.812
 4444SOL     OW14230   3.354   6.153   6.612
 4444SOL    HW114231   3.324   6.137   6.706
 4444SOL    HW214232   3.428   6.091   6.589
 4445SOL     OW14233   0.554   0.364   0.404
 4445SOL    HW114234   0.546   0.268   0.431
 4445SOL    HW214235   0.649   0.394   0.416
 4446SOL     OW14236   5.859   1.243   1.244
 4446SOL    HW114237   5.826   1.184   1.170
 4446SOL    HW214238   5.789   1.251   1.314
 4447SOL     OW14239   5.368   3.599   5.881
 4447SOL    HW114240   5.347   3.570   5.787
 4447SOL    HW214241   5.423   3.682   5.879
 4448SOL     OW14242   3.345   3.981   0.714
 4448SOL    HW114243   3.445   3.970   0.705
 4448SOL    HW214244   3.316   3.944   0.802
 4449SOL     OW14245   4.217   0.330   5.939
 4449SOL    HW114246   4.191   0.310   5.844
 4449SOL    HW214247   4.225   0.429   5.951
 4450SOL     OW14248   3.331   2.983   3.839
 4450SOL    HW114249   3.393   2.932   3.779
 4450SOL    HW214250   3.259   3.025   3.784
 4451SOL     OW14251   5.532   4.218   2.891
 4451SOL    HW114252   5.467   4.252   2.822
 4451SOL    HW214253   5.507   4.124   2.916
 4452SOL     OW14254   5.393   6.235   4.919
 4452SOL    HW114255   5.359   6.147   4.885
 4452SOL    HW214256   5.445   6.280   4.847
 4453SOL     OW14257   6.692   2.728   0.184
 4453SOL    HW114258   6.643   2.803   0.138
 4453SOL    HW214259   6.755   2.686   0.119
 4454SOL     OW14260   4.966   2.769   0.586
 4454SOL    HW114261   4.928   2.861   0.594
 4454SOL    HW214262   4.954   2.720   0.672
 4455SOL     OW14263   2.966   7.001   6.772
 4455SOL    HW114264   3.038   6.936   6.797
 4455SOL    HW214265   2.913   7.024   6.854
 4456SOL     OW14266   2.532   5.310   2.486
 4456SOL    HW114267   2.468   5.240   2.455
 4456SOL    HW214268   2.496   5.354   2.568
 4457SOL     OW14269   4.216   2.656   0.171
 4457SOL    HW114270   4.310   2.634   0.199
 4457SOL    HW214271   4.211   2.660   0.071
 4458SOL     OW14272   1.540   3.794   6.694
 4458SOL    HW114273   1.488   3.863   6.745
 4458SOL    HW214274   1.605   3.750   6.756
 4459SOL     OW14275   5.600   0.091   3.693
 4459SOL    HW114276   5.637   0.064   3.604
 4459SOL    HW214277   5.655   0.049   3.765
 4460SOL     OW14278   2.530   2.763   5.781
 4460SOL    HW114279   2.575   2.742   5.868
 4460SOL    HW214280   2.556   2.855   5.752
 4461SOL     OW14281   0.952   0.873   2.587
 4461SOL    HW114282   0.877   0.868   2.522
 4461SOL    HW214283   0.939   0.803   2.658
 4462SOL     OW14284   0.082   3.797   1.129
 4462SOL    HW114285   7.029   3.799   1.185
 4462SOL    HW214286   0.162   3.808   1.189
 4463SOL     OW14287   2.308   2.820   6.953
 4463SOL    HW114288   2.369   2.790   6.880
 4463SOL    HW214289   2.245   2.888   6.918
 4464SOL     OW14290   6.031   5.351   0.240
 4464SOL    HW114291   5.979   5.430   0.272
 4464SOL    HW214292   5.975   5.268   0.251
 4465SOL     OW14293   2.299   6.080   3.151
 4465SOL    HW114294   2.392   6.043   3.154
 4465SOL    HW214295   2.244   6.036   3.222
 4466SOL     OW14296   1.269   0.503   2.778
 4466SOL    HW114297   1.364   0.530   2.768
 4466SOL    HW214298   1.220   0.571   2.833
 4467SOL     OW14299   1.472   6.242   3.781
 4467SOL    HW114300   1.557   6.279   3.818
 4467SOL    HW214301   1.440   6.168   3.840
 4468SOL     OW14302   0.808   1.706   0.397
 4468SOL    HW114303   0.831   1.716   0.494
 4468SOL    HW214304   0.806   1.609   0.374
 4469SOL     OW14305   3.320   0.284   1.079
 4469SOL    HW114306   3.266   0.268   0.996
 4469SOL    HW214307   3.278   0.234   1.156
 4470SOL     OW14308   5.853   3.439   1.446
 4470SOL    HW114309   5.779   3.399   1.393
 4470SOL    HW214310   5.866   3.386   1.530
 4471SOL     OW14311   0.416   2.598   0.565
 4471SOL    HW114312   0.318   2.609   0.578
 4471SOL    HW214313   0.449   2.522   0.621
 4472SOL     OW14314   1.515   3.152   3.452
 4472SOL    HW114315   1.579   3.142   3.529
 4472SOL    HW214316   1.564   3.186   3.372
 4473SOL     OW14317   0.110   1.744   4.481
 4473SOL    HW114318   0.151   1.753   4.391
 4473SOL    HW214319   0.098   1.835   4.521
 4474SOL     OW14320   3.347   1.409   2.046
 4474SOL    HW114321   3.270   1.469   2.027
 4474SOL    HW214322   3.384   1.375   1.959
 4475SOL     OW14323   1.797   4.107   2.273
 4475SOL    HW114324   1.833   4.194   2.308
 4475SOL    HW214325   1.836   4.090   2.183
 4476SOL     OW14326   5.120   6.338   4.253
 4476SOL    HW114327   5.167   6.275   4.193
 4476SOL    HW214328   5.079   6.412   4.199
 4477SOL     OW14329   1.627   0.156   6.533
 4477SOL    HW114330   1.527   0.155   6.525
 4477SOL    HW214331   1.657   0.070   6.574
 4478SOL     OW14332   3.098   5.949   2.854
 4478SOL    HW114333   3.024   5.964   2.789
 4478SOL    HW214334   3.115   6.033   2.906
 4479SOL     OW14335   0.863   0.538   0.137
 4479SOL    HW114336   0.959   0.526   0.161
 4479SOL    HW214337   0.843   0.490   0.052
 4480SOL     OW14338   2.210   4.154   4.784
 4480SOL    HW114339   2.246   4.105   4.864
 4480SOL    HW214340   2.110   4.156   4.789
 4481SOL     OW14341   2.772   0.140   4.906
 4481SOL    HW114342   2.706   0.211   4.930
 4481SOL    HW214343   2.731   0.077   4.840
 4482SOL     OW14344   0.517   3.845   4.090
 4482SOL    HW114345   0.544   3.925   4.143
 4482SOL    HW214346   0.597   3.787   4.073
 4483SOL     OW14347   6.073   3.309   1.254
 4483SOL    HW114348   6.036   3.337   1.342
 4483SOL    HW214349   6.018   3.235   1.215
 4484SOL     OW14350   3.263   2.214   5.378
 4484SOL    HW114351   3.339   2.160   5.341
 4484SOL    HW214352   3.223   2.269   5.304
 4485SOL     OW14353   5.528   2.607   6.242
 4485SOL    HW114354   5.613   2.619   6.293
 4485SOL    HW214355   5.544   2.630   6.146
 4486SOL     OW14356   5.744   3.638   4.490
 4486SOL    HW114357   5.687   3.600   4.418
 4486SOL    HW214358   5.713   3.731   4.511
 4487SOL     OW14359   2.454   3.257   6.827
 4487SOL    HW114360   2.547   3.290   6.843
 4487SOL    HW214361   2.388   3.328   6.853
 4488SOL     OW14362   5.507   2.615   5.642
 4488SOL    HW114363   5.432   2.663   5.597
 4488SOL    HW214364   5.472   2.539   5.696
 4489SOL     OW14365   4.858   6.227   4.390
 4489SOL    HW114366   4.859   6.137   4.433
 4489SOL    HW214367   4.950   6.249   4.356
 4490SOL     OW14368   5.691   2.125   1.946
 4490SOL    HW114369   5.694   2.211   1.996
 4490SOL    HW214370   5.749   2.057   1.992
 4491SOL     OW14371   0.616   3.115   3.201
 4491SOL    HW114372   0.680   3.096   3.275
 4491SOL    HW214373   0.523   3.118   3.237
 4492SOL     OW14374   5.750   4.093   0.710
 4492SOL    HW114375   5.675   4.148   0.674
 4492SOL    HW214376   5.727   3.996   0.703
 4493SOL     OW14377   4.514   5.357   5.385
 4493SOL    HW114378   4.430   5.400   5.418
 4493SOL    HW214379   4.502   5.331   5.289
 4494SOL     OW14380   0.361   1.860   6.293
 4494SOL    HW114381   0.394   1.917   6.369
 4494SOL    HW214382   0.429   1.789   6.273
 4495SOL     OW14383   5.292   6.737   3.741
 4495SOL    HW114384   5.323   6.691   3.658
 4495SOL    HW214385   5.259   6.828   3.718
 4496SOL     OW14386   5.016   5.770   0.771
 4496SOL    HW114387   4.968   5.800   0.853
 4496SOL    HW214388   5.084   5.701   0.795
 4497SOL     OW14389   4.760   0.161   0.004
 4497SOL    HW114390   4.671   0.133   6.997
 4497SOL    HW214391   4.823   0.084   7.028
 4498SOL     OW14392   0.095   3.225   6.183
 4498SOL    HW114393   0.055   3.310   6.150
 4498SOL    HW214394   0.127   3.171   6.105
 4499SOL     OW14395   7.002   3.377   3.883
 4499SOL    HW114396   0.067   3.358   3.908
 4499SOL    HW214397   6.951   3.405   3.964
 4500SOL     OW14398   3.502   3.505   3.880
 4500SOL    HW114399   3.561   3.428   3.859
 4500SOL    HW214400   3.557   3.588   3.891
 4501SOL     OW14401   0.171   3.109   5.813
 4501SOL    HW114402   0.154   3.085   5.717
 4501SOL    HW214403   0.254   3.165   5.818
 4502SOL     OW14404   1.879   2.935   6.648
 4502SOL    HW114405   1.793   2.890   6.623
 4502SOL    HW214406   1.924   2.883   6.721
 4503SOL     OW14407   2.985   0.295   2.511
 4503SOL    HW114408   2.982   0.385   2.468
 4503SOL    HW214409   2.909   0.239   2.477
 4504SOL     OW14410   6.389   2.011   5.288
 4504SOL    HW114411   6.342   1.934   5.331
 4504SOL    HW214412   6.437   2.064   5.358
 4505SOL     OW14413   6.544   5.666   3.936
 4505SOL    HW114414   6.520   5.695   3.843
 4505SOL    HW214415   6.559   5.746   3.993
 4506SOL     OW14416   4.863   2.472   4.967
 4506SOL    HW114417   4.795   2.469   4.893
 4506SOL    HW214418   4.924   2.393   4.959
 4507SOL     OW14419   5.092   3.934   1.274
 4507SOL    HW114420   4.997   3.904   1.271
 4507SOL    HW214421   5.099   4.016   1.330
 4508SOL     OW14422   0.390   4.858   6.378
 4508SOL    HW114423   0.416   4.892   6.288
 4508SOL    HW214424   0.371   4.935   6.439
 4509SOL     OW14425   4.822   2.237   3.854
 4509SOL    HW114426   4.862   2.277   3.936
 4509SOL    HW214427   4.823   2.137   3.862
 4510SOL     OW14428   5.692   6.344   5.303
 4510SOL    HW114429   5.613   6.314   5.249
 4510SOL    HW214430   5.703   6.282   5.381
 4511SOL     OW14431   6.798   3.076   6.651
 4511SOL    HW114432   6.848   2.992   6.633
 4511SOL    HW214433   6.700   3.056   6.659
 4512SOL     OW14434   2.059   6.644   6.224
 4512SOL    HW114435   2.046   6.638   6.323
 4512SOL    HW214436   1.972   6.626   6.178
 4513SOL     OW14437   5.318   6.747   0.228
 4513SOL    HW114438   5.270   6.835   0.233
 4513SOL    HW214439   5.269   6.679   0.283
 4514SOL     OW14440   4.485   0.650   4.774
 4514SOL    HW114441   4.441   0.733   4.807
 4514SOL    HW214442   4.503   0.589   4.850
 4515SOL     OW14443   6.799   4.257   6.343
 4515SOL    HW114444   6.823   4.303   6.428
 4515SOL    HW214445   6.873   4.268   6.277
 4516SOL     OW14446   1.449   1.607   6.050
 4516SOL    HW114447   1.515   1.610   5.974
 4516SOL    HW214448   1.390   1.688   6.046
 4517SOL     OW14449   2.328   0.187   6.848
 4517SOL    HW114450   2.285   0.120   6.789
 4517SOL    HW214451   2.260   0.230   6.906
 4518SOL     OW14452   6.527   1.653   3.112
 4518SOL    HW114453   6.545   1.751   3.115
 4518SOL    HW214454   6.581   1.611   3.039
 4519SOL     OW14455   6.218   0.590   1.549
 4519SOL    HW114456   6.187   0.506   1.505
 4519SOL    HW214457   6.292   0.631   1.496
 4520SOL     OW14458   5.440   4.967   2.824
 4520SOL    HW114459   5.397   4.930   2.906
 4520SOL    HW214460   5.527   4.920   2.807
 4521SOL     OW14461   4.827   2.250   5.289
 4521SOL    HW114462   4.781   2.184   5.230
 4521SOL    HW214463   4.926   2.238   5.281
 4522SOL     OW14464   5.435   0.328   3.733
 4522SOL    HW114465   5.418   0.384   3.652
 4522SOL    HW214466   5.493   0.250   3.708
 4523SOL     OW14467   1.201   4.797   0.117
 4523SOL    HW114468   1.291   4.771   0.082
 4523SOL    HW214469   1.194   4.897   0.118
 4524SOL     OW14470   5.196   2.201   5.719
 4524SOL    HW114471   5.240   2.137   5.783
 4524SOL    HW214472   5.137   2.263   5.771
 4525SOL     OW14473   6.260   1.783   3.178
 4525SOL    HW114474   6.265   1.780   3.277
 4525SOL    HW214475   6.349   1.762   3.139
 4526SOL     OW14476   4.834   0.695   0.467
 4526SOL    HW114477   4.752   0.642   0.490
 4526SOL    HW214478   4.872   0.661   0.381
 4527SOL     OW14479   4.114   1.309   4.065
 4527SOL    HW114480   4.182   1.301   4.138
 4527SOL    HW214481   4.110   1.404   4.035
 4528SOL     OW14482   5.186   6.281   0.391
 4528SOL    HW114483   5.172   6.234   0.304
 4528SOL    HW214484   5.185   6.380   0.376
 4529SOL     OW14485   3.497   1.298   3.993
 4529SOL    HW114486   3.595   1.316   4.005
 4529SOL    HW214487   3.452   1.379   3.955
 4530SOL     OW14488   6.996   3.706   5.468
 4530SOL    HW114489   6.900   3.690   5.445
 4530SOL    HW214490   0.017   3.621   5.462
 4531SOL     OW14491   0.061   2.966   3.454
 4531SOL    HW114492   0.043   3.038   3.387
 4531SOL    HW214493   0.119   3.003   3.527
 4532SOL     OW14494   0.381   1.078   2.274
 4532SOL    HW114495   0.323   1.068   2.193
 4532SOL    HW214496   0.334   1.133   2.343
 4533SOL     OW14497   1.564   0.190   3.298
 4533SOL    HW114498   1.496   0.139   3.246
 4533SOL    HW214499   1.532   0.284   3.312
 4534SOL     OW14500   5.707   3.261   4.213
 4534SOL    HW114501   5.765   3.185   4.182
 4534SOL    HW214502   5.664   3.237   4.300
 4535SOL     OW14503   4.308   2.010   2.815
 4535SOL    HW114504   4.362   2.077   2.866
 4535SOL    HW214505   4.366   1.930   2.796
 4536SOL     OW14506   4.407   1.987   4.728
 4536SOL    HW114507   4.340   2.013   4.658
 4536SOL    HW214508   4.468   2.064   4.746
 4537SOL     OW14509   3.548   3.522   5.917
 4537SOL    HW114510   3.614   3.571   5.974
 4537SOL    HW214511   3.521   3.581   5.840
 4538SOL     OW14512   2.846   1.898   4.246
 4538SOL    HW114513   2.902   1.937   4.173
 4538SOL    HW214514   2.874   1.803   4.263
 4539SOL     OW14515   2.529   1.365   4.340
 4539SOL    HW114516   2.628   1.364   4.330
 4539SOL    HW214517   2.498   1.459   4.357
 4540SOL     OW14518   3.444   3.220   4.008
 4540SOL    HW114519   3.448   3.128   4.047
 4540SOL    HW214520   3.385   3.278   4.065
 4541SOL     OW14521   5.576   1.526   6.902
 4541SOL    HW114522   5.544   1.459   6.968
 4541SOL    HW214523   5.589   1.615   6.947
 4542SOL     OW14524   5.824   6.672   1.864
 4542SOL    HW114525   5.915   6.634   1.845
 4542SOL    HW214526   5.820   6.766   1.832
 4543SOL     OW14527   4.252   1.808   0.119
 4543SOL    HW114528   4.199   1.726   0.099
 4543SOL    HW214529   4.313   1.828   0.042
 4544SOL     OW14530   2.657   6.310   5.664
 4544SOL    HW114531   2.641   6.331   5.568
 4544SOL    HW214532   2.642   6.392   5.719
 4545SOL     OW14533   5.135   2.208   5.441
 4545SOL    HW114534   5.224   2.171   5.412
 4545SOL    HW214535   5.138   2.229   5.539
 4546SOL     OW14536   1.122   0.249   6.465
 4546SOL    HW114537   1.129   0.349   6.455
 4546SOL    HW214538   1.057   0.227   6.537
 4547SOL     OW14539   6.471   2.418   2.939
 4547SOL    HW114540   6.498   2.462   3.025
 4547SOL    HW214541   6.548   2.367   2.902
 4548SOL     OW14542   0.980   4.354   4.533
 4548SOL    HW114543   1.040   4.420   4.577
 4548SOL    HW214544   0.978   4.371   4.435
 4549SOL     OW14545   6.094   3.291   2.830
 4549SOL    HW114546   6.042   3.357   2.775
 4549SOL    HW214547   6.158   3.242   2.770
 4550SOL     OW14548   0.713   6.290   3.092
 4550SOL    HW114549   0.795   6.235   3.075
 4550SOL    HW214550   0.723   6.378   3.046
 4551SOL     OW14551   0.041   2.075   5.320
 4551SOL    HW114552   0.133   2.060   5.284
 4551SOL    HW214553   7.007   2.087   5.244
 4552SOL     OW14554   6.913   2.631   6.280
 4552SOL    HW114555   6.911   2.621   6.380
 4552SOL    HW214556   6.884   2.545   6.237
 4553SOL     OW14557   3.737   4.213   0.562
 4553SOL    HW114558   3.694   4.206   0.652
 4553SOL    HW214559   3.831   4.180   0.566
 4554SOL     OW14560   3.902   0.979   1.653
 4554SOL    HW114561   3.964   1.049   1.688
 4554SOL    HW214562   3.829   0.963   1.719
 4555SOL     OW14563   3.552   1.619   6.106
 4555SOL    HW114564   3.592   1.640   6.017
 4555SOL    HW214565   3.566   1.697   6.168
 4556SOL     OW14566   4.577   2.119   3.930
 4556SOL    HW114567   4.647   2.048   3.932
 4556SOL    HW214568   4.620   2.208   3.922
 4557SOL     OW14569   5.073   6.589   5.209
 4557SOL    HW114570   5.143   6.549   5.149
 4557SOL    HW214571   5.040   6.520   5.273
 4558SOL     OW14572   6.458   4.013   5.978
 4558SOL    HW114573   6.489   4.074   6.052
 4558SOL    HW214574   6.447   4.066   5.894
 4559SOL     OW14575   1.188   5.550   1.376
 4559SOL    HW114576   1.209   5.518   1.284
 4559SOL    HW214577   1.205   5.477   1.442
 4560SOL     OW14578   5.508   4.427   3.410
 4560SOL    HW114579   5.529   4.364   3.335
 4560SOL    HW214580   5.593   4.465   3.447
 4561SOL     OW14581   2.866   0.795   1.344
 4561SOL    HW114582   2.793   0.744   1.297
 4561SOL    HW214583   2.829   0.882   1.376
 4562SOL     OW14584   3.057   5.643   4.996
 4562SOL    HW114585   3.137   5.702   5.004
 4562SOL    HW214586   3.086   5.551   4.968
 4563SOL     OW14587   6.387   4.032   0.144
 4563SOL    HW114588   6.452   4.008   0.072
 4563SOL    HW214589   6.338   3.950   0.174
 4564SOL     OW14590   0.813   6.086   0.844
 4564SOL    HW114591   0.804   6.168   0.901
 4564SOL    HW214592   0.727   6.071   0.795
 4565SOL     OW14593   0.181   1.198   5.495
 4565SOL    HW114594   0.252   1.165   5.433
 4565SOL    HW214595   0.091   1.172   5.460
 4566SOL     OW14596   0.022   0.848   0.520
 4566SOL    HW114597   0.084   0.806   0.453
 4566SOL    HW214598   0.037   0.947   0.520
 4567SOL     OW14599   0.458   0.763   0.225
 4567SOL    HW114600   0.463   0.710   0.310
 4567SOL    HW214601   0.452   0.701   0.147
 4568SOL     OW14602   1.833   4.361   5.192
 4568SOL    HW114603   1.766   4.416   5.240
 4568SOL    HW214604   1.850   4.276   5.243
 4569SOL     OW14605   2.217   1.654   3.692
 4569SOL    HW114606   2.143   1.706   3.734
 4569SOL    HW214607   2.296   1.652   3.754
 4570SOL     OW14608   0.242   4.734   3.295
 4570SOL    HW114609   0.286   4.645   3.287
 4570SOL    HW214610   0.190   4.753   3.212
 4571SOL     OW14611   3.475   3.723   5.376
 4571SOL    HW114612   3.437   3.653   5.437
 4571SOL    HW214613   3.574   3.711   5.369
 4572SOL     OW14614   0.494   6.139   6.672
 4572SOL    HW114615   0.526   6.116   6.581
 4572SOL    HW214616   0.427   6.072   6.702
 4573SOL     OW14617   6.318   6.187   0.645
 4573SOL    HW114618   6.243   6.248   0.671
 4573SOL    HW214619   6.284   6.093   0.641
 4574SOL     OW14620   0.019   4.368   1.162
 4574SOL    HW114621   0.107   4.416   1.161
 4574SOL    HW214622   6.976   4.433   1.181
 4575SOL     OW14623   6.465   2.083   6.987
 4575SOL    HW114624   6.501   2.031   0.034
 4575SOL    HW214625   6.465   2.026   6.905
 4576SOL     OW14626   2.769   6.020   6.551
 4576SOL    HW114627   2.717   6.033   6.466
 4576SOL    HW214628   2.724   5.951   6.608
 4577SOL     OW14629   0.039   2.727   3.038
 4577SOL    HW114630   0.116   2.671   3.009
 4577SOL    HW214631   7.001   2.730   2.964
 4578SOL     OW14632   0.620   3.534   3.380
 4578SOL    HW114633   0.611   3.549   3.281
 4578SOL    HW214634   0.709   3.566   3.411
 4579SOL     OW14635   5.445   1.446   2.967
 4579SOL    HW114636   5.364   1.452   3.026
 4579SOL    HW214637   5.503   1.371   2.998
 4580SOL     OW14638   5.437   5.545   0.230
 4580SOL    HW114639   5.354   5.601   0.231
 4580SOL    HW214640   5.493   5.567   0.309
 4581SOL     OW14641   3.085   5.263   3.019
 4581SOL    HW114642   3.146   5.340   3.002
 4581SOL    HW214643   3.101   5.192   2.951
 4582SOL     OW14644   6.002   6.303   4.734
 4582SOL    HW114645   5.916   6.330   4.690
 4582SOL    HW214646   6.070   6.375   4.722
 4583SOL     OW14647   2.405   1.471   4.788
 4583SOL    HW114648   2.504   1.471   4.805
 4583SOL    HW214649   2.359   1.419   4.860
 4584SOL     OW14650   0.710   5.664   5.328
 4584SOL    HW114651   0.758   5.608   5.396
 4584SOL    HW214652   0.623   5.621   5.305
 4585SOL     OW14653   2.984   6.385   2.964
 4585SOL    HW114654   2.889   6.373   2.992
 4585SOL    HW214655   2.995   6.356   2.869
 4586SOL     OW14656   3.949   4.946   0.874
 4586SOL    HW114657   4.030   4.888   0.871
 4586SOL    HW214658   3.976   5.042   0.874
 4587SOL     OW14659   4.177   3.234   1.813
 4587SOL    HW114660   4.177   3.222   1.912
 4587SOL    HW214661   4.263   3.200   1.775
 4588SOL     OW14662   3.971   3.980   5.180
 4588SOL    HW114663   4.045   3.919   5.207
 4588SOL    HW214664   3.940   3.956   5.088
 4589SOL     OW14665   5.779   1.220   1.983
 4589SOL    HW114666   5.767   1.121   1.987
 4589SOL    HW214667   5.817   1.252   2.070
 4590SOL     OW14668   4.329   6.225   2.170
 4590SOL    HW114669   4.321   6.143   2.113
 4590SOL    HW214670   4.273   6.216   2.252
 4591SOL     OW14671   0.927   6.325   4.649
 4591SOL    HW114672   0.924   6.419   4.614
 4591SOL    HW214673   1.001   6.316   4.715
 4592SOL     OW14674   4.038   2.842   1.649
 4592SOL    HW114675   4.005   2.889   1.732
 4592SOL    HW214676   3.965   2.841   1.581
 4593SOL     OW14677   4.240   5.266   3.826
 4593SOL    HW114678   4.220   5.242   3.922
 4593SOL    HW214679   4.174   5.333   3.793
 4594SOL     OW14680   3.457   2.498   1.171
 4594SOL    HW114681   3.483   2.406   1.140
 4594SOL    HW214682   3.416   2.492   1.262
 4595SOL     OW14683   3.425   2.663   5.889
 4595SOL    HW114684   3.482   2.743   5.904
 4595SOL    HW214685   3.388   2.664   5.796
 4596SOL     OW14686   6.196   6.667   2.202
 4596SOL    HW114687   6.139   6.614   2.139
 4596SOL    HW214688   6.143   6.744   2.237
 4597SOL     OW14689   4.786   4.688   0.048
 4597SOL    HW114690   4.849   4.766   0.043
 4597SOL    HW214691   4.737   4.691   0.135
 4598SOL     OW14692   1.574   5.402   6.756
 4598SOL    HW114693   1.648   5.411   6.822
 4598SOL    HW214694   1.497   5.459   6.784
 4599SOL     OW14695   1.918   4.313   1.423
 4599SOL    HW114696   1.878   4.265   1.500
 4599SOL    HW214697   1.915   4.412   1.439
 4600SOL     OW14698   2.347   6.185   6.051
 4600SOL    HW114699   2.315   6.171   5.957
 4600SOL    HW214700   2.445   6.206   6.051
 4601SOL     OW14701   1.492   1.047   5.288
 4601SOL    HW114702   1.445   1.098   5.216
 4601SOL    HW214703   1.581   1.016   5.254
 4602SOL     OW14704   1.066   5.898   0.491
 4602SOL    HW114705   1.039   5.992   0.514
 4602SOL    HW214706   1.019   5.834   0.551
 4603SOL     OW14707   3.749   0.105   1.501
 4603SOL    HW114708   3.841   0.112   1.540
 4603SOL    HW214709   3.697   0.036   1.550
 4604SOL     OW14710   4.801   0.936   1.469
 4604SOL    HW114711   4.812   0.935   1.568
 4604SOL    HW214712   4.710   0.902   1.445
 4605SOL     OW14713   5.131   0.740   3.094
 4605SOL    HW114714   5.117   0.710   3.000
 4605SOL    HW214715   5.096   0.670   3.157
 4606SOL     OW14716   0.062   0.234   1.894
 4606SOL    HW114717   0.012   0.160   1.938
 4606SOL    HW214718   0.106   0.291   1.964
 4607SOL     OW14719   2.828   3.191   1.054
 4607SOL    HW114720   2.833   3.111   1.113
 4607SOL    HW214721   2.893   3.180   0.978
 4608SOL     OW14722   1.839   5.704   3.840
 4608SOL    HW114723   1.914   5.747   3.791
 4608SOL    HW214724   1.844   5.605   3.830
 4609SOL     OW14725   4.105   5.560   6.049
 4609SOL    HW114726   4.010   5.544   6.022
 4609SOL    HW214727   4.145   5.476   6.085
 4610SOL     OW14728   6.779   2.253   0.201
 4610SOL    HW114729   6.752   2.336   0.251
 4610SOL    HW214730   6.707   2.228   0.136
 4611SOL     OW14731   6.186   5.154   5.734
 4611SOL    HW114732   6.263   5.196   5.782
 4611SOL    HW214733   6.168   5.064   5.773
 4612SOL     OW14734   1.798   6.427   0.506
 4612SOL    HW114735   1.698   6.430   0.501
 4612SOL    HW214736   1.828   6.465   0.594
 4613SOL     OW14737   2.507   5.690   2.419
 4613SOL    HW114738   2.516   5.789   2.415
 4613SOL    HW214739   2.411   5.664   2.412
 4614SOL     OW14740   1.153   4.847   5.589
 4614SOL    HW114741   1.167   4.873   5.684
 4614SOL    HW214742   1.081   4.904   5.549
 4615SOL     OW14743   2.167   0.707   0.646
 4615SOL    HW114744   2.140   0.775   0.578
 4615SOL    HW214745   2.265   0.714   0.663
 4616SOL     OW14746   6.538   0.204   5.794
 4616SOL    HW114747   6.569   0.158   5.710
 4616SOL    HW214748   6.492   0.138   5.853
 4617SOL     OW14749   1.209   2.119   3.047
 4617SOL    HW114750   1.185   2.027   3.017
 4617SOL    HW214751   1.259   2.166   2.974
 4618SOL     OW14752   1.759   2.783   5.224
 4618SOL    HW114753   1.760   2.874   5.184
 4618SOL    HW214754   1.834   2.729   5.186
 4619SOL     OW14755   4.787   6.353   3.757
 4619SOL    HW114756   4.740   6.406   3.687
 4619SOL    HW214757   4.882   6.337   3.729
 4620SOL     OW14758   3.129   4.009   0.019
 4620SOL    HW114759   3.123   3.910   0.005
 4620SOL    HW214760   3.111   4.030   0.115
 4621SOL     OW14761   5.554   1.723   3.506
 4621SOL    HW114762   5.625   1.711   3.435
 4621SOL    HW214763   5.476   1.770   3.467
 4622SOL     OW14764   0.335   3.113   0.889
 4622SOL    HW114765   0.360   3.101   0.793
 4622SOL    HW214766   0.270   3.041   0.916
 4623SOL     OW14767   0.591   5.728   1.099
 4623SOL    HW114768   0.612   5.709   1.195
 4623SOL    HW214769   0.494   5.713   1.083
 4624SOL     OW14770   4.706   6.850   3.122
 4624SOL    HW114771   4.771   6.905   3.069
 4624SOL    HW214772   4.677   6.901   3.202
 4625SOL     OW14773   1.933   4.393   6.827
 4625SOL    HW114774   2.001   4.457   6.863
 4625SOL    HW214775   1.956   4.370   6.733
 4626SOL     OW14776   5.790   4.981   1.224
 4626SOL    HW114777   5.757   5.053   1.285
 4626SOL    HW214778   5.834   4.909   1.278
 4627SOL     OW14779   3.419   5.927   4.543
 4627SOL    HW114780   3.328   5.967   4.537
 4627SOL    HW214781   3.446   5.891   4.454
 4628SOL     OW14782   6.006   4.021   3.596
 4628SOL    HW114783   5.931   4.085   3.578
 4628SOL    HW214784   5.976   3.928   3.573
 4629SOL     OW14785   2.348   4.843   6.142
 4629SOL    HW114786   2.362   4.885   6.052
 4629SOL    HW214787   2.359   4.744   6.134
 4630SOL     OW14788   3.803   5.788   3.119
 4630SOL    HW114789   3.844   5.873   3.087
 4630SOL    HW214790   3.871   5.714   3.116
 4631SOL     OW14791   2.609   6.544   3.666
 4631SOL    HW114792   2.638   6.457   3.706
 4631SOL    HW214793   2.679   6.613   3.681
 4632SOL     OW14794   4.565   4.337   3.081
 4632SOL    HW114795   4.488   4.400   3.098
 4632SOL    HW214796   4.533   4.261   3.025
 4633SOL     OW14797   6.225   1.855   3.707
 4633SOL    HW114798   6.301   1.829   3.767
 4633SOL    HW214799   6.150   1.892   3.762
 4634SOL     OW14800   2.399   4.427   6.718
 4634SOL    HW114801   2.461   4.458   6.646
 4634SOL    HW214802   2.333   4.363   6.680
 4635SOL     OW14803   6.240   3.433   2.429
 4635SOL    HW114804   6.210   3.350   2.477
 4635SOL    HW214805   6.261   3.504   2.496
 4636SOL     OW14806   2.161   5.150   0.305
 4636SOL    HW114807   2.096   5.130   0.231
 4636SOL    HW214808   2.194   5.244   0.295
 4637SOL     OW14809   1.866   0.777   0.348
 4637SOL    HW114810   1.948   0.807   0.396
 4637SOL    HW214811   1.875   0.798   0.251
 4638SOL     OW14812   3.358   2.842   6.133
 4638SOL    HW114813   3.398   2.897   6.207
 4638SOL    HW214814   3.280   2.791   6.168
 4639SOL     OW14815   1.934   5.120   5.315
 4639SOL    HW114816   2.006   5.099   5.249
 4639SOL    HW214817   1.849   5.141   5.267
 4640SOL     OW14818   4.537   5.282   3.529
 4640SOL    HW114819   4.519   5.186   3.550
 4640SOL    HW214820   4.615   5.314   3.583
 4641SOL     OW14821   2.985   5.521   4.012
 4641SOL    HW114822   3.020   5.456   3.945
 4641SOL    HW214823   2.993   5.614   3.975
 4642SOL     OW14824   1.049   6.569   4.991
 4642SOL    HW114825   1.097   6.528   5.069
 4642SOL    HW214826   1.019   6.661   5.014
 4643SOL     OW14827   4.901   2.267   0.812
 4643SOL    HW114828   4.943   2.178   0.829
 4643SOL    HW214829   4.909   2.290   0.715
 4644SOL     OW14830   1.238   4.804   4.432
 4644SOL    HW114831   1.307   4.864   4.473
 4644SOL    HW214832   1.157   4.858   4.409
 4645SOL     OW14833   1.472   0.373   4.323
 4645SOL    HW114834   1.520   0.460   4.331
 4645SOL    HW214835   1.525   0.302   4.370
 4646SOL     OW14836   2.649   6.363   2.789
 4646SOL    HW114837   2.681   6.314   2.708
 4646SOL    HW214838   2.672   6.310   2.871
 4647SOL     OW14839   0.824   6.519   2.900
 4647SOL    HW114840   0.734   6.560   2.884
 4647SOL    HW214841   0.873   6.573   2.968
 4648SOL     OW14842   3.971   0.288   1.326
 4648SOL    HW114843   3.960   0.336   1.413
 4648SOL    HW214844   3.882   0.278   1.281
 4649SOL     OW14845   5.360   6.767   5.895
 4649SOL    HW114846   5.450   6.728   5.912
 4649SOL    HW214847   5.309   6.707   5.833
 4650SOL     OW14848   4.085   5.719   3.614
 4650SOL    HW114849   4.043   5.666   3.689
 4650SOL    HW214850   4.095   5.814   3.642
 4651SOL     OW14851   0.179   1.780   0.789
 4651SOL    HW114852   0.260   1.824   0.828
 4651SOL    HW214853   0.120   1.748   0.863
 4652SOL     OW14854   0.761   0.111   3.878
 4652SOL    HW114855   0.814   0.179   3.929
 4652SOL    HW214856   0.666   0.114   3.908
 4653SOL     OW14857   0.051   5.550   6.749
 4653SOL    HW114858   0.098   5.578   6.665
 4653SOL    HW214859   6.983   5.564   6.738
 4654SOL     OW14860   0.730   0.139   0.263
 4654SOL    HW114861   0.636   0.108   0.273
 4654SOL    HW214862   0.747   0.166   0.168
 4655SOL     OW14863   6.653   4.993   1.868
 4655SOL    HW114864   6.662   4.913   1.928
 4655SOL    HW214865   6.558   4.999   1.835
 4656SOL     OW14866   0.912   0.048   3.264
 4656SOL    HW114867   1.007   0.063   3.289
 4656SOL    HW214868   0.894   6.979   3.260
 4657SOL     OW14869   5.131   6.950   1.514
 4657SOL    HW114870   5.099   7.001   1.434
 4657SOL    HW214871   5.224   6.979   1.537
 4658SOL     OW14872   3.316   0.934   2.353
 4658SOL    HW114873   3.335   1.031   2.338
 4658SOL    HW214874   3.395   0.891   2.396
 4659SOL     OW14875   2.915   4.068   5.714
 4659SOL    HW114876   2.863   3.984   5.698
 4659SOL    HW214877   2.894   4.103   5.805
 4660SOL     OW14878   1.096   2.700   4.787
 4660SOL    HW114879   1.027   2.707   4.715
 4660SOL    HW214880   1.091   2.780   4.847
 4661SOL     OW14881   3.863   4.429   5.434
 4661SOL    HW114882   3.916   4.438   5.519
 4661SOL    HW214883   3.896   4.350   5.383
 4662SOL     OW14884   5.013   0.689   4.806
 4662SOL    HW114885   4.992   0.607   4.753
 4662SOL    HW214886   4.942   0.758   4.791
 4663SOL     OW14887   0.423   1.378   2.630
 4663SOL    HW114888   0.498   1.369   2.564
 4663SOL    HW214889   0.346   1.321   2.602
 4664SOL     OW14890   1.986   2.512   0.145
 4664SOL    HW114891   1.991   2.414   0.163
 4664SOL    HW214892   1.900   2.548   0.181
 4665SOL     OW14893   4.673   0.087   0.310
 4665SOL    HW114894   4.609   0.056   0.239
 4665SOL    HW214895   4.635   0.167   0.356
 4666SOL     OW14896   1.967   1.709   6.967
 4666SOL    HW114897   1.936   1.789   6.915
 4666SOL    HW214898   2.064   1.718   6.986
 4667SOL     OW14899   6.754   4.671   0.889
 4667SOL    HW114900   6.717   4.597   0.832
 4667SOL    HW214901   6.679   4.731   0.917
 4668SOL     OW14902   6.709   2.516   3.892
 4668SOL    HW114903   6.761   2.581   3.837
 4668SOL    HW214904   6.615   2.548   3.902
 4669SOL     OW14905   3.660   6.804   0.730
 4669SOL    HW114906   3.577   6.825   0.678
 4669SOL    HW214907   3.723   6.881   0.725
 4670SOL     OW14908   3.130   1.284   4.829
 4670SOL    HW114909   3.192   1.210   4.858
 4670SOL    HW214910   3.183   1.366   4.810
 4671SOL     OW14911   6.269   2.519   2.272
 4671SOL    HW114912   6.214   2.556   2.347
 4671SOL    HW214913   6.364   2.509   2.301
 4672SOL     OW14914   2.527   4.354   6.052
 4672SOL    HW114915   2.491   4.263   6.035
 4672SOL    HW214916   2.552   4.397   5.965
 4673SOL     OW14917   4.999   0.014   1.019
 4673SOL    HW114918   4.958   6.977   0.956
 4673SOL    HW214919   5.047   0.084   0.968
 4674SOL     OW14920   5.170   6.200   6.537
 4674SOL    HW114921   5.263   6.217   6.502
 4674SOL    HW214922   5.170   6.208   6.636
 4675SOL     OW14923   0.390   3.549   0.035
 4675SOL    HW114924   0.334   3.468   0.052
 4675SOL    HW214925   0.419   3.589   0.122
 4676SOL     OW14926   0.856   5.861   4.105
 4676SOL    HW114927   0.777   5.835   4.049
 4676SOL    HW214928   0.824   5.909   4.187
 4677SOL     OW14929   2.250   2.173   0.972
 4677SOL    HW114930   2.212   2.224   0.895
 4677SOL    HW214931   2.178   2.160   1.041
 4678SOL     OW14932   2.431   4.393   2.676
 4678SOL    HW114933   2.386   4.305   2.688
 4678SOL    HW214934   2.442   4.412   2.578
 4679SOL     OW14935   4.386   0.286   1.519
 4679SOL    HW114936   4.322   0.308   1.446
 4679SOL    HW214937   4.473   0.332   1.503
 4680SOL     OW14938   3.355   0.973   6.806
 4680SOL    HW114939   3.301   0.967   6.722
 4680SOL    HW214940   3.333   0.896   6.866
 4681SOL     OW14941   4.926   4.879   0.323
 4681SOL    HW114942   4.944   4.787   0.356
 4681SOL    HW214943   4.893   4.936   0.398
 4682SOL     OW14944   4.860   3.935   5.931
 4682SOL    HW114945   4.868   3.994   5.851
 4682SOL    HW214946   4.769   3.894   5.934
 4683SOL     OW14947   5.827   5.519   2.389
 4683SOL    HW114948   5.892   5.453   2.425
 4683SOL    HW214949   5.807   5.587   2.459
 4684SOL     OW14950   4.306   6.675   5.826
 4684SOL    HW114951   4.272   6.658   5.734
 4684SOL    HW214952   4.361   6.597   5.857
 4685SOL     OW14953   2.023   4.709   6.236
 4685SOL    HW114954   1.978   4.705   6.147
 4685SOL    HW214955   2.084   4.630   6.247
 4686SOL     OW14956   4.289   5.733   0.348
 4686SOL    HW114957   4.309   5.789   0.428
 4686SOL    HW214958   4.366   5.671   0.331
 4687SOL     OW14959   4.772   2.693   4.286
 4687SOL    HW114960   4.696   2.688   4.350
 4687SOL    HW214961   4.831   2.613   4.297
 4688SOL     OW14962   5.505   2.944   5.547
 4688SOL    HW114963   5.410   2.942   5.579
 4688SOL    HW214964   5.506   2.965   5.449
 4689SOL     OW14965   5.786   1.089   1.008
 4689SOL    HW114966   5.833   1.009   0.971
 4689SOL    HW214967   5.759   1.150   0.934
 4690SOL     OW14968   2.035   0.864   1.006
 4690SOL    HW114969   2.121   0.813   1.002
 4690SOL    HW214970   2.001   0.879   0.913
 4691SOL     OW14971   3.701   3.777   0.454
 4691SOL    HW114972   3.655   3.863   0.435
 4691SOL    HW214973   3.634   3.706   0.475
 4692SOL     OW14974   5.733   5.313   2.673
 4692SOL    HW114975   5.664   5.305   2.744
 4692SOL    HW214976   5.758   5.409   2.659
 4693SOL     OW14977   1.177   0.892   3.439
 4693SOL    HW114978   1.084   0.862   3.462
 4693SOL    HW214979   1.209   0.957   3.508
 4694SOL     OW14980   2.370   2.454   6.958
 4694SOL    HW114981   2.393   2.357   6.950
 4694SOL    HW214982   2.287   2.473   6.905
 4695SOL     OW14983   1.646   5.543   0.749
 4695SOL    HW114984   1.730   5.590   0.723
 4695SOL    HW214985   1.567   5.594   0.713
 4696SOL     OW14986   0.573   5.592   6.404
 4696SOL    HW114987   0.628   5.672   6.425
 4696SOL    HW214988   0.479   5.620   6.383
 4697SOL     OW14989   0.833   3.874   2.063
 4697SOL    HW114990   0.910   3.924   2.103
 4697SOL    HW214991   0.860   3.779   2.046
 4698SOL     OW14992   4.245   6.400   3.049
 4698SOL    HW114993   4.197   6.451   3.120
 4698SOL    HW214994   4.243   6.453   2.964
 4699SOL     OW14995   0.154   6.472   3.064
 4699SOL    HW114996   0.242   6.505   3.097
 4699SOL    HW214997   0.149   6.483   2.964
 4700SOL     OW14998   6.392   1.873   2.238
 4700SOL    HW114999   6.295   1.869   2.211
 4700SOL    HW215000   6.399   1.859   2.337
 4701SOL     OW15001   3.533   1.940   0.581
 4701SOL    HW115002   3.511   1.919   0.676
 4701SOL    HW215003   3.449   1.968   0.533
 4702SOL     OW15004   4.512   4.786   0.755
 4702SOL    HW115005   4.484   4.729   0.678
 4702SOL    HW215006   4.449   4.863   0.764
 4703SOL     OW15007   1.105   6.435   3.121
 4703SOL    HW115008   1.141   6.423   3.214
 4703SOL    HW215009   1.032   6.505   3.123
 4704SOL     OW15010   6.976   5.986   6.243
 4704SOL    HW115011   7.022   6.028   6.322
 4704SOL    HW215012   6.974   6.052   6.167
 4705SOL     OW15013   3.426   2.330   0.587
 4705SOL    HW115014   3.407   2.252   0.527
 4705SOL    HW215015   3.449   2.297   0.678
 4706SOL     OW15016   1.483   0.547   0.428
 4706SOL    HW115017   1.396   0.594   0.411
 4706SOL    HW215018   1.518   0.573   0.518
 4707SOL     OW15019   0.970   6.395   1.576
 4707SOL    HW115020   1.027   6.431   1.650
 4707SOL    HW215021   0.887   6.450   1.569
 4708SOL     OW15022   0.943   1.972   5.683
 4708SOL    HW115023   0.920   1.881   5.649
 4708SOL    HW215024   0.889   2.041   5.634
 4709SOL     OW15025   4.866   5.094   5.085
 4709SOL    HW115026   4.887   4.996   5.084
 4709SOL    HW215027   4.941   5.144   5.041
 4710SOL     OW15028   6.074   6.759   5.948
 4710SOL    HW115029   6.006   6.786   6.017
 4710SOL    HW215030   6.166   6.784   5.981
 4711SOL     OW15031   6.815   1.581   2.488
 4711SOL    HW115032   6.775   1.497   2.453
 4711SOL    HW215033   6.746   1.653   2.489
 4712SOL     OW15034   3.441   4.976   6.375
 4712SOL    HW115035   3.528   4.931   6.351
 4712SOL    HW215036   3.452   5.024   6.462
 4713SOL     OW15037   4.467   5.539   0.568
 4713SOL    HW115038   4.385   5.585   0.603
 4713SOL    HW215039   4.512   5.491   0.643
 4714SOL     OW15040   0.235   1.356   6.248
 4714SOL    HW115041   0.166   1.283   6.255
 4714SOL    HW215042   0.201   1.428   6.188
 4715SOL     OW15043   6.354   3.371   1.602
 4715SOL    HW115044   6.415   3.302   1.642
 4715SOL    HW215045   6.327   3.342   1.510
 4716SOL     OW15046   4.710   6.463   5.503
 4716SOL    HW115047   4.803   6.433   5.526
 4716SOL    HW215048   4.675   6.409   5.427
 4717SOL     OW15049   1.129   5.374   5.117
 4717SOL    HW115050   1.196   5.411   5.052
 4717SOL    HW215051   1.159   5.391   5.210
 4718SOL     OW15052   5.072   2.258   1.328
 4718SOL    HW115053   5.044   2.293   1.418
 4718SOL    HW215054   4.994   2.212   1.284
 4719SOL     OW15055   5.026   3.774   2.697
 4719SOL    HW115056   5.000   3.789   2.792
 4719SOL    HW215057   5.067   3.684   2.687
 4720SOL     OW15058   1.690   4.746   6.153
 4720SOL    HW115059   1.690   4.646   6.150
 4720SOL    HW215060   1.684   4.777   6.248
 4721SOL     OW15061   6.321   2.073   1.681
 4721SOL    HW115062   6.315   2.168   1.709
 4721SOL    HW215063   6.318   2.067   1.581
 4722SOL     OW15064   1.228   6.221   6.768
 4722SOL    HW115065   1.286   6.148   6.731
 4722SOL    HW215066   1.230   6.300   6.706
 4723SOL     OW15067   3.179   3.512   4.773
 4723SOL    HW115068   3.217   3.589   4.824
 4723SOL    HW215069   3.096   3.540   4.725
 4724SOL     OW15070   0.175   0.045   4.133
 4724SOL    HW115071   0.204   7.009   4.203
 4724SOL    HW215072   0.216   0.020   4.045
 4725SOL     OW15073   6.037   4.919   0.416
 4725SOL    HW115074   6.109   4.878   0.361
 4725SOL    HW215075   5.993   4.993   0.364
 4726SOL     OW15076   1.151   3.270   5.858
 4726SOL    HW115077   1.113   3.181   5.835
 4726SOL    HW215078   1.248   3.273   5.832
 4727SOL     OW15079   0.232   5.948   1.084
 4727SOL    HW115080   0.171   5.936   1.006
 4727SOL    HW215081   0.262   5.859   1.117
 4728SOL     OW15082   6.896   1.247   2.777
 4728SOL    HW115083   6.835   1.231   2.699
 4728SOL    HW215084   6.841   1.267   2.858
 4729SOL     OW15085   4.969   0.978   0.170
 4729SOL    HW115086   5.047   0.917   0.158
 4729SOL    HW215087   4.885   0.925   0.174
 4730SOL     OW15088   3.049   5.959   5.563
 4730SOL    HW115089   3.091   5.869   5.552
 4730SOL    HW215090   3.035   5.977   5.661
 4731SOL     OW15091   3.297   0.988   1.038
 4731SOL    HW115092   3.231   1.053   1.003
 4731SOL    HW215093   3.357   1.034   1.104
 4732SOL     OW15094   0.549   3.188   4.935
 4732SOL    HW115095   0.547   3.118   4.863
 4732SOL    HW215096   0.596   3.151   5.015
 4733SOL     OW15097   1.364   4.050   3.115
 4733SOL    HW115098   1.384   3.977   3.050
 4733SOL    HW215099   1.372   4.015   3.208
 4734SOL     OW15100   4.567   3.654   0.363
 4734SOL    HW115101   4.607   3.571   0.401
 4734SOL    HW215102   4.496   3.689   0.425
 4735SOL     OW15103   6.426   5.569   4.168
 4735SOL    HW115104   6.442   5.625   4.087
 4735SOL    HW215105   6.424   5.628   4.249
 4736SOL     OW15106   5.719   1.778   5.163
 4736SOL    HW115107   5.743   1.746   5.072
 4736SOL    HW215108   5.712   1.878   5.163
 4737SOL     OW15109   2.568   4.388   0.652
 4737SOL    HW115110   2.562   4.314   0.718
 4737SOL    HW215111   2.491   4.450   0.664
 4738SOL     OW15112   2.985   6.425   3.322
 4738SOL    HW115113   2.959   6.329   3.316
 4738SOL    HW215114   2.903   6.482   3.316
 4739SOL     OW15115   5.371   1.875   3.381
 4739SOL    HW115116   5.279   1.838   3.396
 4739SOL    HW215117   5.381   1.961   3.430
 4740SOL     OW15118   0.849   0.282   0.647
 4740SOL    HW115119   0.934   0.304   0.599
 4740SOL    HW215120   0.777   0.345   0.619
 4741SOL     OW15121   4.686   3.315   1.394
 4741SOL    HW115122   4.694   3.392   1.330
 4741SOL    HW215123   4.719   3.343   1.484
 4742SOL     OW15124   3.420   6.319   1.750
 4742SOL    HW115125   3.401   6.240   1.807
 4742SOL    HW215126   3.502   6.366   1.784
 4743SOL     OW15127   1.280   2.239   5.655
 4743SOL    HW115128   1.363   2.292   5.674
 4743SOL    HW215129   1.261   2.243   5.557
 4744SOL     OW15130   2.697   3.447   5.524
 4744SOL    HW115131   2.743   3.364   5.555
 4744SOL    HW215132   2.628   3.474   5.591
 4745SOL     OW15133   2.300   5.388   5.518
 4745SOL    HW115134   2.327   5.306   5.569
 4745SOL    HW215135   2.243   5.361   5.441
 4746SOL     OW15136   6.198   6.219   1.957
 4746SOL    HW115137   6.153   6.230   1.868
 4746SOL    HW215138   6.144   6.157   2.014
 4747SOL     OW15139   1.546   3.874   6.006
 4747SOL    HW115140   1.476   3.943   6.024
 4747SOL    HW215141   1.633   3.904   6.043
 4748SOL     OW15142   1.517   5.454   1.413
 4748SOL    HW115143   1.456   5.397   1.358
 4748SOL    HW215144   1.576   5.396   1.469
 4749SOL     OW15145   3.148   6.491   5.850
 4749SOL    HW115146   3.202   6.440   5.917
 4749SOL    HW215147   3.187   6.479   5.759
 4750SOL     OW15148   0.394   2.670   3.940
 4750SOL    HW115149   0.306   2.682   3.894
 4750SOL    HW215150   0.451   2.607   3.887
 4751SOL     OW15151   1.691   3.493   0.174
 4751SOL    HW115152   1.616   3.505   0.108
 4751SOL    HW215153   1.691   3.570   0.238
 4752SOL     OW15154   2.961   0.258   0.478
 4752SOL    HW115155   2.986   0.163   0.499
 4752SOL    HW215156   3.008   0.319   0.542
 4753SOL     OW15157   5.288   0.044   4.085
 4753SOL    HW115158   5.378   0.003   4.096
 4753SOL    HW215159   5.217   7.007   4.107
 4754SOL     OW15160   5.991   0.167   5.713
 4754SOL    HW115161   6.057   0.216   5.770
 4754SOL    HW215162   5.996   0.069   5.733
 4755SOL     OW15163   2.515   0.775   0.442
 4755SOL    HW115164   2.515   0.779   0.342
 4755SOL    HW215165   2.609   0.766   0.474
 4756SOL     OW15166   6.016   2.447   0.808
 4756SOL    HW115167   6.009   2.357   0.766
 4756SOL    HW215168   5.932   2.498   0.791
 4757SOL     OW15169   1.519   2.041   2.252
 4757SOL    HW115170   1.555   2.076   2.338
 4757SOL    HW215171   1.594   2.009   2.194
 4758SOL     OW15172   3.398   5.970   4.984
 4758SOL    HW115173   3.487   5.959   4.940
 4758SOL    HW215174   3.367   5.881   5.019
 4759SOL     OW15175   5.888   5.235   4.975
 4759SOL    HW115176   5.964   5.261   5.034
 4759SOL    HW215177   5.903   5.142   4.941
 4760SOL     OW15178   3.499   2.184   1.080
 4760SOL    HW115179   3.571   2.243   1.116
 4760SOL    HW215180   3.456   2.135   1.156
 4761SOL     OW15181   0.363   0.511   6.568
 4761SOL    HW115182   0.293   0.493   6.637
 4761SOL    HW215183   0.349   0.451   6.489
 4762SOL     OW15184   2.594   5.190   2.808
 4762SOL    HW115185   2.680   5.241   2.815
 4762SOL    HW215186   2.517   5.251   2.827
 4763SOL     OW15187   5.956   6.208   3.441
 4763SOL    HW115188   6.022   6.204   3.516
 4763SOL    HW215189   5.864   6.189   3.476
 4764SOL     OW15190   4.558   3.894   5.904
 4764SOL    HW115191   4.573   3.897   5.805
 4764SOL    HW215192   4.522   3.804   5.930
 4765SOL     OW15193   5.020   6.870   4.422
 4765SOL    HW115194   5.071   6.925   4.488
 4765SOL    HW215195   5.077   6.852   4.342
 4766SOL     OW15196   4.229   0.235   3.857
 4766SOL    HW115197   4.248   0.319   3.806
 4766SOL    HW215198   4.272   0.240   3.947
 4767SOL     OW15199   4.123   5.725   6.273
 4767SOL    HW115200   4.132   5.680   6.185
 4767SOL    HW215201   4.143   5.823   6.263
 4768SOL     OW15202   4.689   2.077   5.101
 4768SOL    HW115203   4.711   2.099   5.006
 4768SOL    HW215204   4.714   1.983   5.121
 4769SOL     OW15205   4.381   5.161   1.009
 4769SOL    HW115206   4.408   5.255   1.028
 4769SOL    HW215207   4.348   5.118   1.092
 4770SOL     OW15208   1.694   6.973   3.701
 4770SOL    HW115209   1.781   6.941   3.738
 4770SOL    HW215210   1.674   6.924   3.617
 4771SOL     OW15211   3.374   5.383   5.558
 4771SOL    HW115212   3.365   5.297   5.609
 4771SOL    HW215213   3.403   5.363   5.464
 4772SOL     OW15214   2.417   5.695   1.860
 4772SOL    HW115215   2.511   5.728   1.856
 4772SOL    HW215216   2.378   5.716   1.950
 4773SOL     OW15217   6.522   5.301   4.668
 4773SOL    HW115218   6.519   5.234   4.594
 4773SOL    HW215219   6.600   5.363   4.653
 4774SOL     OW15220   1.270   2.731   1.551
 4774SOL    HW115221   1.244   2.678   1.471
 4774SOL    HW215222   1.357   2.697   1.588
 4775SOL     OW15223   5.140   7.009   3.105
 4775SOL    HW115224   5.184   6.930   3.147
 4775SOL    HW215225   5.119   0.048   3.175
 4776SOL     OW15226   1.429   6.778   4.413
 4776SOL    HW115227   1.332   6.785   4.389
 4776SOL    HW215228   1.485   6.805   4.335
 4777SOL     OW15229   2.776   4.652   1.293
 4777SOL    HW115230   2.819   4.562   1.291
 4777SOL    HW215231   2.677   4.641   1.305
 4778SOL     OW15232   5.166   2.138   2.325
 4778SOL    HW115233   5.140   2.055   2.375
 4778SOL    HW215234   5.166   2.119   2.227
 4779SOL     OW15235   6.699   6.297   1.975
 4779SOL    HW115236   6.770   6.236   1.939
 4779SOL    HW215237   6.610   6.269   1.939
 4780SOL     OW15238   0.126   0.422   6.798
 4780SOL    HW115239   0.088   0.427   6.705
 4780SOL    HW215240   0.133   0.326   6.825
 4781SOL     OW15241   3.315   6.285   1.397
 4781SOL    HW115242   3.401   6.257   1.354
 4781SOL    HW215243   3.238   6.255   1.342
 4782SOL     OW15244   4.717   6.373   0.499
 4782SOL    HW115245   4.803   6.330   0.524
 4782SOL    HW215246   4.711   6.380   0.399
 4783SOL     OW15247   4.598   4.373   0.240
 4783SOL    HW115248   4.606   4.313   0.320
 4783SOL    HW215249   4.646   4.331   0.163
 4784SOL     OW15250   6.474   4.079   6.721
 4784SOL    HW115251   6.561   4.030   6.710
 4784SOL    HW215252   6.419   4.033   6.790
 4785SOL     OW15253   6.495   5.344   1.344
 4785SOL    HW115254   6.570   5.301   1.293
 4785SOL    HW215255   6.532   5.417   1.401
 4786SOL     OW15256   2.361   2.274   2.060
 4786SOL    HW115257   2.452   2.309   2.035
 4786SOL    HW215258   2.368   2.225   2.147
 4787SOL     OW15259   3.228   2.072   3.583
 4787SOL    HW115260   3.293   2.104   3.652
 4787SOL    HW215261   3.276   2.014   3.517
 4788SOL     OW15262   0.968   5.361   6.321
 4788SOL    HW115263   0.985   5.374   6.224
 4788SOL    HW215264   0.874   5.387   6.343
 4789SOL     OW15265   5.535   1.042   0.139
 4789SOL    HW115266   5.602   0.968   0.129
 4789SOL    HW215267   5.495   1.038   0.230
 4790SOL     OW15268   0.276   2.685   6.232
 4790SOL    HW115269   0.223   2.606   6.262
 4790SOL    HW215270   0.268   2.758   6.300
 4791SOL     OW15271   6.014   2.072   1.540
 4791SOL    HW115272   6.066   2.089   1.457
 4791SOL    HW215273   5.956   2.152   1.560
 4792SOL     OW15274   1.831   3.573   2.591
 4792SOL    HW115275   1.920   3.607   2.560
 4792SOL    HW215276   1.760   3.599   2.525
 4793SOL     OW15277   1.104   2.431   5.934
 4793SOL    HW115278   1.113   2.333   5.914
 4793SOL    HW215279   1.147   2.451   6.022
 4794SOL     OW15280   4.850   0.976   3.221
 4794SOL    HW115281   4.907   0.901   3.255
 4794SOL    HW215282   4.759   0.969   3.262
 4795SOL     OW15283   6.385   1.459   2.781
 4795SOL    HW115284   6.358   1.512   2.701
 4795SOL    HW215285   6.394   1.363   2.756
 4796SOL     OW15286   5.289   2.551   6.344
 4796SOL    HW115287   5.370   2.584   6.296
 4796SOL    HW215288   5.315   2.517   6.434
 4797SOL     OW15289   1.552   6.249   5.414
 4797SOL    HW115290   1.630   6.199   5.450
 4797SOL    HW215291   1.579   6.344   5.394
 4798SOL     OW15292   0.342   2.983   5.172
 4798SOL    HW115293   0.396   2.923   5.114
 4798SOL    HW215294   0.311   3.062   5.118
 4799SOL     OW15295   5.046   2.073   6.454
 4799SOL    HW115296   5.005   2.160   6.427
 4799SOL    HW215297   5.018   2.002   6.391
 4800SOL     OW15298   2.282   3.784   5.566
 4800SOL    HW115299   2.313   3.765   5.473
 4800SOL    HW215300   2.197   3.835   5.564
 4801SOL     OW15301   2.770   3.069   0.517
 4801SOL    HW115302   2.701   3.109   0.576
 4801SOL    HW215303   2.733   2.987   0.472
 4802SOL     OW15304   0.822   6.506   2.012
 4802SOL    HW115305   0.752   6.572   1.984
 4802SOL    HW215306   0.895   6.554   2.061
 4803SOL     OW15307   1.282   6.293   0.527
 4803SOL    HW115308   1.190   6.323   0.504
 4803SOL    HW215309   1.300   6.204   0.485
 4804SOL     OW15310   4.823   5.480   6.378
 4804SOL    HW115311   4.728   5.468   6.408
 4804SOL    HW215312   4.823   5.517   6.285
 4805SOL     OW15313   6.190   7.018   0.884
 4805SOL    HW115314   6.143   0.055   0.943
 4805SOL    HW215315   6.279   0.025   0.857
 4806SOL     OW15316   0.179   4.540   2.584
 4806SOL    HW115317   0.091   4.492   2.586
 4806SOL    HW215318   0.165   4.636   2.608
 4807SOL     OW15319   1.319   4.872   0.776
 4807SOL    HW115320   1.223   4.852   0.756
 4807SOL    HW215321   1.352   4.810   0.848
 4808SOL     OW15322   6.360   3.769   6.738
 4808SOL    HW115323   6.360   3.708   6.659
 4808SOL    HW215324   6.285   3.835   6.730
 4809SOL     OW15325   3.473   4.093   6.746
 4809SOL    HW115326   3.442   4.037   6.823
 4809SOL    HW215327   3.406   4.088   6.672
 4810SOL     OW15328   1.328   5.332   2.234
 4810SOL    HW115329   1.371   5.340   2.324
 4810SOL    HW215330   1.372   5.258   2.183
 4811SOL     OW15331   1.780   4.908   2.130
 4811SOL    HW115332   1.688   4.901   2.092
 4811SOL    HW215333   1.779   4.878   2.226
 4812SOL     OW15334   0.338   5.027   5.220
 4812SOL    HW115335   0.298   5.089   5.153
 4812SOL    HW215336   0.435   5.014   5.201
 4813SOL     OW15337   5.449   1.987   1.032
 4813SOL    HW115338   5.418   1.973   1.126
 4813SOL    HW215339   5.389   1.937   0.970
 4814SOL     OW15340   5.952   4.429   0.432
 4814SOL    HW115341   6.044   4.459   0.406
 4814SOL    HW215342   5.894   4.509   0.447
 4815SOL     OW15343   5.596   4.288   3.176
 4815SOL    HW115344   5.620   4.369   3.122
 4815SOL    HW215345   5.654   4.211   3.149
 4816SOL     OW15346   6.867   5.156   2.599
 4816SOL    HW115347   6.850   5.231   2.663
 4816SOL    HW215348   6.936   5.094   2.637
 4817SOL     OW15349   1.166   1.965   6.618
 4817SOL    HW115350   1.087   1.980   6.558
 4817SOL    HW215351   1.205   2.053   6.644
 4818SOL     OW15352   0.757   0.479   4.525
 4818SOL    HW115353   0.658   0.471   4.508
 4818SOL    HW215354   0.772   0.548   4.596
 4819SOL     OW15355   0.997   2.456   0.070
 4819SOL    HW115356   0.943   2.386   0.023
 4819SOL    HW215357   1.023   2.528   0.006
 4820SOL     OW15358   6.744   2.898   1.420
 4820SOL    HW115359   6.819   2.954   1.455
 4820SOL    HW215360   6.734   2.816   1.475
 4821SOL     OW15361   0.769   6.041   2.839
 4821SOL    HW115362   0.832   6.096   2.895
 4821SOL    HW215363   0.810   5.952   2.820
 4822SOL     OW15364   1.139   3.502   4.708
 4822SOL    HW115365   1.156   3.534   4.801
 4822SOL    HW215366   1.225   3.484   4.662
 4823SOL     OW15367   1.817   1.511   3.904
 4823SOL    HW115368   1.725   1.548   3.893
 4823SOL    HW215369   1.869   1.568   3.967
 4824SOL     OW15370   5.077   1.908   5.554
 4824SOL    HW115371   5.089   2.003   5.525
 4824SOL    HW215372   4.979   1.887   5.560
 4825SOL     OW15373   1.455   2.226   4.609
 4825SOL    HW115374   1.439   2.138   4.564
 4825SOL    HW215375   1.383   2.290   4.583
 4826SOL     OW15376   5.668   0.447   0.576
 4826SOL    HW115377   5.664   0.377   0.647
 4826SOL    HW215378   5.583   0.447   0.523
 4827SOL     OW15379   6.391   1.923   0.704
 4827SOL    HW115380   6.479   1.875   0.707
 4827SOL    HW215381   6.356   1.922   0.610
 4828SOL     OW15382   5.435   1.068   1.235
 4828SOL    HW115383   5.397   1.081   1.327
 4828SOL    HW215384   5.389   1.129   1.171
 4829SOL     OW15385   3.636   0.633   6.188
 4829SOL    HW115386   3.726   0.604   6.220
 4829SOL    HW215387   3.569   0.623   6.261
 4830SOL     OW15388   3.496   5.615   3.949
 4830SOL    HW115389   3.404   5.631   3.986
 4830SOL    HW215390   3.506   5.665   3.863
 4831SOL     OW15391   1.703   4.732   5.189
 4831SOL    HW115392   1.701   4.807   5.254
 4831SOL    HW215393   1.763   4.660   5.224
 4832SOL     OW15394   3.134   3.980   3.649
 4832SOL    HW115395   3.195   4.053   3.680
 4832SOL    HW215396   3.169   3.892   3.680
 4833SOL     OW15397   5.927   2.002   2.612
 4833SOL    HW115398   5.853   1.941   2.585
 4833SOL    HW215399   6.002   1.947   2.650
 4834SOL     OW15400   2.555   5.939   2.287
 4834SOL    HW115401   2.581   6.000   2.212
 4834SOL    HW215402   2.500   5.989   2.353
 4835SOL     OW15403   6.304   3.372   5.861
 4835SOL    HW115404   6.325   3.437   5.788
 4835SOL    HW215405   6.311   3.419   5.949
 4836SOL     OW15406   5.316   1.288   4.850
 4836SOL    HW115407   5.308   1.188   4.842
 4836SOL    HW215408   5.239   1.331   4.804
 4837SOL     OW15409   6.729   3.796   2.562
 4837SOL    HW115410   6.694   3.702   2.557
 4837SOL    HW215411   6.687   3.843   2.640
 4838SOL     OW15412   2.135   5.839   0.090
 4838SOL    HW115413   2.154   5.748   0.053
 4838SOL    HW215414   2.036   5.854   0.092
 4839SOL     OW15415   1.270   2.991   0.036
 4839SOL    HW115416   1.365   2.963   0.032
 4839SOL    HW215417   1.219   2.929   0.096
 4840SOL     OW15418   6.343   4.389   5.826
 4840SOL    HW115419   6.413   4.320   5.809
 4840SOL    HW215420   6.306   4.377   5.918
 4841SOL     OW15421   2.589   4.970   2.960
 4841SOL    HW115422   2.492   4.971   2.985
 4841SOL    HW215423   2.608   5.044   2.895
 4842SOL     OW15424   2.646   5.334   3.797
 4842SOL    HW115425   2.593   5.252   3.772
 4842SOL    HW215426   2.738   5.306   3.826
 4843SOL     OW15427   6.830   2.634   1.970
 4843SOL    HW115428   6.784   2.568   1.910
 4843SOL    HW215429   6.929   2.626   1.959
 4844SOL     OW15430   0.221   4.116   5.242
 4844SOL    HW115431   0.144   4.080   5.189
 4844SOL    HW215432   0.217   4.079   5.335
 4845SOL     OW15433   4.506   5.030   5.842
 4845SOL    HW115434   4.455   4.956   5.887
 4845SOL    HW215435   4.504   5.112   5.899
 4846SOL     OW15436   0.267   1.870   3.593
 4846SOL    HW115437   0.184   1.886   3.539
 4846SOL    HW215438   0.306   1.958   3.621
 4847SOL     OW15439   2.344   1.761   5.607
 4847SOL    HW115440   2.289   1.845   5.612
 4847SOL    HW215441   2.437   1.781   5.638
 4848SOL     OW15442   2.382   1.292   4.581
 4848SOL    HW115443   2.429   1.312   4.495
 4848SOL    HW215444   2.404   1.362   4.649
 4849SOL     OW15445   1.805   5.950   0.657
 4849SOL    HW115446   1.865   5.994   0.589
 4849SOL    HW215447   1.710   5.958   0.627
 4850SOL     OW15448   5.148   0.832   1.102
 4850SOL    HW115449   5.164   0.760   1.034
 4850SOL    HW215450   5.066   0.810   1.155
 4851SOL     OW15451   3.784   5.426   6.261
 4851SOL    HW115452   3.733   5.489   6.320
 4851SOL    HW215453   3.798   5.467   6.172
 4852SOL     OW15454   2.567   5.393   4.589
 4852SOL    HW115455   2.650   5.427   4.545
 4852SOL    HW215456   2.517   5.470   4.630
 4853SOL     OW15457   3.719   1.805   3.524
 4853SOL    HW115458   3.741   1.872   3.595
 4853SOL    HW215459   3.779   1.819   3.445
 4854SOL     OW15460   4.839   6.906   1.462
 4854SOL    HW115461   4.918   6.851   1.488
 4854SOL    HW215462   4.855   7.001   1.489
 4855SOL     OW15463   6.166   3.822   5.018
 4855SOL    HW115464   6.185   3.839   4.921
 4855SOL    HW215465   6.091   3.756   5.026
 4856SOL     OW15466   0.863   2.974   2.836
 4856SOL    HW115467   0.829   2.940   2.923
 4856SOL    HW215468   0.962   2.963   2.832
 4857SOL     OW15469   3.174   1.859   3.239
 4857SOL    HW115470   3.190   1.761   3.249
 4857SOL    HW215471   3.084   1.873   3.197
 4858SOL     OW15472   0.468   6.817   5.068
 4858SOL    HW115473   0.399   6.763   5.117
 4858SOL    HW215474   0.526   6.864   5.134
 4859SOL     OW15475   0.631   5.207   2.023
 4859SOL    HW115476   0.642   5.306   2.013
 4859SOL    HW215477   0.684   5.175   2.101
 4860SOL     OW15478   4.081   4.576   0.267
 4860SOL    HW115479   4.121   4.652   0.216
 4860SOL    HW215480   4.074   4.600   0.363
 4861SOL     OW15481   5.855   5.580   6.572
 4861SOL    HW115482   5.795   5.551   6.646
 4861SOL    HW215483   5.874   5.677   6.581
 4862SOL     OW15484   2.515   4.480   4.559
 4862SOL    HW115485   2.469   4.438   4.638
 4862SOL    HW215486   2.561   4.564   4.588
 4863SOL     OW15487   4.884   3.409   2.812
 4863SOL    HW115488   4.894   3.465   2.729
 4863SOL    HW215489   4.825   3.331   2.792
 4864SOL     OW15490   3.479   1.603   1.784
 4864SOL    HW115491   3.496   1.639   1.876
 4864SOL    HW215492   3.428   1.671   1.731
 4865SOL     OW15493   2.555   5.692   4.977
 4865SOL    HW115494   2.596   5.743   5.053
 4865SOL    HW215495   2.601   5.605   4.966
 4866SOL     OW15496   5.881   4.562   1.275
 4866SOL    HW115497   5.832   4.629   1.330
 4866SOL    HW215498   5.900   4.481   1.329
 4867SOL     OW15499   4.349   5.581   3.569
 4867SOL    HW115500   4.363   5.495   3.519
 4867SOL    HW215501   4.260   5.618   3.546
 4868SOL     OW15502   0.574   5.964   1.786
 4868SOL    HW115503   0.482   5.926   1.779
 4868SOL    HW215504   0.640   5.889   1.797
 4869SOL     OW15505   6.804   2.530   0.966
 4869SOL    HW115506   6.719   2.549   1.015
 4869SOL    HW215507   6.831   2.435   0.983
 4870SOL     OW15508   4.750   5.114   1.591
 4870SOL    HW115509   4.715   5.187   1.532
 4870SOL    HW215510   4.709   5.027   1.562
 4871SOL     OW15511   0.830   0.646   4.202
 4871SOL    HW115512   0.833   0.667   4.104
 4871SOL    HW215513   0.894   0.571   4.222
 4872SOL     OW15514   0.945   6.947   3.931
 4872SOL    HW115515   0.968   6.903   3.844
 4872SOL    HW215516   0.884   7.025   3.915
 4873SOL     OW15517   0.405   4.742   3.760
 4873SOL    HW115518   0.406   4.840   3.739
 4873SOL    HW215519   0.456   4.726   3.844
 4874SOL     OW15520   6.101   3.580   2.151
 4874SOL    HW115521   6.190   3.588   2.106
 4874SOL    HW215522   6.052   3.667   2.144
 4875SOL     OW15523   5.569   2.461   0.959
 4875SOL    HW115524   5.657   2.505   0.978
 4875SOL    HW215525   5.497   2.530   0.957
 4876SOL     OW15526   5.927   0.519   5.351
 4876SOL    HW115527   5.840   0.469   5.352
 4876SOL    HW215528   5.953   0.543   5.444
 4877SOL     OW15529   6.936   1.404   0.952
 4877SOL    HW115530   6.894   1.313   0.944
 4877SOL    HW215531   0.002   1.398   0.926
 4878SOL     OW15532   0.064   1.568   2.399
 4878SOL    HW115533   0.155   1.578   2.438
 4878SOL    HW215534   7.028   1.546   2.471
 4879SOL     OW15535   4.306   5.004   3.014
 4879SOL    HW115536   4.370   5.072   2.978
 4879SOL    HW215537   4.327   4.986   3.110
 4880SOL     OW15538   4.975   2.716   6.694
 4880SOL    HW115539   4.996   2.637   6.751
 4880SOL    HW215540   4.898   2.694   6.634
 4881SOL     OW15541   2.019   5.606   6.998
 4881SOL    HW115542   2.115   5.598   6.973
 4881SOL    HW215543   2.010   5.597   0.068
 4882SOL     OW15544   5.968   1.836   5.255
 4882SOL    HW115545   5.898   1.770   5.228
 4882SOL    HW215546   6.010   1.806   5.341
 4883SOL     OW15547   4.907   4.660   2.522
 4883SOL    HW115548   4.811   4.636   2.532
 4883SOL    HW215549   4.964   4.587   2.560
 4884SOL     OW15550   4.749   0.167   0.907
 4884SOL    HW115551   4.692   0.086   0.896
 4884SOL    HW215552   4.823   0.166   0.839
 4885SOL     OW15553   2.703   6.207   2.564
 4885SOL    HW115554   2.615   6.161   2.550
 4885SOL    HW215555   2.710   6.285   2.503
 4886SOL     OW15556   0.469   6.496   6.199
 4886SOL    HW115557   0.428   6.587   6.203
 4886SOL    HW215558   0.526   6.481   6.280
 4887SOL     OW15559   6.986   1.472   3.231
 4887SOL    HW115560   0.025   1.407   3.263
 4887SOL    HW215561   6.937   1.510   3.310
 4888SOL     OW15562   1.844   6.322   3.777
 4888SOL    HW115563   1.934   6.357   3.804
 4888SOL    HW215564   1.855   6.245   3.715
 4889SOL     OW15565   0.552   1.591   0.212
 4889SOL    HW115566   0.636   1.608   0.263
 4889SOL    HW215567   0.539   1.493   0.200
 4890SOL     OW15568   0.494   1.565   4.253
 4890SOL    HW115569   0.522   1.652   4.294
 4890SOL    HW215570   0.555   1.544   4.176
 4891SOL     OW15571   1.140   5.848   6.898
 4891SOL    HW115572   1.107   5.761   6.936
 4891SOL    HW215573   1.090   5.924   6.940
 4892SOL     OW15574   1.961   5.867   2.478
 4892SOL    HW115575   1.865   5.867   2.449
 4892SOL    HW215576   1.971   5.814   2.562
 4893SOL     OW15577   6.868   4.502   6.630
 4893SOL    HW115578   6.898   4.515   6.535
 4893SOL    HW215579   6.835   4.409   6.643
 4894SOL     OW15580   2.722   0.046   2.407
 4894SOL    HW115581   2.673   0.057   2.493
 4894SOL    HW215582   2.729   0.135   2.361
 4895SOL     OW15583   0.897   4.337   1.398
 4895SOL    HW115584   0.973   4.273   1.383
 4895SOL    HW215585   0.825   4.319   1.331
 4896SOL     OW15586   2.846   5.319   2.860
 4896SOL    HW115587   2.875   5.226   2.883
 4896SOL    HW215588   2.921   5.383   2.877
 4897SOL     OW15589   2.647   4.955   6.021
 4897SOL    HW115590   2.697   4.868   6.020
 4897SOL    HW215591   2.621   4.978   6.115
 4898SOL     OW15592   5.704   2.296   5.112
 4898SOL    HW115593   5.709   2.197   5.105
 4898SOL    HW215594   5.782   2.337   5.064
 4899SOL     OW15595   6.922   4.868   2.940
 4899SOL    HW115596   6.994   4.856   3.008
 4899SOL    HW215597   6.961   4.907   2.856
 4900SOL     OW15598   1.548   6.525   5.845
 4900SOL    HW115599   1.511   6.553   5.756
 4900SOL    HW215600   1.628   6.467   5.831
 4901SOL     OW15601   2.612   6.523   4.999
 4901SOL    HW115602   2.561   6.497   4.917
 4901SOL    HW215603   2.553   6.513   5.080
 4902SOL     OW15604   2.340   2.808   3.781
 4902SOL    HW115605   2.267   2.748   3.748
 4902SOL    HW215606   2.417   2.752   3.813
 4903SOL     OW15607   3.664   6.350   6.999
 4903SOL    HW115608   3.734   6.375   0.035
 4903SOL    HW215609   3.701   6.359   6.906
 4904SOL     OW15610   2.163   6.944   4.060
 4904SOL    HW115611   2.173   0.009   4.030
 4904SOL    HW215612   2.251   6.898   4.055
 4905SOL     OW15613   4.284   2.366   2.286
 4905SOL    HW115614   4.330   2.422   2.218
 4905SOL    HW215615   4.226   2.298   2.241
 4906SOL     OW15616   3.710   0.482   0.058
 4906SOL    HW115617   3.670   0.574   0.066
 4906SOL    HW215618   3.799   0.488   0.013
 4907SOL     OW15619   4.197   6.249   2.407
 4907SOL    HW115620   4.210   6.201   2.494
 4907SOL    HW215621   4.152   6.337   2.424
 4908SOL     OW15622   3.787   5.483   0.336
 4908SOL    HW115623   3.835   5.409   0.290
 4908SOL    HW215624   3.808   5.570   0.290
 4909SOL     OW15625   6.075   0.299   6.626
 4909SOL    HW115626   5.994   0.243   6.643
 4909SOL    HW215627   6.048   0.384   6.581
 4910SOL     OW15628   5.618   6.891   5.336
 4910SOL    HW115629   5.669   6.976   5.329
 4910SOL    HW215630   5.535   6.907   5.391
 4911SOL     OW15631   6.981   2.373   5.471
 4911SOL    HW115632   6.911   2.416   5.413
 4911SOL    HW215633   6.946   2.363   5.564
 4912SOL     OW15634   5.017   1.538   1.392
 4912SOL    HW115635   5.047   1.559   1.299
 4912SOL    HW215636   5.079   1.471   1.433
 4913SOL     OW15637   3.910   3.537   4.142
 4913SOL    HW115638   3.876   3.571   4.054
 4913SOL    HW215639   3.972   3.604   4.182
 4914SOL     OW15640   3.051   0.859   4.657
 4914SOL    HW115641   3.095   0.771   4.645
 4914SOL    HW215642   3.114   0.932   4.632
 4915SOL     OW15643   4.458   0.081   4.274
 4915SOL    HW115644   4.518   0.143   4.223
 4915SOL    HW215645   4.505   0.047   4.354
 4916SOL     OW15646   1.914   1.630   3.060
 4916SOL    HW115647   1.964   1.552   3.021
 4916SOL    HW215648   1.976   1.708   3.068
 4917SOL     OW15649   1.605   3.797   0.613
 4917SOL    HW115650   1.602   3.862   0.538
 4917SOL    HW215651   1.591   3.704   0.578
 4918SOL     OW15652   3.094   0.138   2.917
 4918SOL    HW115653   3.163   0.194   2.964
 4918SOL    HW215654   3.015   0.195   2.895
 4919SOL     OW15655   2.063   2.136   2.640
 4919SOL    HW115656   2.091   2.043   2.618
 4919SOL    HW215657   1.992   2.134   2.711
 4920SOL     OW15658   4.474   0.221   0.092
 4920SOL    HW115659   4.377   0.244   0.091
 4920SOL    HW215660   4.485   0.122   0.100
 4921SOL     OW15661   2.393   4.346   1.407
 4921SOL    HW115662   2.436   4.257   1.425
 4921SOL    HW215663   2.356   4.384   1.492
 4922SOL     OW15664   0.931   3.347   4.800
 4922SOL    HW115665   0.932   3.348   4.900
 4922SOL    HW215666   1.006   3.402   4.766
 4923SOL     OW15667   4.879   0.744   1.167
 4923SOL    HW115668   4.837   0.789   1.246
 4923SOL    HW215669   4.819   0.671   1.135
 4924SOL     OW15670   2.191   3.315   5.100
 4924SOL    HW115671   2.259   3.290   5.169
 4924SOL    HW215672   2.125   3.240   5.089
 4925SOL     OW15673   6.063   6.357   0.661
 4925SOL    HW115674   6.004   6.393   0.733
 4925SOL    HW215675   6.008   6.309   0.593
 4926SOL     OW15676   5.215   2.562   1.411
 4926SOL    HW115677   5.234   2.471   1.374
 4926SOL    HW215678   5.201   2.555   1.510
 4927SOL     OW15679   3.934   3.430   3.559
 4927SOL    HW115680   3.916   3.523   3.527
 4927SOL    HW215681   4.000   3.433   3.634
 4928SOL     OW15682   0.144   0.295   6.460
 4928SOL    HW115683   0.183   0.345   6.383
 4928SOL    HW215684   0.210   0.227   6.492
 4929SOL     OW15685   0.887   4.294   5.083
 4929SOL    HW115686   0.919   4.386   5.061
 4929SOL    HW215687   0.922   4.267   5.173
 4930SOL     OW15688   0.024   0.378   0.627
 4930SOL    HW115689   6.988   0.333   0.687
 4930SOL    HW215690   0.111   0.328   0.631
 4931SOL     OW15691   0.845   6.740   0.061
 4931SOL    HW115692   0.754   6.768   0.031
 4931SOL    HW215693   0.842   6.645   0.092
 4932SOL     OW15694   2.132   3.278   1.786
 4932SOL    HW115695   2.180   3.335   1.853
 4932SOL    HW215696   2.194   3.255   1.711
 4933SOL     OW15697   2.159   0.286   4.402
 4933SOL    HW115698   2.186   0.376   4.436
 4933SOL    HW215699   2.232   0.220   4.419
 4934SOL     OW15700   1.065   5.020   4.030
 4934SOL    HW115701   1.039   5.116   4.024
 4934SOL    HW215702   1.165   5.012   4.029
 4935SOL     OW15703   2.187   0.588   0.013
 4935SOL    HW115704   2.133   0.663   0.050
 4935SOL    HW215705   2.284   0.611   0.019
 4936SOL     OW15706   2.091   6.120   2.405
 4936SOL    HW115707   2.012   6.134   2.464
 4936SOL    HW215708   2.147   6.044   2.440
 4937SOL     OW15709   0.475   3.645   6.062
 4937SOL    HW115710   0.418   3.564   6.060
 4937SOL    HW215711   0.536   3.646   5.983
 4938SOL     OW15712   3.478   4.875   1.708
 4938SOL    HW115713   3.530   4.818   1.772
 4938SOL    HW215714   3.441   4.954   1.756
 4939SOL     OW15715   0.714   1.958   2.407
 4939SOL    HW115716   0.662   1.900   2.344
 4939SOL    HW215717   0.651   2.009   2.465
 4940SOL     OW15718   0.005   1.680   5.210
 4940SOL    HW115719   0.062   1.626   5.272
 4940SOL    HW215720   0.038   1.774   5.207
 4941SOL     OW15721   4.015   2.710   5.413
 4941SOL    HW115722   4.054   2.802   5.411
 4941SOL    HW215723   4.040   2.661   5.330
 4942SOL     OW15724   5.159   3.397   4.199
 4942SOL    HW115725   5.235   3.393   4.134
 4942SOL    HW215726   5.187   3.449   4.279
 4943SOL     OW15727   5.746   3.700   6.461
 4943SOL    HW115728   5.843   3.690   6.485
 4943SOL    HW215729   5.706   3.775   6.513
 4944SOL     OW15730   2.367   4.329   1.139
 4944SOL    HW115731   2.372   4.351   1.237
 4944SOL    HW215732   2.300   4.256   1.126
 4945SOL     OW15733   1.616   0.856   4.462
 4945SOL    HW115734   1.526   0.890   4.433
 4945SOL    HW215735   1.686   0.925   4.442
 4946SOL     OW15736   0.920   5.349   0.151
 4946SOL    HW115737   1.013   5.371   0.122
 4946SOL    HW215738   0.918   5.256   0.188
 4947SOL     OW15739   2.403   1.499   2.206
 4947SOL    HW115740   2.385   1.566   2.278
 4947SOL    HW215741   2.448   1.543   2.129
 4948SOL     OW15742   1.631   2.424   3.275
 4948SOL    HW115743   1.620   2.500   3.339
 4948SOL    HW215744   1.549   2.415   3.219
 4949SOL     OW15745   0.225   3.696   5.918
 4949SOL    HW115746   0.199   3.747   5.837
 4949SOL    HW215747   0.283   3.752   5.977
 4950SOL     OW15748   1.983   3.952   5.273
 4950SOL    HW115749   1.999   4.023   5.204
 4950SOL    HW215750   1.899   3.973   5.323
 4951SOL     OW15751   6.182   6.469   4.616
 4951SOL    HW115752   6.247   6.462   4.540
 4951SOL    HW215753   6.225   6.519   4.692
 4952SOL     OW15754   0.139   0.028   6.265
 4952SOL    HW115755   0.162   7.010   6.350
 4952SOL    HW215756   0.216   0.023   6.203
 4953SOL     OW15757   2.356   0.533   3.997
 4953SOL    HW115758   2.439   0.588   4.012
 4953SOL    HW215759   2.302   0.574   3.923
 4954SOL     OW15760   2.191   3.742   6.594
 4954SOL    HW115761   2.094   3.757   6.578
 4954SOL    HW215762   2.227   3.813   6.655
 4955SOL     OW15763   3.394   5.906   7.006
 4955SOL    HW115764   3.341   5.943   0.052
 4955SOL    HW215765   3.477   5.960   6.994
 4956SOL     OW15766   2.455   0.184   5.657
 4956SOL    HW115767   2.475   0.281   5.675
 4956SOL    HW215768   2.376   0.177   5.596
 4957SOL     OW15769   5.912   3.455   0.714
 4957SOL    HW115770   5.984   3.424   0.776
 4957SOL    HW215771   5.952   3.512   0.643
 4958SOL     OW15772   2.016   5.969   5.921
 4958SOL    HW115773   2.036   5.872   5.933
 4958SOL    HW215774   1.949   5.998   5.990
 4959SOL     OW15775   6.417   1.324   1.641
 4959SOL    HW115776   6.420   1.329   1.542
 4959SOL    HW215777   6.359   1.398   1.677
 4960SOL     OW15778   4.557   4.548   3.900
 4960SOL    HW115779   4.609   4.509   3.824
 4960SOL    HW215780   4.592   4.511   3.986
 4961SOL     OW15781   2.793   0.693   6.176
 4961SOL    HW115782   2.819   0.618   6.115
 4961SOL    HW215783   2.875   0.728   6.222
 4962SOL     OW15784   5.381   2.697   0.954
 4962SOL    HW115785   5.432   2.774   0.917
 4962SOL    HW215786   5.283   2.717   0.950
 4963SOL     OW15787   1.740   5.259   1.165
 4963SOL    HW115788   1.688   5.317   1.103
 4963SOL    HW215789   1.791   5.316   1.230
 4964SOL     OW15790   2.216   6.878   4.768
 4964SOL    HW115791   2.126   6.916   4.788
 4964SOL    HW215792   2.265   6.940   4.706
 4965SOL     OW15793   1.074   6.987   2.753
 4965SOL    HW115794   1.066   6.917   2.682
 4965SOL    HW215795   0.992   6.984   2.811
 4966SOL     OW15796   2.443   6.378   4.753
 4966SOL    HW115797   2.455   6.310   4.825
 4966SOL    HW215798   2.357   6.361   4.704
 4967SOL     OW15799   2.962   5.249   6.081
 4967SOL    HW115800   3.008   5.337   6.095
 4967SOL    HW215801   2.997   5.182   6.146
 4968SOL     OW15802   6.984   1.163   3.623
 4968SOL    HW115803   6.988   1.087   3.558
 4968SOL    HW215804   6.995   1.128   3.716
 4969SOL     OW15805   0.510   5.911   2.846
 4969SOL    HW115806   0.472   5.852   2.917
 4969SOL    HW215807   0.606   5.929   2.866
 4970SOL     OW15808   2.423   1.414   1.356
 4970SOL    HW115809   2.461   1.365   1.435
 4970SOL    HW215810   2.343   1.366   1.322
 4971SOL     OW15811   6.419   5.846   3.153
 4971SOL    HW115812   6.430   5.905   3.073
 4971SOL    HW215813   6.323   5.847   3.183
 4972SOL     OW15814   1.297   3.939   0.561
 4972SOL    HW115815   1.304   3.893   0.472
 4972SOL    HW215816   1.203   3.933   0.594
 4973SOL     OW15817   0.630   0.332   1.651
 4973SOL    HW115818   0.608   0.318   1.748
 4973SOL    HW215819   0.572   0.405   1.614
 4974SOL     OW15820   5.910   5.079   0.719
 4974SOL    HW115821   5.953   4.995   0.686
 4974SOL    HW215822   5.982   5.145   0.743
 4975SOL     OW15823   5.431   3.888   0.361
 4975SOL    HW115824   5.504   3.935   0.311
 4975SOL    HW215825   5.454   3.791   0.369
 4976SOL     OW15826   0.914   0.792   5.040
 4976SOL    HW115827   0.997   0.791   4.984
 4976SOL    HW215828   0.847   0.727   5.001
 4977SOL     OW15829   3.899   5.160   6.981
 4977SOL    HW115830   3.893   5.094   6.907
 4977SOL    HW215831   3.844   5.129   0.029
 4978SOL     OW15832   5.572   4.712   4.362
 4978SOL    HW115833   5.554   4.714   4.264
 4978SOL    HW215834   5.646   4.777   4.383
 4979SOL     OW15835   0.145   6.710   6.518
 4979SOL    HW115836   0.167   6.623   6.474
 4979SOL    HW215837   0.046   6.717   6.531
 4980SOL     OW15838   5.522   5.281   2.865
 4980SOL    HW115839   5.449   5.342   2.834
 4980SOL    HW215840   5.491   5.186   2.857
 4981SOL     OW15841   3.541   5.439   2.419
 4981SOL    HW115842   3.559   5.403   2.327
 4981SOL    HW215843   3.579   5.531   2.426
 4982SOL     OW15844   2.908   2.400   5.648
 4982SOL    HW115845   2.862   2.487   5.631
 4982SOL    HW215846   2.865   2.328   5.595
 4983SOL     OW15847   5.596   4.420   4.461
 4983SOL    HW115848   5.615   4.512   4.496
 4983SOL    HW215849   5.626   4.352   4.527
 4984SOL     OW15850   4.755   4.008   2.996
 4984SOL    HW115851   4.800   4.090   3.032
 4984SOL    HW215852   4.721   4.026   2.904
 4985SOL     OW15853   5.581   6.511   3.217
 4985SOL    HW115854   5.588   6.578   3.143
 4985SOL    HW215855   5.672   6.490   3.252
 4986SOL     OW15856   6.502   5.129   0.318
 4986SOL    HW115857   6.528   5.138   0.415
 4986SOL    HW215858   6.581   5.097   0.266
 4987SOL     OW15859   1.262   6.482   2.339
 4987SOL    HW115860   1.351   6.522   2.357
 4987SOL    HW215861   1.191   6.535   2.386
 4988SOL     OW15862   6.234   0.759   3.064
 4988SOL    HW115863   6.318   0.790   3.021
 4988SOL    HW215864   6.235   0.659   3.069
 4989SOL     OW15865   5.185   6.915   1.797
 4989SOL    HW115866   5.144   6.955   1.715
 4989SOL    HW215867   5.141   6.953   1.878
 4990SOL     OW15868   3.291   2.080   6.445
 4990SOL    HW115869   3.297   2.174   6.476
 4990SOL    HW215870   3.351   2.066   6.366
 4991SOL     OW15871   6.584   5.225   3.713
 4991SOL    HW115872   6.642   5.145   3.731
 4991SOL    HW215873   6.573   5.278   3.796
 4992SOL     OW15874   5.675   0.634   2.291
 4992SOL    HW115875   5.770   0.666   2.301
 4992SOL    HW215876   5.672   0.560   2.225
 4993SOL     OW15877   4.129   6.123   5.125
 4993SOL    HW115878   4.042   6.074   5.118
 4993SOL    HW215879   4.114   6.209   5.175
 4994SOL     OW15880   2.412   5.844   4.604
 4994SOL    HW115881   2.333   5.888   4.648
 4994SOL    HW215882   2.431   5.757   4.648
 4995SOL     OW15883   0.915   0.981   5.447
 4995SOL    HW115884   0.910   1.003   5.545
 4995SOL    HW215885   1.008   1.000   5.414
 4996SOL     OW15886   0.104   0.648   3.450
 4996SOL    HW115887   0.055   0.728   3.486
 4996SOL    HW215888   0.124   0.662   3.353
 4997SOL     OW15889   4.372   2.531   1.648
 4997SOL    HW115890   4.352   2.465   1.721
 4997SOL    HW215891   4.328   2.502   1.563
 4998SOL     OW15892   2.012   3.716   4.439
 4998SOL    HW115893   2.072   3.696   4.362
 4998SOL    HW215894   2.059   3.776   4.503
 4999SOL     OW15895   6.842   3.211   4.415
 4999SOL    HW115896   6.823   3.302   4.452
 4999SOL    HW215897   6.902   3.219   4.336
 5000SOL     OW15898   3.142   7.018   3.285
 5000SOL    HW115899   3.209   6.989   3.216
 5000SOL    HW215900   3.158   6.969   3.370
 5001SOL     OW15901   0.903   5.798   2.172
 5001SOL    HW115902   0.960   5.836   2.245
 5001SOL    HW215903   0.958   5.737   2.116
 5002SOL     OW15904   0.278   5.199   2.154
 5002SOL    HW115905   0.360   5.236   2.197
 5002SOL    HW215906   0.298   5.176   2.058
 5003SOL     OW15907   3.962   6.095   3.135
 5003SOL    HW115908   3.949   6.065   3.040
 5003SOL    HW215909   4.059   6.109   3.152
 5004SOL     OW15910   2.140   4.464   5.870
 5004SOL    HW115911   2.127   4.459   5.771
 5004SOL    HW215912   2.192   4.546   5.893
 5005SOL     OW15913   2.732   2.977   6.085
 5005SOL    HW115914   2.778   3.032   6.015
 5005SOL    HW215915   2.687   3.037   6.151
 5006SOL     OW15916   5.540   0.763   1.440
 5006SOL    HW115917   5.460   0.714   1.474
 5006SOL    HW215918   5.524   0.790   1.345
 5007SOL     OW15919   0.013   0.100   1.057
 5007SOL    HW115920   0.112   0.089   1.047
 5007SOL    HW215921   7.018   0.195   1.036
 5008SOL     OW15922   5.713   5.829   1.527
 5008SOL    HW115923   5.738   5.902   1.590
 5008SOL    HW215924   5.759   5.744   1.553
 5009SOL     OW15925   0.122   2.017   7.008
 5009SOL    HW115926   0.190   2.072   6.958
 5009SOL    HW215927   0.161   1.987   0.065
 5010SOL     OW15928   4.283   2.533   0.721
 5010SOL    HW115929   4.329   2.496   0.801
 5010SOL    HW215930   4.352   2.558   0.652
 5011SOL     OW15931   1.786   4.551   2.004
 5011SOL    HW115932   1.826   4.505   1.925
 5011SOL    HW215933   1.852   4.617   2.041
 5012SOL     OW15934   5.877   2.498   4.944
 5012SOL    HW115935   5.899   2.485   4.848
 5012SOL    HW215936   5.950   2.456   5.000
 5013SOL     OW15937   5.520   1.388   6.431
 5013SOL    HW115938   5.551   1.349   6.344
 5013SOL    HW215939   5.527   1.319   6.503
 5014SOL     OW15940   6.515   4.172   0.561
 5014SOL    HW115941   6.528   4.073   0.561
 5014SOL    HW215942   6.421   4.192   0.591
 5015SOL     OW15943   4.822   0.882   4.815
 5015SOL    HW115944   4.730   0.842   4.809
 5015SOL    HW215945   4.816   0.981   4.801
 5016SOL     OW15946   1.333   3.016   5.037
 5016SOL    HW115947   1.375   3.050   4.954
 5016SOL    HW215948   1.398   2.959   5.087
 5017SOL     OW15949   1.330   2.925   1.267
 5017SOL    HW115950   1.355   2.980   1.347
 5017SOL    HW215951   1.410   2.872   1.238
 5018SOL     OW15952   1.097   4.974   2.620
 5018SOL    HW115953   1.045   4.908   2.674
 5018SOL    HW215954   1.163   5.020   2.679
 5019SOL     OW15955   2.227   6.164   5.819
 5019SOL    HW115956   2.291   6.121   5.756
 5019SOL    HW215957   2.153   6.100   5.840
 5020SOL     OW15958   6.483   6.996   6.408
 5020SOL    HW115959   6.523   0.013   6.329
 5020SOL    HW215960   6.442   6.910   6.379
 5021SOL     OW15961   1.327   1.571   0.855
 5021SOL    HW115962   1.237   1.572   0.899
 5021SOL    HW215963   1.315   1.580   0.756
 5022SOL     OW15964   1.749   2.864   1.444
 5022SOL    HW115965   1.690   2.906   1.514
 5022SOL    HW215966   1.835   2.913   1.439
 5023SOL     OW15967   0.558   4.098   1.825
 5023SOL    HW115968   0.606   4.030   1.881
 5023SOL    HW215969   0.572   4.189   1.864
 5024SOL     OW15970   6.069   5.630   1.268
 5024SOL    HW115971   6.115   5.562   1.211
 5024SOL    HW215972   6.083   5.721   1.229
 5025SOL     OW15973   4.239   2.361   3.888
 5025SOL    HW115974   4.229   2.408   3.800
 5025SOL    HW215975   4.262   2.265   3.871
 5026SOL     OW15976   6.817   5.955   5.682
 5026SOL    HW115977   6.857   5.886   5.742
 5026SOL    HW215978   6.882   5.977   5.609
 5027SOL     OW15979   6.058   6.586   1.177
 5027SOL    HW115980   6.092   6.664   1.126
 5027SOL    HW215981   6.110   6.576   1.262
 5028SOL     OW15982   0.277   1.407   3.055
 5028SOL    HW115983   0.179   1.406   3.075
 5028SOL    HW215984   0.297   1.338   2.986
 5029SOL     OW15985   6.104   2.651   2.438
 5029SOL    HW115986   6.154   2.720   2.491
 5029SOL    HW215987   6.029   2.615   2.494
 5030SOL     OW15988   7.002   6.198   6.941
 5030SOL    HW115989   0.048   6.260   6.960
 5030SOL    HW215990   6.937   6.201   7.017
 5031SOL     OW15991   6.930   1.419   6.056
 5031SOL    HW115992   6.869   1.492   6.085
 5031SOL    HW215993   6.922   1.342   6.119
 5032SOL     OW15994   2.641   1.890   5.998
 5032SOL    HW115995   2.724   1.872   6.051
 5032SOL    HW215996   2.598   1.974   6.031
 5033SOL     OW15997   2.073   0.200   6.629
 5033SOL    HW115998   2.051   0.116   6.678
 5033SOL    HW215999   1.996   0.263   6.635
 5034SOL     OW16000   6.408   0.283   3.750
 5034SOL    HW116001   6.460   0.335   3.818
 5034SOL    HW216002   6.414   0.185   3.770
 5035SOL     OW16003   6.922   4.072   5.402
 5035SOL    HW116004   6.887   3.991   5.449
 5035SOL    HW216005   6.895   4.069   5.305
 5036SOL     OW16006   0.367   4.989   6.695
 5036SOL    HW116007   0.306   4.925   6.741
 5036SOL    HW216008   0.460   4.979   6.732
 5037SOL     OW16009   5.297   4.431   1.819
 5037SOL    HW116010   5.292   4.348   1.874
 5037SOL    HW216011   5.388   4.471   1.827
 5038SOL     OW16012   3.137   3.325   5.237
 5038SOL    HW116013   3.148   3.321   5.337
 5038SOL    HW216014   3.226   3.316   5.193
 5039SOL     OW16015   2.028   3.502   5.665
 5039SOL    HW116016   2.057   3.482   5.571
 5039SOL    HW216017   1.956   3.438   5.691
 5040SOL     OW16018   1.342   6.328   6.252
 5040SOL    HW116019   1.428   6.278   6.238
 5040SOL    HW216020   1.323   6.385   6.172
 5041SOL     OW16021   1.522   2.009   1.823
 5041SOL    HW116022   1.449   2.038   1.761
 5041SOL    HW216023   1.492   1.927   1.872
 5042SOL     OW16024   6.328   3.571   0.601
 5042SOL    HW116025   6.313   3.587   0.699
 5042SOL    HW216026   6.240   3.551   0.557
 5043SOL     OW16027   3.457   0.314   0.123
 5043SOL    HW116028   3.432   0.269   0.037
 5043SOL    HW216029   3.515   0.393   0.105
 5044SOL     OW16030   0.499   6.332   0.737
 5044SOL    HW116031   0.482   6.393   0.814
 5044SOL    HW216032   0.420   6.333   0.675
 5045SOL     OW16033   6.071   6.301   6.619
 5045SOL    HW116034   6.064   6.394   6.657
 5045SOL    HW216035   6.072   6.307   6.519
 5046SOL     OW16036   3.299   4.135   2.761
 5046SOL    HW116037   3.218   4.100   2.809
 5046SOL    HW216038   3.300   4.099   2.667
 5047SOL     OW16039   1.446   3.983   2.417
 5047SOL    HW116040   1.398   4.004   2.332
 5047SOL    HW216041   1.384   3.995   2.495
 5048SOL     OW16042   1.036   1.342   2.842
 5048SOL    HW116043   0.963   1.341   2.911
 5048SOL    HW216044   1.035   1.256   2.792
 5049SOL     OW16045   5.059   2.034   6.828
 5049SOL    HW116046   5.070   2.118   6.775
 5049SOL    HW216047   5.071   1.955   6.767
 5050SOL     OW16048   1.928   0.352   1.192
 5050SOL    HW116049   1.905   0.279   1.128
 5050SOL    HW216050   1.941   0.313   1.283
 5051SOL     OW16051   4.712   3.806   1.111
 5051SOL    HW116052   4.729   3.768   1.020
 5051SOL    HW216053   4.674   3.898   1.102
 5052SOL     OW16054   2.492   1.361   5.714
 5052SOL    HW116055   2.527   1.278   5.669
 5052SOL    HW216056   2.406   1.388   5.671
 5053SOL     OW16057   1.636   4.213   3.541
 5053SOL    HW116058   1.556   4.247   3.492
 5053SOL    HW216059   1.646   4.264   3.627
 5054SOL     OW16060   3.125   5.047   3.979
 5054SOL    HW116061   3.200   5.112   3.966
 5054SOL    HW216062   3.145   4.988   4.056
 5055SOL     OW16063   1.129   2.152   5.847
 5055SOL    HW116064   1.042   2.119   5.812
 5055SOL    HW216065   1.180   2.196   5.774
 5056SOL     OW16066   5.628   4.070   7.005
 5056SOL    HW116067   5.689   4.125   6.947
 5056SOL    HW216068   5.581   4.003   6.948
 5057SOL     OW16069   0.739   6.871   3.296
 5057SOL    HW116070   0.680   6.888   3.374
 5057SOL    HW216071   0.686   6.829   3.222
 5058SOL     OW16072   3.255   4.187   5.184
 5058SOL    HW116073   3.294   4.120   5.247
 5058SOL    HW216074   3.171   4.150   5.143
 5059SOL     OW16075   6.620   0.735   3.174
 5059SOL    HW116076   6.581   0.655   3.220
 5059SOL    HW216077   6.620   0.813   3.236
 5060SOL     OW16078   0.344   2.081   6.123
 5060SOL    HW116079   0.351   2.000   6.180
 5060SOL    HW216080   0.399   2.155   6.163
 5061SOL     OW16081   4.677   2.927   0.850
 5061SOL    HW116082   4.652   2.982   0.930
 5061SOL    HW216083   4.754   2.868   0.874
 5062SOL     OW16084   6.176   6.970   3.488
 5062SOL    HW116085   6.113   6.894   3.472
 5062SOL    HW216086   6.166   0.007   3.415
 5063SOL     OW16087   1.104   6.878   2.356
 5063SOL    HW116088   1.125   6.806   2.422
 5063SOL    HW216089   1.161   6.958   2.375
 5064SOL     OW16090   5.079   3.693   0.717
 5064SOL    HW116091   5.118   3.749   0.790
 5064SOL    HW216092   5.153   3.649   0.666
 5065SOL     OW16093   2.753   0.439   5.399
 5065SOL    HW116094   2.836   0.434   5.344
 5065SOL    HW216095   2.776   0.469   5.492
 5066SOL     OW16096   5.139   4.446   2.412
 5066SOL    HW116097   5.096   4.425   2.325
 5066SOL    HW216098   5.224   4.497   2.396
 5067SOL     OW16099   4.603   1.207   1.801
 5067SOL    HW116100   4.514   1.229   1.760
 5067SOL    HW216101   4.614   1.257   1.886
 5068SOL     OW16102   2.924   4.390   0.906
 5068SOL    HW116103   2.854   4.459   0.892
 5068SOL    HW216104   2.936   4.336   0.823
 5069SOL     OW16105   1.895   3.390   4.849
 5069SOL    HW116106   1.960   3.465   4.846
 5069SOL    HW216107   1.900   3.337   4.764
 5070SOL     OW16108   4.811   4.073   4.423
 5070SOL    HW116109   4.870   4.004   4.465
 5070SOL    HW216110   4.789   4.144   4.489
 5071SOL     OW16111   4.764   1.759   4.860
 5071SOL    HW116112   4.857   1.791   4.840
 5071SOL    HW216113   4.750   1.757   4.959
 5072SOL     OW16114   1.033   6.344   0.427
 5072SOL    HW116115   0.976   6.296   0.494
 5072SOL    HW216116   1.003   6.319   0.334
 5073SOL     OW16117   0.373   6.500   2.626
 5073SOL    HW116118   0.437   6.423   2.624
 5073SOL    HW216119   0.415   6.579   2.583
 5074SOL     OW16120   3.014   3.535   0.079
 5074SOL    HW116121   2.955   3.464   0.040
 5074SOL    HW216122   2.964   3.621   0.084
 5075SOL     OW16123   1.028   1.655   6.539
 5075SOL    HW116124   1.013   1.639   6.636
 5075SOL    HW216125   1.022   1.753   6.520
 5076SOL     OW16126   4.102   0.623   0.516
 5076SOL    HW116127   4.161   0.575   0.581
 5076SOL    HW216128   4.010   0.632   0.555
 5077SOL     OW16129   0.312   3.226   5.032
 5077SOL    HW116130   0.399   3.214   4.985
 5077SOL    HW216131   0.239   3.238   4.965
 5078SOL     OW16132   1.081   1.794   3.424
 5078SOL    HW116133   1.054   1.754   3.511
 5078SOL    HW216134   1.001   1.828   3.376
 5079SOL     OW16135   2.136   4.459   5.608
 5079SOL    HW116136   2.188   4.414   5.536
 5079SOL    HW216137   2.105   4.549   5.575
 5080SOL     OW16138   6.602   6.290   5.979
 5080SOL    HW116139   6.537   6.270   5.906
 5080SOL    HW216140   6.695   6.281   5.943
 5081SOL     OW16141   3.840   2.965   4.659
 5081SOL    HW116142   3.773   2.916   4.603
 5081SOL    HW216143   3.822   2.946   4.756
 5082SOL     OW16144   5.714   5.383   5.777
 5082SOL    HW116145   5.807   5.348   5.785
 5082SOL    HW216146   5.673   5.393   5.868
 5083SOL     OW16147   2.641   0.164   2.976
 5083SOL    HW116148   2.612   0.220   2.899
 5083SOL    HW216149   2.612   0.069   2.961
 5084SOL     OW16150   1.035   4.958   4.353
 5084SOL    HW116151   1.017   4.962   4.255
 5084SOL    HW216152   0.989   5.034   4.399
 5085SOL     OW16153   5.401   3.161   6.753
 5085SOL    HW116154   5.343   3.140   6.674
 5085SOL    HW216155   5.349   3.217   6.817
 5086SOL     OW16156   0.188   6.053   3.357
 5086SOL    HW116157   0.222   5.959   3.347
 5086SOL    HW216158   0.167   6.090   3.266
 5087SOL     OW16159   0.093   5.617   3.401
 5087SOL    HW116160   0.150   5.679   3.455
 5087SOL    HW216161   0.009   5.596   3.451
 5088SOL     OW16162   5.493   1.492   5.236
 5088SOL    HW116163   5.472   1.552   5.313
 5088SOL    HW216164   5.420   1.424   5.226
 5089SOL     OW16165   5.343   2.874   3.326
 5089SOL    HW116166   5.400   2.908   3.401
 5089SOL    HW216167   5.258   2.926   3.323
 5090SOL     OW16168   1.998   3.432   3.286
 5090SOL    HW116169   2.029   3.499   3.218
 5090SOL    HW216170   1.932   3.475   3.348
 5091SOL     OW16171   1.950   6.230   2.680
 5091SOL    HW116172   1.991   6.302   2.736
 5091SOL    HW216173   1.910   6.271   2.598
 5092SOL     OW16174   2.787   2.868   1.437
 5092SOL    HW116175   2.692   2.897   1.422
 5092SOL    HW216176   2.817   2.896   1.528
 5093SOL     OW16177   3.076   1.689   1.382
 5093SOL    HW116178   3.009   1.742   1.434
 5093SOL    HW216179   3.041   1.674   1.290
 5094SOL     OW16180   1.185   6.426   4.811
 5094SOL    HW116181   1.274   6.449   4.850
 5094SOL    HW216182   1.113   6.459   4.871
 5095SOL     OW16183   0.179   2.314   4.623
 5095SOL    HW116184   0.125   2.367   4.689
 5095SOL    HW216185   0.211   2.375   4.550
 5096SOL     OW16186   4.197   3.815   0.680
 5096SOL    HW116187   4.126   3.876   0.645
 5096SOL    HW216188   4.155   3.733   0.718
 5097SOL     OW16189   1.835   0.315   0.199
 5097SOL    HW116190   1.796   0.399   0.237
 5097SOL    HW216191   1.828   0.317   0.099
 5098SOL     OW16192   1.121   0.515   0.846
 5098SOL    HW116193   1.214   0.489   0.820
 5098SOL    HW216194   1.077   0.438   0.892
 5099SOL     OW16195   0.337   0.121   5.751
 5099SOL    HW116196   0.255   0.115   5.693
 5099SOL    HW216197   0.363   0.028   5.779
 5100SOL     OW16198   4.479   6.805   5.380
 5100SOL    HW116199   4.569   6.795   5.424
 5100SOL    HW216200   4.492   6.816   5.281
 5101SOL     OW16201   4.594   6.806   0.311
 5101SOL    HW116202   4.595   6.782   0.408
 5101SOL    HW216203   4.662   6.877   0.293
 5102SOL     OW16204   5.715   0.363   5.420
 5102SOL    HW116205   5.740   0.357   5.516
 5102SOL    HW216206   5.675   0.276   5.390
 5103SOL     OW16207   0.662   0.922   3.980
 5103SOL    HW116208   0.661   0.927   3.881
 5103SOL    HW216209   0.723   0.848   4.009
 5104SOL     OW16210   2.481   6.456   2.229
 5104SOL    HW116211   2.438   6.506   2.304
 5104SOL    HW216212   2.427   6.468   2.146
 5105SOL     OW16213   3.995   3.141   0.200
 5105SOL    HW116214   4.081   3.169   0.242
 5105SOL    HW216215   3.997   3.042   0.185
 5106SOL     OW16216   3.886   0.441   1.561
 5106SOL    HW116217   3.798   0.394   1.555
 5106SOL    HW216218   3.872   0.540   1.558
 5107SOL     OW16219   4.197   0.976   0.311
 5107SOL    HW116220   4.285   0.971   0.360
 5107SOL    HW216221   4.203   0.924   0.226
 5108SOL     OW16222   2.904   3.685   3.685
 5108SOL    HW116223   2.838   3.613   3.664
 5108SOL    HW216224   2.971   3.693   3.611
 5109SOL     OW16225   0.754   1.259   0.888
 5109SOL    HW116226   0.780   1.355   0.898
 5109SOL    HW216227   0.696   1.249   0.807
 5110SOL     OW16228   0.729   0.095   6.564
 5110SOL    HW116229   0.797   0.155   6.605
 5110SOL    HW216230   0.706   0.127   6.472
 5111SOL     OW16231   0.804   0.870   5.974
 5111SOL    HW116232   0.870   0.816   6.026
 5111SOL    HW216233   0.740   0.915   6.037
 5112SOL     OW16234   0.507   0.662   2.670
 5112SOL    HW116235   0.450   0.580   2.675
 5112SOL    HW216236   0.550   0.667   2.580
 5113SOL     OW16237   2.007   6.887   1.774
 5113SOL    HW116238   2.082   6.920   1.831
 5113SOL    HW216239   2.026   6.793   1.744
 5114SOL     OW16240   3.832   2.897   0.395
 5114SOL    HW116241   3.757   2.836   0.369
 5114SOL    HW216242   3.796   2.989   0.413
 5115SOL     OW16243   2.300   4.701   5.221
 5115SOL    HW116244   2.250   4.736   5.141
 5115SOL    HW216245   2.260   4.614   5.249
 5116SOL     OW16246   5.765   6.336   6.484
 5116SOL    HW116247   5.758   6.237   6.493
 5116SOL    HW216248   5.852   6.360   6.440
 5117SOL     OW16249   1.687   4.785   4.358
 5117SOL    HW116250   1.652   4.852   4.293
 5117SOL    HW216251   1.613   4.726   4.390
 5118SOL     OW16252   4.535   6.359   0.914
 5118SOL    HW116253   4.447   6.311   0.914
 5118SOL    HW216254   4.609   6.292   0.914
 5119SOL     OW16255   4.915   0.379   1.679
 5119SOL    HW116256   4.825   0.422   1.671
 5119SOL    HW216257   4.907   0.281   1.662
 5120SOL     OW16258   5.325   1.043   3.505
 5120SOL    HW116259   5.269   0.997   3.573
 5120SOL    HW216260   5.267   1.079   3.432
 5121SOL     OW16261   2.342   2.653   0.143
 5121SOL    HW116262   2.328   2.740   0.094
 5121SOL    HW216263   2.345   2.578   0.076
 5122SOL     OW16264   3.391   0.683   4.106
 5122SOL    HW116265   3.429   0.605   4.056
 5122SOL    HW216266   3.385   0.762   4.046
 5123SOL     OW16267   5.875   3.178   4.854
 5123SOL    HW116268   5.933   3.205   4.931
 5123SOL    HW216269   5.931   3.165   4.773
 5124SOL     OW16270   2.659   5.364   5.700
 5124SOL    HW116271   2.597   5.292   5.668
 5124SOL    HW216272   2.719   5.328   5.771
 5125SOL     OW16273   6.280   3.083   4.432
 5125SOL    HW116274   6.332   2.998   4.430
 5125SOL    HW216275   6.289   3.126   4.522
 5126SOL     OW16276   6.472   4.876   6.163
 5126SOL    HW116277   6.444   4.885   6.067
 5126SOL    HW216278   6.391   4.883   6.221
 5127SOL     OW16279   6.803   3.834   0.113
 5127SOL    HW116280   6.837   3.890   0.189
 5127SOL    HW216281   6.714   3.796   0.137
 5128SOL     OW16282   0.263   6.900   0.349
 5128SOL    HW116283   0.219   6.917   0.437
 5128SOL    HW216284   0.211   6.945   0.276
 5129SOL     OW16285   4.928   0.511   2.219
 5129SOL    HW116286   5.026   0.489   2.223
 5129SOL    HW216287   4.910   0.591   2.276
 5130SOL     OW16288   1.526   5.816   4.435
 5130SOL    HW116289   1.465   5.885   4.473
 5130SOL    HW216290   1.612   5.859   4.406
 5131SOL     OW16291   2.768   5.010   3.497
 5131SOL    HW116292   2.762   4.916   3.530
 5131SOL    HW216293   2.837   5.016   3.426
 5132SOL     OW16294   3.521   1.396   5.862
 5132SOL    HW116295   3.588   1.469   5.878
 5132SOL    HW216296   3.430   1.428   5.887
 5133SOL     OW16297   2.789   5.709   5.913
 5133SOL    HW116298   2.769   5.678   6.006
 5133SOL    HW216299   2.870   5.661   5.879
 5134SOL     OW16300   6.972   0.027   2.026
 5134SOL    HW116301   6.923   6.970   2.027
 5134SOL    HW216302   7.008   0.046   2.117
 5135SOL     OW16303   6.314   3.949   3.529
 5135SOL    HW116304   6.238   4.013   3.541
 5135SOL    HW216305   6.299   3.869   3.587
 5136SOL     OW16306   6.029   1.021   6.068
 5136SOL    HW116307   6.033   1.067   5.980
 5136SOL    HW216308   6.050   1.086   6.141
 5137SOL     OW16309   4.947   3.420   5.460
 5137SOL    HW116310   4.920   3.426   5.556
 5137SOL    HW216311   4.989   3.331   5.442
 5138SOL     OW16312   3.843   4.001   3.829
 5138SOL    HW116313   3.802   4.067   3.766
 5138SOL    HW216314   3.844   3.910   3.787
 5139SOL     OW16315   1.116   6.788   4.623
 5139SOL    HW116316   1.146   6.850   4.550
 5139SOL    HW216317   1.141   6.827   4.711
 5140SOL     OW16318   3.231   2.184   5.654
 5140SOL    HW116319   3.154   2.247   5.653
 5140SOL    HW216320   3.257   2.161   5.560
 5141SOL     OW16321   6.368   3.257   1.078
 5141SOL    HW116322   6.296   3.239   1.011
 5141SOL    HW216323   6.394   3.354   1.074
 5142SOL     OW16324   5.975   6.794   5.384
 5142SOL    HW116325   5.912   6.746   5.323
 5142SOL    HW216326   5.941   6.886   5.401
 5143SOL     OW16327   0.870   3.983   5.519
 5143SOL    HW116328   0.845   4.014   5.610
 5143SOL    HW216329   0.805   4.019   5.452
 5144SOL     OW16330   1.772   3.612   5.879
 5144SOL    HW116331   1.703   3.633   5.949
 5144SOL    HW216332   1.855   3.664   5.898
 5145SOL     OW16333   4.539   6.513   6.753
 5145SOL    HW116334   4.483   6.451   6.697
 5145SOL    HW216335   4.497   6.523   6.843
 5146SOL     OW16336   3.619   4.219   4.826
 5146SOL    HW116337   3.701   4.213   4.769
 5146SOL    HW216338   3.645   4.246   4.919
 5147SOL     OW16339   6.013   5.070   3.521
 5147SOL    HW116340   5.990   5.165   3.499
 5147SOL    HW216341   6.078   5.034   3.454
 5148SOL     OW16342   0.594   0.501   2.084
 5148SOL    HW116343   0.668   0.554   2.126
 5148SOL    HW216344   0.541   0.561   2.023
 5149SOL     OW16345   5.920   4.963   4.182
 5149SOL    HW116346   5.966   4.937   4.266
 5149SOL    HW216347   5.985   5.008   4.120
 5150SOL     OW16348   2.316   4.424   4.102
 5150SOL    HW116349   2.284   4.356   4.037
 5150SOL    HW216350   2.370   4.494   4.055
 5151SOL     OW16351   6.018   3.827   1.529
 5151SOL    HW116352   5.922   3.841   1.552
 5151SOL    HW216353   6.055   3.910   1.488
 5152SOL     OW16354   1.247   5.921   6.156
 5152SOL    HW116355   1.309   5.864   6.102
 5152SOL    HW216356   1.189   5.974   6.094
 5153SOL     OW16357   0.903   2.024   0.874
 5153SOL    HW116358   0.931   2.109   0.919
 5153SOL    HW216359   0.843   2.046   0.796
 5154SOL     OW16360   1.567   3.160   6.583
 5154SOL    HW116361   1.472   3.169   6.553
 5154SOL    HW216362   1.627   3.156   6.503
 5155SOL     OW16363   4.152   1.138   0.879
 5155SOL    HW116364   4.099   1.053   0.879
 5155SOL    HW216365   4.242   1.121   0.920
 5156SOL     OW16366   5.553   4.901   5.055
 5156SOL    HW116367   5.617   4.862   5.121
 5156SOL    HW216368   5.586   4.884   4.962
 5157SOL     OW16369   3.265   2.111   2.378
 5157SOL    HW116370   3.271   2.195   2.326
 5157SOL    HW216371   3.254   2.033   2.316
 5158SOL     OW16372   3.083   2.187   0.536
 5158SOL    HW116373   3.139   2.192   0.618
 5158SOL    HW216374   3.002   2.131   0.555
 5159SOL     OW16375   6.325   4.339   6.690
 5159SOL    HW116376   6.366   4.378   6.607
 5159SOL    HW216377   6.355   4.244   6.700
 5160SOL     OW16378   6.816   5.893   3.546
 5160SOL    HW116379   6.756   5.940   3.611
 5160SOL    HW216380   6.768   5.813   3.509
 5161SOL     OW16381   0.948   3.032   0.326
 5161SOL    HW116382   0.940   3.131   0.313
 5161SOL    HW216383   0.870   2.998   0.379
 5162SOL     OW16384   0.685   5.719   2.377
 5162SOL    HW116385   0.664   5.736   2.474
 5162SOL    HW216386   0.708   5.805   2.332
 5163SOL     OW16387   3.400   0.173   0.752
 5163SOL    HW116388   3.460   0.147   0.827
 5163SOL    HW216389   3.439   0.250   0.702
 5164SOL     OW16390   2.817   3.432   6.467
 5164SOL    HW116391   2.772   3.396   6.549
 5164SOL    HW216392   2.763   3.508   6.431
 5165SOL     OW16393   0.978   4.368   6.624
 5165SOL    HW116394   0.944   4.369   6.718
 5165SOL    HW216395   1.065   4.318   6.621
 5166SOL     OW16396   1.672   4.752   2.774
 5166SOL    HW116397   1.732   4.679   2.742
 5166SOL    HW216398   1.577   4.722   2.767
 5167SOL     OW16399   6.505   4.540   4.954
 5167SOL    HW116400   6.441   4.464   4.963
 5167SOL    HW216401   6.564   4.544   5.034
 5168SOL     OW16402   5.001   2.068   3.169
 5168SOL    HW116403   4.996   2.144   3.103
 5168SOL    HW216404   4.991   1.981   3.120
 5169SOL     OW16405   4.669   1.848   3.648
 5169SOL    HW116406   4.692   1.889   3.737
 5169SOL    HW216407   4.686   1.750   3.652
 5170SOL     OW16408   1.064   3.613   5.395
 5170SOL    HW116409   0.994   3.569   5.338
 5170SOL    HW216410   1.130   3.544   5.425
 5171SOL     OW16411   0.232   4.578   5.199
 5171SOL    HW116412   0.181   4.514   5.143
 5171SOL    HW216413   0.329   4.553   5.200
 5172SOL     OW16414   1.572   4.432   3.064
 5172SOL    HW116415   1.482   4.390   3.076
 5172SOL    HW216416   1.588   4.498   3.138
 5173SOL     OW16417   3.893   4.088   6.037
 5173SOL    HW116418   3.934   4.175   6.064
 5173SOL    HW216419   3.848   4.046   6.116
 5174SOL     OW16420   2.355   6.456   4.079
 5174SOL    HW116421   2.428   6.430   4.143
 5174SOL    HW216422   2.394   6.512   4.005
 5175SOL     OW16423   2.361   3.875   6.838
 5175SOL    HW116424   2.282   3.826   6.876
 5175SOL    HW216425   2.369   3.965   6.881
 5176SOL     OW16426   4.764   5.150   6.624
 5176SOL    HW116427   4.796   5.243   6.605
 5176SOL    HW216428   4.812   5.086   6.564
 5177SOL     OW16429   4.784   6.439   1.364
 5177SOL    HW116430   4.739   6.503   1.426
 5177SOL    HW216431   4.883   6.454   1.366
 5178SOL     OW16432   0.851   4.771   1.702
 5178SOL    HW116433   0.872   4.746   1.797
 5178SOL    HW216434   0.829   4.868   1.697
 5179SOL     OW16435   4.964   4.665   3.596
 5179SOL    HW116436   5.046   4.684   3.650
 5179SOL    HW216437   4.991   4.635   3.504
 5180SOL     OW16438   3.606   0.684   1.358
 5180SOL    HW116439   3.614   0.763   1.297
 5180SOL    HW216440   3.509   0.658   1.365
 5181SOL     OW16441   7.004   0.106   0.369
 5181SOL    HW116442   0.001   0.110   0.465
 5181SOL    HW216443   0.045   0.148   0.312
 5182SOL     OW16444   4.655   4.441   1.823
 5182SOL    HW116445   4.600   4.445   1.740
 5182SOL    HW216446   4.620   4.367   1.882
 5183SOL     OW16447   3.952   1.575   2.730
 5183SOL    HW116448   3.987   1.540   2.817
 5183SOL    HW216449   3.865   1.620   2.745
 5184SOL     OW16450   2.236   1.957   3.188
 5184SOL    HW116451   2.171   1.922   3.121
 5184SOL    HW216452   2.277   2.042   3.153
 5185SOL     OW16453   4.744   0.208   2.615
 5185SOL    HW116454   4.731   0.110   2.628
 5185SOL    HW216455   4.791   0.226   2.529
 5186SOL     OW16456   6.507   2.939   5.718
 5186SOL    HW116457   6.572   2.920   5.645
 5186SOL    HW216458   6.450   3.017   5.694
 5187SOL     OW16459   1.661   5.541   4.863
 5187SOL    HW116460   1.736   5.476   4.847
 5187SOL    HW216461   1.618   5.564   4.775
 5188SOL     OW16462   6.406   5.822   1.645
 5188SOL    HW116463   6.349   5.853   1.721
 5188SOL    HW216464   6.424   5.899   1.584
 5189SOL     OW16465   5.146   6.167   0.167
 5189SOL    HW116466   5.050   6.141   0.156
 5189SOL    HW216467   5.198   6.134   0.088
 5190SOL     OW16468   1.823   3.306   2.684
 5190SOL    HW116469   1.739   3.252   2.684
 5190SOL    HW216470   1.801   3.401   2.663
 5191SOL     OW16471   3.435   5.671   2.929
 5191SOL    HW116472   3.405   5.758   2.966
 5191SOL    HW216473   3.525   5.682   2.887
 5192SOL     OW16474   2.134   6.031   1.316
 5192SOL    HW116475   2.135   6.075   1.405
 5192SOL    HW216476   2.146   5.932   1.327
 5193SOL     OW16477   4.583   6.075   6.147
 5193SOL    HW116478   4.602   5.977   6.141
 5193SOL    HW216479   4.579   6.114   6.055
 5194SOL     OW16480   3.077   2.496   6.798
 5194SOL    HW116481   2.990   2.497   6.748
 5194SOL    HW216482   3.127   2.581   6.780
 5195SOL     OW16483   0.308   0.455   4.210
 5195SOL    HW116484   0.250   0.526   4.252
 5195SOL    HW216485   0.297   0.458   4.111
 5196SOL     OW16486   4.440   6.561   2.261
 5196SOL    HW116487   4.456   6.510   2.346
 5196SOL    HW216488   4.471   6.656   2.273
 5197SOL     OW16489   1.355   3.930   6.826
 5197SOL    HW116490   1.263   3.892   6.823
 5197SOL    HW216491   1.373   3.968   6.916
 5198SOL     OW16492   4.223   5.337   3.134
 5198SOL    HW116493   4.260   5.359   3.224
 5198SOL    HW216494   4.127   5.312   3.142
 5199SOL     OW16495   0.153   5.683   0.637
 5199SOL    HW116496   0.053   5.678   0.643
 5199SOL    HW216497   0.183   5.776   0.656
 5200SOL     OW16498   6.872   3.702   5.067
 5200SOL    HW116499   6.797   3.766   5.051
 5200SOL    HW216500   6.927   3.733   5.145
 5201SOL     OW16501   0.368   6.762   3.107
 5201SOL    HW116502   0.297   6.831   3.088
 5201SOL    HW216503   0.339   6.707   3.185
 5202SOL     OW16504   6.192   3.060   6.591
 5202SOL    HW116505   6.115   3.061   6.527
 5202SOL    HW216506   6.161   3.023   6.679
 5203SOL     OW16507   1.996   2.247   6.847
 5203SOL    HW116508   1.931   2.195   6.792
 5203SOL    HW216509   2.047   2.184   6.906
 5204SOL     OW16510   4.194   5.440   0.242
 5204SOL    HW116511   4.261   5.458   0.170
 5204SOL    HW216512   4.183   5.522   0.299
 5205SOL     OW16513   2.111   6.882   0.715
 5205SOL    HW116514   2.195   6.882   0.660
 5205SOL    HW216515   2.041   6.936   0.668
 5206SOL     OW16516   0.303   3.400   6.067
 5206SOL    HW116517   0.217   3.428   6.109
 5206SOL    HW216518   0.288   3.379   5.971
 5207SOL     OW16519   1.041   5.650   4.094
 5207SOL    HW116520   1.052   5.646   4.193
 5207SOL    HW216521   1.016   5.743   4.067
 5208SOL     OW16522   3.839   1.345   0.272
 5208SOL    HW116523   3.745   1.343   0.307
 5208SOL    HW216524   3.894   1.405   0.329
 5209SOL     OW16525   6.079   5.999   3.780
 5209SOL    HW116526   5.992   6.040   3.805
 5209SOL    HW216527   6.091   5.912   3.828
 5210SOL     OW16528   6.001   2.982   5.651
 5210SOL    HW116529   5.903   2.967   5.666
 5210SOL    HW216530   6.053   2.941   5.726
 5211SOL     OW16531   3.996   3.469   4.610
 5211SOL    HW116532   3.924   3.418   4.562
 5211SOL    HW216533   4.010   3.429   4.700
 5212SOL     OW16534   6.760   1.743   1.044
 5212SOL    HW116535   6.679   1.692   1.072
 5212SOL    HW216536   6.820   1.756   1.123
 5213SOL     OW16537   5.104   3.497   6.753
 5213SOL    HW116538   5.126   3.425   6.687
 5213SOL    HW216539   5.132   3.585   6.716
 5214SOL     OW16540   5.441   1.627   6.562
 5214SOL    HW116541   5.367   1.589   6.618
 5214SOL    HW216542   5.464   1.562   6.490
 5215SOL     OW16543   5.344   5.261   3.200
 5215SOL    HW116544   5.375   5.349   3.163
 5215SOL    HW216545   5.261   5.274   3.254
 5216SOL     OW16546   4.335   6.042   1.965
 5216SOL    HW116547   4.359   5.948   1.942
 5216SOL    HW216548   4.280   6.081   1.891
 5217SOL     OW16549   3.757   5.219   3.841
 5217SOL    HW116550   3.820   5.163   3.895
 5217SOL    HW216551   3.686   5.256   3.901
 5218SOL     OW16552   1.697   0.654   3.316
 5218SOL    HW116553   1.785   0.701   3.322
 5218SOL    HW216554   1.628   0.716   3.278
 5219SOL     OW16555   3.789   0.698   6.416
 5219SOL    HW116556   3.862   0.649   6.368
 5219SOL    HW216557   3.737   0.634   6.472
 5220SOL     OW16558   1.631   5.360   2.727
 5220SOL    HW116559   1.611   5.340   2.631
 5220SOL    HW216560   1.702   5.431   2.733
 5221SOL     OW16561   5.488   2.303   4.473
 5221SOL    HW116562   5.526   2.334   4.561
 5221SOL    HW216563   5.462   2.207   4.481
 5222SOL     OW16564   2.460   0.301   4.009
 5222SOL    HW116565   2.403   0.384   4.004
 5222SOL    HW216566   2.521   0.298   3.930
 5223SOL     OW16567   5.160   0.390   1.566
 5223SOL    HW116568   5.145   0.334   1.484
 5223SOL    HW216569   5.076   0.393   1.620
 5224SOL     OW16570   0.888   1.583   3.330
 5224SOL    HW116571   0.821   1.639   3.281
 5224SOL    HW216572   0.974   1.580   3.279
 5225SOL     OW16573   6.380   0.413   2.879
 5225SOL    HW116574   6.451   0.478   2.854
 5225SOL    HW216575   6.335   0.444   2.963
 5226SOL     OW16576   0.660   5.360   5.091
 5226SOL    HW116577   0.694   5.266   5.098
 5226SOL    HW216578   0.661   5.389   4.996
 5227SOL     OW16579   1.648   4.516   3.308
 5227SOL    HW116580   1.697   4.430   3.321
 5227SOL    HW216581   1.569   4.519   3.369
 5228SOL     OW16582   6.505   2.911   1.614
 5228SOL    HW116583   6.517   2.927   1.516
 5228SOL    HW216584   6.582   2.950   1.664
 5229SOL     OW16585   1.480   4.495   6.776
 5229SOL    HW116586   1.397   4.548   6.755
 5229SOL    HW216587   1.522   4.531   6.859
 5230SOL     OW16588   0.094   6.437   0.958
 5230SOL    HW116589   0.189   6.466   0.946
 5230SOL    HW216590   0.040   6.512   0.996
 5231SOL     OW16591   3.266   4.155   4.087
 5231SOL    HW116592   3.231   4.063   4.105
 5231SOL    HW216593   3.198   4.223   4.115
 5232SOL     OW16594   3.167   2.295   5.968
 5232SOL    HW116595   3.174   2.200   6.001
 5232SOL    HW216596   3.253   2.322   5.927
 5233SOL     OW16597   6.229   0.136   1.296
 5233SOL    HW116598   6.273   0.087   1.221
 5233SOL    HW216599   6.142   0.091   1.317
 5234SOL     OW16600   3.024   0.393   6.369
 5234SOL    HW116601   3.044   0.475   6.423
 5234SOL    HW216602   2.935   0.356   6.396
 5235SOL     OW16603   1.436   3.293   1.026
 5235SOL    HW116604   1.426   3.282   0.927
 5235SOL    HW216605   1.526   3.260   1.054
 5236SOL     OW16606   5.841   3.272   2.490
 5236SOL    HW116607   5.851   3.184   2.444
 5236SOL    HW216608   5.854   3.260   2.589
 5237SOL     OW16609   2.878   0.921   5.573
 5237SOL    HW116610   2.884   1.015   5.605
 5237SOL    HW216611   2.938   0.909   5.494
 5238SOL     OW16612   1.834   4.851   0.759
 5238SOL    HW116613   1.757   4.913   0.775
 5238SOL    HW216614   1.850   4.843   0.660
 5239SOL     OW16615   4.117   3.768   3.956
 5239SOL    HW116616   4.088   3.861   3.932
 5239SOL    HW216617   4.115   3.758   4.056
 5240SOL     OW16618   2.819   1.373   5.862
 5240SOL    HW116619   2.739   1.430   5.878
 5240SOL    HW216620   2.832   1.312   5.941
 5241SOL     OW16621   0.991   5.809   6.236
 5241SOL    HW116622   0.966   5.750   6.160
 5241SOL    HW216623   1.067   5.869   6.208
 5242SOL     OW16624   6.863   6.234   6.091
 5242SOL    HW116625   6.893   6.161   6.030
 5242SOL    HW216626   6.928   6.310   6.087
 5243SOL     OW16627   1.349   6.498   1.539
 5243SOL    HW116628   1.296   6.475   1.458
 5243SOL    HW216629   1.359   6.597   1.546
 5244SOL     OW16630   3.567   4.128   6.471
 5244SOL    HW116631   3.536   4.167   6.557
 5244SOL    HW216632   3.550   4.193   6.397
 5245SOL     OW16633   4.323   4.493   0.359
 5245SOL    HW116634   4.356   4.399   0.360
 5245SOL    HW216635   4.246   4.500   0.294
 5246SOL     OW16636   5.630   4.455   2.935
 5246SOL    HW116637   5.603   4.361   2.913
 5246SOL    HW216638   5.720   4.474   2.896
 5247SOL     OW16639   1.189   5.705   0.339
 5247SOL    HW116640   1.130   5.761   0.398
 5247SOL    HW216641   1.218   5.623   0.389
 5248SOL     OW16642   6.344   0.643   5.360
 5248SOL    HW116643   6.340   0.599   5.450
 5248SOL    HW216644   6.424   0.703   5.356
 5249SOL     OW16645   0.778   5.178   5.450
 5249SOL    HW116646   0.704   5.118   5.479
 5249SOL    HW216647   0.794   5.168   5.352
 5250SOL     OW16648   0.348   0.998   5.900
 5250SOL    HW116649   0.271   1.036   5.850
 5250SOL    HW216650   0.432   1.048   5.876
 5251SOL     OW16651   0.565   2.942   1.554
 5251SOL    HW116652   0.632   2.899   1.494
 5251SOL    HW216653   0.516   2.872   1.606
 5252SOL     OW16654   2.011   5.823   1.032
 5252SOL    HW116655   2.013   5.817   1.132
 5252SOL    HW216656   1.933   5.878   1.004
 5253SOL     OW16657   5.582   3.788   5.456
 5253SOL    HW116658   5.510   3.738   5.408
 5253SOL    HW216659   5.672   3.752   5.429
 5254SOL     OW16660   5.970   1.221   3.704
 5254SOL    HW116661   6.026   1.138   3.695
 5254SOL    HW216662   5.887   1.199   3.755
 5255SOL     OW16663   4.784   0.402   5.503
 5255SOL    HW116664   4.685   0.413   5.493
 5255SOL    HW216665   4.821   0.362   5.419
 5256SOL     OW16666   4.495   1.162   2.873
 5256SOL    HW116667   4.495   1.070   2.912
 5256SOL    HW216668   4.565   1.217   2.918
 5257SOL     OW16669   4.334   0.399   2.007
 5257SOL    HW116670   4.339   0.341   2.088
 5257SOL    HW216671   4.238   0.418   1.986
 5258SOL     OW16672   5.440   4.152   2.213
 5258SOL    HW116673   5.536   4.169   2.191
 5258SOL    HW216674   5.434   4.092   2.293
 5259SOL     OW16675   4.277   6.180   0.919
 5259SOL    HW116676   4.214   6.249   0.954
 5259SOL    HW216677   4.322   6.134   0.996
 5260SOL     OW16678   5.554   3.472   1.118
 5260SOL    HW116679   5.607   3.417   1.182
 5260SOL    HW216680   5.589   3.566   1.118
 5261SOL     OW16681   1.294   2.814   5.944
 5261SOL    HW116682   1.265   2.737   5.887
 5261SOL    HW216683   1.214   2.850   5.993
 5262SOL     OW16684   3.199   0.164   2.342
 5262SOL    HW116685   3.253   0.248   2.338
 5262SOL    HW216686   3.134   0.171   2.418
 5263SOL     OW16687   0.927   0.546   5.846
 5263SOL    HW116688   0.970   0.470   5.797
 5263SOL    HW216689   0.841   0.570   5.802
 5264SOL     OW16690   5.987   0.156   1.938
 5264SOL    HW116691   5.929   0.237   1.946
 5264SOL    HW216692   6.072   0.170   1.989
 5265SOL     OW16693   5.079   4.399   3.070
 5265SOL    HW116694   5.137   4.349   3.134
 5265SOL    HW216695   4.999   4.343   3.047
 5266SOL     OW16696   2.619   0.479   2.023
 5266SOL    HW116697   2.635   0.525   2.111
 5266SOL    HW216698   2.584   0.387   2.039
 5267SOL     OW16699   4.654   4.604   5.720
 5267SOL    HW116700   4.576   4.660   5.691
 5267SOL    HW216701   4.679   4.628   5.814
 5268SOL     OW16702   6.438   5.439   6.356
 5268SOL    HW116703   6.435   5.348   6.314
 5268SOL    HW216704   6.493   5.500   6.299
 5269SOL     OW16705   2.796   6.262   4.224
 5269SOL    HW116706   2.777   6.177   4.274
 5269SOL    HW216707   2.880   6.303   4.259
 5270SOL     OW16708   4.039   1.658   1.754
 5270SOL    HW116709   4.116   1.629   1.811
 5270SOL    HW216710   3.972   1.705   1.811
 5271SOL     OW16711   4.299   5.100   5.034
 5271SOL    HW116712   4.232   5.142   4.972
 5271SOL    HW216713   4.300   5.001   5.020
 5272SOL     OW16714   1.646   5.483   3.198
 5272SOL    HW116715   1.560   5.437   3.179
 5272SOL    HW216716   1.700   5.428   3.262
 5273SOL     OW16717   0.525   3.509   3.105
 5273SOL    HW116718   0.582   3.431   3.081
 5273SOL    HW216719   0.509   3.565   3.024
 5274SOL     OW16720   6.097   5.137   2.465
 5274SOL    HW116721   6.001   5.154   2.490
 5274SOL    HW216722   6.154   5.142   2.547
 5275SOL     OW16723   3.434   1.409   6.249
 5275SOL    HW116724   3.338   1.433   6.264
 5275SOL    HW216725   3.481   1.484   6.203
 5276SOL     OW16726   1.255   6.077   0.896
 5276SOL    HW116727   1.222   6.146   0.832
 5276SOL    HW216728   1.191   6.069   0.972
 5277SOL     OW16729   0.866   2.223   2.912
 5277SOL    HW116730   0.816   2.137   2.909
 5277SOL    HW216731   0.951   2.215   2.860
 5278SOL     OW16732   5.181   6.249   4.517
 5278SOL    HW116733   5.265   6.209   4.553
 5278SOL    HW216734   5.197   6.285   4.425
 5279SOL     OW16735   1.606   5.659   6.897
 5279SOL    HW116736   1.545   5.733   6.870
 5279SOL    HW216737   1.625   5.666   6.995
 5280SOL     OW16738   3.039   5.525   5.442
 5280SOL    HW116739   2.998   5.605   5.398
 5280SOL    HW216740   3.086   5.469   5.372
 5281SOL     OW16741   1.555   0.994   3.824
 5281SOL    HW116742   1.484   1.017   3.890
 5281SOL    HW216743   1.571   0.895   3.826
 5282SOL     OW16744   1.957   0.958   2.404
 5282SOL    HW116745   1.994   0.927   2.491
 5282SOL    HW216746   1.857   0.951   2.405
 5283SOL     OW16747   2.777   0.329   2.341
 5283SOL    HW116748   2.680   0.338   2.317
 5283SOL    HW216749   2.826   0.412   2.315
 5284SOL     OW16750   4.955   2.985   2.837
 5284SOL    HW116751   4.918   2.896   2.865
 5284SOL    HW216752   4.965   2.986   2.737
 5285SOL     OW16753   1.200   3.786   3.909
 5285SOL    HW116754   1.249   3.730   3.842
 5285SOL    HW216755   1.253   3.868   3.928
 5286SOL     OW16756   6.493   3.795   0.948
 5286SOL    HW116757   6.475   3.706   0.991
 5286SOL    HW216758   6.572   3.788   0.888
 5287SOL     OW16759   2.244   5.983   1.968
 5287SOL    HW116760   2.166   5.953   1.913
 5287SOL    HW216761   2.215   6.056   2.030
 5288SOL     OW16762   3.859   0.859   2.701
 5288SOL    HW116763   3.865   0.891   2.607
 5288SOL    HW216764   3.904   0.770   2.709
 5289SOL     OW16765   1.759   6.341   5.718
 5289SOL    HW116766   1.826   6.410   5.691
 5289SOL    HW216767   1.773   6.258   5.664
 5290SOL     OW16768   0.954   4.627   6.061
 5290SOL    HW116769   0.999   4.711   6.092
 5290SOL    HW216770   1.000   4.593   5.980
 5291SOL     OW16771   3.026   4.988   6.120
 5291SOL    HW116772   3.067   4.904   6.155
 5291SOL    HW216773   3.095   5.041   6.071
 5292SOL     OW16774   5.946   4.434   6.673
 5292SOL    HW116775   5.891   4.517   6.664
 5292SOL    HW216776   6.023   4.453   6.734
 5293SOL     OW16777   1.973   6.999   4.898
 5293SOL    HW116778   1.894   0.030   4.909
 5293SOL    HW216779   1.942   6.906   4.878
 5294SOL     OW16780   5.747   2.587   5.223
 5294SOL    HW116781   5.658   2.631   5.236
 5294SOL    HW216782   5.767   2.582   5.125
 5295SOL     OW16783   4.235   1.205   2.750
 5295SOL    HW116784   4.324   1.170   2.780
 5295SOL    HW216785   4.213   1.287   2.802
 5296SOL     OW16786   3.174   5.135   6.628
 5296SOL    HW116787   3.248   5.201   6.629
 5296SOL    HW216788   3.101   5.167   6.568
 5297SOL     OW16789   1.706   3.293   0.744
 5297SOL    HW116790   1.696   3.194   0.755
 5297SOL    HW216791   1.759   3.330   0.820
 5298SOL     OW16792   1.019   6.056   0.023
 5298SOL    HW116793   1.068   6.106   0.094
 5298SOL    HW216794   0.949   5.998   0.065
 5299SOL     OW16795   2.355   3.170   0.427
 5299SOL    HW116796   2.310   3.157   0.515
 5299SOL    HW216797   2.343   3.087   0.371
 5300SOL     OW16798   1.022   6.058   1.055
 5300SOL    HW116799   0.983   6.112   1.130
 5300SOL    HW216800   0.967   6.072   0.972
 5301SOL     OW16801   3.448   2.028   6.151
 5301SOL    HW116802   3.438   2.022   6.052
 5301SOL    HW216803   3.493   2.114   6.175
 5302SOL     OW16804   5.821   5.779   3.784
 5302SOL    HW116805   5.897   5.742   3.837
 5302SOL    HW216806   5.812   5.877   3.803
 5303SOL     OW16807   6.875   5.222   3.852
 5303SOL    HW116808   6.828   5.188   3.771
 5303SOL    HW216809   6.856   5.319   3.863
 5304SOL     OW16810   5.491   0.781   0.569
 5304SOL    HW116811   5.476   0.877   0.595
 5304SOL    HW216812   5.499   0.726   0.652
 5305SOL     OW16813   0.874   4.279   3.071
 5305SOL    HW116814   0.891   4.202   3.133
 5305SOL    HW216815   0.780   4.276   3.039
 5306SOL     OW16816   1.158   4.225   4.814
 5306SOL    HW116817   1.109   4.139   4.825
 5306SOL    HW216818   1.224   4.217   4.739
 5307SOL     OW16819   4.232   1.944   0.372
 5307SOL    HW116820   4.226   1.917   0.276
 5307SOL    HW216821   4.320   1.915   0.409
 5308SOL     OW16822   1.158   4.850   3.763
 5308SOL    HW116823   1.125   4.940   3.790
 5308SOL    HW216824   1.166   4.791   3.843
 5309SOL     OW16825   3.967   4.711   1.554
 5309SOL    HW116826   3.867   4.709   1.552
 5309SOL    HW216827   4.002   4.618   1.568
 5310SOL     OW16828   6.018   3.508   1.732
 5310SOL    HW116829   6.072   3.511   1.648
 5310SOL    HW216830   5.921   3.515   1.709
 5311SOL     OW16831   6.607   6.571   6.811
 5311SOL    HW116832   6.703   6.544   6.814
 5311SOL    HW216833   6.559   6.533   6.890
 5312SOL     OW16834   0.322   5.608   1.803
 5312SOL    HW116835   0.306   5.702   1.775
 5312SOL    HW216836   0.240   5.553   1.786
 5313SOL     OW16837   1.420   3.313   5.773
 5313SOL    HW116838   1.420   3.217   5.802
 5313SOL    HW216839   1.489   3.325   5.701
 5314SOL     OW16840   3.074   6.518   0.211
 5314SOL    HW116841   3.005   6.513   0.283
 5314SOL    HW216842   3.157   6.471   0.241
 5315SOL     OW16843   4.871   3.701   1.864
 5315SOL    HW116844   4.783   3.681   1.821
 5315SOL    HW216845   4.928   3.751   1.800
 5316SOL     OW16846   0.884   3.823   4.808
 5316SOL    HW116847   0.831   3.886   4.752
 5316SOL    HW216848   0.841   3.813   4.898
 5317SOL     OW16849   5.883   0.151   4.702
 5317SOL    HW116850   5.786   0.130   4.716
 5317SOL    HW216851   5.912   0.117   4.612
 5318SOL     OW16852   0.484   3.281   6.885
 5318SOL    HW116853   0.552   3.332   6.939
 5318SOL    HW216854   0.429   3.224   6.946
 5319SOL     OW16855   3.318   6.401   0.260
 5319SOL    HW116856   3.361   6.475   0.311
 5319SOL    HW216857   3.370   6.317   0.273
 5320SOL     OW16858   5.013   4.997   0.064
 5320SOL    HW116859   4.951   4.983   0.141
 5320SOL    HW216860   5.102   5.025   0.098
 5321SOL     OW16861   1.669   5.257   4.441
 5321SOL    HW116862   1.640   5.304   4.525
 5321SOL    HW216863   1.758   5.293   4.411
 5322SOL     OW16864   5.561   6.364   6.034
 5322SOL    HW116865   5.552   6.276   6.081
 5322SOL    HW216866   5.640   6.362   5.973
 5323SOL     OW16867   4.004   2.111   0.084
 5323SOL    HW116868   4.080   2.047   0.094
 5323SOL    HW216869   4.025   2.177   0.012
 5324SOL     OW16870   3.397   2.156   0.369
 5324SOL    HW116871   3.439   2.215   0.300
 5324SOL    HW216872   3.303   2.136   0.342
 5325SOL     OW16873   4.614   0.721   4.530
 5325SOL    HW116874   4.559   0.729   4.447
 5325SOL    HW216875   4.554   0.701   4.608
 5326SOL     OW16876   6.430   4.998   2.811
 5326SOL    HW116877   6.528   5.000   2.828
 5326SOL    HW216878   6.395   4.907   2.831
 5327SOL     OW16879   5.768   3.041   5.239
 5327SOL    HW116880   5.783   3.022   5.142
 5327SOL    HW216881   5.685   2.995   5.269
 5328SOL     OW16882   4.126   2.966   5.412
 5328SOL    HW116883   4.094   3.035   5.348
 5328SOL    HW216884   4.226   2.962   5.409
 5329SOL     OW16885   0.293   4.892   0.431
 5329SOL    HW116886   0.297   4.877   0.530
 5329SOL    HW216887   0.319   4.808   0.384
 5330SOL     OW16888   3.577   4.405   5.550
 5330SOL    HW116889   3.517   4.457   5.490
 5330SOL    HW216890   3.667   4.394   5.507
 5331SOL     OW16891   5.396   1.333   0.470
 5331SOL    HW116892   5.475   1.392   0.485
 5331SOL    HW216893   5.400   1.256   0.534
 5332SOL     OW16894   0.528   3.093   1.169
 5332SOL    HW116895   0.429   3.089   1.158
 5332SOL    HW216896   0.550   3.132   1.258
 5333SOL     OW16897   0.836   0.678   3.934
 5333SOL    HW116898   0.893   0.732   3.872
 5333SOL    HW216899   0.852   0.581   3.919
 5334SOL     OW16900   3.806   0.549   4.381
 5334SOL    HW116901   3.782   0.644   4.364
 5334SOL    HW216902   3.742   0.510   4.446
 5335SOL     OW16903   6.847   5.980   2.140
 5335SOL    HW116904   6.768   6.032   2.173
 5335SOL    HW216905   6.929   6.007   2.191
 5336SOL     OW16906   2.368   2.178   3.110
 5336SOL    HW116907   2.379   2.269   3.149
 5336SOL    HW216908   2.378   2.182   3.011
 5337SOL     OW16909   5.079   4.319   1.680
 5337SOL    HW116910   5.151   4.355   1.739
 5337SOL    HW216911   5.120   4.275   1.600
 5338SOL     OW16912   5.976   2.085   6.444
 5338SOL    HW116913   5.992   2.152   6.371
 5338SOL    HW216914   5.886   2.044   6.432
 5339SOL     OW16915   6.600   2.412   4.428
 5339SOL    HW116916   6.682   2.386   4.377
 5339SOL    HW216917   6.611   2.504   4.465
 5340SOL     OW16918   5.208   3.283   1.308
 5340SOL    HW116919   5.230   3.294   1.405
 5340SOL    HW216920   5.119   3.239   1.298
 5341SOL     OW16921   3.294   3.579   6.525
 5341SOL    HW116922   3.372   3.627   6.566
 5341SOL    HW216923   3.209   3.620   6.558
 5342SOL     OW16924   3.143   6.835   3.858
 5342SOL    HW116925   3.116   6.852   3.953
 5342SOL    HW216926   3.212   6.902   3.831
 5343SOL     OW16927   3.745   3.700   4.429
 5343SOL    HW116928   3.670   3.641   4.460
 5343SOL    HW216929   3.829   3.676   4.478
 5344SOL     OW16930   2.364   2.712   2.606
 5344SOL    HW116931   2.420   2.629   2.598
 5344SOL    HW216932   2.353   2.736   2.703
 5345SOL     OW16933   3.923   6.774   1.450
 5345SOL    HW116934   3.925   6.807   1.355
 5345SOL    HW216935   3.853   6.824   1.501
 5346SOL     OW16936   3.184   6.025   4.282
 5346SOL    HW116937   3.107   5.962   4.278
 5346SOL    HW216938   3.218   6.029   4.376
 5347SOL     OW16939   0.592   2.459   1.998
 5347SOL    HW116940   0.628   2.408   2.076
 5347SOL    HW216941   0.614   2.410   1.913
 5348SOL     OW16942   6.826   2.267   0.999
 5348SOL    HW116943   6.762   2.237   0.929
 5348SOL    HW216944   6.836   2.196   1.068
 5349SOL     OW16945   2.000   3.092   0.420
 5349SOL    HW116946   2.012   2.993   0.428
 5349SOL    HW216947   1.993   3.117   0.324
 5350SOL     OW16948   1.817   0.253   5.422
 5350SOL    HW116949   1.820   0.222   5.327
 5350SOL    HW216950   1.909   0.279   5.451
 5351SOL     OW16951   6.739   5.296   2.403
 5351SOL    HW116952   6.741   5.229   2.329
 5351SOL    HW216953   6.795   5.263   2.480
 5352SOL     OW16954   2.751   4.741   3.546
 5352SOL    HW116955   2.713   4.693   3.466
 5352SOL    HW216956   2.785   4.674   3.611
 5353SOL     OW16957   4.388   4.815   3.510
 5353SOL    HW116958   4.374   4.801   3.608
 5353SOL    HW216959   4.457   4.750   3.477
 5354SOL     OW16960   2.741   5.479   1.939
 5354SOL    HW116961   2.714   5.455   2.032
 5354SOL    HW216962   2.779   5.572   1.938
 5355SOL     OW16963   6.580   3.845   3.773
 5355SOL    HW116964   6.589   3.748   3.794
 5355SOL    HW216965   6.483   3.869   3.768
 5356SOL     OW16966   5.824   4.486   1.753
 5356SOL    HW116967   5.885   4.409   1.770
 5356SOL    HW216968   5.758   4.461   1.681
 5357SOL     OW16969   4.175   6.463   1.151
 5357SOL    HW116970   4.146   6.458   1.247
 5357SOL    HW216971   4.231   6.544   1.136
 5358SOL     OW16972   4.695   1.781   0.226
 5358SOL    HW116973   4.670   1.872   0.194
 5358SOL    HW216974   4.793   1.766   0.212
 5359SOL     OW16975   1.207   1.344   6.002
 5359SOL    HW116976   1.266   1.378   6.075
 5359SOL    HW216977   1.112   1.346   6.033
 5360SOL     OW16978   3.764   6.528   5.442
 5360SOL    HW116979   3.739   6.444   5.393
 5360SOL    HW216980   3.776   6.507   5.539
 5361SOL     OW16981   2.577   1.125   5.591
 5361SOL    HW116982   2.598   1.052   5.656
 5361SOL    HW216983   2.562   1.084   5.500
 5362SOL     OW16984   6.799   5.302   3.345
 5362SOL    HW116985   6.810   5.301   3.245
 5362SOL    HW216986   6.703   5.293   3.368
 5363SOL     OW16987   0.383   1.096   6.811
 5363SOL    HW116988   0.316   1.077   6.739
 5363SOL    HW216989   0.412   1.009   6.852
 5364SOL     OW16990   6.443   6.875   1.898
 5364SOL    HW116991   6.376   6.802   1.882
 5364SOL    HW216992   6.415   6.928   1.978
 5365SOL     OW16993   3.225   3.619   6.932
 5365SOL    HW116994   3.283   3.651   7.007
 5365SOL    HW216995   3.131   3.611   6.963
 5366SOL     OW16996   5.190   5.750   2.114
 5366SOL    HW116997   5.262   5.682   2.110
 5366SOL    HW216998   5.231   5.841   2.120
 5367SOL     OW16999   0.928   6.487   0.909
 5367SOL    HW117000   0.892   6.419   0.973
 5367SOL    HW217001   1.005   6.449   0.859
 5368SOL     OW17002   5.266   7.023   2.856
 5368SOL    HW117003   5.199   7.020   2.931
 5368SOL    HW217004   5.249   0.074   2.800
 5369SOL     OW17005   2.771   6.856   1.850
 5369SOL    HW117006   2.849   6.906   1.889
 5369SOL    HW217007   2.805   6.779   1.795
 5370SOL     OW17008   4.395   3.103   1.732
 5370SOL    HW117009   4.339   3.025   1.702
 5370SOL    HW217010   4.468   3.070   1.791
 5371SOL     OW17011   0.891   3.733   5.113
 5371SOL    HW117012   0.840   3.750   5.198
 5371SOL    HW217013   0.965   3.801   5.105
 5372SOL     OW17014   2.069   6.396   3.922
 5372SOL    HW117015   2.035   6.490   3.929
 5372SOL    HW217016   2.168   6.396   3.933
 5373SOL     OW17017   3.681   6.850   4.509
 5373SOL    HW117018   3.760   6.791   4.493
 5373SOL    HW217019   3.711   6.934   4.556
 5374SOL     OW17020   1.554   4.206   6.969
 5374SOL    HW117021   1.495   4.281   7.000
 5374SOL    HW217022   1.550   4.200   6.869
 5375SOL     OW17023   1.491   5.024   4.872
 5375SOL    HW117024   1.492   4.925   4.884
 5375SOL    HW217025   1.406   5.051   4.828
 5376SOL     OW17026   1.153   2.895   0.922
 5376SOL    HW117027   1.097   2.834   0.866
 5376SOL    HW217028   1.145   2.868   1.018
 5377SOL     OW17029   0.362   0.202   2.313
 5377SOL    HW117030   0.314   0.196   2.400
 5377SOL    HW217031   0.448   0.252   2.325
 5378SOL     OW17032   6.813   0.801   1.850
 5378SOL    HW117033   6.790   0.709   1.882
 5378SOL    HW217034   6.732   0.859   1.856
 5379SOL     OW17035   1.285   4.334   5.051
 5379SOL    HW117036   1.235   4.335   5.138
 5379SOL    HW217037   1.220   4.322   4.976
 5380SOL     OW17038   2.548   1.488   3.129
 5380SOL    HW117039   2.486   1.431   3.183
 5380SOL    HW217040   2.508   1.502   3.038
 5381SOL     OW17041   6.469   4.436   1.912
 5381SOL    HW117042   6.523   4.424   1.995
 5381SOL    HW217043   6.413   4.518   1.920
 5382SOL     OW17044   3.072   1.271   2.489
 5382SOL    HW117045   3.163   1.293   2.523
 5382SOL    HW217046   3.007   1.340   2.520
 5383SOL     OW17047   2.409   2.520   5.137
 5383SOL    HW117048   2.353   2.442   5.164
 5383SOL    HW217049   2.500   2.488   5.110
 5384SOL     OW17050   5.889   6.793   4.891
 5384SOL    HW117051   5.979   6.766   4.924
 5384SOL    HW217052   5.876   6.760   4.798
 5385SOL     OW17053   3.130   3.646   4.220
 5385SOL    HW117054   3.063   3.644   4.146
 5385SOL    HW217055   3.218   3.677   4.184
 5386SOL     OW17056   4.852   0.511   4.247
 5386SOL    HW117057   4.886   0.592   4.294
 5386SOL    HW217058   4.753   0.518   4.236
 5387SOL     OW17059   2.179   6.685   3.745
 5387SOL    HW117060   2.210   6.777   3.720
 5387SOL    HW217061   2.149   6.685   3.841
 5388SOL     OW17062   0.050   1.108   3.873
 5388SOL    HW117063   0.137   1.148   3.846
 5388SOL    HW217064   0.066   1.023   3.923
 5389SOL     OW17065   4.664   1.041   2.648
 5389SOL    HW117066   4.610   1.083   2.721
 5389SOL    HW217067   4.761   1.045   2.671
 5390SOL     OW17068   4.847   4.274   3.000
 5390SOL    HW117069   4.760   4.310   3.032
 5390SOL    HW217070   4.867   4.308   2.908
 5391SOL     OW17071   1.969   2.723   0.686
 5391SOL    HW117072   1.948   2.784   0.609
 5391SOL    HW217073   2.012   2.775   0.759
 5392SOL     OW17074   5.357   2.927   1.411
 5392SOL    HW117075   5.380   2.847   1.355
 5392SOL    HW217076   5.324   3.000   1.351
 5393SOL     OW17077   4.913   6.876   6.558
 5393SOL    HW117078   4.972   6.948   6.597
 5393SOL    HW217079   4.826   6.916   6.531
 5394SOL     OW17080   7.021   4.837   6.697
 5394SOL    HW117081   6.938   4.813   6.747
 5394SOL    HW217082   7.004   4.831   6.599
 5395SOL     OW17083   5.324   1.151   1.480
 5395SOL    HW117084   5.390   1.100   1.534
 5395SOL    HW217085   5.236   1.104   1.482
 5396SOL     OW17086   4.370   4.453   1.753
 5396SOL    HW117087   4.336   4.516   1.823
 5396SOL    HW217088   4.388   4.364   1.794
 5397SOL     OW17089   0.409   2.451   1.690
 5397SOL    HW117090   0.346   2.507   1.635
 5397SOL    HW217091   0.399   2.355   1.663
 5398SOL     OW17092   3.501   2.101   3.724
 5398SOL    HW117093   3.532   2.015   3.764
 5398SOL    HW217094   3.574   2.140   3.668
 5399SOL     OW17095   2.669   5.665   0.749
 5399SOL    HW117096   2.585   5.614   0.733
 5399SOL    HW217097   2.686   5.726   0.672
 5400SOL     OW17098   2.478   4.021   0.565
 5400SOL    HW117099   2.428   4.066   0.491
 5400SOL    HW217100   2.494   3.925   0.541
 5401SOL     OW17101   5.604   3.773   1.120
 5401SOL    HW117102   5.511   3.804   1.138
 5401SOL    HW217103   5.659   3.781   1.203
 5402SOL     OW17104   2.833   5.007   1.752
 5402SOL    HW117105   2.790   5.092   1.784
 5402SOL    HW217106   2.932   5.016   1.758
 5403SOL     OW17107   5.720   2.662   6.451
 5403SOL    HW117108   5.742   2.748   6.497
 5403SOL    HW217109   5.721   2.587   6.517
 5404SOL     OW17110   0.589   0.933   2.185
 5404SOL    HW117111   0.580   0.909   2.088
 5404SOL    HW217112   0.503   0.970   2.219
 5405SOL     OW17113   5.742   6.494   0.062
 5405SOL    HW117114   5.711   6.569   0.120
 5405SOL    HW217115   5.834   6.515   0.027
 5406SOL     OW17116   2.787   0.289   6.462
 5406SOL    HW117117   2.797   0.232   6.544
 5406SOL    HW217118   2.692   0.318   6.454
 5407SOL     OW17119   4.661   2.491   1.366
 5407SOL    HW117120   4.723   2.520   1.293
 5407SOL    HW217121   4.697   2.520   1.455
 5408SOL     OW17122   3.315   1.145   5.992
 5408SOL    HW117123   3.294   1.239   6.018
 5408SOL    HW217124   3.236   1.104   5.947
 5409SOL     OW17125   5.987   1.692   4.228
 5409SOL    HW117126   5.945   1.644   4.305
 5409SOL    HW217127   6.081   1.660   4.216
 5410SOL     OW17128   1.416   3.249   0.766
 5410SOL    HW117129   1.512   3.271   0.751
 5410SOL    HW217130   1.362   3.279   0.687
 5411SOL     OW17131   6.651   4.609   5.922
 5411SOL    HW117132   6.604   4.696   5.909
 5411SOL    HW217133   6.717   4.596   5.848
 5412SOL     OW17134   4.348   0.859   6.771
 5412SOL    HW117135   4.436   0.906   6.777
 5412SOL    HW217136   4.362   0.760   6.782
 5413SOL     OW17137   1.025   0.125   0.790
 5413SOL    HW117138   0.958   0.184   0.746
 5413SOL    HW217139   1.078   0.076   0.720
 5414SOL     OW17140   5.807   2.787   4.909
 5414SOL    HW117141   5.752   2.869   4.924
 5414SOL    HW217142   5.822   2.775   4.811
 5415SOL     OW17143   1.645   6.465   1.181
 5415SOL    HW117144   1.564   6.478   1.238
 5415SOL    HW217145   1.723   6.513   1.222
 5416SOL     OW17146   3.601   4.553   6.040
 5416SOL    HW117147   3.697   4.534   6.059
 5416SOL    HW217148   3.590   4.648   6.011
 5417SOL     OW17149   3.631   6.482   5.036
 5417SOL    HW117150   3.701   6.553   5.032
 5417SOL    HW217151   3.564   6.496   4.963
 5418SOL     OW17152   4.219   6.964   4.655
 5418SOL    HW117153   4.272   6.882   4.676
 5418SOL    HW217154   4.282   0.007   4.626
 5419SOL     OW17155   3.165   5.848   0.376
 5419SOL    HW117156   3.232   5.816   0.443
 5419SOL    HW217157   3.075   5.811   0.399
 5420SOL     OW17158   1.669   2.798   1.813
 5420SOL    HW117159   1.731   2.725   1.840
 5420SOL    HW217160   1.596   2.806   1.881
 5421SOL     OW17161   2.264   4.185   2.728
 5421SOL    HW117162   2.223   4.123   2.662
 5421SOL    HW217163   2.200   4.202   2.802
 5422SOL     OW17164   0.858   5.840   5.785
 5422SOL    HW117165   0.808   5.892   5.855
 5422SOL    HW217166   0.819   5.860   5.695
 5423SOL     OW17167   5.668   3.234   6.886
 5423SOL    HW117168   5.578   3.223   6.844
 5423SOL    HW217169   5.723   3.298   6.832
 5424SOL     OW17170   5.337   3.004   4.398
 5424SOL    HW117171   5.323   3.077   4.331
 5424SOL    HW217172   5.253   2.952   4.409
 5425SOL     OW17173   4.732   1.623   4.269
 5425SOL    HW117174   4.744   1.607   4.367
 5425SOL    HW217175   4.804   1.576   4.218
 5426SOL     OW17176   0.079   5.544   3.786
 5426SOL    HW117177   0.117   5.636   3.768
 5426SOL    HW217178   7.015   5.540   3.754
 5427SOL     OW17179   5.291   5.219   0.629
 5427SOL    HW117180   5.358   5.281   0.669
 5427SOL    HW217181   5.237   5.177   0.703
 5428SOL     OW17182   6.835   0.710   2.162
 5428SOL    HW117183   6.870   0.640   2.101
 5428SOL    HW217184   6.885   0.796   2.146
 5429SOL     OW17185   1.379   1.434   5.798
 5429SOL    HW117186   1.328   1.519   5.805
 5429SOL    HW217187   1.327   1.360   5.842
 5430SOL     OW17188   0.921   3.057   4.976
 5430SOL    HW117189   0.929   3.119   4.899
 5430SOL    HW217190   0.902   3.109   5.059
 5431SOL     OW17191   3.533   5.904   6.556
 5431SOL    HW117192   3.603   5.871   6.619
 5431SOL    HW217193   3.563   5.890   6.462
 5432SOL     OW17194   4.070   6.620   6.379
 5432SOL    HW117195   4.107   6.630   6.472
 5432SOL    HW217196   4.134   6.660   6.313
 5433SOL     OW17197   0.059   1.808   3.349
 5433SOL    HW117198   6.999   1.847   3.367
 5433SOL    HW217199   0.112   1.871   3.293
 5434SOL     OW17200   3.479   1.010   4.762
 5434SOL    HW117201   3.418   0.934   4.740
 5434SOL    HW217202   3.574   0.979   4.757
 5435SOL     OW17203   5.914   1.659   1.262
 5435SOL    HW117204   6.003   1.648   1.219
 5435SOL    HW217205   5.907   1.750   1.303
 5436SOL     OW17206   5.320   4.212   4.802
 5436SOL    HW117207   5.300   4.184   4.896
 5436SOL    HW217208   5.309   4.134   4.741
 5437SOL     OW17209   2.473   5.164   5.624
 5437SOL    HW117210   2.485   5.136   5.529
 5437SOL    HW217211   2.437   5.088   5.678
 5438SOL     OW17212   5.787   3.439   2.935
 5438SOL    HW117213   5.720   3.368   2.958
 5438SOL    HW217214   5.752   3.493   2.859
 5439SOL     OW17215   0.137   2.122   0.541
 5439SOL    HW117216   0.145   2.022   0.537
 5439SOL    HW217217   0.172   2.162   0.456
 5440SOL     OW17218   0.887   0.189   2.169
 5440SOL    HW117219   0.878   0.108   2.111
 5440SOL    HW217220   0.866   0.164   2.263
 5441SOL     OW17221   4.849   3.070   3.094
 5441SOL    HW117222   4.798   2.995   3.137
 5441SOL    HW217223   4.880   3.042   3.003
 5442SOL     OW17224   3.497   6.607   3.224
 5442SOL    HW117225   3.503   6.601   3.125
 5442SOL    HW217226   3.415   6.559   3.256
 5443SOL     OW17227   2.644   0.333   3.785
 5443SOL    HW117228   2.591   0.271   3.727
 5443SOL    HW217229   2.614   0.427   3.768
 5444SOL     OW17230   1.037   0.771   3.670
 5444SOL    HW117231   1.060   0.694   3.611
 5444SOL    HW217232   1.109   0.782   3.739
 5445SOL     OW17233   6.142   4.374   4.502
 5445SOL    HW117234   6.058   4.427   4.515
 5445SOL    HW217235   6.130   4.311   4.426
 5446SOL     OW17236   6.091   5.284   5.144
 5446SOL    HW117237   6.098   5.383   5.150
 5446SOL    HW217238   6.166   5.248   5.089
 5447SOL     OW17239   1.548   1.821   0.396
 5447SOL    HW117240   1.617   1.834   0.325
 5447SOL    HW217241   1.592   1.823   0.486
 5448SOL     OW17242   5.402   3.362   4.902
 5448SOL    HW117243   5.501   3.353   4.915
 5448SOL    HW217244   5.383   3.377   4.805
 5449SOL     OW17245   1.812   1.904   6.828
 5449SOL    HW117246   1.772   1.822   6.788
 5449SOL    HW217247   1.763   1.927   6.913
 5450SOL     OW17248   2.147   0.410   2.130
 5450SOL    HW117249   2.206   0.393   2.209
 5450SOL    HW217250   2.154   0.506   2.103
 5451SOL     OW17251   1.204   5.711   3.611
 5451SOL    HW117252   1.184   5.616   3.635
 5451SOL    HW217253   1.293   5.715   3.565
 5452SOL     OW17254   1.857   4.161   0.239
 5452SOL    HW117255   1.767   4.184   0.276
 5452SOL    HW217256   1.854   4.167   0.139
 5453SOL     OW17257   5.159   4.151   1.414
 5453SOL    HW117258   5.182   4.235   1.364
 5453SOL    HW217259   5.243   4.101   1.433
 5454SOL     OW17260   6.481   4.155   5.749
 5454SOL    HW117261   6.387   4.135   5.720
 5454SOL    HW217262   6.538   4.173   5.669
 5455SOL     OW17263   5.855   2.771   1.750
 5455SOL    HW117264   5.856   2.843   1.681
 5455SOL    HW217265   5.948   2.744   1.772
 5456SOL     OW17266   2.570   7.010   6.656
 5456SOL    HW117267   2.630   0.055   6.684
 5456SOL    HW217268   2.573   6.937   6.725
 5457SOL     OW17269   6.690   2.405   0.620
 5457SOL    HW117270   6.666   2.341   0.693
 5457SOL    HW217271   6.610   2.421   0.562
 5458SOL     OW17272   0.472   3.898   0.204
 5458SOL    HW117273   0.529   3.896   0.122
 5458SOL    HW217274   0.529   3.920   0.284
 5459SOL     OW17275   1.950   4.086   6.821
 5459SOL    HW117276   1.919   4.144   6.897
 5459SOL    HW217277   1.962   3.992   6.854
 5460SOL     OW17278   3.995   0.476   3.094
 5460SOL    HW117279   3.984   0.496   3.192
 5460SOL    HW217280   4.090   0.490   3.067
 5461SOL     OW17281   6.841   0.237   5.152
 5461SOL    HW117282   6.872   0.329   5.129
 5461SOL    HW217283   6.744   0.240   5.176
 5462SOL     OW17284   0.373   6.532   0.906
 5462SOL    HW117285   0.409   6.504   0.996
 5462SOL    HW217286   0.436   6.598   0.865
 5463SOL     OW17287   6.877   1.293   0.352
 5463SOL    HW117288   6.903   1.252   0.265
 5463SOL    HW217289   6.831   1.380   0.336
 5464SOL     OW17290   0.963   1.028   4.630
 5464SOL    HW117291   1.012   1.068   4.707
 5464SOL    HW217292   1.026   0.973   4.575
 5465SOL     OW17293   4.226   0.043   4.166
 5465SOL    HW117294   4.157   0.105   4.204
 5465SOL    HW217295   4.312   0.055   4.215
 5466SOL     OW17296   5.162   2.958   4.819
 5466SOL    HW117297   5.239   3.014   4.850
 5466SOL    HW217298   5.144   2.886   4.885
 5467SOL     OW17299   5.163   3.769   3.538
 5467SOL    HW117300   5.181   3.766   3.440
 5467SOL    HW217301   5.065   3.773   3.554
 5468SOL     OW17302   6.090   2.529   4.089
 5468SOL    HW117303   6.097   2.492   4.182
 5468SOL    HW217304   6.155   2.483   4.029
 5469SOL     OW17305   3.048   5.988   6.105
 5469SOL    HW117306   3.012   5.917   6.166
 5469SOL    HW217307   2.994   6.072   6.117
 5470SOL     OW17308   3.527   5.448   3.131
 5470SOL    HW117309   3.552   5.508   3.207
 5470SOL    HW217310   3.485   5.501   3.058
 5471SOL     OW17311   5.653   6.835   2.863
 5471SOL    HW117312   5.675   6.931   2.850
 5471SOL    HW217313   5.728   6.778   2.830
 5472SOL     OW17314   3.803   3.859   5.901
 5472SOL    HW117315   3.831   3.808   5.820
 5472SOL    HW217316   3.846   3.950   5.899
 5473SOL     OW17317   0.248   3.269   2.333
 5473SOL    HW117318   0.303   3.255   2.415
 5473SOL    HW217319   0.283   3.211   2.260
 5474SOL     OW17320   0.879   4.847   3.949
 5474SOL    HW117321   0.957   4.885   4.000
 5474SOL    HW217322   0.856   4.907   3.873
 5475SOL     OW17323   2.512   3.237   1.345
 5475SOL    HW117324   2.560   3.188   1.418
 5475SOL    HW217325   2.463   3.315   1.384
 5476SOL     OW17326   2.081   4.709   5.482
 5476SOL    HW117327   2.139   4.724   5.402
 5476SOL    HW217328   1.996   4.762   5.472
 5477SOL     OW17329   2.397   4.678   2.737
 5477SOL    HW117330   2.392   4.672   2.837
 5477SOL    HW217331   2.414   4.588   2.699
 5478SOL     OW17332   3.651   5.368   4.962
 5478SOL    HW117333   3.593   5.418   4.897
 5478SOL    HW217334   3.600   5.289   4.997
 5479SOL     OW17335   5.407   1.428   6.003
 5479SOL    HW117336   5.404   1.328   6.016
 5479SOL    HW217337   5.487   1.465   6.049
 5480SOL     OW17338   6.129   4.033   2.817
 5480SOL    HW117339   6.083   4.096   2.880
 5480SOL    HW217340   6.135   4.075   2.726
 5481SOL     OW17341   4.420   1.724   4.420
 5481SOL    HW117342   4.336   1.749   4.467
 5481SOL    HW217343   4.465   1.648   4.467
 5482SOL     OW17344   3.590   4.396   1.735
 5482SOL    HW117345   3.581   4.486   1.778
 5482SOL    HW217346   3.569   4.325   1.801
 5483SOL     OW17347   0.401   1.812   5.551
 5483SOL    HW117348   0.451   1.763   5.623
 5483SOL    HW217349   0.377   1.748   5.478
 5484SOL     OW17350   4.299   1.332   4.249
 5484SOL    HW117351   4.312   1.431   4.245
 5484SOL    HW217352   4.364   1.293   4.314
 5485SOL     OW17353   3.875   0.089   5.729
 5485SOL    HW117354   3.956   0.148   5.725
 5485SOL    HW217355   3.802   0.137   5.779
 5486SOL     OW17356   2.625   5.884   5.220
 5486SOL    HW117357   2.693   5.910   5.290
 5486SOL    HW217358   2.566   5.813   5.257
 5487SOL     OW17359   4.408   2.653   6.896
 5487SOL    HW117360   4.395   2.609   6.807
 5487SOL    HW217361   4.351   2.735   6.901
 5488SOL     OW17362   6.604   0.139   1.006
 5488SOL    HW117363   6.507   0.164   1.017
 5488SOL    HW217364   6.657   0.181   1.079
 5489SOL     OW17365   0.737   5.008   1.668
 5489SOL    HW117366   0.714   4.990   1.572
 5489SOL    HW217367   0.766   5.103   1.678
 5490SOL     OW17368   3.194   0.384   2.662
 5490SOL    HW117369   3.252   0.305   2.684
 5490SOL    HW217370   3.103   0.353   2.636
 5491SOL     OW17371   0.622   3.029   0.393
 5491SOL    HW117372   0.545   3.001   0.450
 5491SOL    HW217373   0.672   2.947   0.363
 5492SOL     OW17374   0.529   4.202   6.671
 5492SOL    HW117375   0.486   4.249   6.595
 5492SOL    HW217376   0.460   4.180   6.740
 5493SOL     OW17377   2.896   3.675   4.093
 5493SOL    HW117378   2.815   3.697   4.148
 5493SOL    HW217379   2.906   3.743   4.020
 5494SOL     OW17380   0.681   3.583   5.713
 5494SOL    HW117381   0.600   3.624   5.671
 5494SOL    HW217382   0.763   3.614   5.665
 5495SOL     OW17383   6.003   1.045   0.778
 5495SOL    HW117384   6.029   0.984   0.703
 5495SOL    HW217385   5.941   0.999   0.840
 5496SOL     OW17386   4.241   0.770   3.731
 5496SOL    HW117387   4.327   0.820   3.742
 5496SOL    HW217388   4.214   0.731   3.819
 5497SOL     OW17389   0.745   0.901   4.750
 5497SOL    HW117390   0.801   0.947   4.680
 5497SOL    HW217391   0.706   0.970   4.811
 5498SOL     OW17392   6.989   5.110   1.429
 5498SOL    HW117393   0.049   5.151   1.442
 5498SOL    HW217394   6.949   5.088   1.518
 5499SOL     OW17395   1.147   0.751   4.897
 5499SOL    HW117396   1.181   0.657   4.886
 5499SOL    HW217397   1.207   0.801   4.959
 5500SOL     OW17398   0.788   0.437   6.917
 5500SOL    HW117399   0.697   0.479   6.925
 5500SOL    HW217400   0.785   0.345   6.955
 5501SOL     OW17401   3.931   1.801   6.979
 5501SOL    HW117402   3.916   1.719   6.925
 5501SOL    HW217403   3.924   1.779   0.047
 5502SOL     OW17404   5.620   3.908   6.570
 5502SOL    HW117405   5.661   4.000   6.563
 5502SOL    HW217406   5.590   3.892   6.664
 5503SOL     OW17407   6.870   4.601   1.187
 5503SOL    HW117408   6.799   4.615   1.118
 5503SOL    HW217409   6.896   4.689   1.227
 5504SOL     OW17410   4.574   1.169   5.159
 5504SOL    HW117411   4.552   1.075   5.184
 5504SOL    HW217412   4.641   1.206   5.224
 5505SOL     OW17413   2.024   5.011   3.916
 5505SOL    HW117414   2.038   5.068   3.998
 5505SOL    HW217415   2.003   4.917   3.944
 5506SOL     OW17416   0.544   3.736   1.048
 5506SOL    HW117417   0.494   3.799   0.989
 5506SOL    HW217418   0.620   3.695   0.996
 5507SOL     OW17419   3.781   1.184   5.019
 5507SOL    HW117420   3.688   1.219   5.024
 5507SOL    HW217421   3.782   1.097   4.971
 5508SOL     OW17422   1.405   1.084   0.235
 5508SOL    HW117423   1.313   1.115   0.260
 5508SOL    HW217424   1.408   1.069   0.136
 5509SOL     OW17425   0.586   6.046   6.427
 5509SOL    HW117426   0.630   6.127   6.388
 5509SOL    HW217427   0.638   5.965   6.401
 5510SOL     OW17428   4.014   5.553   6.450
 5510SOL    HW117429   4.092   5.514   6.499
 5510SOL    HW217430   4.046   5.609   6.374
 5511SOL     OW17431   1.131   0.048   4.397
 5511SOL    HW117432   1.117   0.144   4.422
 5511SOL    HW217433   1.044   0.007   4.372
 5512SOL     OW17434   4.764   1.948   0.863
 5512SOL    HW117435   4.781   1.908   0.953
 5512SOL    HW217436   4.849   1.983   0.825
 5513SOL     OW17437   3.623   5.268   5.808
 5513SOL    HW117438   3.700   5.329   5.788
 5513SOL    HW217439   3.597   5.279   5.904
 5514SOL     OW17440   3.559   0.477   4.548
 5514SOL    HW117441   3.517   0.459   4.637
 5514SOL    HW217442   3.543   0.572   4.521
 5515SOL     OW17443   0.899   5.693   1.722
 5515SOL    HW117444   0.906   5.719   1.818
 5515SOL    HW217445   0.805   5.669   1.700
 5516SOL     OW17446   1.861   2.390   4.863
 5516SOL    HW117447   1.785   2.404   4.799
 5516SOL    HW217448   1.894   2.479   4.895
 5517SOL     OW17449   2.043   3.638   1.954
 5517SOL    HW117450   1.972   3.611   1.889
 5517SOL    HW217451   2.124   3.580   1.942
 5518SOL     OW17452   5.724   5.543   6.848
 5518SOL    HW117453   5.670   5.487   6.911
 5518SOL    HW217454   5.791   5.597   6.899
 5519SOL     OW17455   5.357   3.065   2.974
 5519SOL    HW117456   5.280   3.024   3.022
 5519SOL    HW217457   5.349   3.047   2.876
 5520SOL     OW17458   5.796   6.919   2.591
 5520SOL    HW117459   5.868   6.864   2.549
 5520SOL    HW217460   5.709   6.869   2.587
 5521SOL     OW17461   4.981   6.362   1.922
 5521SOL    HW117462   4.900   6.363   1.863
 5521SOL    HW217463   5.062   6.389   1.869
 5522SOL     OW17464   6.393   5.113   0.819
 5522SOL    HW117465   6.398   5.026   0.868
 5522SOL    HW217466   6.297   5.134   0.799
 5523SOL     OW17467   4.360   0.859   1.793
 5523SOL    HW117468   4.317   0.770   1.778
 5523SOL    HW217469   4.389   0.867   1.888
 5524SOL     OW17470   3.688   6.858   4.800
 5524SOL    HW117471   3.651   6.794   4.732
 5524SOL    HW217472   3.783   6.879   4.777
 5525SOL     OW17473   0.914   2.498   0.351
 5525SOL    HW117474   0.991   2.536   0.404
 5525SOL    HW217475   0.949   2.456   0.267
 5526SOL     OW17476   4.979   4.842   2.956
 5526SOL    HW117477   5.060   4.800   2.997
 5526SOL    HW217478   5.005   4.888   2.871
 5527SOL     OW17479   4.891   3.642   3.905
 5527SOL    HW117480   4.897   3.562   3.965
 5527SOL    HW217481   4.846   3.717   3.954
 5528SOL     OW17482   1.546   0.969   0.976
 5528SOL    HW117483   1.556   0.870   0.980
 5528SOL    HW217484   1.559   1.001   0.882
 5529SOL     OW17485   3.243   6.863   4.673
 5529SOL    HW117486   3.309   6.792   4.650
 5529SOL    HW217487   3.197   6.839   4.759
 5530SOL     OW17488   6.370   1.664   0.924
 5530SOL    HW117489   6.424   1.645   1.005
 5530SOL    HW217490   6.412   1.738   0.872
 5531SOL     OW17491   3.460   3.375   1.410
 5531SOL    HW117492   3.384   3.370   1.475
 5531SOL    HW217493   3.504   3.464   1.417
 5532SOL     OW17494   0.890   3.049   1.090
 5532SOL    HW117495   0.965   2.989   1.118
 5532SOL    HW217496   0.808   2.994   1.073
 5533SOL     OW17497   4.749   1.554   3.668
 5533SOL    HW117498   4.770   1.546   3.571
 5533SOL    HW217499   4.821   1.511   3.723
 5534SOL     OW17500   1.114   1.375   0.391
 5534SOL    HW117501   1.131   1.423   0.305
 5534SOL    HW217502   1.115   1.276   0.374
 5535SOL     OW17503   1.302   1.275   3.053
 5535SOL    HW117504   1.314   1.349   2.987
 5535SOL    HW217505   1.304   1.187   3.005
 5536SOL     OW17506   3.676   0.293   3.927
 5536SOL    HW117507   3.654   0.197   3.908
 5536SOL    HW217508   3.738   0.297   4.006
 5537SOL     OW17509   3.485   1.652   2.152
 5537SOL    HW117510   3.446   1.570   2.111
 5537SOL    HW217511   3.532   1.628   2.236
 5538SOL     OW17512   4.339   5.745   5.349
 5538SOL    HW117513   4.343   5.757   5.448
 5538SOL    HW217514   4.349   5.833   5.304
 5539SOL     OW17515   1.354   4.170   1.545
 5539SOL    HW117516   1.433   4.126   1.502
 5539SOL    HW217517   1.331   4.253   1.494
 5540SOL     OW17518   4.652   4.786   4.286
 5540SOL    HW117519   4.581   4.716   4.294
 5540SOL    HW217520   4.695   4.780   4.195
 5541SOL     OW17521   5.276   0.127   6.303
 5541SOL    HW117522   5.277   0.047   6.243
 5541SOL    HW217523   5.343   0.194   6.270
 5542SOL     OW17524   4.045   3.568   6.152
 5542SOL    HW117525   4.052   3.650   6.210
 5542SOL    HW217526   4.063   3.487   6.207
 5543SOL     OW17527   4.695   4.180   6.764
 5543SOL    HW117528   4.678   4.103   6.825
 5543SOL    HW217529   4.778   4.163   6.711
 5544SOL     OW17530   4.829   5.786   6.767
 5544SOL    HW117531   4.779   5.764   6.851
 5544SOL    HW217532   4.926   5.768   6.780
 5545SOL     OW17533   5.181   0.200   2.707
 5545SOL    HW117534   5.100   0.172   2.655
 5545SOL    HW217535   5.227   0.275   2.659
 5546SOL     OW17536   0.692   4.373   4.610
 5546SOL    HW117537   0.660   4.417   4.526
 5546SOL    HW217538   0.791   4.384   4.618
 5547SOL     OW17539   2.794   6.366   5.133
 5547SOL    HW117540   2.807   6.281   5.081
 5547SOL    HW217541   2.732   6.426   5.083
 5548SOL     OW17542   6.346   3.171   5.685
 5548SOL    HW117543   6.327   3.251   5.741
 5548SOL    HW217544   6.272   3.157   5.620
 5549SOL     OW17545   3.970   4.913   0.378
 5549SOL    HW117546   4.038   4.951   0.317
 5549SOL    HW217547   3.963   4.970   0.460
 5550SOL     OW17548   2.951   5.563   2.415
 5550SOL    HW117549   2.993   5.619   2.343
 5550SOL    HW217550   2.956   5.466   2.390
 5551SOL     OW17551   1.721   0.592   2.941
 5551SOL    HW117552   1.737   0.525   3.014
 5551SOL    HW217553   1.746   0.683   2.974
 5552SOL     OW17554   6.821   1.249   6.844
 5552SOL    HW117555   6.762   1.310   6.896
 5552SOL    HW217556   6.808   1.264   6.746
 5553SOL     OW17557   3.470   6.578   0.452
 5553SOL    HW117558   3.452   6.660   0.507
 5553SOL    HW217559   3.558   6.588   0.405
 5554SOL     OW17560   2.586   1.846   5.727
 5554SOL    HW117561   2.577   1.875   5.823
 5554SOL    HW217562   2.606   1.925   5.670
 5555SOL     OW17563   0.696   5.655   3.388
 5555SOL    HW117564   0.751   5.658   3.305
 5555SOL    HW217565   0.640   5.572   3.388
 5556SOL     OW17566   0.538   2.591   4.402
 5556SOL    HW117567   0.533   2.632   4.493
 5556SOL    HW217568   0.492   2.651   4.337
 5557SOL     OW17569   2.946   5.356   4.250
 5557SOL    HW117570   2.860   5.338   4.298
 5557SOL    HW217571   2.928   5.371   4.153
 5558SOL     OW17572   4.701   3.187   5.333
 5558SOL    HW117573   4.747   3.265   5.291
 5558SOL    HW217574   4.696   3.112   5.267
 5559SOL     OW17575   2.712   6.739   2.169
 5559SOL    HW117576   2.794   6.774   2.214
 5559SOL    HW217577   2.732   6.651   2.126
 5560SOL     OW17578   0.098   6.825   3.110
 5560SOL    HW117579   0.109   6.897   3.041
 5560SOL    HW217580   0.014   6.774   3.090
 5561SOL     OW17581   1.751   2.513   4.319
 5561SOL    HW117582   1.659   2.484   4.343
 5561SOL    HW217583   1.749   2.561   4.231
 5562SOL     OW17584   1.912   2.593   6.479
 5562SOL    HW117585   1.897   2.494   6.475
 5562SOL    HW217586   1.943   2.619   6.571
 5563SOL     OW17587   4.537   6.353   2.389
 5563SOL    HW117588   4.572   6.319   2.302
 5563SOL    HW217589   4.438   6.338   2.393
 5564SOL     OW17590   5.108   2.840   1.509
 5564SOL    HW117591   5.203   2.850   1.481
 5564SOL    HW217592   5.049   2.837   1.428
 5565SOL     OW17593   4.585   2.439   5.930
 5565SOL    HW117594   4.654   2.401   5.991
 5565SOL    HW217595   4.549   2.524   5.968
 5566SOL     OW17596   1.200   6.118   1.468
 5566SOL    HW117597   1.259   6.145   1.392
 5566SOL    HW217598   1.105   6.142   1.447
 5567SOL     OW17599   0.894   4.825   0.542
 5567SOL    HW117600   0.796   4.807   0.545
 5567SOL    HW217601   0.927   4.816   0.448
 5568SOL     OW17602   4.547   2.510   1.031
 5568SOL    HW117603   4.647   2.515   1.026
 5568SOL    HW217604   4.515   2.436   0.971
 5569SOL     OW17605   3.735   1.727   1.519
 5569SOL    HW117606   3.769   1.767   1.604
 5569SOL    HW217607   3.764   1.632   1.513
 5570SOL     OW17608   6.281   4.950   4.837
 5570SOL    HW117609   6.262   4.925   4.932
 5570SOL    HW217610   6.375   4.984   4.829
 5571SOL     OW17611   0.196   6.361   0.632
 5571SOL    HW117612   0.188   6.429   0.559
 5571SOL    HW217613   0.107   6.350   0.678
 5572SOL     OW17614   3.315   2.528   6.434
 5572SOL    HW117615   3.324   2.541   6.335
 5572SOL    HW217616   3.264   2.604   6.473
 5573SOL     OW17617   1.110   3.053   0.588
 5573SOL    HW117618   1.039   3.070   0.657
 5573SOL    HW217619   1.072   3.069   0.497
 5574SOL     OW17620   0.202   0.115   4.416
 5574SOL    HW117621   0.204   0.106   4.316
 5574SOL    HW217622   0.292   0.145   4.448
 5575SOL     OW17623   1.737   0.844   1.599
 5575SOL    HW117624   1.714   0.941   1.607
 5575SOL    HW217625   1.703   0.808   1.513
 5576SOL     OW17626   6.159   4.918   1.396
 5576SOL    HW117627   6.242   4.931   1.451
 5576SOL    HW217628   6.116   5.006   1.380
 5577SOL     OW17629   2.159   3.551   4.966
 5577SOL    HW117630   2.162   3.455   4.991
 5577SOL    HW217631   2.145   3.607   5.047
 5578SOL     OW17632   3.133   2.580   0.086
 5578SOL    HW117633   3.103   2.545   0.175
 5578SOL    HW217634   3.112   2.512   0.015
 5579SOL     OW17635   5.426   3.854   6.358
 5579SOL    HW117636   5.425   3.754   6.358
 5579SOL    HW217637   5.450   3.888   6.449
 5580SOL     OW17638   4.793   2.225   0.375
 5580SOL    HW117639   4.890   2.237   0.352
 5580SOL    HW217640   4.738   2.293   0.327
 5581SOL     OW17641   2.644   0.230   0.145
 5581SOL    HW117642   2.583   0.296   0.190
 5581SOL    HW217643   2.589   0.157   0.105
 5582SOL     OW17644   3.762   3.813   4.154
 5582SOL    HW117645   3.794   3.907   4.161
 5582SOL    HW217646   3.762   3.771   4.245
 5583SOL     OW17647   4.101   6.497   2.606
 5583SOL    HW117648   4.010   6.524   2.638
 5583SOL    HW217649   4.139   6.570   2.549
 5584SOL     OW17650   5.546   3.998   3.493
 5584SOL    HW117651   5.611   4.059   3.538
 5584SOL    HW217652   5.515   3.929   3.558
 5585SOL     OW17653   5.533   0.666   3.714
 5585SOL    HW117654   5.631   0.683   3.729
 5585SOL    HW217655   5.520   0.618   3.627
 5586SOL     OW17656   1.581   1.596   6.390
 5586SOL    HW117657   1.494   1.636   6.363
 5586SOL    HW217658   1.580   1.498   6.371
 5587SOL     OW17659   3.385   0.249   3.267
 5587SOL    HW117660   3.331   0.330   3.292
 5587SOL    HW217661   3.394   0.189   3.346
 5588SOL     OW17662   2.418   6.595   5.184
 5588SOL    HW117663   2.407   6.684   5.140
 5588SOL    HW217664   2.438   6.607   5.281
 5589SOL     OW17665   4.925   3.206   5.895
 5589SOL    HW117666   4.859   3.140   5.930
 5589SOL    HW217667   4.914   3.293   5.943
 5590SOL     OW17668   6.424   5.748   3.695
 5590SOL    HW117669   6.334   5.704   3.703
 5590SOL    HW217670   6.412   5.847   3.689
 5591SOL     OW17671   6.058   0.626   0.454
 5591SOL    HW117672   6.052   0.662   0.361
 5591SOL    HW217673   6.010   0.538   0.458
 5592SOL     OW17674   1.897   3.752   3.929
 5592SOL    HW117675   1.921   3.655   3.925
 5592SOL    HW217676   1.813   3.763   3.983
 5593SOL     OW17677   0.485   2.452   5.698
 5593SOL    HW117678   0.480   2.544   5.661
 5593SOL    HW217679   0.469   2.454   5.796
 5594SOL     OW17680   2.083   0.905   0.460
 5594SOL    HW117681   2.031   0.990   0.464
 5594SOL    HW217682   2.160   0.917   0.397
 5595SOL     OW17683   6.278   0.911   6.038
 5595SOL    HW117684   6.193   0.946   6.076
 5595SOL    HW217685   6.301   0.961   5.955
 5596SOL     OW17686   5.958   0.186   2.377
 5596SOL    HW117687   5.924   0.200   2.470
 5596SOL    HW217688   5.891   0.220   2.311
 5597SOL     OW17689   5.510   2.143   6.313
 5597SOL    HW117690   5.583   2.191   6.363
 5597SOL    HW217691   5.457   2.209   6.260
 5598SOL     OW17692   5.164   1.679   4.138
 5598SOL    HW117693   5.173   1.671   4.039
 5598SOL    HW217694   5.081   1.730   4.160
 5599SOL     OW17695   5.626   4.065   1.625
 5599SOL    HW117696   5.551   4.012   1.664
 5599SOL    HW217697   5.640   4.148   1.680
 5600SOL     OW17698   2.290   0.269   3.002
 5600SOL    HW117699   2.334   0.187   3.038
 5600SOL    HW217700   2.198   0.277   3.039
 5601SOL     OW17701   5.371   3.142   5.884
 5601SOL    HW117702   5.456   3.193   5.898
 5601SOL    HW217703   5.368   3.065   5.948
 5602SOL     OW17704   0.349   2.075   3.330
 5602SOL    HW117705   0.300   2.159   3.304
 5602SOL    HW217706   0.344   2.009   3.255
 5603SOL     OW17707   4.464   2.768   5.254
 5603SOL    HW117708   4.472   2.793   5.157
 5603SOL    HW217709   4.484   2.670   5.265
 5604SOL     OW17710   1.201   0.122   4.864
 5604SOL    HW117711   1.208   0.028   4.897
 5604SOL    HW217712   1.210   0.185   4.942
 5605SOL     OW17713   1.551   6.986   4.583
 5605SOL    HW117714   1.464   0.003   4.600
 5605SOL    HW217715   1.533   6.894   4.550
 5606SOL     OW17716   4.998   1.470   0.127
 5606SOL    HW117717   4.960   1.505   0.212
 5606SOL    HW217718   5.083   1.421   0.145
 5607SOL     OW17719   5.909   2.328   3.772
 5607SOL    HW117720   5.937   2.341   3.677
 5607SOL    HW217721   5.909   2.416   3.819
 5608SOL     OW17722   5.803   0.587   3.201
 5608SOL    HW117723   5.808   0.556   3.106
 5608SOL    HW217724   5.826   0.684   3.206
 5609SOL     OW17725   5.099   6.768   6.959
 5609SOL    HW117726   5.083   6.686   7.014
 5609SOL    HW217727   5.178   6.753   6.900
 5610SOL     OW17728   5.410   3.664   0.069
 5610SOL    HW117729   5.330   3.614   0.100
 5610SOL    HW217730   5.489   3.639   0.125
 5611SOL     OW17731   0.646   4.983   1.392
 5611SOL    HW117732   0.655   5.064   1.334
 5611SOL    HW217733   0.610   4.907   1.337
 5612SOL     OW17734   2.790   2.545   6.980
 5612SOL    HW117735   2.737   2.475   6.934
 5612SOL    HW217736   2.829   2.608   6.912
 5613SOL     OW17737   0.106   5.339   4.675
 5613SOL    HW117738   0.048   5.369   4.751
 5613SOL    HW217739   0.055   5.275   4.617
 5614SOL     OW17740   5.737   2.026   5.005
 5614SOL    HW117741   5.644   2.032   4.969
 5614SOL    HW217742   5.803   2.047   4.933
 5615SOL     OW17743   0.297   2.461   2.571
 5615SOL    HW117744   0.343   2.420   2.493
 5615SOL    HW217745   0.281   2.558   2.553
 5616SOL     OW17746   1.986   2.414   4.318
 5616SOL    HW117747   2.035   2.496   4.348
 5616SOL    HW217748   1.889   2.435   4.307
 5617SOL     OW17749   1.687   5.103   5.781
 5617SOL    HW117750   1.732   5.186   5.814
 5617SOL    HW217751   1.655   5.049   5.858
 5618SOL     OW17752   6.765   5.032   3.705
 5618SOL    HW117753   6.737   4.959   3.643
 5618SOL    HW217754   6.842   5.001   3.760
 5619SOL     OW17755   3.152   3.041   3.517
 5619SOL    HW117756   3.195   2.951   3.524
 5619SOL    HW217757   3.112   3.065   3.606
 5620SOL     OW17758   4.054   4.291   6.177
 5620SOL    HW117759   3.974   4.267   6.232
 5620SOL    HW217760   4.032   4.371   6.121
 5621SOL     OW17761   1.693   2.940   5.781
 5621SOL    HW117762   1.772   2.965   5.837
 5621SOL    HW217763   1.723   2.916   5.689
 5622SOL     OW17764   4.697   5.778   4.790
 5622SOL    HW117765   4.705   5.679   4.794
 5622SOL    HW217766   4.637   5.804   4.715
 5623SOL     OW17767   4.717   6.203   4.125
 5623SOL    HW117768   4.646   6.133   4.113
 5623SOL    HW217769   4.786   6.168   4.189
 5624SOL     OW17770   0.208   5.291   3.610
 5624SOL    HW117771   0.142   5.357   3.646
 5624SOL    HW217772   0.200   5.205   3.660
 5625SOL     OW17773   1.634   5.675   4.634
 5625SOL    HW117774   1.731   5.668   4.611
 5625SOL    HW217775   1.582   5.701   4.552
 5626SOL     OW17776   1.999   4.479   3.984
 5626SOL    HW117777   1.970   4.570   4.013
 5626SOL    HW217778   2.067   4.487   3.911
 5627SOL     OW17779   1.131   5.797   6.628
 5627SOL    HW117780   1.033   5.779   6.631
 5627SOL    HW217781   1.160   5.840   6.713
 5628SOL     OW17782   3.052   3.411   0.945
 5628SOL    HW117783   3.027   3.422   0.848
 5628SOL    HW217784   2.979   3.449   1.002
 5629SOL     OW17785   4.173   3.418   1.162
 5629SOL    HW117786   4.246   3.469   1.209
 5629SOL    HW217787   4.181   3.321   1.183
 5630SOL     OW17788   1.460   4.224   6.711
 5630SOL    HW117789   1.457   4.320   6.739
 5630SOL    HW217790   1.525   4.212   6.636
 5631SOL     OW17791   5.186   0.754   1.766
 5631SOL    HW117792   5.170   0.851   1.750
 5631SOL    HW217793   5.122   0.720   1.834
 5632SOL     OW17794   4.992   1.182   5.445
 5632SOL    HW117795   4.957   1.194   5.538
 5632SOL    HW217796   5.077   1.131   5.447
 5633SOL     OW17797   0.158   4.490   4.946
 5633SOL    HW117798   0.079   4.459   4.893
 5633SOL    HW217799   0.167   4.589   4.937
 5634SOL     OW17800   2.751   5.221   5.918
 5634SOL    HW117801   2.820   5.241   5.987
 5634SOL    HW217802   2.721   5.126   5.927
 5635SOL     OW17803   2.792   0.146   6.700
 5635SOL    HW117804   2.805   0.222   6.764
 5635SOL    HW217805   2.857   0.073   6.722
 5636SOL     OW17806   6.130   1.134   5.580
 5636SOL    HW117807   6.138   1.051   5.524
 5636SOL    HW217808   6.150   1.214   5.524
 5637SOL     OW17809   5.705   6.020   4.694
 5637SOL    HW117810   5.726   5.984   4.785
 5637SOL    HW217811   5.767   5.980   4.627
 5638SOL     OW17812   5.028   6.160   1.564
 5638SOL    HW117813   5.113   6.194   1.605
 5638SOL    HW217814   5.019   6.198   1.472
 5639SOL     OW17815   1.899   0.311   2.100
 5639SOL    HW117816   1.991   0.350   2.100
 5639SOL    HW217817   1.898   0.226   2.047
 5640SOL     OW17818   2.724   6.882   2.996
 5640SOL    HW117819   2.754   6.883   2.900
 5640SOL    HW217820   2.787   6.936   3.051
 5641SOL     OW17821   0.951   4.302   5.601
 5641SOL    HW117822   0.899   4.323   5.684
 5641SOL    HW217823   1.027   4.242   5.624
 5642SOL     OW17824   0.443   4.987   6.140
 5642SOL    HW117825   0.429   5.085   6.153
 5642SOL    HW217826   0.540   4.969   6.126
 5643SOL     OW17827   3.483   1.790   4.754
 5643SOL    HW117828   3.484   1.890   4.762
 5643SOL    HW217829   3.564   1.752   4.800
 5644SOL     OW17830   5.170   1.546   4.476
 5644SOL    HW117831   5.206   1.513   4.388
 5644SOL    HW217832   5.215   1.497   4.551
 5645SOL     OW17833   5.186   4.190   2.477
 5645SOL    HW117834   5.208   4.281   2.440
 5645SOL    HW217835   5.088   4.172   2.465
 5646SOL     OW17836   0.940   5.469   3.646
 5646SOL    HW117837   1.012   5.424   3.699
 5646SOL    HW217838   0.851   5.433   3.675
 5647SOL     OW17839   0.067   6.251   6.596
 5647SOL    HW117840   0.115   6.281   6.678
 5647SOL    HW217841   0.066   6.325   6.529
 5648SOL     OW17842   1.709   1.417   3.481
 5648SOL    HW117843   1.769   1.442   3.405
 5648SOL    HW217844   1.621   1.464   3.470
 5649SOL     OW17845   1.837   0.500   4.688
 5649SOL    HW117846   1.799   0.526   4.777
 5649SOL    HW217847   1.876   0.408   4.695
 5650SOL     OW17848   0.153   4.845   0.985
 5650SOL    HW117849   0.183   4.890   0.900
 5650SOL    HW217850   0.055   4.863   0.999
 5651SOL     OW17851   0.450   2.223   1.556
 5651SOL    HW117852   0.472   2.139   1.605
 5651SOL    HW217853   0.510   2.233   1.478
 5652SOL     OW17854   4.891   5.874   2.099
 5652SOL    HW117855   4.944   5.959   2.090
 5652SOL    HW217856   4.797   5.897   2.124
 5653SOL     OW17857   0.047   6.417   6.043
 5653SOL    HW117858   0.083   6.491   5.986
 5653SOL    HW217859   0.123   6.369   6.087
 5654SOL     OW17860   0.414   7.020   6.092
 5654SOL    HW117861   0.424   6.936   6.146
 5654SOL    HW217862   0.384   6.996   6.000
 5655SOL     OW17863   1.077   2.732   4.348
 5655SOL    HW117864   1.144   2.757   4.417
 5655SOL    HW217865   1.077   2.799   4.274
 5656SOL     OW17866   3.166   4.547   0.871
 5656SOL    HW117867   3.217   4.609   0.931
 5656SOL    HW217868   3.081   4.521   0.916
 5657SOL     OW17869   5.058   6.522   1.408
 5657SOL    HW117870   5.122   6.547   1.336
 5657SOL    HW217871   5.083   6.568   1.493
 5658SOL     OW17872   2.865   6.720   6.149
 5658SOL    HW117873   2.933   6.718   6.076
 5658SOL    HW217874   2.908   6.746   6.235
 5659SOL     OW17875   3.060   3.303   2.792
 5659SOL    HW117876   3.012   3.298   2.880
 5659SOL    HW217877   3.025   3.380   2.739
 5660SOL     OW17878   5.418   0.642   7.022
 5660SOL    HW117879   5.435   0.660   0.088
 5660SOL    HW217880   5.348   0.570   7.013
 5661SOL     OW17881   7.028   5.523   5.382
 5661SOL    HW117882   7.028   5.430   5.416
 5661SOL    HW217883   0.085   5.567   5.405
 5662SOL     OW17884   2.617   5.028   4.440
 5662SOL    HW117885   2.571   4.955   4.390
 5662SOL    HW217886   2.550   5.078   4.495
 5663SOL     OW17887   1.411   3.968   0.108
 5663SOL    HW117888   1.472   4.021   0.049
 5663SOL    HW217889   1.420   3.871   0.088
 5664SOL     OW17890   0.452   4.300   3.319
 5664SOL    HW117891   0.395   4.220   3.301
 5664SOL    HW217892   0.541   4.271   3.355
 5665SOL     OW17893   1.663   1.882   6.561
 5665SOL    HW117894   1.630   1.799   6.516
 5665SOL    HW217895   1.613   1.896   6.646
 5666SOL     OW17896   4.745   5.577   1.124
 5666SOL    HW117897   4.743   5.482   1.093
 5666SOL    HW217898   4.821   5.591   1.188
 5667SOL     OW17899   0.950   4.689   3.547
 5667SOL    HW117900   0.912   4.740   3.469
 5667SOL    HW217901   1.014   4.747   3.596
 5668SOL     OW17902   5.739   1.928   6.438
 5668SOL    HW117903   5.687   1.887   6.514
 5668SOL    HW217904   5.675   1.968   6.372
 5669SOL     OW17905   0.412   4.196   6.128
 5669SOL    HW117906   0.405   4.293   6.147
 5669SOL    HW217907   0.321   4.157   6.114
 5670SOL     OW17908   6.960   2.982   3.867
 5670SOL    HW117909   0.025   2.982   3.901
 5670SOL    HW217910   6.943   3.067   3.819
 5671SOL     OW17911   1.400   6.858   6.382
 5671SOL    HW117912   1.430   6.918   6.309
 5671SOL    HW217913   1.475   6.844   6.447
 5672SOL     OW17914   4.334   4.221   6.189
 5672SOL    HW117915   4.382   4.200   6.104
 5672SOL    HW217916   4.252   4.274   6.168
 5673SOL     OW17917   0.247   6.856   1.704
 5673SOL    HW117918   0.193   6.870   1.621
 5673SOL    HW217919   0.230   6.931   1.768
 5674SOL     OW17920   6.995   4.113   2.064
 5674SOL    HW117921   6.899   4.086   2.063
 5674SOL    HW217922   0.021   4.037   2.032
 5675SOL     OW17923   4.142   2.200   5.429
 5675SOL    HW117924   4.121   2.130   5.361
 5675SOL    HW217925   4.059   2.224   5.479
 5676SOL     OW17926   2.161   1.344   1.598
 5676SOL    HW117927   2.079   1.288   1.603
 5676SOL    HW217928   2.227   1.302   1.536
 5677SOL     OW17929   0.737   1.587   3.591
 5677SOL    HW117930   0.799   1.653   3.635
 5677SOL    HW217931   0.734   1.606   3.492
 5678SOL     OW17932   3.596   6.431   2.939
 5678SOL    HW117933   3.650   6.404   3.019
 5678SOL    HW217934   3.619   6.373   2.862
 5679SOL     OW17935   1.882   6.743   4.865
 5679SOL    HW117936   1.951   6.688   4.912
 5679SOL    HW217937   1.876   6.714   4.769
 5680SOL     OW17938   1.570   5.541   0.466
 5680SOL    HW117939   1.553   5.551   0.368
 5680SOL    HW217940   1.647   5.599   0.493
 5681SOL     OW17941   1.199   3.432   6.548
 5681SOL    HW117942   1.199   3.457   6.451
 5681SOL    HW217943   1.284   3.463   6.590
 5682SOL     OW17944   2.043   3.691   5.874
 5682SOL    HW117945   2.133   3.734   5.880
 5682SOL    HW217946   2.039   3.635   5.791
 5683SOL     OW17947   4.037   2.488   6.113
 5683SOL    HW117948   3.958   2.519   6.060
 5683SOL    HW217949   4.117   2.542   6.089
 5684SOL     OW17950   4.058   3.434   4.889
 5684SOL    HW117951   3.971   3.483   4.891
 5684SOL    HW217952   4.119   3.473   4.958
 5685SOL     OW17953   1.033   5.042   1.820
 5685SOL    HW117954   1.018   5.019   1.917
 5685SOL    HW217955   0.976   5.120   1.795
 5686SOL     OW17956   3.387   0.747   0.362
 5686SOL    HW117957   3.461   0.741   0.295
 5686SOL    HW217958   3.324   0.670   0.351
 5687SOL     OW17959   6.357   4.066   4.443
 5687SOL    HW117960   6.314   4.145   4.400
 5687SOL    HW217961   6.308   3.983   4.417
 5688SOL     OW17962   6.621   1.751   0.676
 5688SOL    HW117963   6.572   1.679   0.628
 5688SOL    HW217964   6.699   1.711   0.726
 5689SOL     OW17965   4.088   1.214   0.408
 5689SOL    HW117966   4.124   1.125   0.378
 5689SOL    HW217967   3.989   1.208   0.421
 5690SOL     OW17968   2.945   6.325   0.952
 5690SOL    HW117969   2.882   6.251   0.974
 5690SOL    HW217970   3.007   6.295   0.880
 5691SOL     OW17971   3.129   6.250   2.148
 5691SOL    HW117972   3.127   6.221   2.053
 5691SOL    HW217973   3.045   6.222   2.194
 5692SOL     OW17974   6.734   2.151   5.804
 5692SOL    HW117975   6.788   2.094   5.743
 5692SOL    HW217976   6.794   2.191   5.874
 5693SOL     OW17977   5.157   2.791   2.035
 5693SOL    HW117978   5.094   2.738   2.093
 5693SOL    HW217979   5.224   2.729   1.994
 5694SOL     OW17980   0.661   1.480   3.812
 5694SOL    HW117981   0.699   1.389   3.826
 5694SOL    HW217982   0.704   1.523   3.733
 5695SOL     OW17983   1.227   2.204   3.295
 5695SOL    HW117984   1.185   2.168   3.212
 5695SOL    HW217985   1.158   2.215   3.366
 5696SOL     OW17986   2.749   0.941   3.670
 5696SOL    HW117987   2.770   0.945   3.768
 5696SOL    HW217988   2.651   0.928   3.657
 5697SOL     OW17989   6.338   2.040   1.405
 5697SOL    HW117990   6.363   2.099   1.328
 5697SOL    HW217991   6.272   1.972   1.374
 5698SOL     OW17992   0.443   2.321   2.355
 5698SOL    HW117993   0.537   2.317   2.391
 5698SOL    HW217994   0.434   2.255   2.281
 5699SOL     OW17995   6.483   1.469   3.779
 5699SOL    HW117996   6.412   1.412   3.737
 5699SOL    HW217997   6.443   1.557   3.805
 5700SOL     OW17998   6.914   5.894   4.628
 5700SOL    HW117999   6.991   5.957   4.634
 5700SOL    HW218000   6.927   5.834   4.549
 5701SOL     OW18001   0.881   5.645   3.178
 5701SOL    HW118002   0.892   5.738   3.213
 5701SOL    HW218003   0.914   5.580   3.246
 5702SOL     OW18004   1.933   6.990   5.704
 5702SOL    HW118005   1.917   6.904   5.751
 5702SOL    HW218006   2.030   6.999   5.682
 5703SOL     OW18007   4.918   4.579   0.354
 5703SOL    HW118008   4.830   4.574   0.401
 5703SOL    HW218009   4.909   4.540   0.262
 5704SOL     OW18010   4.026   5.751   2.790
 5704SOL    HW118011   3.947   5.694   2.813
 5704SOL    HW218012   4.084   5.762   2.871
 5705SOL     OW18013   6.199   1.345   0.206
 5705SOL    HW118014   6.296   1.352   0.183
 5705SOL    HW218015   6.161   1.437   0.219
 5706SOL     OW18016   1.572   1.564   0.634
 5706SOL    HW118017   1.563   1.662   0.652
 5706SOL    HW218018   1.537   1.543   0.542
 5707SOL     OW18019   1.264   6.834   7.019
 5707SOL    HW118020   1.229   6.787   6.938
 5707SOL    HW218021   1.188   6.872   0.041
 5708SOL     OW18022   5.472   6.858   1.821
 5708SOL    HW118023   5.517   6.859   1.732
 5708SOL    HW218024   5.377   6.889   1.811
 5709SOL     OW18025   1.199   6.166   3.459
 5709SOL    HW118026   1.239   6.253   3.488
 5709SOL    HW218027   1.184   6.108   3.539
 5710SOL     OW18028   2.499   3.464   5.343
 5710SOL    HW118029   2.588   3.464   5.389
 5710SOL    HW218030   2.467   3.558   5.332
 5711SOL     OW18031   5.343   0.330   3.160
 5711SOL    HW118032   5.399   0.262   3.113
 5711SOL    HW218033   5.396   0.413   3.174
 5712SOL     OW18034   0.921   6.622   5.375
 5712SOL    HW118035   0.855   6.695   5.392
 5712SOL    HW218036   1.005   6.641   5.425
 5713SOL     OW18037   0.816   2.625   1.210
 5713SOL    HW118038   0.846   2.563   1.282
 5713SOL    HW218039   0.841   2.586   1.121
 5714SOL     OW18040   1.481   6.799   6.751
 5714SOL    HW118041   1.539   6.782   6.671
 5714SOL    HW218042   1.458   6.712   6.794
 5715SOL     OW18043   1.145   5.616   3.056
 5715SOL    HW118044   1.046   5.607   3.060
 5715SOL    HW218045   1.171   5.712   3.069
 5716SOL     OW18046   0.763   3.765   5.352
 5716SOL    HW118047   0.663   3.761   5.354
 5716SOL    HW218048   0.798   3.788   5.442
 5717SOL     OW18049   1.978   5.163   0.062
 5717SOL    HW118050   1.897   5.120   0.022
 5717SOL    HW218051   1.998   5.247   0.014
 5718SOL     OW18052   1.351   4.525   6.184
 5718SOL    HW118053   1.345   4.618   6.220
 5718SOL    HW218054   1.271   4.473   6.213
 5719SOL     OW18055   2.601   0.916   5.771
 5719SOL    HW118056   2.685   0.868   5.799
 5719SOL    HW218057   2.573   0.978   5.844
 5720SOL     OW18058   0.320   5.174   4.696
 5720SOL    HW118059   0.269   5.260   4.696
 5720SOL    HW218060   0.403   5.185   4.642
 5721SOL     OW18061   0.884   3.832   0.298
 5721SOL    HW118062   0.898   3.844   0.200
 5721SOL    HW218063   0.904   3.917   0.346
 5722SOL     OW18064   5.695   1.451   5.083
 5722SOL    HW118065   5.746   1.529   5.047
 5722SOL    HW218066   5.615   1.484   5.133
 5723SOL     OW18067   4.526   4.394   0.701
 5723SOL    HW118068   4.473   4.318   0.738
 5723SOL    HW218069   4.556   4.453   0.777
 5724SOL     OW18070   3.906   2.316   5.278
 5724SOL    HW118071   3.964   2.386   5.236
 5724SOL    HW218072   3.895   2.336   5.375
 5725SOL     OW18073   5.251   6.070   3.085
 5725SOL    HW118074   5.286   6.161   3.110
 5725SOL    HW218075   5.153   6.066   3.103
 5726SOL     OW18076   6.372   3.027   3.974
 5726SOL    HW118077   6.397   2.953   4.036
 5726SOL    HW218078   6.425   3.019   3.889
 5727SOL     OW18079   5.960   3.410   3.506
 5727SOL    HW118080   6.057   3.432   3.494
 5727SOL    HW218081   5.948   3.351   3.586
 5728SOL     OW18082   4.624   2.026   6.335
 5728SOL    HW118083   4.634   2.124   6.321
 5728SOL    HW218084   4.537   2.007   6.380
 5729SOL     OW18085   1.081   1.586   1.008
 5729SOL    HW118086   1.107   1.581   1.104
 5729SOL    HW218087   0.984   1.565   0.998
 5730SOL     OW18088   4.671   5.683   5.451
 5730SOL    HW118089   4.681   5.658   5.547
 5730SOL    HW218090   4.577   5.668   5.422
 5731SOL     OW18091   1.890   6.669   3.920
 5731SOL    HW118092   1.834   6.660   3.838
 5731SOL    HW218093   1.909   6.766   3.936
 5732SOL     OW18094   6.204   4.821   5.087
 5732SOL    HW118095   6.115   4.849   5.121
 5732SOL    HW218096   6.247   4.759   5.153
 5733SOL     OW18097   3.427   0.910   5.865
 5733SOL    HW118098   3.513   0.859   5.863
 5733SOL    HW218099   3.364   0.866   5.929
 5734SOL     OW18100   0.651   6.744   6.063
 5734SOL    HW118101   0.633   6.726   5.966
 5734SOL    HW218102   0.688   6.662   6.106
 5735SOL     OW18103   3.637   1.198   2.214
 5735SOL    HW118104   3.703   1.231   2.282
 5735SOL    HW218105   3.546   1.230   2.238
 5736SOL     OW18106   5.210   4.668   6.921
 5736SOL    HW118107   5.187   4.576   6.953
 5736SOL    HW218108   5.136   4.702   6.863
 5737SOL     OW18109   5.614   6.115   0.762
 5737SOL    HW118110   5.543   6.183   0.782
 5737SOL    HW218111   5.585   6.057   0.687
 5738SOL     OW18112   3.885   1.675   6.501
 5738SOL    HW118113   3.859   1.601   6.439
 5738SOL    HW218114   3.802   1.719   6.536
 5739SOL     OW18115   1.404   6.804   5.801
 5739SOL    HW118116   1.326   6.805   5.739
 5739SOL    HW218117   1.476   6.746   5.764
 5740SOL     OW18118   4.522   3.355   1.071
 5740SOL    HW118119   4.441   3.305   1.101
 5740SOL    HW218120   4.572   3.387   1.152
 5741SOL     OW18121   6.898   3.437   4.169
 5741SOL    HW118122   6.829   3.373   4.136
 5741SOL    HW218123   6.879   3.461   4.264
 5742SOL     OW18124   4.431   6.648   3.369
 5742SOL    HW118125   4.410   6.712   3.442
 5742SOL    HW218126   4.431   6.696   3.281
 5743SOL     OW18127   3.353   5.596   5.396
 5743SOL    HW118128   3.353   5.532   5.473
 5743SOL    HW218129   3.292   5.673   5.417
 5744SOL     OW18130   5.631   0.916   2.589
 5744SOL    HW118131   5.727   0.920   2.615
 5744SOL    HW218132   5.576   0.961   2.659
 5745SOL     OW18133   2.286   0.923   4.111
 5745SOL    HW118134   2.307   0.902   4.015
 5745SOL    HW218135   2.222   1.000   4.115
 5746SOL     OW18136   4.928   6.867   2.506
 5746SOL    HW118137   4.877   6.928   2.446
 5746SOL    HW218138   5.013   6.840   2.461
 5747SOL     OW18139   0.592   6.241   1.746
 5747SOL    HW118140   0.672   6.275   1.796
 5747SOL    HW218141   0.577   6.145   1.771
 5748SOL     OW18142   1.682   7.020   1.221
 5748SOL    HW118143   1.643   0.080   1.237
 5748SOL    HW218144   1.668   6.993   1.126
 5749SOL     OW18145   1.682   6.352   5.002
 5749SOL    HW118146   1.668   6.389   4.910
 5749SOL    HW218147   1.594   6.331   5.043
 5750SOL     OW18148   6.281   5.518   5.777
 5750SOL    HW118149   6.360   5.569   5.810
 5750SOL    HW218150   6.238   5.470   5.853
 5751SOL     OW18151   1.803   3.105   4.911
 5751SOL    HW118152   1.797   3.204   4.900
 5751SOL    HW218153   1.858   3.067   4.836
 5752SOL     OW18154   5.547   0.189   0.994
 5752SOL    HW118155   5.498   0.237   1.067
 5752SOL    HW218156   5.549   0.091   1.015
 5753SOL     OW18157   2.919   3.411   4.695
 5753SOL    HW118158   2.873   3.475   4.756
 5753SOL    HW218159   2.918   3.319   4.735
 5754SOL     OW18160   1.249   5.799   1.852
 5754SOL    HW118161   1.262   5.809   1.753
 5754SOL    HW218162   1.336   5.771   1.894
 5755SOL     OW18163   1.616   2.071   5.694
 5755SOL    HW118164   1.614   2.046   5.597
 5755SOL    HW218165   1.581   2.164   5.705
 5756SOL     OW18166   0.508   0.244   2.865
 5756SOL    HW118167   0.437   0.308   2.838
 5756SOL    HW218168   0.466   0.156   2.888
 5757SOL     OW18169   0.409   5.249   4.090
 5757SOL    HW118170   0.355   5.325   4.054
 5757SOL    HW218171   0.411   5.253   4.190
 5758SOL     OW18172   2.144   1.163   2.945
 5758SOL    HW118173   2.220   1.141   2.884
 5758SOL    HW218174   2.180   1.189   3.035
 5759SOL     OW18175   4.920   0.875   0.663
 5759SOL    HW118176   4.867   0.957   0.642
 5759SOL    HW218177   4.914   0.811   0.586
 5760SOL     OW18178   6.551   2.438   1.422
 5760SOL    HW118179   6.475   2.445   1.487
 5760SOL    HW218180   6.625   2.499   1.450
 5761SOL     OW18181   5.539   5.374   5.584
 5761SOL    HW118182   5.556   5.299   5.520
 5761SOL    HW218183   5.609   5.373   5.655
 5762SOL     OW18184   4.713   4.206   0.966
 5762SOL    HW118185   4.745   4.301   0.968
 5762SOL    HW218186   4.704   4.171   1.059
 5763SOL     OW18187   5.762   6.463   0.834
 5763SOL    HW118188   5.726   6.456   0.927
 5763SOL    HW218189   5.788   6.558   0.816
 5764SOL     OW18190   4.299   5.387   4.315
 5764SOL    HW118191   4.322   5.296   4.349
 5764SOL    HW218192   4.380   5.429   4.274
 5765SOL     OW18193   6.500   3.401   0.729
 5765SOL    HW118194   6.480   3.307   0.702
 5765SOL    HW218195   6.439   3.463   0.680
 5766SOL     OW18196   1.839   1.711   5.183
 5766SOL    HW118197   1.831   1.783   5.114
 5766SOL    HW218198   1.753   1.660   5.189
 5767SOL     OW18199   2.682   0.349   0.559
 5767SOL    HW118200   2.735   0.305   0.487
 5767SOL    HW218201   2.729   0.432   0.589
 5768SOL     OW18202   0.894   0.315   3.486
 5768SOL    HW118203   0.803   0.278   3.464
 5768SOL    HW218204   0.939   0.255   3.552
 5769SOL     OW18205   2.941   5.807   4.821
 5769SOL    HW118206   2.871   5.863   4.865
 5769SOL    HW218207   2.965   5.731   4.882
 5770SOL     OW18208   6.588   0.018   6.651
 5770SOL    HW118209   6.535   0.013   6.567
 5770SOL    HW218210   6.683   0.038   6.630
 5771SOL     OW18211   1.740   7.022   4.211
 5771SOL    HW118212   1.695   6.990   4.127
 5771SOL    HW218213   1.786   0.079   4.192
 5772SOL     OW18214   5.472   1.093   0.902
 5772SOL    HW118215   5.551   1.153   0.898
 5772SOL    HW218216   5.394   1.143   0.940
 5773SOL     OW18217   4.061   0.895   3.229
 5773SOL    HW118218   3.976   0.912   3.180
 5773SOL    HW218219   4.042   0.847   3.314
 5774SOL     OW18220   2.924   0.265   4.688
 5774SOL    HW118221   2.847   0.234   4.745
 5774SOL    HW218222   2.929   0.209   4.606
 5775SOL     OW18223   1.046   0.201   2.871
 5775SOL    HW118224   1.092   0.282   2.835
 5775SOL    HW218225   1.093   0.119   2.836
 5776SOL     OW18226   1.236   0.162   3.737
 5776SOL    HW118227   1.262   0.256   3.757
 5776SOL    HW218228   1.138   0.157   3.717
 5777SOL     OW18229   0.795   0.163   4.164
 5777SOL    HW118230   0.793   0.168   4.264
 5777SOL    HW218231   0.714   0.210   4.127
 5778SOL     OW18232   1.525   0.090   0.493
 5778SOL    HW118233   1.623   0.104   0.505
 5778SOL    HW218234   1.508   0.002   0.448
 5779SOL     OW18235   4.468   2.600   0.241
 5779SOL    HW118236   4.528   2.594   0.321
 5779SOL    HW218237   4.483   2.687   0.195
 5780SOL     OW18238   6.290   6.133   4.145
 5780SOL    HW118239   6.237   6.149   4.228
 5780SOL    HW218240   6.274   6.040   4.112
 5781SOL     OW18241   6.989   4.737   4.352
 5781SOL    HW118242   0.010   4.684   4.420
 5781SOL    HW218243   6.893   4.742   4.379
 5782SOL     OW18244   1.919   1.823   0.782
 5782SOL    HW118245   1.858   1.747   0.804
 5782SOL    HW218246   2.014   1.794   0.791
 5783SOL     OW18247   1.130   0.695   1.737
 5783SOL    HW118248   1.122   0.723   1.833
 5783SOL    HW218249   1.040   0.693   1.695
 5784SOL     OW18250   0.661   6.755   5.398
 5784SOL    HW118251   0.692   6.827   5.336
 5784SOL    HW218252   0.617   6.682   5.345
 5785SOL     OW18253   1.745   2.596   0.318
 5785SOL    HW118254   1.816   2.559   0.378
 5785SOL    HW218255   1.696   2.669   0.365
 5786SOL     OW18256   0.333   3.640   0.551
 5786SOL    HW118257   0.255   3.588   0.586
 5786SOL    HW218258   0.306   3.735   0.536
 5787SOL     OW18259   2.502   2.017   4.963
 5787SOL    HW118260   2.565   2.085   4.926
 5787SOL    HW218261   2.553   1.953   5.021
 5788SOL     OW18262   2.838   1.453   1.912
 5788SOL    HW118263   2.937   1.446   1.896
 5788SOL    HW218264   2.822   1.474   2.009
 5789SOL     OW18265   3.533   5.065   0.357
 5789SOL    HW118266   3.470   5.139   0.383
 5789SOL    HW218267   3.608   5.103   0.302
 5790SOL     OW18268   1.465   4.259   4.623
 5790SOL    HW118269   1.488   4.353   4.646
 5790SOL    HW218270   1.433   4.254   4.528
 5791SOL     OW18271   3.990   1.181   2.264
 5791SOL    HW118272   4.042   1.131   2.195
 5791SOL    HW218273   3.917   1.233   2.220
 5792SOL     OW18274   6.504   2.988   2.893
 5792SOL    HW118275   6.560   2.918   2.939
 5792SOL    HW218276   6.498   2.967   2.796
 5793SOL     OW18277   5.181   0.968   3.735
 5793SOL    HW118278   5.241   0.947   3.813
 5793SOL    HW218279   5.093   1.000   3.769
 5794SOL     OW18280   3.166   1.532   0.412
 5794SOL    HW118281   3.260   1.512   0.439
 5794SOL    HW218282   3.156   1.630   0.394
 5795SOL     OW18283   6.993   6.581   0.498
 5795SOL    HW118284   6.981   6.535   0.410
 5795SOL    HW218285   6.960   6.675   0.492
 5796SOL     OW18286   4.137   1.564   0.069
 5796SOL    HW118287   4.054   1.592   0.117
 5796SOL    HW218288   4.167   1.474   0.102
 5797SOL     OW18289   4.748   2.068   5.850
 5797SOL    HW118290   4.821   2.118   5.897
 5797SOL    HW218291   4.769   1.970   5.850
 5798SOL     OW18292   0.693   4.533   5.222
 5798SOL    HW118293   0.629   4.462   5.196
 5798SOL    HW218294   0.777   4.524   5.168
 5799SOL     OW18295   6.481   0.809   2.941
 5799SOL    HW118296   6.509   0.734   2.880
 5799SOL    HW218297   6.534   0.805   3.025
 5800SOL     OW18298   6.035   6.426   1.512
 5800SOL    HW118299   6.023   6.359   1.438
 5800SOL    HW218300   5.950   6.476   1.527
 5801SOL     OW18301   1.914   1.979   3.427
 5801SOL    HW118302   1.892   1.894   3.474
 5801SOL    HW218303   1.956   2.043   3.490
 5802SOL     OW18304   1.494   4.662   1.269
 5802SOL    HW118305   1.405   4.704   1.248
 5802SOL    HW218306   1.482   4.564   1.284
 5803SOL     OW18307   1.757   4.963   2.545
 5803SOL    HW118308   1.786   5.058   2.531
 5803SOL    HW218309   1.673   4.947   2.494
 5804SOL     OW18310   0.394   5.030   3.922
 5804SOL    HW118311   0.428   5.113   3.966
 5804SOL    HW218312   0.411   5.035   3.823
 5805SOL     OW18313   2.312   3.938   6.171
 5805SOL    HW118314   2.328   3.840   6.166
 5805SOL    HW218315   2.214   3.956   6.174
 5806SOL     OW18316   0.263   5.620   5.385
 5806SOL    HW118317   0.338   5.563   5.353
 5806SOL    HW218318   0.297   5.682   5.456
 5807SOL     OW18319   0.317   3.671   1.966
 5807SOL    HW118320   0.217   3.677   1.975
 5807SOL    HW218321   0.348   3.582   1.999
 5808SOL     OW18322   5.476   5.299   4.842
 5808SOL    HW118323   5.441   5.222   4.895
 5808SOL    HW218324   5.551   5.343   4.892
 5809SOL     OW18325   5.868   1.631   4.946
 5809SOL    HW118326   5.849   1.570   4.870
 5809SOL    HW218327   5.934   1.701   4.917
 5810SOL     OW18328   3.947   1.575   4.161
 5810SOL    HW118329   4.035   1.597   4.118
 5810SOL    HW218330   3.935   1.631   4.243
 5811SOL     OW18331   2.920   0.293   5.786
 5811SOL    HW118332   3.017   0.278   5.768
 5811SOL    HW218333   2.871   0.206   5.785
 5812SOL     OW18334   6.107   2.137   4.304
 5812SOL    HW118335   6.060   2.157   4.218
 5812SOL    HW218336   6.198   2.101   4.284
 5813SOL     OW18337   1.893   2.044   0.974
 5813SOL    HW118338   1.894   1.976   0.901
 5813SOL    HW218339   1.826   2.017   1.043
 5814SOL     OW18340   6.206   4.667   0.971
 5814SOL    HW118341   6.283   4.722   0.939
 5814SOL    HW218342   6.240   4.580   1.007
 5815SOL     OW18343   3.731   1.965   4.461
 5815SOL    HW118344   3.776   2.017   4.388
 5815SOL    HW218345   3.754   2.005   4.550
 5816SOL     OW18346   4.589   6.004   6.970
 5816SOL    HW118347   4.569   6.002   6.872
 5816SOL    HW218348   4.569   6.095   7.007
 5817SOL     OW18349   5.825   3.934   6.348
 5817SOL    HW118350   5.766   3.857   6.375
 5817SOL    HW218351   5.887   3.905   6.275
 5818SOL     OW18352   6.842   5.624   4.849
 5818SOL    HW118353   6.876   5.708   4.892
 5818SOL    HW218354   6.794   5.569   4.916
 5819SOL     OW18355   4.244   6.614   0.082
 5819SOL    HW118356   4.164   6.576   0.037
 5819SOL    HW218357   4.246   6.585   0.178
 5820SOL     OW18358   3.876   5.850   3.891
 5820SOL    HW118359   3.859   5.908   3.971
 5820SOL    HW218360   3.790   5.831   3.844
 5821SOL     OW18361   0.268   0.145   1.421
 5821SOL    HW118362   0.216   0.126   1.504
 5821SOL    HW218363   0.232   0.227   1.376
 5822SOL     OW18364   0.817   2.621   2.104
 5822SOL    HW118365   0.748   2.550   2.091
 5822SOL    HW218366   0.825   2.642   2.201
 5823SOL     OW18367   1.106   1.272   5.764
 5823SOL    HW118368   1.087   1.349   5.703
 5823SOL    HW218369   1.142   1.307   5.851
 5824SOL     OW18370   6.284   5.188   2.691
 5824SOL    HW118371   6.351   5.220   2.624
 5824SOL    HW218372   6.324   5.114   2.745
 5825SOL     OW18373   2.346   2.077   5.245
 5825SOL    HW118374   2.322   2.004   5.180
 5825SOL    HW218375   2.432   2.120   5.215
 5826SOL     OW18376   0.074   5.053   5.618
 5826SOL    HW118377   0.137   4.988   5.660
 5826SOL    HW218378   0.056   5.025   5.524
 5827SOL     OW18379   1.843   4.574   4.685
 5827SOL    HW118380   1.842   4.671   4.709
 5827SOL    HW218381   1.913   4.557   4.616
 5828SOL     OW18382   6.799   2.903   1.702
 5828SOL    HW118383   6.828   2.935   1.792
 5828SOL    HW218384   6.872   2.848   1.661
 5829SOL     OW18385   2.223   1.182   3.250
 5829SOL    HW118386   2.258   1.276   3.251
 5829SOL    HW218387   2.235   1.142   3.341
 5830SOL     OW18388   5.010   0.038   5.422
 5830SOL    HW118389   5.073   0.111   5.447
 5830SOL    HW218390   5.059   6.981   5.418
 5831SOL     OW18391   0.097   0.804   4.657
 5831SOL    HW118392   0.007   0.837   4.685
 5831SOL    HW218393   0.087   0.714   4.614
 5832SOL     OW18394   3.512   4.773   5.861
 5832SOL    HW118395   3.419   4.792   5.892
 5832SOL    HW218396   3.563   4.858   5.856
 5833SOL     OW18397   4.153   3.768   5.283
 5833SOL    HW118398   4.163   3.690   5.346
 5833SOL    HW218399   4.155   3.853   5.336
 5834SOL     OW18400   6.717   3.477   6.912
 5834SOL    HW118401   6.669   3.562   6.889
 5834SOL    HW218402   6.785   3.458   6.841
 5835SOL     OW18403   4.878   3.139   4.027
 5835SOL    HW118404   4.811   3.065   4.037
 5835SOL    HW218405   4.960   3.118   4.080
 5836SOL     OW18406   3.410   6.549   2.777
 5836SOL    HW118407   3.407   6.643   2.811
 5836SOL    HW218408   3.475   6.496   2.831
 5837SOL     OW18409   4.251   4.774   6.481
 5837SOL    HW118410   4.202   4.829   6.414
 5837SOL    HW218411   4.227   4.677   6.469
 5838SOL     OW18412   3.140   2.782   6.792
 5838SOL    HW118413   3.159   2.810   6.697
 5838SOL    HW218414   3.045   2.804   6.814
 5839SOL     OW18415   0.170   2.041   2.286
 5839SOL    HW118416   0.266   2.057   2.264
 5839SOL    HW218417   0.136   2.115   2.344
 5840SOL     OW18418   1.148   5.546   6.420
 5840SOL    HW118419   1.081   5.483   6.381
 5840SOL    HW218420   1.127   5.639   6.391
 5841SOL     OW18421   4.588   1.980   2.542
 5841SOL    HW118422   4.575   1.908   2.611
 5841SOL    HW218423   4.646   1.945   2.468
 5842SOL     OW18424   4.657   3.057   1.200
 5842SOL    HW118425   4.561   3.051   1.172
 5842SOL    HW218426   4.671   3.002   1.282
 5843SOL     OW18427   2.105   3.807   2.659
 5843SOL    HW118428   2.118   3.906   2.650
 5843SOL    HW218429   2.104   3.765   2.569
 5844SOL     OW18430   1.343   6.465   6.010
 5844SOL    HW118431   1.313   6.548   6.057
 5844SOL    HW218432   1.427   6.485   5.959
 5845SOL     OW18433   0.818   0.602   2.242
 5845SOL    HW118434   0.842   0.533   2.311
 5845SOL    HW218435   0.805   0.690   2.286
 5846SOL     OW18436   0.106   2.153   3.689
 5846SOL    HW118437   0.205   2.157   3.678
 5846SOL    HW218438   0.082   2.170   3.784
 5847SOL     OW18439   2.098   2.345   1.899
 5847SOL    HW118440   2.192   2.314   1.912
 5847SOL    HW218441   2.088   2.438   1.936
 5848SOL     OW18442   2.251   5.077   2.820
 5848SOL    HW118443   2.221   5.167   2.851
 5848SOL    HW218444   2.285   5.025   2.898
 5849SOL     OW18445   0.162   0.150   6.790
 5849SOL    HW118446   0.211   0.128   6.705
 5849SOL    HW218447   0.082   0.091   6.800
 5850SOL     OW18448   0.156   3.910   2.003
 5850SOL    HW118449   0.232   3.976   2.003
 5850SOL    HW218450   0.169   3.845   2.078
 5851SOL     OW18451   5.800   3.641   3.378
 5851SOL    HW118452   5.766   3.622   3.286
 5851SOL    HW218453   5.893   3.678   3.372
 5852SOL     OW18454   6.338   6.325   3.507
 5852SOL    HW118455   6.280   6.283   3.577
 5852SOL    HW218456   6.372   6.413   3.540
 5853SOL     OW18457   3.695   5.762   4.461
 5853SOL    HW118458   3.616   5.786   4.405
 5853SOL    HW218459   3.773   5.819   4.433
 5854SOL     OW18460   6.102   4.941   5.899
 5854SOL    HW118461   6.028   4.967   5.961
 5854SOL    HW218462   6.082   4.852   5.858
 5855SOL     OW18463   0.463   1.167   4.586
 5855SOL    HW118464   0.367   1.139   4.595
 5855SOL    HW218465   0.478   1.204   4.494
 5856SOL     OW18466   2.104   5.735   4.059
 5856SOL    HW118467   2.046   5.701   4.133
 5856SOL    HW218468   2.176   5.794   4.097
 5857SOL     OW18469   6.304   2.709   5.739
 5857SOL    HW118470   6.356   2.635   5.697
 5857SOL    HW218471   6.367   2.782   5.766
 5858SOL     OW18472   1.978   2.323   2.222
 5858SOL    HW118473   1.976   2.300   2.125
 5858SOL    HW218474   2.062   2.286   2.263
 5859SOL     OW18475   5.785   6.333   1.716
 5859SOL    HW118476   5.704   6.335   1.774
 5859SOL    HW218477   5.763   6.288   1.629
 5860SOL     OW18478   1.661   4.030   1.866
 5860SOL    HW118479   1.741   4.033   1.926
 5860SOL    HW218480   1.625   3.937   1.861
 5861SOL     OW18481   4.593   1.060   4.503
 5861SOL    HW118482   4.692   1.071   4.489
 5861SOL    HW218483   4.574   0.967   4.534
 5862SOL     OW18484   5.000   4.875   2.672
 5862SOL    HW118485   4.972   4.786   2.636
 5862SOL    HW218486   5.050   4.925   2.601
 5863SOL     OW18487   3.046   0.498   4.816
 5863SOL    HW118488   3.105   0.530   4.742
 5863SOL    HW218489   2.984   0.427   4.782
 5864SOL     OW18490   3.943   3.527   1.516
 5864SOL    HW118491   3.958   3.450   1.454
 5864SOL    HW218492   3.992   3.607   1.481
 5865SOL     OW18493   5.999   0.564   5.607
 5865SOL    HW118494   5.952   0.639   5.653
 5865SOL    HW218495   5.957   0.477   5.633
 5866SOL     OW18496   4.342   5.299   0.765
 5866SOL    HW118497   4.381   5.249   0.842
 5866SOL    HW218498   4.401   5.287   0.685
 5867SOL     OW18499   0.753   4.030   0.908
 5867SOL    HW118500   0.676   4.056   0.967
 5867SOL    HW218501   0.723   3.960   0.843
 5868SOL     OW18502   0.133   1.415   4.883
 5868SOL    HW118503   0.228   1.433   4.909
 5868SOL    HW218504   0.105   1.480   4.812
 5869SOL     OW18505   3.127   6.238   3.978
 5869SOL    HW118506   3.129   6.272   4.072
 5869SOL    HW218507   3.097   6.311   3.917
 5870SOL     OW18508   5.351   5.876   4.652
 5870SOL    HW118509   5.336   5.914   4.744
 5870SOL    HW218510   5.409   5.795   4.659
 5871SOL     OW18511   4.276   3.089   0.939
 5871SOL    HW118512   4.211   3.025   0.897
 5871SOL    HW218513   4.348   3.038   0.986
 5872SOL     OW18514   4.190   5.514   0.737
 5872SOL    HW118515   4.241   5.431   0.758
 5872SOL    HW218516   4.148   5.504   0.646
 5873SOL     OW18517   2.803   2.507   1.034
 5873SOL    HW118518   2.733   2.439   1.056
 5873SOL    HW218519   2.861   2.473   0.960
 5874SOL     OW18520   3.322   3.971   0.298
 5874SOL    HW118521   3.246   4.035   0.289
 5874SOL    HW218522   3.324   3.935   0.392
 5875SOL     OW18523   4.260   1.530   0.436
 5875SOL    HW118524   4.241   1.477   0.354
 5875SOL    HW218525   4.174   1.547   0.485
 5876SOL     OW18526   3.116   3.199   6.945
 5876SOL    HW118527   3.034   3.145   6.965
 5876SOL    HW218528   3.097   3.260   6.868
 5877SOL     OW18529   0.500   6.683   0.655
 5877SOL    HW118530   0.456   6.679   0.565
 5877SOL    HW218531   0.593   6.647   0.648
 5878SOL     OW18532   5.366   4.894   3.622
 5878SOL    HW118533   5.464   4.889   3.600
 5878SOL    HW218534   5.328   4.977   3.581
 5879SOL     OW18535   1.751   3.016   6.084
 5879SOL    HW118536   1.708   3.072   6.013
 5879SOL    HW218537   1.744   2.919   6.058
 5880SOL     OW18538   4.798   4.778   6.662
 5880SOL    HW118539   4.708   4.746   6.693
 5880SOL    HW218540   4.853   4.804   6.742
 5881SOL     OW18541   1.407   6.983   1.796
 5881SOL    HW118542   1.482   6.971   1.861
 5881SOL    HW218543   1.376   0.048   1.799
 5882SOL     OW18544   1.093   6.842   6.059
 5882SOL    HW118545   1.011   6.844   6.115
 5882SOL    HW218546   1.099   6.926   6.005
 5883SOL     OW18547   1.128   1.110   0.273
 5883SOL    HW118548   1.114   1.150   0.182
 5883SOL    HW218549   1.063   1.035   0.286
 5884SOL     OW18550   5.333   0.507   4.870
 5884SOL    HW118551   5.346   0.590   4.814
 5884SOL    HW218552   5.260   0.452   4.831
 5885SOL     OW18553   0.405   6.016   2.051
 5885SOL    HW118554   0.324   6.029   2.108
 5885SOL    HW218555   0.419   5.918   2.036
 5886SOL     OW18556   1.592   2.096   4.163
 5886SOL    HW118557   1.630   2.022   4.107
 5886SOL    HW218558   1.667   2.145   4.207
 5887SOL     OW18559   2.269   2.577   2.099
 5887SOL    HW118560   2.229   2.615   2.183
 5887SOL    HW218561   2.293   2.481   2.114
 5888SOL     OW18562   2.542   6.449   1.799
 5888SOL    HW118563   2.620   6.511   1.807
 5888SOL    HW218564   2.490   6.471   1.716
 5889SOL     OW18565   5.967   1.838   6.595
 5889SOL    HW118566   5.925   1.854   6.506
 5889SOL    HW218567   6.027   1.915   6.618
 5890SOL     OW18568   1.974   6.982   3.092
 5890SOL    HW118569   1.962   0.051   3.081
 5890SOL    HW218570   2.059   6.964   3.142
 5891SOL     OW18571   2.162   4.366   0.527
 5891SOL    HW118572   2.210   4.298   0.471
 5891SOL    HW218573   2.229   4.424   0.573
 5892SOL     OW18574   6.734   5.446   2.047
 5892SOL    HW118575   6.805   5.399   2.099
 5892SOL    HW218576   6.745   5.427   1.950
 5893SOL     OW18577   2.614   4.786   1.553
 5893SOL    HW118578   2.578   4.708   1.503
 5893SOL    HW218579   2.614   4.766   1.651
 5894SOL     OW18580   1.073   5.632   5.410
 5894SOL    HW118581   1.027   5.592   5.330
 5894SOL    HW218582   1.139   5.700   5.380
 5895SOL     OW18583   5.957   3.724   3.636
 5895SOL    HW118584   6.010   3.662   3.694
 5895SOL    HW218585   5.935   3.678   3.550
 5896SOL     OW18586   4.831   1.952   0.513
 5896SOL    HW118587   4.819   2.034   0.456
 5896SOL    HW218588   4.861   1.979   0.604
 5897SOL     OW18589   3.847   1.447   1.120
 5897SOL    HW118590   3.890   1.536   1.131
 5897SOL    HW218591   3.876   1.407   1.033
 5898SOL     OW18592   2.300   1.358   5.357
 5898SOL    HW118593   2.270   1.421   5.286
 5898SOL    HW218594   2.361   1.289   5.317
 5899SOL     OW18595   6.329   6.119   6.610
 5899SOL    HW118596   6.369   6.151   6.697
 5899SOL    HW218597   6.250   6.176   6.587
 5900SOL     OW18598   6.698   4.734   3.068
 5900SOL    HW118599   6.783   4.753   3.018
 5900SOL    HW218600   6.663   4.644   3.042
 5901SOL     OW18601   2.646   1.624   0.389
 5901SOL    HW118602   2.552   1.605   0.361
 5901SOL    HW218603   2.707   1.615   0.311
 5902SOL     OW18604   5.551   3.824   5.741
 5902SOL    HW118605   5.567   3.846   5.645
 5902SOL    HW218606   5.540   3.908   5.793
 5903SOL     OW18607   4.486   3.435   6.780
 5903SOL    HW118608   4.581   3.446   6.810
 5903SOL    HW218609   4.480   3.361   6.714
 5904SOL     OW18610   1.208   4.693   1.163
 5904SOL    HW118611   1.259   4.778   1.155
 5904SOL    HW218612   1.115   4.712   1.196
 5905SOL     OW18613   6.346   1.108   3.856
 5905SOL    HW118614   6.415   1.036   3.853
 5905SOL    HW218615   6.263   1.075   3.810
 5906SOL     OW18616   4.745   1.806   5.175
 5906SOL    HW118617   4.659   1.755   5.178
 5906SOL    HW218618   4.822   1.743   5.186
 5907SOL     OW18619   1.728   6.767   0.358
 5907SOL    HW118620   1.815   6.814   0.344
 5907SOL    HW218621   1.722   6.688   0.297
 5908SOL     OW18622   6.604   4.439   6.855
 5908SOL    HW118623   6.522   4.406   6.809
 5908SOL    HW218624   6.678   4.373   6.843
 5909SOL     OW18625   6.760   5.258   6.867
 5909SOL    HW118626   6.762   5.272   6.966
 5909SOL    HW218627   6.852   5.271   6.829
 5910SOL     OW18628   0.651   4.684   0.883
 5910SOL    HW118629   0.678   4.588   0.899
 5910SOL    HW218630   0.692   4.741   0.954
 5911SOL     OW18631   6.659   5.410   6.557
 5911SOL    HW118632   6.608   5.423   6.472
 5911SOL    HW218633   6.657   5.314   6.583
 5912SOL     OW18634   5.994   3.402   0.027
 5912SOL    HW118635   5.900   3.409   0.061
 5912SOL    HW218636   5.993   3.360   6.966
 5913SOL     OW18637   2.616   2.485   6.010
 5913SOL    HW118638   2.629   2.584   6.013
 5913SOL    HW218639   2.705   2.440   6.012
 5914SOL     OW18640   2.646   5.481   6.331
 5914SOL    HW118641   2.670   5.565   6.283
 5914SOL    HW218642   2.554   5.489   6.368
 5915SOL     OW18643   6.549   4.049   2.000
 5915SOL    HW118644   6.462   4.001   1.999
 5915SOL    HW218645   6.553   4.113   1.923
 5916SOL     OW18646   4.738   6.475   5.918
 5916SOL    HW118647   4.763   6.397   5.975
 5916SOL    HW218648   4.639   6.479   5.909
 5917SOL     OW18649   3.954   3.267   4.168
 5917SOL    HW118650   3.925   3.363   4.162
 5917SOL    HW218651   3.945   3.236   4.262
 5918SOL     OW18652   2.386   3.734   5.321
 5918SOL    HW118653   2.317   3.706   5.254
 5918SOL    HW218654   2.429   3.819   5.290
 5919SOL     OW18655   2.828   2.571   0.401
 5919SOL    HW118656   2.777   2.571   0.487
 5919SOL    HW218657   2.805   2.653   0.349
 5920SOL     OW18658   3.494   0.224   0.372
 5920SOL    HW118659   3.489   0.307   0.427
 5920SOL    HW218660   3.480   0.247   0.275
 5921SOL     OW18661   3.798   5.642   5.562
 5921SOL    HW118662   3.856   5.691   5.497
 5921SOL    HW218663   3.722   5.702   5.590
 5922SOL     OW18664   6.460   5.070   4.145
 5922SOL    HW118665   6.406   5.030   4.219
 5922SOL    HW218666   6.554   5.083   4.176
 5923SOL     OW18667   5.547   0.601   1.825
 5923SOL    HW118668   5.563   0.589   1.727
 5923SOL    HW218669   5.633   0.624   1.870
 5924SOL     OW18670   6.145   2.198   5.511
 5924SOL    HW118671   6.076   2.226   5.578
 5924SOL    HW218672   6.181   2.279   5.464
 5925SOL     OW18673   4.095   5.746   3.265
 5925SOL    HW118674   4.026   5.811   3.297
 5925SOL    HW218675   4.186   5.777   3.293
 5926SOL     OW18676   4.075   5.205   1.900
 5926SOL    HW118677   4.102   5.290   1.947
 5926SOL    HW218678   3.983   5.178   1.929
 5927SOL     OW18679   1.418   4.312   3.416
 5927SOL    HW118680   1.339   4.355   3.460
 5927SOL    HW218681   1.412   4.213   3.426
 5928SOL     OW18682   3.050   0.628   1.805
 5928SOL    HW118683   3.091   0.715   1.832
 5928SOL    HW218684   3.002   0.587   1.883
 5929SOL     OW18685   0.938   6.377   5.552
 5929SOL    HW118686   0.877   6.338   5.621
 5929SOL    HW218687   0.886   6.442   5.495
 5930SOL     OW18688   6.899   1.016   3.398
 5930SOL    HW118689   6.982   1.034   3.345
 5930SOL    HW218690   6.846   1.101   3.407
 5931SOL     OW18691   5.542   5.100   3.121
 5931SOL    HW118692   5.585   5.168   3.061
 5931SOL    HW218693   5.461   5.139   3.164
 5932SOL     OW18694   2.802   6.097   0.973
 5932SOL    HW118695   2.788   6.081   1.071
 5932SOL    HW218696   2.716   6.125   0.931
 5933SOL     OW18697   0.005   5.246   3.164
 5933SOL    HW118698   0.101   5.226   3.184
 5933SOL    HW218699   7.013   5.338   3.196
 5934SOL     OW18700   4.069   3.787   4.215
 5934SOL    HW118701   4.021   3.854   4.273
 5934SOL    HW218702   4.133   3.735   4.271
 5935SOL     OW18703   4.225   3.605   5.041
 5935SOL    HW118704   4.200   3.675   5.107
 5935SOL    HW218705   4.287   3.540   5.084
 5936SOL     OW18706   4.204   3.430   0.149
 5936SOL    HW118707   4.246   3.427   0.058
 5936SOL    HW218708   4.221   3.344   0.197
 5937SOL     OW18709   0.544   4.860   2.356
 5937SOL    HW118710   0.641   4.845   2.374
 5937SOL    HW218711   0.530   4.872   2.258
 5938SOL     OW18712   1.487   5.552   4.186
 5938SOL    HW118713   1.551   5.603   4.127
 5938SOL    HW218714   1.410   5.611   4.210
 5939SOL     OW18715   3.361   0.401   3.498
 5939SOL    HW118716   3.443   0.357   3.534
 5939SOL    HW218717   3.280   0.353   3.532
 5940SOL     OW18718   4.304   5.617   2.411
 5940SOL    HW118719   4.220   5.569   2.437
 5940SOL    HW218720   4.296   5.713   2.436
 5941SOL     OW18721   6.463   3.703   2.256
 5941SOL    HW118722   6.427   3.628   2.311
 5941SOL    HW218723   6.551   3.677   2.217
 5942SOL     OW18724   4.735   2.619   6.602
 5942SOL    HW118725   4.682   2.556   6.545
 5942SOL    HW218726   4.676   2.693   6.634
 5943SOL     OW18727   3.580   5.554   0.899
 5943SOL    HW118728   3.667   5.588   0.864
 5943SOL    HW218729   3.598   5.486   0.971
 5944SOL     OW18730   5.301   1.859   1.470
 5944SOL    HW118731   5.225   1.808   1.510
 5944SOL    HW218732   5.376   1.863   1.536
 5945SOL     OW18733   6.744   5.324   5.459
 5945SOL    HW118734   6.684   5.334   5.538
 5945SOL    HW218735   6.801   5.406   5.451
 5946SOL     OW18736   3.287   2.998   5.464
 5946SOL    HW118737   3.312   2.908   5.499
 5946SOL    HW218738   3.370   3.053   5.451
 5947SOL     OW18739   4.051   2.987   1.880
 5947SOL    HW118740   4.100   2.961   1.963
 5947SOL    HW218741   4.095   3.067   1.839
 5948SOL     OW18742   3.521   4.971   3.825
 5948SOL    HW118743   3.520   4.928   3.915
 5948SOL    HW218744   3.598   4.935   3.772
 5949SOL     OW18745   3.773   3.443   1.267
 5949SOL    HW118746   3.739   3.500   1.341
 5949SOL    HW218747   3.748   3.348   1.283
 5950SOL     OW18748   6.133   3.173   5.474
 5950SOL    HW118749   6.092   3.105   5.536
 5950SOL    HW218750   6.186   3.126   5.404
 5951SOL     OW18751   1.021   5.711   4.841
 5951SOL    HW118752   0.967   5.631   4.866
 5951SOL    HW218753   0.960   5.789   4.824
 5952SOL     OW18754   5.306   5.165   4.196
 5952SOL    HW118755   5.256   5.237   4.244
 5952SOL    HW218756   5.402   5.190   4.188
 5953SOL     OW18757   6.921   2.856   5.645
 5953SOL    HW118758   7.000   2.902   5.605
 5953SOL    HW218759   6.934   2.846   5.744
 5954SOL     OW18760   0.151   4.507   5.713
 5954SOL    HW118761   0.201   4.579   5.663
 5954SOL    HW218762   0.088   4.461   5.650
 5955SOL     OW18763   5.239   5.504   2.483
 5955SOL    HW118764   5.217   5.450   2.564
 5955SOL    HW218765   5.314   5.461   2.433
 5956SOL     OW18766   3.556   1.660   0.391
 5956SOL    HW118767   3.590   1.753   0.393
 5956SOL    HW218768   3.617   1.601   0.445
 5957SOL     OW18769   4.923   0.314   5.290
 5957SOL    HW118770   4.920   0.391   5.226
 5957SOL    HW218771   4.913   0.228   5.238
 5958SOL     OW18772   6.560   6.184   2.771
 5958SOL    HW118773   6.625   6.163   2.698
 5958SOL    HW218774   6.504   6.263   2.744
 5959SOL     OW18775   3.637   1.450   5.577
 5959SOL    HW118776   3.577   1.418   5.504
 5959SOL    HW218777   3.582   1.477   5.656
 5960SOL     OW18778   3.939   6.386   4.835
 5960SOL    HW118779   3.902   6.458   4.895
 5960SOL    HW218780   4.020   6.346   4.878
 5961SOL     OW18781   4.931   1.041   3.784
 5961SOL    HW118782   4.866   0.974   3.748
 5961SOL    HW218783   4.895   1.081   3.868
 5962SOL     OW18784   5.101   5.443   2.114
 5962SOL    HW118785   5.099   5.359   2.061
 5962SOL    HW218786   5.054   5.429   2.201
 5963SOL     OW18787   3.308   2.947   4.885
 5963SOL    HW118788   3.289   2.899   4.971
 5963SOL    HW218789   3.406   2.941   4.865
 5964SOL     OW18790   0.334   5.276   5.619
 5964SOL    HW118791   0.334   5.370   5.655
 5964SOL    HW218792   0.400   5.221   5.671
 5965SOL     OW18793   1.629   2.172   6.029
 5965SOL    HW118794   1.581   2.231   5.966
 5965SOL    HW218795   1.565   2.136   6.098
 5966SOL     OW18796   3.299   5.754   5.124
 5966SOL    HW118797   3.387   5.723   5.159
 5966SOL    HW218798   3.238   5.776   5.200
 5967SOL     OW18799   4.297   6.440   1.656
 5967SOL    HW118800   4.381   6.394   1.628
 5967SOL    HW218801   4.255   6.483   1.576
 5968SOL     OW18802   4.950   0.972   2.683
 5968SOL    HW118803   4.949   0.902   2.612
 5968SOL    HW218804   5.024   1.037   2.666
 5969SOL     OW18805   6.593   1.389   6.012
 5969SOL    HW118806   6.533   1.309   6.010
 5969SOL    HW218807   6.592   1.429   6.104
 5970SOL     OW18808   0.540   4.684   2.642
 5970SOL    HW118809   0.558   4.771   2.688
 5970SOL    HW218810   0.515   4.701   2.547
 5971SOL     OW18811   2.152   0.895   3.213
 5971SOL    HW118812   2.162   0.981   3.162
 5971SOL    HW218813   2.135   0.821   3.148
 5972SOL     OW18814   5.528   6.525   0.527
 5972SOL    HW118815   5.608   6.493   0.577
 5972SOL    HW218816   5.505   6.459   0.454
 5973SOL     OW18817   1.817   5.201   2.438
 5973SOL    HW118818   1.821   5.216   2.339
 5973SOL    HW218819   1.864   5.277   2.484
 5974SOL     OW18820   5.543   4.739   6.679
 5974SOL    HW118821   5.488   4.781   6.607
 5974SOL    HW218822   5.484   4.681   6.735
 5975SOL     OW18823   2.969   2.181   0.071
 5975SOL    HW118824   3.044   2.148   0.128
 5975SOL    HW218825   2.933   2.267   0.109
 5976SOL     OW18826   3.022   3.983   4.437
 5976SOL    HW118827   3.016   3.982   4.337
 5976SOL    HW218828   2.951   3.923   4.475
 5977SOL     OW18829   1.982   4.958   1.884
 5977SOL    HW118830   1.935   4.939   1.970
 5977SOL    HW218831   2.014   4.872   1.843
 5978SOL     OW18832   4.977   5.163   3.546
 5978SOL    HW118833   4.963   5.072   3.507
 5978SOL    HW218834   5.013   5.155   3.638
 5979SOL     OW18835   6.505   0.225   3.061
 5979SOL    HW118836   6.494   0.299   2.995
 5979SOL    HW218837   6.574   0.161   3.028
 5980SOL     OW18838   4.033   3.543   0.310
 5980SOL    HW118839   4.114   3.522   0.255
 5980SOL    HW218840   4.021   3.642   0.314
 5981SOL     OW18841   6.327   0.405   2.270
 5981SOL    HW118842   6.388   0.360   2.204
 5981SOL    HW218843   6.339   0.504   2.264
 5982SOL     OW18844   6.512   2.415   0.214
 5982SOL    HW118845   6.469   2.499   0.249
 5982SOL    HW218846   6.453   2.337   0.234
 5983SOL     OW18847   1.998   1.303   4.907
 5983SOL    HW118848   2.033   1.379   4.852
 5983SOL    HW218849   1.905   1.282   4.877
 5984SOL     OW18850   6.558   6.733   5.005
 5984SOL    HW118851   6.568   6.679   5.088
 5984SOL    HW218852   6.552   6.830   5.029
 5985SOL     OW18853   5.692   3.001   4.060
 5985SOL    HW118854   5.597   3.030   4.072
 5985SOL    HW218855   5.697   2.933   3.986
 5986SOL     OW18856   3.225   3.522   3.600
 5986SOL    HW118857   3.172   3.606   3.614
 5986SOL    HW218858   3.277   3.529   3.516
 5987SOL     OW18859   4.306   1.167   5.015
 5987SOL    HW118860   4.311   1.181   4.916
 5987SOL    HW218861   4.395   1.188   5.055
 5988SOL     OW18862   4.560   6.838   5.112
 5988SOL    HW118863   4.543   6.839   5.014
 5988SOL    HW218864   4.645   6.886   5.132
 5989SOL     OW18865   2.830   5.647   6.498
 5989SOL    HW118866   2.881   5.647   6.585
 5989SOL    HW218867   2.748   5.704   6.508
 5990SOL     OW18868   3.495   4.599   0.546
 5990SOL    HW118869   3.424   4.561   0.605
 5990SOL    HW218870   3.527   4.528   0.482
 5991SOL     OW18871   3.992   5.158   5.465
 5991SOL    HW118872   4.028   5.130   5.376
 5991SOL    HW218873   3.892   5.157   5.462
 5992SOL     OW18874   3.688   1.022   3.509
 5992SOL    HW118875   3.640   0.983   3.587
 5992SOL    HW218876   3.634   1.097   3.471
 5993SOL     OW18877   3.115   6.683   6.347
 5993SOL    HW118878   3.111   6.776   6.382
 5993SOL    HW218879   3.209   6.661   6.320
 5994SOL     OW18880   6.448   1.606   1.860
 5994SOL    HW118881   6.373   1.555   1.904
 5994SOL    HW218882   6.518   1.541   1.830
 5995SOL     OW18883   6.241   3.811   2.777
 5995SOL    HW118884   6.241   3.760   2.863
 5995SOL    HW218885   6.181   3.890   2.786
 5996SOL     OW18886   0.788   5.827   0.917
 5996SOL    HW118887   0.703   5.780   0.942
 5996SOL    HW218888   0.768   5.923   0.898
 5997SOL     OW18889   0.603   6.339   2.714
 5997SOL    HW118890   0.631   6.254   2.759
 5997SOL    HW218891   0.581   6.408   2.783
 5998SOL     OW18892   5.613   2.638   1.817
 5998SOL    HW118893   5.702   2.679   1.797
 5998SOL    HW218894   5.592   2.570   1.746
 5999SOL     OW18895   0.897   1.969   2.611
 5999SOL    HW118896   0.944   2.054   2.635
 5999SOL    HW218897   0.838   1.985   2.531
 6000SOL     OW18898   4.159   6.918   2.037
 6000SOL    HW118899   4.078   6.860   2.052
 6000SOL    HW218900   4.175   6.927   1.939
 6001SOL     OW18901   0.417   4.016   6.456
 6001SOL    HW118902   0.318   4.000   6.449
 6001SOL    HW218903   0.435   4.114   6.452
 6002SOL     OW18904   0.416   0.189   1.157
 6002SOL    HW118905   0.475   0.254   1.204
 6002SOL    HW218906   0.336   0.169   1.214
 6003SOL     OW18907   6.502   1.989   4.581
 6003SOL    HW118908   6.577   2.053   4.597
 6003SOL    HW218909   6.485   1.936   4.664
 6004SOL     OW18910   6.571   4.320   2.881
 6004SOL    HW118911   6.549   4.222   2.878
 6004SOL    HW218912   6.667   4.332   2.855
 6005SOL     OW18913   4.733   4.718   5.090
 6005SOL    HW118914   4.637   4.719   5.062
 6005SOL    HW218915   4.749   4.791   5.157
 6006SOL     OW18916   3.149   6.913   6.939
 6006SOL    HW118917   3.114   6.971   7.012
 6006SOL    HW218918   3.145   6.817   6.967
 6007SOL     OW18919   5.205   3.696   4.638
 6007SOL    HW118920   5.214   3.633   4.561
 6007SOL    HW218921   5.122   3.674   4.689
 6008SOL     OW18922   2.100   5.428   6.309
 6008SOL    HW118923   2.133   5.389   6.395
 6008SOL    HW218924   2.171   5.486   6.268
 6009SOL     OW18925   3.358   0.773   4.794
 6009SOL    HW118926   3.358   0.674   4.785
 6009SOL    HW218927   3.345   0.798   4.890
 6010SOL     OW18928   1.308   4.083   2.120
 6010SOL    HW118929   1.382   4.131   2.167
 6010SOL    HW218930   1.325   4.084   2.021
 6011SOL     OW18931   4.526   2.437   2.707
 6011SOL    HW118932   4.454   2.416   2.640
 6011SOL    HW218933   4.571   2.353   2.735
 6012SOL     OW18934   6.461   1.555   0.572
 6012SOL    HW118935   6.514   1.473   0.593
 6012SOL    HW218936   6.363   1.536   0.584
 6013SOL     OW18937   5.296   1.821   2.952
 6013SOL    HW118938   5.350   1.751   2.999
 6013SOL    HW218939   5.350   1.904   2.944
 6014SOL     OW18940   4.155   1.973   0.688
 6014SOL    HW118941   4.205   1.937   0.609
 6014SOL    HW218942   4.194   2.062   0.713
 6015SOL     OW18943   5.599   2.009   5.790
 6015SOL    HW118944   5.578   2.092   5.738
 6015SOL    HW218945   5.514   1.971   5.828
 6016SOL     OW18946   0.374   1.588   6.555
 6016SOL    HW118947   0.350   1.546   6.642
 6016SOL    HW218948   0.390   1.517   6.487
 6017SOL     OW18949   6.281   4.602   2.506
 6017SOL    HW118950   6.350   4.585   2.577
 6017SOL    HW218951   6.292   4.695   2.471
 6018SOL     OW18952   3.428   1.364   6.973
 6018SOL    HW118953   3.506   1.345   6.914
 6018SOL    HW218954   3.437   1.456   7.012
 6019SOL     OW18955   5.504   1.609   4.486
 6019SOL    HW118956   5.544   1.522   4.458
 6019SOL    HW218957   5.459   1.652   4.407
 6020SOL     OW18958   1.807   6.219   2.059
 6020SOL    HW118959   1.756   6.137   2.086
 6020SOL    HW218960   1.748   6.299   2.067
 6021SOL     OW18961   3.957   0.593   2.438
 6021SOL    HW118962   3.929   0.498   2.432
 6021SOL    HW218963   3.893   0.650   2.387
 6022SOL     OW18964   4.676   0.709   5.024
 6022SOL    HW118965   4.764   0.731   4.982
 6022SOL    HW218966   4.607   0.774   4.993
 6023SOL     OW18967   5.950   1.562   2.375
 6023SOL    HW118968   5.866   1.512   2.354
 6023SOL    HW218969   5.995   1.520   2.454
 6024SOL     OW18970   0.614   4.278   3.019
 6024SOL    HW118971   0.570   4.196   3.057
 6024SOL    HW218972   0.565   4.307   2.937
 6025SOL     OW18973   3.550   1.050   1.973
 6025SOL    HW118974   3.465   1.079   1.929
 6025SOL    HW218975   3.563   1.103   2.057
 6026SOL     OW18976   0.056   3.838   3.940
 6026SOL    HW118977   0.101   3.752   3.965
 6026SOL    HW218978   0.093   3.912   3.996
 6027SOL     OW18979   1.843   4.358   5.498
 6027SOL    HW118980   1.923   4.371   5.556
 6027SOL    HW218981   1.791   4.278   5.530
 6028SOL     OW18982   1.004   3.584   0.407
 6028SOL    HW118983   0.973   3.657   0.347
 6028SOL    HW218984   1.103   3.590   0.419
 6029SOL     OW18985   2.012   6.095   5.293
 6029SOL    HW118986   1.969   6.146   5.219
 6029SOL    HW218987   2.089   6.042   5.257
 6030SOL     OW18988   3.675   6.719   2.899
 6030SOL    HW118989   3.691   6.690   2.993
 6030SOL    HW218990   3.591   6.774   2.895
 6031SOL     OW18991   4.081   4.848   4.013
 6031SOL    HW118992   4.031   4.846   4.100
 6031SOL    HW218993   4.162   4.790   4.021
 6032SOL     OW18994   2.017   3.272   2.863
 6032SOL    HW118995   2.054   3.364   2.879
 6032SOL    HW218996   1.952   3.276   2.787
 6033SOL     OW18997   2.480   1.939   2.472
 6033SOL    HW118998   2.408   1.946   2.541
 6033SOL    HW218999   2.567   1.920   2.517
 6034SOL     OW19000   1.423   6.187   5.017
 6034SOL    HW119001   1.394   6.105   4.969
 6034SOL    HW219002   1.422   6.265   4.955
 6035SOL     OW19003   6.440   0.940   3.280
 6035SOL    HW119004   6.435   0.932   3.380
 6035SOL    HW219005   6.351   0.967   3.244
 6036SOL     OW19006   0.134   6.238   4.328
 6036SOL    HW119007   0.147   6.324   4.376
 6036SOL    HW219008   0.205   6.227   4.258
 6037SOL     OW19009   4.410   4.684   6.190
 6037SOL    HW119010   4.431   4.594   6.228
 6037SOL    HW219011   4.447   4.755   6.251
 6038SOL     OW19012   1.226   3.549   6.268
 6038SOL    HW119013   1.293   3.551   6.195
 6038SOL    HW219014   1.134   3.556   6.229
 6039SOL     OW19015   3.309   3.194   2.797
 6039SOL    HW119016   3.279   3.108   2.754
 6039SOL    HW219017   3.228   3.247   2.824
 6040SOL     OW19018   0.912   1.970   6.533
 6040SOL    HW119019   0.832   1.981   6.474
 6040SOL    HW219020   0.887   1.992   6.627
 6041SOL     OW19021   2.467   1.185   5.218
 6041SOL    HW119022   2.425   1.094   5.217
 6041SOL    HW219023   2.566   1.177   5.209
 6042SOL     OW19024   5.121   5.163   2.075
 6042SOL    HW119025   5.210   5.173   2.031
 6042SOL    HW219026   5.133   5.136   2.171
 6043SOL     OW19027   0.881   4.812   5.158
 6043SOL    HW119028   0.923   4.851   5.239
 6043SOL    HW219029   0.896   4.713   5.157
 6044SOL     OW19030   0.940   2.279   1.016
 6044SOL    HW119031   1.032   2.293   0.981
 6044SOL    HW219032   0.884   2.360   0.997
 6045SOL     OW19033   5.589   5.946   1.311
 6045SOL    HW119034   5.625   5.882   1.379
 6045SOL    HW219035   5.653   5.954   1.235
 6046SOL     OW19036   3.071   1.788   0.404
 6046SOL    HW119037   3.094   1.822   0.495
 6046SOL    HW219038   2.972   1.793   0.391
 6047SOL     OW19039   6.430   1.589   2.257
 6047SOL    HW119040   6.433   1.685   2.232
 6047SOL    HW219041   6.345   1.548   2.223
 6048SOL     OW19042   4.702   6.659   3.610
 6048SOL    HW119043   4.668   6.750   3.584
 6048SOL    HW219044   4.801   6.656   3.597
 6049SOL     OW19045   5.282   4.064   5.844
 6049SOL    HW119046   5.254   3.969   5.858
 6049SOL    HW219047   5.261   4.117   5.926
 6050SOL     OW19048   3.246   4.359   5.387
 6050SOL    HW119049   3.242   4.320   5.295
 6050SOL    HW219050   3.197   4.300   5.451
 6051SOL     OW19051   2.454   1.648   3.907
 6051SOL    HW119052   2.418   1.558   3.931
 6051SOL    HW219053   2.552   1.642   3.891
 6052SOL     OW19054   6.428   6.351   0.215
 6052SOL    HW119055   6.472   6.384   0.298
 6052SOL    HW219056   6.349   6.294   0.239
 6053SOL     OW19057   3.791   0.880   6.652
 6053SOL    HW119058   3.855   0.957   6.647
 6053SOL    HW219059   3.786   0.836   6.562
 6054SOL     OW19060   2.846   4.380   0.582
 6054SOL    HW119061   2.881   4.451   0.521
 6054SOL    HW219062   2.748   4.394   0.597
 6055SOL     OW19063   5.271   1.152   5.496
 6055SOL    HW119064   5.325   1.071   5.518
 6055SOL    HW219065   5.247   1.200   5.581
 6056SOL     OW19066   5.220   3.376   5.121
 6056SOL    HW119067   5.159   3.297   5.123
 6056SOL    HW219068   5.275   3.373   5.037
 6057SOL     OW19069   5.128   2.462   4.673
 6057SOL    HW119070   5.192   2.539   4.679
 6057SOL    HW219071   5.116   2.421   4.764
 6058SOL     OW19072   4.997   2.695   2.627
 6058SOL    HW119073   4.931   2.698   2.702
 6058SOL    HW219074   4.991   2.780   2.574
 6059SOL     OW19075   4.699   6.088   5.553
 6059SOL    HW119076   4.616   6.131   5.518
 6059SOL    HW219077   4.726   6.013   5.493
 6060SOL     OW19078   2.696   3.997   6.195
 6060SOL    HW119079   2.701   4.053   6.278
 6060SOL    HW219080   2.763   3.924   6.201
 6061SOL     OW19081   4.499   2.353   0.182
 6061SOL    HW119082   4.421   2.296   0.206
 6061SOL    HW219083   4.480   2.448   0.206
 6062SOL     OW19084   1.999   0.779   4.697
 6062SOL    HW119085   1.925   0.712   4.701
 6062SOL    HW219086   2.087   0.733   4.704
 6063SOL     OW19087   3.918   1.535   6.820
 6063SOL    HW119088   3.823   1.546   6.791
 6063SOL    HW219089   3.965   1.474   6.757
 6064SOL     OW19090   2.924   5.925   2.340
 6064SOL    HW119091   2.897   5.949   2.433
 6064SOL    HW219092   2.944   6.009   2.289
 6065SOL     OW19093   5.675   0.020   2.377
 6065SOL    HW119094   5.729   7.006   2.449
 6065SOL    HW219095   5.691   7.004   2.290
 6066SOL     OW19096   4.516   2.014   0.395
 6066SOL    HW119097   4.550   2.096   0.440
 6066SOL    HW219098   4.566   2.001   0.309
 6067SOL     OW19099   5.464   2.356   6.570
 6067SOL    HW119100   5.381   2.299   6.569
 6067SOL    HW219101   5.544   2.297   6.558
 6068SOL     OW19102   5.540   2.591   4.873
 6068SOL    HW119103   5.628   2.622   4.908
 6068SOL    HW219104   5.486   2.671   4.845
 6069SOL     OW19105   0.456   3.507   5.342
 6069SOL    HW119106   0.531   3.467   5.290
 6069SOL    HW219107   0.450   3.605   5.323
 6070SOL     OW19108   2.014   1.884   6.059
 6070SOL    HW119109   1.989   1.864   5.964
 6070SOL    HW219110   2.099   1.837   6.081
 6071SOL     OW19111   4.968   5.486   4.723
 6071SOL    HW119112   5.022   5.553   4.773
 6071SOL    HW219113   4.871   5.511   4.727
 6072SOL     OW19114   0.211   0.901   1.808
 6072SOL    HW119115   0.127   0.950   1.834
 6072SOL    HW219116   0.236   0.925   1.714
 6073SOL     OW19117   6.878   3.880   0.394
 6073SOL    HW119118   6.936   3.802   0.415
 6073SOL    HW219119   6.799   3.882   0.455
 6074SOL     OW19120   0.999   6.553   4.508
 6074SOL    HW119121   0.935   6.618   4.467
 6074SOL    HW219122   1.068   6.603   4.560
 6075SOL     OW19123   0.333   2.348   6.593
 6075SOL    HW119124   0.339   2.413   6.668
 6075SOL    HW219125   0.243   2.303   6.595
 6076SOL     OW19126   2.903   5.689   5.217
 6076SOL    HW119127   2.956   5.667   5.135
 6076SOL    HW219128   2.880   5.787   5.216
 6077SOL     OW19129   4.749   5.394   1.885
 6077SOL    HW119130   4.804   5.453   1.944
 6077SOL    HW219131   4.785   5.301   1.889
 6078SOL     OW19132   3.806   4.876   1.844
 6078SOL    HW119133   3.729   4.844   1.899
 6078SOL    HW219134   3.832   4.805   1.778
 6079SOL     OW19135   3.293   3.691   5.987
 6079SOL    HW119136   3.215   3.633   5.962
 6079SOL    HW219137   3.299   3.697   6.087
 6080SOL     OW19138   0.101   1.654   1.873
 6080SOL    HW119139   0.100   1.752   1.852
 6080SOL    HW219140   0.106   1.641   1.972
 6081SOL     OW19141   6.106   3.420   4.853
 6081SOL    HW119142   6.049   3.482   4.801
 6081SOL    HW219143   6.199   3.457   4.858
 6082SOL     OW19144   3.522   1.617   3.646
 6082SOL    HW119145   3.576   1.670   3.580
 6082SOL    HW219146   3.565   1.622   3.736
 6083SOL     OW19147   0.551   5.835   6.130
 6083SOL    HW119148   0.493   5.820   6.210
 6083SOL    HW219149   0.497   5.825   6.047
 6084SOL     OW19150   0.554   5.544   3.853
 6084SOL    HW119151   0.608   5.497   3.923
 6084SOL    HW219152   0.501   5.617   3.896
 6085SOL     OW19153   0.182   4.554   0.083
 6085SOL    HW119154   0.141   4.469   0.116
 6085SOL    HW219155   0.210   4.544   7.018
 6086SOL     OW19156   3.025   1.382   5.076
 6086SOL    HW119157   2.981   1.470   5.057
 6086SOL    HW219158   3.052   1.339   4.989
 6087SOL     OW19159   5.127   6.024   6.908
 6087SOL    HW119160   5.037   6.065   6.900
 6087SOL    HW219161   5.197   6.095   6.899
 6088SOL     OW19162   6.741   6.054   4.753
 6088SOL    HW119163   6.651   6.012   4.762
 6088SOL    HW219164   6.806   5.988   4.716
 6089SOL     OW19165   0.755   3.465   1.267
 6089SOL    HW119166   0.675   3.481   1.325
 6089SOL    HW219167   0.805   3.386   1.301
 6090SOL     OW19168   1.603   6.199   6.226
 6090SOL    HW119169   1.663   6.257   6.170
 6090SOL    HW219170   1.580   6.116   6.175
 6091SOL     OW19171   1.154   1.831   2.402
 6091SOL    HW119172   1.192   1.886   2.327
 6091SOL    HW219173   1.060   1.860   2.420
 6092SOL     OW19174   2.783   0.293   3.160
 6092SOL    HW119175   2.754   0.285   3.065
 6092SOL    HW219176   2.833   0.211   3.187
 6093SOL     OW19177   1.167   2.573   3.078
 6093SOL    HW119178   1.213   2.576   2.989
 6093SOL    HW219179   1.073   2.543   3.066
 6094SOL     OW19180   3.865   0.695   1.005
 6094SOL    HW119181   3.958   0.683   1.042
 6094SOL    HW219182   3.807   0.737   1.075
 6095SOL     OW19183   5.077   2.993   6.683
 6095SOL    HW119184   5.022   2.910   6.685
 6095SOL    HW219185   5.156   2.980   6.623
 6096SOL     OW19186   5.805   0.633   3.715
 6096SOL    HW119187   5.830   0.537   3.702
 6096SOL    HW219188   5.887   0.690   3.708
 6097SOL     OW19189   1.497   0.531   2.028
 6097SOL    HW119190   1.494   0.521   2.128
 6097SOL    HW219191   1.590   0.550   2.000
 6098SOL     OW19192   1.553   2.364   6.450
 6098SOL    HW119193   1.624   2.377   6.519
 6098SOL    HW219194   1.552   2.268   6.420
 6099SOL     OW19195   6.895   5.878   7.001
 6099SOL    HW119196   6.889   5.862   0.070
 6099SOL    HW219197   6.879   5.792   6.953
 6100SOL     OW19198   5.523   2.879   6.762
 6100SOL    HW119199   5.461   2.956   6.747
 6100SOL    HW219200   5.481   2.795   6.730
 6101SOL     OW19201   6.058   1.742   5.560
 6101SOL    HW119202   6.051   1.767   5.656
 6101SOL    HW219203   6.016   1.652   5.545
 6102SOL     OW19204   4.161   0.874   4.183
 6102SOL    HW119205   4.168   0.949   4.249
 6102SOL    HW219206   4.189   0.789   4.227
 6103SOL     OW19207   0.114   1.311   3.424
 6103SOL    HW119208   0.139   1.407   3.437
 6103SOL    HW219209   0.100   1.268   3.513
 6104SOL     OW19210   6.708   2.824   6.142
 6104SOL    HW119211   6.738   2.851   6.051
 6104SOL    HW219212   6.775   2.762   6.183
 6105SOL     OW19213   2.483   7.022   6.005
 6105SOL    HW119214   2.547   0.062   5.975
 6105SOL    HW219215   2.517   6.980   6.089
 6106SOL     OW19216   1.102   4.660   5.824
 6106SOL    HW119217   1.182   4.603   5.808
 6106SOL    HW219218   1.129   4.757   5.824
 6107SOL     OW19219   2.305   4.915   4.234
 6107SOL    HW119220   2.288   5.009   4.204
 6107SOL    HW219221   2.340   4.861   4.157
 6108SOL     OW19222   0.492   2.392   3.393
 6108SOL    HW119223   0.507   2.488   3.417
 6108SOL    HW219224   0.531   2.374   3.303
 6109SOL     OW19225   5.508   3.232   6.147
 6109SOL    HW119226   5.533   3.262   6.055
 6109SOL    HW219227   5.410   3.213   6.150
 6110SOL     OW19228   3.654   3.262   6.918
 6110SOL    HW119229   3.650   3.204   6.837
 6110SOL    HW219230   3.575   3.323   6.919
 6111SOL     OW19231   2.034   4.885   2.736
 6111SOL    HW119232   2.044   4.791   2.703
 6111SOL    HW219233   2.120   4.935   2.723
 6112SOL     OW19234   3.149   1.340   3.421
 6112SOL    HW119235   3.209   1.377   3.492
 6112SOL    HW219236   3.165   1.242   3.412
 6113SOL     OW19237   0.010   0.528   5.955
 6113SOL    HW119238   0.071   0.601   5.986
 6113SOL    HW219239   0.059   0.441   5.958
 6114SOL     OW19240   4.869   4.545   1.275
 6114SOL    HW119241   4.905   4.636   1.256
 6114SOL    HW219242   4.771   4.543   1.254
 6115SOL     OW19243   5.627   5.957   2.933
 6115SOL    HW119244   5.619   5.981   3.030
 6115SOL    HW219245   5.698   6.014   2.891
 6116SOL     OW19246   2.869   1.202   1.200
 6116SOL    HW119247   2.866   1.291   1.246
 6116SOL    HW219248   2.777   1.163   1.196
 6117SOL     OW19249   6.857   0.239   5.842
 6117SOL    HW119250   6.804   0.240   5.927
 6117SOL    HW219251   6.826   0.313   5.782
 6118SOL     OW19252   6.846   1.235   1.909
 6118SOL    HW119253   6.757   1.228   1.863
 6118SOL    HW219254   6.891   1.320   1.880
 6119SOL     OW19255   0.914   3.450   3.877
 6119SOL    HW119256   0.951   3.357   3.882
 6119SOL    HW219257   0.815   3.447   3.867
 6120SOL     OW19258   3.668   6.707   3.672
 6120SOL    HW119259   3.767   6.717   3.660
 6120SOL    HW219260   3.621   6.784   3.629
 6121SOL     OW19261   0.317   3.048   4.284
 6121SOL    HW119262   0.360   3.066   4.196
 6121SOL    HW219263   0.358   2.966   4.325
 6122SOL     OW19264   3.479   6.729   1.517
 6122SOL    HW119265   3.534   6.648   1.496
 6122SOL    HW219266   3.392   6.701   1.556
 6123SOL     OW19267   6.420   0.136   0.083
 6123SOL    HW119268   6.468   0.108   0.166
 6123SOL    HW219269   6.458   0.089   0.004
 6124SOL     OW19270   3.393   0.313   5.603
 6124SOL    HW119271   3.482   0.276   5.577
 6124SOL    HW219272   3.341   0.338   5.521
 6125SOL     OW19273   2.852   5.755   1.184
 6125SOL    HW119274   2.788   5.782   1.112
 6125SOL    HW219275   2.801   5.721   1.263
 6126SOL     OW19276   5.997   6.544   4.426
 6126SOL    HW119277   6.049   6.507   4.503
 6126SOL    HW219278   5.918   6.484   4.407
 6127SOL     OW19279   2.369   0.580   2.291
 6127SOL    HW119280   2.461   0.614   2.273
 6127SOL    HW219281   2.302   0.650   2.266
 6128SOL     OW19282   6.787   3.478   0.557
 6128SOL    HW119283   6.772   3.432   0.644
 6128SOL    HW219284   6.752   3.420   0.483
 6129SOL     OW19285   6.067   4.488   3.359
 6129SOL    HW119286   6.015   4.569   3.386
 6129SOL    HW219287   6.164   4.501   3.381
 6130SOL     OW19288   5.921   1.920   4.103
 6130SOL    HW119289   5.823   1.933   4.117
 6130SOL    HW219290   5.952   1.842   4.157
 6131SOL     OW19291   6.838   1.674   5.388
 6131SOL    HW119292   6.874   1.625   5.467
 6131SOL    HW219293   6.904   1.669   5.313
 6132SOL     OW19294   4.772   1.097   0.575
 6132SOL    HW119295   4.851   1.153   0.599
 6132SOL    HW219296   4.699   1.154   0.538
 6133SOL     OW19297   0.808   2.800   2.622
 6133SOL    HW119298   0.863   2.836   2.547
 6133SOL    HW219299   0.817   2.860   2.702
 6134SOL     OW19300   3.374   4.317   0.282
 6134SOL    HW119301   3.309   4.247   0.311
 6134SOL    HW219302   3.448   4.323   0.349
 6135SOL     OW19303   0.153   6.718   1.964
 6135SOL    HW119304   0.151   6.788   1.893
 6135SOL    HW219305   0.225   6.739   2.030
 6136SOL     OW19306   0.708   2.262   2.146
 6136SOL    HW119307   0.719   2.259   2.245
 6136SOL    HW219308   0.796   2.241   2.102
 6137SOL     OW19309   4.516   1.688   5.228
 6137SOL    HW119310   4.480   1.600   5.197
 6137SOL    HW219311   4.518   1.690   5.328
 6138SOL     OW19312   3.924   6.884   2.835
 6138SOL    HW119313   4.009   6.870   2.886
 6138SOL    HW219314   3.868   6.802   2.841
 6139SOL     OW19315   2.086   3.024   4.587
 6139SOL    HW119316   2.037   2.953   4.536
 6139SOL    HW219317   2.127   2.984   4.669
 6140SOL     OW19318   0.297   6.361   1.429
 6140SOL    HW119319   0.268   6.288   1.368
 6140SOL    HW219320   0.397   6.359   1.439
 6141SOL     OW19321   6.461   5.941   5.329
 6141SOL    HW119322   6.453   5.846   5.299
 6141SOL    HW219323   6.506   5.995   5.259
 6142SOL     OW19324   0.008   5.174   0.938
 6142SOL    HW119325   0.016   5.187   0.839
 6142SOL    HW219326   6.978   5.097   0.956
 6143SOL     OW19327   6.187   4.914   0.162
 6143SOL    HW119328   6.256   4.894   0.231
 6143SOL    HW219329   6.227   4.902   0.071
 6144SOL     OW19330   6.361   4.881   2.540
 6144SOL    HW119331   6.382   4.925   2.453
 6144SOL    HW219332   6.391   4.939   2.615
 6145SOL     OW19333   4.825   5.928   4.245
 6145SOL    HW119334   4.847   5.931   4.343
 6145SOL    HW219335   4.788   5.838   4.223
 6146SOL     OW19336   3.934   1.072   3.628
 6146SOL    HW119337   3.860   1.057   3.561
 6146SOL    HW219338   3.931   1.166   3.660
 6147SOL     OW19339   1.698   4.269   4.060
 6147SOL    HW119340   1.717   4.345   3.998
 6147SOL    HW219341   1.777   4.255   4.121
 6148SOL     OW19342   6.846   0.418   4.694
 6148SOL    HW119343   6.910   0.343   4.707
 6148SOL    HW219344   6.814   0.450   4.784
 6149SOL     OW19345   3.031   4.859   2.732
 6149SOL    HW119346   3.106   4.805   2.693
 6149SOL    HW219347   2.951   4.853   2.672
 6150SOL     OW19348   3.991   4.799   6.919
 6150SOL    HW119349   3.994   4.863   6.842
 6150SOL    HW219350   3.931   4.722   6.896
 6151SOL     OW19351   6.179   4.207   4.249
 6151SOL    HW119352   6.114   4.144   4.205
 6151SOL    HW219353   6.259   4.217   4.190
 6152SOL     OW19354   5.677   5.197   5.332
 6152SOL    HW119355   5.775   5.180   5.330
 6152SOL    HW219356   5.628   5.109   5.333
 6153SOL     OW19357   4.650   3.722   1.663
 6153SOL    HW119358   4.579   3.653   1.649
 6153SOL    HW219359   4.608   3.810   1.684
 6154SOL     OW19360   5.217   1.576   2.599
 6154SOL    HW119361   5.220   1.674   2.579
 6154SOL    HW219362   5.253   1.524   2.521
 6155SOL     OW19363   1.731   2.183   4.504
 6155SOL    HW119364   1.655   2.239   4.536
 6155SOL    HW219365   1.769   2.131   4.581
 6156SOL     OW19366   4.487   4.806   2.500
 6156SOL    HW119367   4.540   4.732   2.459
 6156SOL    HW219368   4.397   4.811   2.457
 6157SOL     OW19369   1.303   1.579   4.359
 6157SOL    HW119370   1.233   1.642   4.393
 6157SOL    HW219371   1.329   1.515   4.432
 6158SOL     OW19372   4.387   0.703   6.465
 6158SOL    HW119373   4.406   0.801   6.476
 6158SOL    HW219374   4.289   0.687   6.462
 6159SOL     OW19375   4.598   2.321   0.588
 6159SOL    HW119376   4.676   2.318   0.526
 6159SOL    HW219377   4.626   2.290   0.679
 6160SOL     OW19378   5.653   6.107   0.457
 6160SOL    HW119379   5.594   6.181   0.425
 6160SOL    HW219380   5.609   6.019   0.439
 6161SOL     OW19381   6.109   2.278   5.881
 6161SOL    HW119382   6.145   2.371   5.894
 6161SOL    HW219383   6.091   2.237   5.970
 6162SOL     OW19384   0.731   5.436   4.035
 6162SOL    HW119385   0.692   5.389   4.114
 6162SOL    HW219386   0.830   5.426   4.036
 6163SOL     OW19387   5.019   6.053   1.834
 6163SOL    HW119388   4.998   6.080   1.928
 6163SOL    HW219389   4.978   6.119   1.770
 6164SOL     OW19390   1.866   3.210   1.722
 6164SOL    HW119391   1.965   3.229   1.721
 6164SOL    HW219392   1.823   3.267   1.792
 6165SOL     OW19393   3.872   6.898   6.266
 6165SOL    HW119394   3.857   6.801   6.252
 6165SOL    HW219395   3.891   6.915   6.363
 6166SOL     OW19396   3.934   0.826   5.391
 6166SOL    HW119397   3.850   0.861   5.433
 6166SOL    HW219398   3.955   0.882   5.310
 6167SOL     OW19399   6.911   4.537   2.135
 6167SOL    HW119400   6.832   4.515   2.078
 6167SOL    HW219401   6.879   4.563   2.226
 6168SOL     OW19402   0.545   3.619   0.712
 6168SOL    HW119403   0.461   3.635   0.660
 6168SOL    HW219404   0.594   3.541   0.673
 6169SOL     OW19405   0.772   3.712   2.494
 6169SOL    HW119406   0.869   3.724   2.474
 6169SOL    HW219407   0.729   3.802   2.502
 6170SOL     OW19408   0.722   3.614   4.929
 6170SOL    HW119409   0.756   3.600   4.836
 6170SOL    HW219410   0.793   3.654   4.986
 6171SOL     OW19411   0.817   1.448   0.328
 6171SOL    HW119412   0.763   1.365   0.309
 6171SOL    HW219413   0.913   1.424   0.336
 6172SOL     OW19414   1.169   3.027   2.793
 6172SOL    HW119415   1.188   3.004   2.889
 6172SOL    HW219416   1.206   2.955   2.734
 6173SOL     OW19417   6.890   5.521   3.530
 6173SOL    HW119418   6.878   5.432   3.487
 6173SOL    HW219419   6.807   5.575   3.519
 6174SOL     OW19420   4.625   5.183   4.122
 6174SOL    HW119421   4.614   5.245   4.044
 6174SOL    HW219422   4.662   5.234   4.199
 6175SOL     OW19423   3.690   0.788   4.252
 6175SOL    HW119424   3.621   0.764   4.184
 6175SOL    HW219425   3.653   0.857   4.315
 6176SOL     OW19426   4.605   3.869   5.349
 6176SOL    HW119427   4.703   3.855   5.334
 6176SOL    HW219428   4.556   3.782   5.336
 6177SOL     OW19429   5.392   1.814   1.903
 6177SOL    HW119430   5.460   1.886   1.888
 6177SOL    HW219431   5.434   1.737   1.949
 6178SOL     OW19432   5.096   3.590   2.240
 6178SOL    HW119433   5.166   3.637   2.294
 6178SOL    HW219434   5.006   3.623   2.266
 6179SOL     OW19435   6.647   4.765   2.042
 6179SOL    HW119436   6.649   4.697   1.969
 6179SOL    HW219437   6.638   4.719   2.130
 6180SOL     OW19438   3.221   5.004   1.024
 6180SOL    HW119439   3.154   5.077   1.033
 6180SOL    HW219440   3.274   5.016   0.940
 6181SOL     OW19441   5.300   6.434   6.006
 6181SOL    HW119442   5.389   6.388   6.003
 6181SOL    HW219443   5.271   6.443   6.101
 6182SOL     OW19444   4.893   3.098   6.366
 6182SOL    HW119445   4.887   3.003   6.398
 6182SOL    HW219446   4.858   3.159   6.438
 6183SOL     OW19447   1.966   2.114   1.966
 6183SOL    HW119448   1.929   2.043   1.906
 6183SOL    HW219449   2.023   2.176   1.913
 6184SOL     OW19450   3.106   0.169   6.223
 6184SOL    HW119451   3.174   0.191   6.153
 6184SOL    HW219452   3.087   0.251   6.278
 6185SOL     OW19453   1.552   4.702   5.819
 6185SOL    HW119454   1.591   4.639   5.886
 6185SOL    HW219455   1.485   4.761   5.864
 6186SOL     OW19456   6.595   1.137   1.778
 6186SOL    HW119457   6.536   1.211   1.746
 6186SOL    HW219458   6.543   1.053   1.784
 6187SOL     OW19459   5.016   3.183   5.059
 6187SOL    HW119460   4.956   3.233   5.121
 6187SOL    HW219461   4.992   3.205   4.965
 6188SOL     OW19462   1.484   1.890   5.884
 6188SOL    HW119463   1.526   1.950   5.817
 6188SOL    HW219464   1.531   1.802   5.884
 6189SOL     OW19465   3.347   5.159   2.710
 6189SOL    HW119466   3.411   5.083   2.723
 6189SOL    HW219467   3.306   5.153   2.619
 6190SOL     OW19468   6.656   3.308   5.216
 6190SOL    HW119469   6.652   3.218   5.260
 6190SOL    HW219470   6.729   3.362   5.259
 6191SOL     OW19471   2.517   3.207   6.009
 6191SOL    HW119472   2.425   3.244   6.010
 6191SOL    HW219473   2.535   3.158   6.094
 6192SOL     OW19474   2.532   2.191   6.510
 6192SOL    HW119475   2.460   2.147   6.455
 6192SOL    HW219476   2.494   2.271   6.555
 6193SOL     OW19477   4.898   6.012   1.158
 6193SOL    HW119478   4.908   5.966   1.246
 6193SOL    HW219479   4.899   5.944   1.085
 6194SOL     OW19480   6.275   0.498   6.285
 6194SOL    HW119481   6.197   0.454   6.240
 6194SOL    HW219482   6.347   0.430   6.301
 6195SOL     OW19483   5.589   6.345   4.752
 6195SOL    HW119484   5.632   6.259   4.779
 6195SOL    HW219485   5.660   6.415   4.739
 6196SOL     OW19486   4.639   4.300   2.564
 6196SOL    HW119487   4.656   4.272   2.469
 6196SOL    HW219488   4.550   4.344   2.570
 6197SOL     OW19489   2.644   5.332   2.205
 6197SOL    HW119490   2.740   5.329   2.233
 6197SOL    HW219491   2.588   5.361   2.283
 6198SOL     OW19492   4.967   6.610   0.170
 6198SOL    HW119493   4.889   6.630   0.111
 6198SOL    HW219494   5.014   6.528   0.137
 6199SOL     OW19495   0.498   1.063   0.286
 6199SOL    HW119496   0.462   1.031   0.373
 6199SOL    HW219497   0.533   0.986   0.234
 6200SOL     OW19498   0.533   1.759   3.790
 6200SOL    HW119499   0.554   1.790   3.697
 6200SOL    HW219500   0.524   1.659   3.791
 6201SOL     OW19501   0.523   3.396   4.253
 6201SOL    HW119502   0.617   3.370   4.230
 6201SOL    HW219503   0.521   3.436   4.345
 6202SOL     OW19504   5.727   1.401   2.443
 6202SOL    HW119505   5.723   1.343   2.524
 6202SOL    HW219506   5.750   1.346   2.363
 6203SOL     OW19507   5.899   5.296   2.079
 6203SOL    HW119508   5.990   5.328   2.055
 6203SOL    HW219509   5.851   5.265   1.996
 6204SOL     OW19510   0.965   6.243   5.143
 6204SOL    HW119511   1.014   6.205   5.221
 6204SOL    HW219512   1.024   6.239   5.062
 6205SOL     OW19513   5.428   4.314   1.396
 6205SOL    HW119514   5.401   4.296   1.490
 6205SOL    HW219515   5.446   4.228   1.349
 6206SOL     OW19516   5.674   1.406   3.300
 6206SOL    HW119517   5.712   1.487   3.254
 6206SOL    HW219518   5.692   1.412   3.398
 6207SOL     OW19519   1.918   6.167   4.738
 6207SOL    HW119520   1.885   6.100   4.804
 6207SOL    HW219521   1.994   6.219   4.778
 6208SOL     OW19522   3.137   2.471   5.517
 6208SOL    HW119523   3.049   2.443   5.557
 6208SOL    HW219524   3.143   2.437   5.424
 6209SOL     OW19525   3.288   5.397   0.604
 6209SOL    HW119526   3.357   5.366   0.669
 6209SOL    HW219527   3.203   5.419   0.654
 6210SOL     OW19528   5.597   3.650   2.857
 6210SOL    HW119529   5.504   3.613   2.854
 6210SOL    HW219530   5.632   3.644   2.950
 6211SOL     OW19531   3.823   6.007   5.695
 6211SOL    HW119532   3.732   6.006   5.653
 6211SOL    HW219533   3.852   6.102   5.706
 6212SOL     OW19534   2.209   4.776   3.937
 6212SOL    HW119535   2.251   4.867   3.945
 6212SOL    HW219536   2.252   4.714   4.003
 6213SOL     OW19537   4.759   6.650   6.998
 6213SOL    HW119538   4.662   6.672   6.986
 6213SOL    HW219539   4.791   6.597   6.919
 6214SOL     OW19540   5.910   5.603   5.609
 6214SOL    HW119541   5.959   5.688   5.627
 6214SOL    HW219542   5.837   5.593   5.676
 6215SOL     OW19543   4.022   2.974   6.039
 6215SOL    HW119544   4.005   3.069   6.013
 6215SOL    HW219545   4.114   2.965   6.078
 6216SOL     OW19546   5.829   2.430   3.022
 6216SOL    HW119547   5.749   2.376   2.996
 6216SOL    HW219548   5.815   2.525   2.993
 6217SOL     OW19549   0.976   5.284   2.083
 6217SOL    HW119550   0.988   5.253   2.178
 6217SOL    HW219551   1.066   5.298   2.041
 6218SOL     OW19552   3.835   6.376   0.226
 6218SOL    HW119553   3.872   6.350   0.315
 6218SOL    HW219554   3.847   6.474   0.212
 6219SOL     OW19555   1.881   0.891   5.457
 6219SOL    HW119556   1.975   0.913   5.484
 6219SOL    HW219557   1.826   0.975   5.456
 6220SOL     OW19558   3.159   0.707   6.894
 6220SOL    HW119559   3.085   0.643   6.914
 6220SOL    HW219560   3.214   0.721   6.976
 6221SOL     OW19561   6.357   6.440   6.467
 6221SOL    HW119562   6.448   6.422   6.504
 6221SOL    HW219563   6.328   6.362   6.411
 6222SOL     OW19564   6.056   0.431   2.373
 6222SOL    HW119565   6.036   0.343   2.416
 6222SOL    HW219566   6.149   0.430   2.337
 6223SOL     OW19567   0.975   5.469   3.392
 6223SOL    HW119568   1.058   5.414   3.395
 6223SOL    HW219569   0.953   5.500   3.485
 6224SOL     OW19570   4.123   1.371   5.612
 6224SOL    HW119571   4.024   1.385   5.613
 6224SOL    HW219572   4.158   1.375   5.706
 6225SOL     OW19573   3.822   2.533   6.717
 6225SOL    HW119574   3.774   2.474   6.782
 6225SOL    HW219575   3.779   2.623   6.716
 6226SOL     OW19576   1.047   1.413   3.566
 6226SOL    HW119577   0.973   1.425   3.500
 6226SOL    HW219578   1.097   1.500   3.576
 6227SOL     OW19579   3.089   4.598   5.359
 6227SOL    HW119580   3.120   4.506   5.384
 6227SOL    HW219581   3.024   4.592   5.283
 6228SOL     OW19582   0.613   2.441   4.002
 6228SOL    HW119583   0.659   2.353   3.989
 6228SOL    HW219584   0.517   2.425   4.024
 6229SOL     OW19585   0.094   2.914   5.279
 6229SOL    HW119586   0.179   2.904   5.227
 6229SOL    HW219587   0.073   2.829   5.327
 6230SOL     OW19588   1.243   1.991   3.594
 6230SOL    HW119589   1.312   1.937   3.546
 6230SOL    HW219590   1.166   2.009   3.533
 6231SOL     OW19591   5.387   5.525   0.641
 6231SOL    HW119592   5.442   5.541   0.559
 6231SOL    HW219593   5.438   5.466   0.704
 6232SOL     OW19594   5.938   1.305   0.627
 6232SOL    HW119595   5.938   1.234   0.698
 6232SOL    HW219596   6.011   1.286   0.561
 6233SOL     OW19597   6.992   3.615   1.916
 6233SOL    HW119598   0.016   3.536   1.948
 6233SOL    HW219599   0.008   3.657   1.838
 6234SOL     OW19600   0.281   0.348   5.168
 6234SOL    HW119601   0.319   0.398   5.245
 6234SOL    HW219602   0.228   0.270   5.202
 6235SOL     OW19603   6.985   1.003   1.899
 6235SOL    HW119604   6.953   0.919   1.857
 6235SOL    HW219605   6.929   1.080   1.868
 6236SOL     OW19606   6.867   4.358   0.666
 6236SOL    HW119607   6.862   4.274   0.611
 6236SOL    HW219608   6.912   4.338   0.753
 6237SOL     OW19609   3.317   6.806   0.155
 6237SOL    HW119610   3.417   6.810   0.159
 6237SOL    HW219611   3.289   6.718   0.118
 6238SOL     OW19612   3.832   6.518   3.491
 6238SOL    HW119613   3.773   6.557   3.561
 6238SOL    HW219614   3.910   6.473   3.535
 6239SOL     OW19615   3.626   0.365   1.625
 6239SOL    HW119616   3.563   0.443   1.629
 6239SOL    HW219617   3.635   0.326   1.716
 6240SOL     OW19618   3.254   3.796   4.887
 6240SOL    HW119619   3.224   3.770   4.979
 6240SOL    HW219620   3.272   3.894   4.884
 6241SOL     OW19621   4.185   0.441   4.142
 6241SOL    HW119622   4.226   0.389   4.217
 6241SOL    HW219623   4.086   0.425   4.140
 6242SOL     OW19624   2.396   1.228   3.731
 6242SOL    HW119625   2.447   1.269   3.807
 6242SOL    HW219626   2.330   1.295   3.696
 6243SOL     OW19627   6.699   0.885   5.497
 6243SOL    HW119628   6.744   0.951   5.435
 6243SOL    HW219629   6.769   0.838   5.551
 6244SOL     OW19630   4.950   4.158   3.318
 6244SOL    HW119631   4.899   4.193   3.397
 6244SOL    HW219632   5.032   4.213   3.304
 6245SOL     OW19633   0.864   5.265   1.807
 6245SOL    HW119634   0.859   5.278   1.906
 6245SOL    HW219635   0.897   5.349   1.763
 6246SOL     OW19636   1.010   0.836   4.317
 6246SOL    HW119637   0.978   0.830   4.412
 6246SOL    HW219638   0.956   0.774   4.260
 6247SOL     OW19639   1.154   5.850   3.307
 6247SOL    HW119640   1.210   5.931   3.289
 6247SOL    HW219641   1.212   5.778   3.345
 6248SOL     OW19642   3.332   3.753   0.135
 6248SOL    HW119643   3.317   3.682   0.204
 6248SOL    HW219644   3.328   3.843   0.179
 6249SOL     OW19645   6.983   2.707   1.672
 6249SOL    HW119646   7.015   2.690   1.765
 6249SOL    HW219647   6.980   2.620   1.622
 6250SOL     OW19648   6.964   6.327   0.778
 6250SOL    HW119649   0.002   6.375   0.833
 6250SOL    HW219650   6.873   6.340   0.818
 6251SOL     OW19651   3.940   5.959   4.251
 6251SOL    HW119652   3.864   5.984   4.191
 6251SOL    HW219653   3.956   6.033   4.317
 6252SOL     OW19654   2.862   4.890   0.320
 6252SOL    HW119655   2.851   4.989   0.330
 6252SOL    HW219656   2.959   4.868   0.310
 6253SOL     OW19657   2.350   4.979   4.862
 6253SOL    HW119658   2.411   5.058   4.859
 6253SOL    HW219659   2.290   4.979   4.782
 6254SOL     OW19660   0.817   6.278   1.093
 6254SOL    HW119661   0.853   6.274   1.186
 6254SOL    HW219662   0.719   6.295   1.097
 6255SOL     OW19663   1.644   2.746   0.663
 6255SOL    HW119664   1.696   2.673   0.706
 6255SOL    HW219665   1.706   2.822   0.641
 6256SOL     OW19666   4.748   5.092   2.655
 6256SOL    HW119667   4.777   5.003   2.619
 6256SOL    HW219668   4.773   5.098   2.752
 6257SOL     OW19669   4.239   3.180   0.298
 6257SOL    HW119670   4.337   3.168   0.282
 6257SOL    HW219671   4.220   3.174   0.396
 6258SOL     OW19672   3.442   0.035   5.392
 6258SOL    HW119673   3.487   7.017   5.468
 6258SOL    HW219674   3.348   0.003   5.384
 6259SOL     OW19675   1.830   1.570   6.043
 6259SOL    HW119676   1.805   1.478   6.075
 6259SOL    HW219677   1.805   1.637   6.113
 6260SOL     OW19678   2.028   0.514   1.013
 6260SOL    HW119679   1.966   0.457   1.068
 6260SOL    HW219680   2.047   0.468   0.926
 6261SOL     OW19681   5.365   6.676   0.892
 6261SOL    HW119682   5.333   6.618   0.817
 6261SOL    HW219683   5.314   6.762   0.892
 6262SOL     OW19684   0.469   6.272   2.997
 6262SOL    HW119685   0.558   6.296   3.036
 6262SOL    HW219686   0.441   6.182   3.030
 6263SOL     OW19687   6.912   6.529   5.008
 6263SOL    HW119688   6.904   6.621   4.968
 6263SOL    HW219689   6.948   6.466   4.939
 6264SOL     OW19690   1.136   6.809   0.971
 6264SOL    HW119691   1.057   6.865   0.948
 6264SOL    HW219692   1.183   6.847   1.050
 6265SOL     OW19693   4.079   2.293   0.420
 6265SOL    HW119694   4.049   2.381   0.382
 6265SOL    HW219695   4.001   2.247   0.462
 6266SOL     OW19696   3.733   6.731   3.353
 6266SOL    HW119697   3.785   6.649   3.378
 6266SOL    HW219698   3.648   6.704   3.307
 6267SOL     OW19699   1.418   6.566   5.193
 6267SOL    HW119700   1.425   6.659   5.229
 6267SOL    HW219701   1.326   6.531   5.207
 6268SOL     OW19702   3.319   0.422   2.263
 6268SOL    HW119703   3.383   0.406   2.338
 6268SOL    HW219704   3.327   0.517   2.233
 6269SOL     OW19705   5.539   6.228   1.326
 6269SOL    HW119706   5.481   6.278   1.391
 6269SOL    HW219707   5.538   6.131   1.349
 6270SOL     OW19708   0.725   6.102   0.162
 6270SOL    HW119709   0.684   6.131   0.075
 6270SOL    HW219710   0.656   6.110   0.235
 6271SOL     OW19711   6.008   2.568   6.719
 6271SOL    HW119712   6.101   2.573   6.685
 6271SOL    HW219713   5.999   2.623   6.802
 6272SOL     OW19714   0.458   0.354   0.124
 6272SOL    HW119715   0.495   0.329   0.214
 6272SOL    HW219716   0.433   0.271   0.074
 6273SOL     OW19717   0.896   6.529   3.493
 6273SOL    HW119718   0.996   6.524   3.496
 6273SOL    HW219719   0.857   6.468   3.562
 6274SOL     OW19720   2.645   6.505   4.620
 6274SOL    HW119721   2.619   6.601   4.621
 6274SOL    HW219722   2.568   6.449   4.650
 6275SOL     OW19723   2.297   6.113   0.407
 6275SOL    HW119724   2.245   6.138   0.325
 6275SOL    HW219725   2.319   6.016   0.404
 6276SOL     OW19726   3.395   5.960   3.388
 6276SOL    HW119727   3.494   5.947   3.403
 6276SOL    HW219728   3.359   5.879   3.342
 6277SOL     OW19729   4.997   1.868   1.251
 6277SOL    HW119730   4.942   1.794   1.211
 6277SOL    HW219731   5.060   1.830   1.319
 6278SOL     OW19732   3.467   0.531   5.784
 6278SOL    HW119733   3.566   0.523   5.779
 6278SOL    HW219734   3.426   0.494   5.701
 6279SOL     OW19735   3.661   6.202   0.630
 6279SOL    HW119736   3.736   6.241   0.576
 6279SOL    HW219737   3.640   6.263   0.707
 6280SOL     OW19738   0.063   1.370   6.601
 6280SOL    HW119739   6.995   1.370   6.583
 6280SOL    HW219740   0.091   1.458   6.640
 6281SOL     OW19741   5.835   5.022   3.730
 6281SOL    HW119742   5.912   5.028   3.666
 6281SOL    HW219743   5.846   4.940   3.787
 6282SOL     OW19744   5.921   3.669   5.037
 6282SOL    HW119745   5.869   3.617   5.104
 6282SOL    HW219746   5.876   3.663   4.948
 6283SOL     OW19747   0.913   5.195   4.458
 6283SOL    HW119748   0.894   5.264   4.387
 6283SOL    HW219749   0.892   5.234   4.548
 6284SOL     OW19750   1.271   5.345   6.545
 6284SOL    HW119751   1.234   5.420   6.490
 6284SOL    HW219752   1.267   5.370   6.642
 6285SOL     OW19753   1.582   3.705   3.616
 6285SOL    HW119754   1.605   3.608   3.625
 6285SOL    HW219755   1.608   3.753   3.700
 6286SOL     OW19756   6.452   3.436   4.429
 6286SOL    HW119757   6.481   3.500   4.359
 6286SOL    HW219758   6.392   3.366   4.389
 6287SOL     OW19759   3.988   4.790   5.551
 6287SOL    HW119760   3.908   4.785   5.490
 6287SOL    HW219761   4.028   4.882   5.545
 6288SOL     OW19762   3.984   4.080   1.154
 6288SOL    HW119763   3.996   4.175   1.125
 6288SOL    HW219764   3.890   4.066   1.184
 6289SOL     OW19765   2.326   4.121   6.971
 6289SOL    HW119766   2.258   4.144   6.902
 6289SOL    HW219767   2.395   4.194   6.975
 6290SOL     OW19768   6.590   5.148   6.651
 6290SOL    HW119769   6.631   5.142   6.742
 6290SOL    HW219770   6.582   5.056   6.613
 6291SOL     OW19771   4.028   3.079   2.971
 6291SOL    HW119772   3.968   3.096   3.049
 6291SOL    HW219773   4.035   3.161   2.915
 6292SOL     OW19774   2.297   2.395   4.645
 6292SOL    HW119775   2.198   2.388   4.640
 6292SOL    HW219776   2.338   2.310   4.612
 6293SOL     OW19777   4.562   1.753   0.523
 6293SOL    HW119778   4.578   1.773   0.619
 6293SOL    HW219779   4.552   1.839   0.472
 6294SOL     OW19780   4.105   0.415   3.376
 6294SOL    HW119781   4.190   0.462   3.354
 6294SOL    HW219782   4.044   0.478   3.425
 6295SOL     OW19783   5.378   5.117   5.032
 6295SOL    HW119784   5.445   5.044   5.048
 6295SOL    HW219785   5.413   5.202   5.070
 6296SOL     OW19786   0.564   4.182   5.625
 6296SOL    HW119787   0.622   4.143   5.696
 6296SOL    HW219788   0.614   4.253   5.576
 6297SOL     OW19789   6.061   0.003   5.177
 6297SOL    HW119790   6.000   6.998   5.248
 6297SOL    HW219791   6.007   0.050   5.107
 6298SOL     OW19792   6.676   4.921   6.538
 6298SOL    HW119793   6.665   4.849   6.608
 6298SOL    HW219794   6.667   4.880   6.447
 6299SOL     OW19795   5.712   2.662   2.351
 6299SOL    HW119796   5.614   2.678   2.362
 6299SOL    HW219797   5.732   2.647   2.254
 6300SOL     OW19798   4.355   1.193   6.691
 6300SOL    HW119799   4.316   1.129   6.625
 6300SOL    HW219800   4.281   1.246   6.732
 6301SOL     OW19801   3.082   6.521   6.586
 6301SOL    HW119802   3.117   6.575   6.510
 6301SOL    HW219803   3.002   6.566   6.625
 6302SOL     OW19804   2.214   1.725   5.302
 6302SOL    HW119805   2.298   1.717   5.249
 6302SOL    HW219806   2.237   1.742   5.398
 6303SOL     OW19807   1.105   6.709   5.546
 6303SOL    HW119808   1.196   6.745   5.526
 6303SOL    HW219809   1.109   6.650   5.626
 6304SOL     OW19810   3.874   1.902   3.320
 6304SOL    HW119811   3.856   1.991   3.277
 6304SOL    HW219812   3.875   1.831   3.249
 6305SOL     OW19813   6.176   6.106   6.929
 6305SOL    HW119814   6.112   6.151   6.992
 6305SOL    HW219815   6.251   6.169   6.907
 6306SOL     OW19816   0.672   3.152   3.668
 6306SOL    HW119817   0.708   3.206   3.592
 6306SOL    HW219818   0.626   3.213   3.732
 6307SOL     OW19819   3.471   3.284   4.326
 6307SOL    HW119820   3.544   3.342   4.290
 6307SOL    HW219821   3.383   3.312   4.287
 6308SOL     OW19822   0.500   1.987   5.760
 6308SOL    HW119823   0.430   2.034   5.813
 6308SOL    HW219824   0.457   1.931   5.690
 6309SOL     OW19825   0.255   6.846   4.299
 6309SOL    HW119826   0.173   6.833   4.354
 6309SOL    HW219827   0.284   6.758   4.260
 6310SOL     OW19828   1.997   6.666   2.946
 6310SOL    HW119829   2.000   6.693   3.042
 6310SOL    HW219830   1.908   6.691   2.907
 6311SOL     OW19831   5.133   1.040   6.853
 6311SOL    HW119832   5.156   1.077   6.944
 6311SOL    HW219833   5.194   0.964   6.832
 6312SOL     OW19834   1.637   6.800   6.533
 6312SOL    HW119835   1.699   6.797   6.454
 6312SOL    HW219836   1.662   6.877   6.592
 6313SOL     OW19837   5.625   6.813   3.629
 6313SOL    HW119838   5.642   6.729   3.679
 6313SOL    HW219839   5.650   6.801   3.533
 6314SOL     OW19840   3.773   0.092   1.220
 6314SOL    HW119841   3.750   0.175   1.169
 6314SOL    HW219842   3.754   0.107   1.317
 6315SOL     OW19843   2.205   2.067   4.844
 6315SOL    HW119844   2.296   2.093   4.874
 6315SOL    HW219845   2.210   2.027   4.752
 6316SOL     OW19846   4.781   1.771   5.907
 6316SOL    HW119847   4.861   1.779   5.966
 6316SOL    HW219848   4.721   1.700   5.943
 6317SOL     OW19849   5.546   3.941   3.066
 6317SOL    HW119850   5.601   3.937   3.149
 6317SOL    HW219851   5.601   3.909   2.988
 6318SOL     OW19852   5.868   0.541   0.042
 6318SOL    HW119853   5.813   0.482   0.101
 6318SOL    HW219854   5.933   0.485   7.021
 6319SOL     OW19855   5.642   1.904   4.627
 6319SOL    HW119856   5.735   1.911   4.590
 6319SOL    HW219857   5.617   1.991   4.670
 6320SOL     OW19858   0.088   0.394   3.571
 6320SOL    HW119859   0.069   0.477   3.519
 6320SOL    HW219860   0.048   0.315   3.525
 6321SOL     OW19861   5.148   3.986   0.280
 6321SOL    HW119862   5.201   4.038   0.213
 6321SOL    HW219863   5.201   3.906   0.309
 6322SOL     OW19864   2.606   1.655   0.654
 6322SOL    HW119865   2.635   1.652   0.558
 6322SOL    HW219866   2.509   1.679   0.659
 6323SOL     OW19867   1.836   3.303   1.465
 6323SOL    HW119868   1.775   3.252   1.404
 6323SOL    HW219869   1.844   3.255   1.552
 6324SOL     OW19870   4.322   1.632   0.703
 6324SOL    HW119871   4.292   1.598   0.614
 6324SOL    HW219872   4.400   1.693   0.690
 6325SOL     OW19873   1.309   2.548   2.850
 6325SOL    HW119874   1.396   2.498   2.842
 6325SOL    HW219875   1.291   2.596   2.765
 6326SOL     OW19876   4.625   5.354   5.634
 6326SOL    HW119877   4.575   5.355   5.547
 6326SOL    HW219878   4.688   5.277   5.635
 6327SOL     OW19879   0.131   1.591   3.450
 6327SOL    HW119880   0.097   1.589   3.544
 6327SOL    HW219881   0.101   1.676   3.406
 6328SOL     OW19882   5.067   4.066   6.945
 6328SOL    HW119883   5.004   4.036   7.016
 6328SOL    HW219884   5.157   4.024   6.959
 6329SOL     OW19885   0.902   2.720   4.571
 6329SOL    HW119886   0.966   2.727   4.495
 6329SOL    HW219887   0.851   2.634   4.564
 6330SOL     OW19888   5.954   0.868   2.865
 6330SOL    HW119889   5.873   0.811   2.850
 6330SOL    HW219890   5.978   0.866   2.962
 6331SOL     OW19891   6.466   3.013   4.899
 6331SOL    HW119892   6.393   3.058   4.951
 6331SOL    HW219893   6.426   2.945   4.837
 6332SOL     OW19894   1.000   1.997   1.422
 6332SOL    HW119895   0.921   2.028   1.370
 6332SOL    HW219896   1.074   1.971   1.360
 6333SOL     OW19897   5.240   0.180   6.772
 6333SOL    HW119898   5.323   0.234   6.785
 6333SOL    HW219899   5.170   0.211   6.837
 6334SOL     OW19900   2.534   1.696   1.595
 6334SOL    HW119901   2.523   1.660   1.503
 6334SOL    HW219902   2.448   1.737   1.625
 6335SOL     OW19903   4.805   1.426   0.736
 6335SOL    HW119904   4.877   1.380   0.685
 6335SOL    HW219905   4.818   1.525   0.732
 6336SOL     OW19906   6.943   4.171   6.576
 6336SOL    HW119907   0.005   4.205   6.553
 6336SOL    HW219908   6.951   4.081   6.618
 6337SOL     OW19909   4.392   5.994   5.195
 6337SOL    HW119910   4.454   5.971   5.120
 6337SOL    HW219911   4.306   6.027   5.158
 6338SOL     OW19912   2.880   1.378   4.573
 6338SOL    HW119913   2.970   1.348   4.540
 6338SOL    HW219914   2.864   1.341   4.665
 6339SOL     OW19915   1.336   3.537   2.977
 6339SOL    HW119916   1.316   3.558   2.881
 6339SOL    HW219917   1.366   3.442   2.984
 6340SOL     OW19918   2.341   3.881   1.264
 6340SOL    HW119919   2.379   3.791   1.285
 6340SOL    HW219920   2.331   3.891   1.165
 6341SOL     OW19921   0.999   3.527   3.283
 6341SOL    HW119922   1.079   3.579   3.311
 6341SOL    HW219923   1.016   3.484   3.194
 6342SOL     OW19924   3.440   1.370   1.041
 6342SOL    HW119925   3.479   1.386   0.950
 6342SOL    HW219926   3.342   1.389   1.039
 6343SOL     OW19927   3.855   6.776   6.960
 6343SOL    HW119928   3.857   6.756   0.029
 6343SOL    HW219929   3.787   6.847   6.942
 6344SOL     OW19930   5.969   2.206   4.081
 6344SOL    HW119931   5.960   2.161   3.992
 6344SOL    HW219932   5.972   2.305   4.067
 6345SOL     OW19933   5.147   3.294   1.797
 6345SOL    HW119934   5.100   3.370   1.841
 6345SOL    HW219935   5.085   3.215   1.791
 6346SOL     OW19936   6.639   4.322   5.160
 6346SOL    HW119937   6.679   4.413   5.152
 6346SOL    HW219938   6.654   4.271   5.075
 6347SOL     OW19939   2.893   1.731   2.099
 6347SOL    HW119940   2.832   1.656   2.127
 6347SOL    HW219941   2.854   1.777   2.020
 6348SOL     OW19942   0.818   1.716   5.714
 6348SOL    HW119943   0.870   1.659   5.777
 6348SOL    HW219944   0.833   1.685   5.620
 6349SOL     OW19945   1.398   0.382   0.218
 6349SOL    HW119946   1.460   0.438   0.272
 6349SOL    HW219947   1.443   0.354   0.133
 6350SOL     OW19948   0.787   4.994   2.869
 6350SOL    HW119949   0.817   4.901   2.845
 6350SOL    HW219950   0.687   4.994   2.882
 6351SOL     OW19951   6.350   3.903   3.953
 6351SOL    HW119952   6.367   3.997   3.924
 6351SOL    HW219953   6.257   3.876   3.929
 6352SOL     OW19954   2.953   0.989   3.878
 6352SOL    HW119955   2.903   1.064   3.920
 6352SOL    HW219956   3.047   0.988   3.911
 6353SOL     OW19957   2.594   5.240   0.385
 6353SOL    HW119958   2.681   5.193   0.372
 6353SOL    HW219959   2.528   5.177   0.427
 6354SOL     OW19960   4.453   5.777   2.921
 6354SOL    HW119961   4.407   5.801   2.835
 6354SOL    HW219962   4.420   5.689   2.954
 6355SOL     OW19963   3.079   5.685   0.757
 6355SOL    HW119964   3.051   5.774   0.792
 6355SOL    HW219965   3.164   5.656   0.802
 6356SOL     OW19966   5.519   4.898   0.077
 6356SOL    HW119967   5.583   4.832   0.037
 6356SOL    HW219968   5.536   4.906   0.175
 6357SOL     OW19969   5.992   3.041   1.812
 6357SOL    HW119970   5.901   3.065   1.845
 6357SOL    HW219971   5.990   3.033   1.712
 6358SOL     OW19972   0.656   1.925   6.875
 6358SOL    HW119973   0.631   1.831   6.897
 6358SOL    HW219974   0.741   1.948   6.923
 6359SOL     OW19975   5.881   6.657   0.425
 6359SOL    HW119976   5.917   6.732   0.370
 6359SOL    HW219977   5.891   6.679   0.522
 6360SOL     OW19978   0.391   3.055   3.822
 6360SOL    HW119979   0.434   3.001   3.749
 6360SOL    HW219980   0.463   3.094   3.880
 6361SOL     OW19981   0.617   0.831   0.458
 6361SOL    HW119982   0.592   0.735   0.461
 6361SOL    HW219983   0.541   0.887   0.491
 6362SOL     OW19984   1.582   6.329   6.800
 6362SOL    HW119985   1.634   6.244   6.787
 6362SOL    HW219986   1.604   6.393   6.727
 6363SOL     OW19987   2.426   4.629   3.960
 6363SOL    HW119988   2.411   4.690   3.882
 6363SOL    HW219989   2.508   4.658   4.010
 6364SOL     OW19990   2.378   1.756   4.940
 6364SOL    HW119991   2.404   1.853   4.941
 6364SOL    HW219992   2.428   1.708   4.868
 6365SOL     OW19993   6.198   5.888   5.072
 6365SOL    HW119994   6.226   5.806   5.023
 6365SOL    HW219995   6.210   5.874   5.170
 6366SOL     OW19996   6.720   6.746   4.771
 6366SOL    HW119997   6.656   6.740   4.848
 6366SOL    HW219998   6.681   6.803   4.699
 6367SOL     OW19999   3.173   1.795   2.504
 6367SOL    HW120000   3.173   1.874   2.565
 6367SOL    HW220001   3.238   1.811   2.429
 6368SOL     OW20002   4.427   4.564   4.532
 6368SOL    HW120003   4.497   4.598   4.594
 6368SOL    HW220004   4.349   4.627   4.531
 6369SOL     OW20005   2.063   6.404   5.160
 6369SOL    HW120006   2.042   6.349   5.079
 6369SOL    HW220007   2.156   6.382   5.192
 6370SOL     OW20008   4.844   4.100   3.603
 6370SOL    HW120009   4.796   4.155   3.535
 6370SOL    HW220010   4.830   4.003   3.583
 6371SOL     OW20011   5.416   4.027   1.812
 6371SOL    HW120012   5.342   4.083   1.849
 6371SOL    HW220013   5.485   4.012   1.882
 6372SOL     OW20014   0.132   0.877   2.549
 6372SOL    HW120015   0.219   0.921   2.571
 6372SOL    HW220016   0.146   0.778   2.538
 6373SOL     OW20017   6.019   3.832   2.138
 6373SOL    HW120018   5.925   3.858   2.163
 6373SOL    HW220019   6.076   3.914   2.138
 6374SOL     OW20020   4.019   2.861   0.196
 6374SOL    HW120021   3.946   2.849   0.263
 6374SOL    HW220022   4.087   2.788   0.206
 6375SOL     OW20023   1.107   2.807   2.508
 6375SOL    HW120024   1.162   2.867   2.450
 6375SOL    HW220025   1.164   2.735   2.546
 6376SOL     OW20026   4.069   1.694   5.934
 6376SOL    HW120027   4.031   1.636   5.861
 6376SOL    HW220028   4.148   1.648   5.975
 6377SOL     OW20029   6.858   0.981   5.817
 6377SOL    HW120030   6.866   1.071   5.775
 6377SOL    HW220031   6.821   0.991   5.910
 6378SOL     OW20032   4.866   5.854   3.567
 6378SOL    HW120033   4.820   5.902   3.642
 6378SOL    HW220034   4.809   5.859   3.485
 6379SOL     OW20035   1.156   4.404   5.280
 6379SOL    HW120036   1.131   4.312   5.310
 6379SOL    HW220037   1.183   4.460   5.358
 6380SOL     OW20038   0.673   3.033   4.195
 6380SOL    HW120039   0.644   3.026   4.291
 6380SOL    HW220040   0.752   2.973   4.180
 6381SOL     OW20041   4.030   2.552   0.346
 6381SOL    HW120042   4.025   2.599   0.435
 6381SOL    HW220043   4.095   2.600   0.287
 6382SOL     OW20044   2.626   1.582   1.193
 6382SOL    HW120045   2.570   1.624   1.122
 6382SOL    HW220046   2.580   1.501   1.229
 6383SOL     OW20047   1.119   2.442   2.382
 6383SOL    HW120048   1.215   2.460   2.406
 6383SOL    HW220049   1.086   2.515   2.321
 6384SOL     OW20050   5.825   2.572   2.588
 6384SOL    HW120051   5.866   2.481   2.576
 6384SOL    HW220052   5.779   2.599   2.503
 6385SOL     OW20053   6.391   4.038   1.538
 6385SOL    HW120054   6.392   3.946   1.497
 6385SOL    HW220055   6.375   4.106   1.466
 6386SOL     OW20056   1.416   4.326   0.688
 6386SOL    HW120057   1.509   4.293   0.675
 6386SOL    HW220058   1.402   4.351   0.785
 6387SOL     OW20059   6.149   1.163   0.435
 6387SOL    HW120060   6.204   1.182   0.517
 6387SOL    HW220061   6.182   1.220   0.360
 6388SOL     OW20062   6.659   4.644   2.672
 6388SOL    HW120063   6.757   4.662   2.677
 6388SOL    HW220064   6.609   4.730   2.667
 6389SOL     OW20065   1.799   6.579   0.866
 6389SOL    HW120066   1.842   6.661   0.904
 6389SOL    HW220067   1.719   6.605   0.812
 6390SOL     OW20068   6.141   0.594   6.813
 6390SOL    HW120069   6.091   0.509   6.823
 6390SOL    HW220070   6.217   0.580   6.750
 6391SOL     OW20071   1.504   1.360   6.119
 6391SOL    HW120072   1.460   1.313   6.195
 6391SOL    HW220073   1.475   1.456   6.116
 6392SOL     OW20074   3.186   5.971   3.995
 6392SOL    HW120075   3.219   5.945   4.085
 6392SOL    HW220076   3.185   6.071   3.987
 6393SOL     OW20077   5.518   6.231   1.825
 6393SOL    HW120078   5.482   6.137   1.829
 6393SOL    HW220079   5.518   6.262   1.730
 6394SOL     OW20080   1.588   4.878   0.984
 6394SOL    HW120081   1.555   4.788   0.953
 6394SOL    HW220082   1.524   4.914   1.053
 6395SOL     OW20083   0.006   3.773   2.405
 6395SOL    HW120084   0.078   3.788   2.473
 6395SOL    HW220085   6.968   3.846   2.412
 6396SOL     OW20086   6.685   3.807   6.062
 6396SOL    HW120087   6.669   3.778   6.157
 6396SOL    HW220088   6.601   3.844   6.024
 6397SOL     OW20089   6.086   0.934   2.162
 6397SOL    HW120090   6.069   0.880   2.244
 6397SOL    HW220091   6.080   0.875   2.081
 6398SOL     OW20092   1.072   6.723   1.535
 6398SOL    HW120093   0.994   6.668   1.566
 6398SOL    HW220094   1.050   6.764   1.446
 6399SOL     OW20095   1.863   0.330   6.928
 6399SOL    HW120096   1.960   0.319   6.950
 6399SOL    HW220097   1.824   0.240   6.908
 6400SOL     OW20098   1.914   5.412   2.576
 6400SOL    HW120099   2.005   5.446   2.550
 6400SOL    HW220100   1.852   5.489   2.589
 6401SOL     OW20101   4.763   4.717   3.088
 6401SOL    HW120102   4.840   4.742   3.030
 6401SOL    HW220103   4.677   4.742   3.043
 6402SOL     OW20104   1.583   2.843   3.657
 6402SOL    HW120105   1.621   2.905   3.726
 6402SOL    HW220106   1.484   2.856   3.651
 6403SOL     OW20107   5.392   6.535   4.788
 6403SOL    HW120108   5.459   6.484   4.734
 6403SOL    HW220109   5.302   6.526   4.746
 6404SOL     OW20110   3.760   1.316   2.431
 6404SOL    HW120111   3.739   1.257   2.509
 6404SOL    HW220112   3.853   1.352   2.440
 6405SOL     OW20113   4.644   1.603   3.954
 6405SOL    HW120114   4.726   1.558   3.921
 6405SOL    HW220115   4.570   1.592   3.886
 6406SOL     OW20116   1.180   3.206   2.612
 6406SOL    HW120117   1.186   3.140   2.688
 6406SOL    HW220118   1.097   3.188   2.559
 6407SOL     OW20119   1.854   6.459   3.395
 6407SOL    HW120120   1.885   6.531   3.457
 6407SOL    HW220121   1.762   6.481   3.362
 6408SOL     OW20122   6.656   0.655   1.213
 6408SOL    HW120123   6.607   0.627   1.131
 6408SOL    HW220124   6.604   0.628   1.294
 6409SOL     OW20125   6.405   4.868   3.485
 6409SOL    HW120126   6.330   4.906   3.540
 6409SOL    HW220127   6.399   4.904   3.392
 6410SOL     OW20128   2.347   1.394   6.459
 6410SOL    HW120129   2.426   1.452   6.442
 6410SOL    HW220130   2.282   1.404   6.383
 6411SOL     OW20131   0.547   2.941   2.033
 6411SOL    HW120132   0.633   2.967   1.990
 6411SOL    HW220133   0.471   2.974   1.977
 6412SOL     OW20134   3.058   0.673   6.476
 6412SOL    HW120135   2.989   0.701   6.543
 6412SOL    HW220136   3.053   0.733   6.396
 6413SOL     OW20137   4.037   4.887   4.448
 6413SOL    HW120138   3.954   4.881   4.392
 6413SOL    HW220139   4.098   4.810   4.425
 6414SOL     OW20140   6.963   7.016   6.558
 6414SOL    HW120141   6.916   0.037   6.487
 6414SOL    HW220142   6.932   6.921   6.558
 6415SOL     OW20143   1.597   3.225   3.216
 6415SOL    HW120144   1.568   3.129   3.216
 6415SOL    HW220145   1.691   3.231   3.182
 6416SOL     OW20146   2.863   6.917   6.408
 6416SOL    HW120147   2.793   6.978   6.373
 6416SOL    HW220148   2.829   6.871   6.490
 6417SOL     OW20149   5.214   2.414   1.138
 6417SOL    HW120150   5.154   2.368   1.203
 6417SOL    HW220151   5.270   2.345   1.091
 6418SOL     OW20152   5.376   4.260   2.669
 6418SOL    HW120153   5.325   4.323   2.727
 6418SOL    HW220154   5.318   4.229   2.594
 6419SOL     OW20155   0.504   5.471   5.311
 6419SOL    HW120156   0.549   5.447   5.398
 6419SOL    HW220157   0.535   5.408   5.240
 6420SOL     OW20158   1.680   1.876   4.040
 6420SOL    HW120159   1.715   1.910   3.952
 6420SOL    HW220160   1.642   1.784   4.027
 6421SOL     OW20161   5.181   0.366   0.910
 6421SOL    HW120162   5.238   0.425   0.853
 6421SOL    HW220163   5.085   0.381   0.888
 6422SOL     OW20164   6.950   1.482   5.608
 6422SOL    HW120165   6.891   1.415   5.654
 6422SOL    HW220166   6.966   1.560   5.668
 6423SOL     OW20167   4.344   5.722   4.911
 6423SOL    HW120168   4.384   5.662   4.982
 6423SOL    HW220169   4.245   5.717   4.916
 6424SOL     OW20170   0.825   3.173   4.598
 6424SOL    HW120171   0.855   3.242   4.663
 6424SOL    HW220172   0.728   3.186   4.577
 6425SOL     OW20173   0.390   5.302   2.766
 6425SOL    HW120174   0.450   5.379   2.747
 6425SOL    HW220175   0.318   5.296   2.696
 6426SOL     OW20176   5.670   4.963   4.131
 6426SOL    HW120177   5.762   4.947   4.167
 6426SOL    HW220178   5.665   5.056   4.094
 6427SOL     OW20179   3.071   3.971   3.393
 6427SOL    HW120180   3.075   4.007   3.486
 6427SOL    HW220181   3.151   4.000   3.342
 6428SOL     OW20182   5.511   2.888   0.025
 6428SOL    HW120183   5.518   2.896   6.955
 6428SOL    HW220184   5.602   2.871   0.063
 6429SOL     OW20185   1.288   0.660   5.298
 6429SOL    HW120186   1.192   0.686   5.309
 6429SOL    HW220187   1.313   0.595   5.370
 6430SOL     OW20188   6.567   0.694   5.037
 6430SOL    HW120189   6.484   0.689   4.981
 6430SOL    HW220190   6.551   0.756   5.114
 6431SOL     OW20191   4.601   5.326   2.757
 6431SOL    HW120192   4.650   5.256   2.704
 6431SOL    HW220193   4.566   5.285   2.841
 6432SOL     OW20194   3.579   3.992   6.148
 6432SOL    HW120195   3.498   3.951   6.189
 6432SOL    HW220196   3.606   3.939   6.068
 6433SOL     OW20197   2.923   5.370   0.179
 6433SOL    HW120198   2.987   5.410   0.244
 6433SOL    HW220199   2.967   5.361   0.090
 6434SOL     OW20200   2.303   6.701   6.135
 6434SOL    HW120201   2.209   6.675   6.156
 6434SOL    HW220202   2.314   6.707   6.035
 6435SOL     OW20203   6.294   6.968   0.323
 6435SOL    HW120204   6.389   6.991   0.343
 6435SOL    HW220205   6.243   0.021   0.302
 6436SOL     OW20206   0.886   3.283   3.446
 6436SOL    HW120207   0.979   3.318   3.445
 6436SOL    HW220208   0.824   3.351   3.407
 6437SOL     OW20209   0.778   1.889   5.324
 6437SOL    HW120210   0.717   1.933   5.390
 6437SOL    HW220211   0.738   1.895   5.233
 6438SOL     OW20212   0.967   5.043   6.033
 6438SOL    HW120213   0.867   5.037   6.026
 6438SOL    HW220214   0.995   5.140   6.035
 6439SOL     OW20215   6.395   1.189   2.665
 6439SOL    HW120216   6.383   1.132   2.745
 6439SOL    HW220217   6.335   1.158   2.591
 6440SOL     OW20218   2.615   1.100   6.801
 6440SOL    HW120219   2.567   1.158   6.735
 6440SOL    HW220220   2.679   1.040   6.754
 6441SOL     OW20221   0.011   0.975   2.783
 6441SOL    HW120222   6.990   1.059   2.761
 6441SOL    HW220223   0.054   0.940   2.701
 6442SOL     OW20224   2.695   1.946   4.678
 6442SOL    HW120225   2.663   1.852   4.673
 6442SOL    HW220226   2.697   1.976   4.773
 6443SOL     OW20227   3.594   2.267   6.176
 6443SOL    HW120228   3.539   2.350   6.187
 6443SOL    HW220229   3.629   2.263   6.082
 6444SOL     OW20230   0.073   2.644   5.013
 6444SOL    HW120231   7.020   2.606   5.055
 6444SOL    HW220232   0.152   2.622   5.070
 6445SOL     OW20233   3.708   3.283   2.968
 6445SOL    HW120234   3.673   3.202   2.921
 6445SOL    HW220235   3.634   3.327   3.017
 6446SOL     OW20236   0.890   1.969   0.012
 6446SOL    HW120237   0.959   2.034   7.011
 6446SOL    HW220238   0.925   1.916   0.088
 6447SOL     OW20239   6.922   4.340   1.864
 6447SOL    HW120240   6.866   4.281   1.805
 6447SOL    HW220241   6.984   4.284   1.918
 6448SOL     OW20242   4.926   5.224   1.344
 6448SOL    HW120243   4.849   5.170   1.310
 6448SOL    HW220244   4.894   5.284   1.418
 6449SOL     OW20245   2.514   5.083   1.598
 6449SOL    HW120246   2.536   5.001   1.545
 6449SOL    HW220247   2.529   5.065   1.695
 6450SOL     OW20248   1.141   4.088   0.309
 6450SOL    HW120249   1.188   4.004   0.280
 6450SOL    HW220250   1.199   4.138   0.373
 6451SOL     OW20251   3.296   1.768   5.877
 6451SOL    HW120252   3.311   1.742   5.972
 6451SOL    HW220253   3.271   1.865   5.872
 6452SOL     OW20254   4.841   3.928   2.578
 6452SOL    HW120255   4.777   3.975   2.639
 6452SOL    HW220256   4.907   3.877   2.632
 6453SOL     OW20257   3.162   6.780   1.123
 6453SOL    HW120258   3.091   6.710   1.133
 6453SOL    HW220259   3.179   6.822   1.212
 6454SOL     OW20260   0.422   1.628   2.073
 6454SOL    HW120261   0.426   1.665   1.980
 6454SOL    HW220262   0.337   1.659   2.117
 6455SOL     OW20263   6.350   3.687   3.693
 6455SOL    HW120264   6.424   3.660   3.631
 6455SOL    HW220265   6.275   3.622   3.686
 6456SOL     OW20266   0.946   0.588   3.087
 6456SOL    HW120267   0.945   0.500   3.135
 6456SOL    HW220268   0.853   0.613   3.061
 6457SOL     OW20269   4.871   6.801   1.833
 6457SOL    HW120270   4.936   6.788   1.758
 6457SOL    HW220271   4.915   6.776   1.919
 6458SOL     OW20272   1.383   4.730   4.713
 6458SOL    HW120273   1.469   4.779   4.700
 6458SOL    HW220274   1.382   4.686   4.803
 6459SOL     OW20275   5.849   2.151   2.830
 6459SOL    HW120276   5.865   2.099   2.746
 6459SOL    HW220277   5.751   2.168   2.841
 6460SOL     OW20278   5.974   5.633   5.983
 6460SOL    HW120279   5.968   5.720   6.033
 6460SOL    HW220280   5.883   5.593   5.974
 6461SOL     OW20281   3.281   4.867   0.032
 6461SOL    HW120282   3.377   4.870   0.061
 6461SOL    HW220283   3.256   4.954   7.019
 6462SOL     OW20284   1.004   3.042   4.199
 6462SOL    HW120285   1.033   3.123   4.149
 6462SOL    HW220286   0.968   2.974   4.135
 6463SOL     OW20287   5.469   7.030   0.590
 6463SOL    HW120288   5.449   6.940   0.551
 6463SOL    HW220289   5.425   0.008   0.679
 6464SOL     OW20290   1.212   5.527   4.878
 6464SOL    HW120291   1.149   5.604   4.866
 6464SOL    HW220292   1.298   5.561   4.916
 6465SOL     OW20293   6.058   2.533   2.075
 6465SOL    HW120294   6.082   2.464   2.006
 6465SOL    HW220295   6.096   2.506   2.164
 6466SOL     OW20296   6.953   2.389   6.470
 6466SOL    HW120297   6.856   2.405   6.454
 6466SOL    HW220298   6.965   2.298   6.510
 6467SOL     OW20299   4.428   0.938   0.473
 6467SOL    HW120300   4.456   1.031   0.497
 6467SOL    HW220301   4.410   0.886   0.557
 6468SOL     OW20302   3.822   6.129   1.435
 6468SOL    HW120303   3.764   6.167   1.363
 6468SOL    HW220304   3.917   6.150   1.417
 6469SOL     OW20305   3.266   2.088   4.199
 6469SOL    HW120306   3.239   2.147   4.123
 6469SOL    HW220307   3.365   2.095   4.213
 6470SOL     OW20308   5.555   2.590   0.620
 6470SOL    HW120309   5.457   2.609   0.623
 6470SOL    HW220310   5.570   2.491   0.627
 6471SOL     OW20311   0.777   6.482   5.091
 6471SOL    HW120312   0.818   6.472   5.000
 6471SOL    HW220313   0.848   6.475   5.160
 6472SOL     OW20314   6.194   5.810   2.516
 6472SOL    HW120315   6.287   5.824   2.481
 6472SOL    HW220316   6.183   5.714   2.544
 6473SOL     OW20317   1.773   1.627   4.808
 6473SOL    HW120318   1.830   1.569   4.749
 6473SOL    HW220319   1.828   1.662   4.884
 6474SOL     OW20320   3.815   5.452   5.788
 6474SOL    HW120321   3.904   5.408   5.784
 6474SOL    HW220322   3.804   5.513   5.710
 6475SOL     OW20323   5.763   5.189   3.930
 6475SOL    HW120324   5.811   5.138   3.859
 6475SOL    HW220325   5.664   5.184   3.913
 6476SOL     OW20326   4.333   2.933   6.361
 6476SOL    HW120327   4.280   3.013   6.332
 6476SOL    HW220328   4.349   2.939   6.460
 6477SOL     OW20329   6.777   5.347   0.756
 6477SOL    HW120330   6.870   5.357   0.719
 6477SOL    HW220331   6.718   5.306   0.687
 6478SOL     OW20332   2.605   6.233   2.038
 6478SOL    HW120333   2.592   6.274   2.128
 6478SOL    HW220334   2.600   6.304   1.967
 6479SOL     OW20335   3.135   5.218   4.420
 6479SOL    HW120336   3.215   5.187   4.369
 6479SOL    HW220337   3.069   5.260   4.358
 6480SOL     OW20338   2.115   1.472   0.217
 6480SOL    HW120339   2.035   1.450   0.273
 6480SOL    HW220340   2.153   1.388   0.179
 6481SOL     OW20341   3.352   2.462   1.722
 6481SOL    HW120342   3.280   2.393   1.720
 6481SOL    HW220343   3.441   2.418   1.731
 6482SOL     OW20344   6.522   2.321   5.813
 6482SOL    HW120345   6.592   2.250   5.817
 6482SOL    HW220346   6.438   2.287   5.855
 6483SOL     OW20347   0.857   6.410   4.017
 6483SOL    HW120348   0.891   6.451   3.933
 6483SOL    HW220349   0.778   6.462   4.051
 6484SOL     OW20350   2.535   1.533   2.516
 6484SOL    HW120351   2.562   1.438   2.529
 6484SOL    HW220352   2.570   1.589   2.592
 6485SOL     OW20353   2.294   5.848   4.232
 6485SOL    HW120354   2.230   5.894   4.294
 6485SOL    HW220355   2.387   5.881   4.249
 6486SOL     OW20356   0.541   5.073   2.773
 6486SOL    HW120357   0.620   5.115   2.730
 6486SOL    HW220358   0.462   5.134   2.765
 6487SOL     OW20359   1.060   6.372   4.315
 6487SOL    HW120360   1.026   6.425   4.392
 6487SOL    HW220361   1.134   6.422   4.269
 6488SOL     OW20362   4.728   5.923   5.274
 6488SOL    HW120363   4.641   5.885   5.243
 6488SOL    HW220364   4.749   6.006   5.223
 6489SOL     OW20365   3.009   3.317   6.312
 6489SOL    HW120366   2.949   3.342   6.388
 6489SOL    HW220367   3.103   3.340   6.334
 6490SOL     OW20368   2.476   1.752   6.570
 6490SOL    HW120369   2.507   1.826   6.630
 6490SOL    HW220370   2.406   1.699   6.618
 6491SOL     OW20371   2.435   0.682   1.574
 6491SOL    HW120372   2.484   0.633   1.646
 6491SOL    HW220373   2.377   0.753   1.615
 6492SOL     OW20374   4.007   3.957   4.463
 6492SOL    HW120375   4.028   3.862   4.486
 6492SOL    HW220376   3.993   4.008   4.548
 6493SOL     OW20377   1.410   4.789   6.278
 6493SOL    HW120378   1.326   4.828   6.318
 6493SOL    HW220379   1.483   4.794   6.346
 6494SOL     OW20380   6.390   6.558   2.437
 6494SOL    HW120381   6.352   6.520   2.353
 6494SOL    HW220382   6.321   6.613   2.483
 6495SOL     OW20383   7.006   0.087   4.544
 6495SOL    HW120384   0.004   0.079   4.639
 6495SOL    HW220385   0.057   0.103   4.486
 6496SOL     OW20386   5.416   6.595   1.139
 6496SOL    HW120387   5.377   6.624   1.052
 6496SOL    HW220388   5.389   6.659   1.211
 6497SOL     OW20389   1.042   0.963   0.909
 6497SOL    HW120390   1.088   1.023   0.843
 6497SOL    HW220391   1.039   1.008   0.998
 6498SOL     OW20392   0.762   3.739   4.071
 6498SOL    HW120393   0.838   3.790   4.033
 6498SOL    HW220394   0.796   3.654   4.112
 6499SOL     OW20395   5.440   3.825   4.718
 6499SOL    HW120396   5.367   3.769   4.680
 6499SOL    HW220397   5.413   3.857   4.809
 6500SOL     OW20398   0.437   4.335   1.954
 6500SOL    HW120399   0.439   4.421   2.005
 6500SOL    HW220400   0.482   4.348   1.866
 6501SOL     OW20401   0.223   1.013   1.163
 6501SOL    HW120402   0.279   1.026   1.081
 6501SOL    HW220403   0.259   0.937   1.216
 6502SOL     OW20404   6.582   3.531   1.504
 6502SOL    HW120405   6.576   3.474   1.587
 6502SOL    HW220406   6.651   3.602   1.518
 6503SOL     OW20407   5.955   0.469   4.362
 6503SOL    HW120408   5.911   0.440   4.447
 6503SOL    HW220409   6.045   0.509   4.383
 6504SOL     OW20410   4.971   6.618   6.601
 6504SOL    HW120411   4.905   6.594   6.673
 6504SOL    HW220412   4.970   6.718   6.588
 6505SOL     OW20413   5.338   6.718   6.822
 6505SOL    HW120414   5.318   6.721   6.724
 6505SOL    HW220415   5.428   6.758   6.838
 6506SOL     OW20416   7.025   3.324   3.575
 6506SOL    HW120417   0.000   3.327   3.476
 6506SOL    HW220418   0.054   3.251   3.610
 6507SOL     OW20419   2.720   5.711   6.209
 6507SOL    HW120420   2.670   5.797   6.218
 6507SOL    HW220421   2.815   5.725   6.237
 6508SOL     OW20422   2.004   0.230   2.868
 6508SOL    HW120423   2.042   0.311   2.823
 6508SOL    HW220424   2.025   0.233   2.965
 6509SOL     OW20425   5.292   1.286   5.252
 6509SOL    HW120426   5.300   1.243   5.342
 6509SOL    HW220427   5.197   1.309   5.234
 6510SOL     OW20428   4.185   5.281   6.804
 6510SOL    HW120429   4.258   5.251   6.865
 6510SOL    HW220430   4.100   5.235   6.828
 6511SOL     OW20431   4.208   0.833   5.459
 6511SOL    HW120432   4.237   0.912   5.403
 6511SOL    HW220433   4.112   0.814   5.442
 6512SOL     OW20434   3.006   6.763   2.733
 6512SOL    HW120435   3.058   6.812   2.802
 6512SOL    HW220436   2.953   6.691   2.776
 6513SOL     OW20437   2.354   6.120   4.097
 6513SOL    HW120438   2.408   6.047   4.140
 6513SOL    HW220439   2.409   6.203   4.091
 6514SOL     OW20440   5.788   0.409   4.569
 6514SOL    HW120441   5.714   0.475   4.582
 6514SOL    HW220442   5.751   0.317   4.568
 6515SOL     OW20443   1.618   3.741   2.448
 6515SOL    HW120444   1.683   3.779   2.382
 6515SOL    HW220445   1.527   3.778   2.430
 6516SOL     OW20446   6.453   3.385   2.020
 6516SOL    HW120447   6.552   3.385   2.032
 6516SOL    HW220448   6.412   3.320   2.085
 6517SOL     OW20449   0.358   1.911   0.932
 6517SOL    HW120450   0.277   1.933   0.986
 6517SOL    HW220451   0.384   1.989   0.876
 6518SOL     OW20452   6.719   0.382   2.396
 6518SOL    HW120453   6.694   0.473   2.431
 6518SOL    HW220454   6.647   0.317   2.418
 6519SOL     OW20455   0.617   0.716   3.353
 6519SOL    HW120456   0.707   0.749   3.324
 6519SOL    HW220457   0.559   0.700   3.273
 6520SOL     OW20458   0.358   5.489   6.770
 6520SOL    HW120459   0.268   5.527   6.746
 6520SOL    HW220460   0.421   5.564   6.790
 6521SOL     OW20461   1.355   2.697   3.258
 6521SOL    HW120462   1.453   2.678   3.268
 6521SOL    HW220463   1.321   2.651   3.175
 6522SOL     OW20464   2.308   4.327   5.405
 6522SOL    HW120465   2.399   4.343   5.441
 6522SOL    HW220466   2.292   4.228   5.396
 6523SOL     OW20467   4.501   6.971   0.098
 6523SOL    HW120468   4.459   6.914   0.168
 6523SOL    HW220469   4.555   6.914   0.036
 6524SOL     OW20470   2.736   2.492   1.702
 6524SOL    HW120471   2.812   2.478   1.766
 6524SOL    HW220472   2.771   2.489   1.608
 6525SOL     OW20473   2.557   5.575   3.404
 6525SOL    HW120474   2.508   5.500   3.447
 6525SOL    HW220475   2.627   5.538   3.342
 6526SOL     OW20476   0.572   0.446   1.271
 6526SOL    HW120477   0.481   0.484   1.285
 6526SOL    HW220478   0.624   0.506   1.210
 6527SOL     OW20479   0.423   2.030   0.401
 6527SOL    HW120480   0.384   1.973   0.474
 6527SOL    HW220481   0.352   2.092   0.367
 6528SOL     OW20482   6.795   1.665   6.127
 6528SOL    HW120483   6.711   1.686   6.177
 6528SOL    HW220484   6.867   1.729   6.154
 6529SOL     OW20485   0.899   0.500   2.525
 6529SOL    HW120486   0.846   0.540   2.600
 6529SOL    HW220487   0.977   0.450   2.562
 6530SOL     OW20488   0.629   1.788   0.969
 6530SOL    HW120489   0.677   1.857   1.023
 6530SOL    HW220490   0.532   1.813   0.963
 6531SOL     OW20491   4.514   3.571   5.666
 6531SOL    HW120492   4.439   3.637   5.667
 6531SOL    HW220493   4.565   3.579   5.580
 6532SOL     OW20494   2.348   1.179   1.098
 6532SOL    HW120495   2.300   1.164   1.185
 6532SOL    HW220496   2.299   1.132   1.025
 6533SOL     OW20497   4.031   6.044   0.330
 6533SOL    HW120498   4.082   5.977   0.275
 6533SOL    HW220499   4.089   6.077   0.404
 6534SOL     OW20500   4.879   5.139   1.932
 6534SOL    HW120501   4.969   5.148   1.975
 6534SOL    HW220502   4.825   5.070   1.979
 6535SOL     OW20503   6.063   4.790   4.631
 6535SOL    HW120504   6.161   4.775   4.618
 6535SOL    HW220505   6.050   4.855   4.707
 6536SOL     OW20506   0.342   2.080   4.943
 6536SOL    HW120507   0.442   2.078   4.941
 6536SOL    HW220508   0.311   2.142   5.015
 6537SOL     OW20509   6.905   5.016   4.572
 6537SOL    HW120510   6.997   5.014   4.532
 6537SOL    HW220511   6.847   4.948   4.526
 6538SOL     OW20512   1.289   4.135   5.427
 6538SOL    HW120513   1.216   4.068   5.410
 6538SOL    HW220514   1.267   4.188   5.509
 6539SOL     OW20515   4.703   0.423   6.698
 6539SOL    HW120516   4.609   0.453   6.682
 6539SOL    HW220517   4.702   0.339   6.754
 6540SOL     OW20518   2.272   2.582   6.430
 6540SOL    HW120519   2.308   2.673   6.406
 6540SOL    HW220520   2.199   2.558   6.366
 6541SOL     OW20521   5.391   2.416   5.779
 6541SOL    HW120522   5.309   2.360   5.771
 6541SOL    HW220523   5.432   2.403   5.869
 6542SOL     OW20524   1.259   3.295   4.419
 6542SOL    HW120525   1.279   3.330   4.511
 6542SOL    HW220526   1.186   3.226   4.425
 6543SOL     OW20527   3.932   2.512   5.801
 6543SOL    HW120528   3.853   2.534   5.745
 6543SOL    HW220529   3.975   2.597   5.832
 6544SOL     OW20530   0.451   6.701   2.491
 6544SOL    HW120531   0.512   6.778   2.472
 6544SOL    HW220532   0.401   6.677   2.408
 6545SOL     OW20533   3.801   7.002   0.613
 6545SOL    HW120534   3.819   0.054   0.667
 6545SOL    HW220535   3.809   7.023   0.516
 6546SOL     OW20536   3.900   4.276   6.641
 6546SOL    HW120537   3.983   4.286   6.697
 6546SOL    HW220538   3.831   4.227   6.694
 6547SOL     OW20539   4.761   0.903   6.110
 6547SOL    HW120540   4.774   0.997   6.077
 6547SOL    HW220541   4.704   0.905   6.192
 6548SOL     OW20542   1.105   2.823   0.248
 6548SOL    HW120543   1.053   2.902   0.280
 6548SOL    HW220544   1.137   2.770   0.327
 6549SOL     OW20545   4.687   0.232   1.969
 6549SOL    HW120546   4.630   0.279   1.902
 6549SOL    HW220547   4.657   0.137   1.979
 6550SOL     OW20548   0.166   0.015   3.632
 6550SOL    HW120549   0.092   0.044   3.694
 6550SOL    HW220550   0.191   6.951   3.653
 6551SOL     OW20551   2.719   3.437   1.756
 6551SOL    HW120552   2.742   3.470   1.665
 6551SOL    HW220553   2.620   3.435   1.767
 6552SOL     OW20554   2.398   7.004   1.052
 6552SOL    HW120555   2.358   7.027   1.141
 6552SOL    HW220556   2.336   6.943   1.003
 6553SOL     OW20557   0.607   1.560   3.335
 6553SOL    HW120558   0.508   1.564   3.330
 6553SOL    HW220559   0.636   1.469   3.365
 6554SOL     OW20560   2.490   0.808   4.827
 6554SOL    HW120561   2.564   0.783   4.764
 6554SOL    HW220562   2.499   0.754   4.911
 6555SOL     OW20563   5.939   1.657   3.927
 6555SOL    HW120564   5.872   1.647   3.854
 6555SOL    HW220565   5.901   1.714   4.001
 6556SOL     OW20566   5.847   3.124   3.087
 6556SOL    HW120567   5.848   3.222   3.107
 6556SOL    HW220568   5.756   3.098   3.053
 6557SOL     OW20569   2.347   0.728   2.591
 6557SOL    HW120570   2.331   0.783   2.509
 6557SOL    HW220571   2.419   0.771   2.645
 6558SOL     OW20572   5.594   5.546   0.460
 6558SOL    HW120573   5.671   5.530   0.398
 6558SOL    HW220574   5.619   5.615   0.528
 6559SOL     OW20575   0.039   3.515   6.075
 6559SOL    HW120576   6.970   3.511   6.060
 6559SOL    HW220577   0.076   3.601   6.040
 6560SOL     OW20578   3.705   4.851   0.989
 6560SOL    HW120579   3.657   4.789   0.927
 6560SOL    HW220580   3.785   4.889   0.943
 6561SOL     OW20581   3.756   4.503   1.166
 6561SOL    HW120582   3.759   4.499   1.066
 6561SOL    HW220583   3.739   4.597   1.195
 6562SOL     OW20584   5.564   2.172   1.360
 6562SOL    HW120585   5.481   2.222   1.386
 6562SOL    HW220586   5.637   2.191   1.426
 6563SOL     OW20587   5.549   0.189   5.609
 6563SOL    HW120588   5.494   0.133   5.671
 6563SOL    HW220589   5.522   0.284   5.616
 6564SOL     OW20590   6.600   3.085   2.061
 6564SOL    HW120591   6.659   3.164   2.051
 6564SOL    HW220592   6.544   3.074   1.979
 6565SOL     OW20593   6.223   6.125   2.770
 6565SOL    HW120594   6.286   6.147   2.845
 6565SOL    HW220595   6.259   6.162   2.684
 6566SOL     OW20596   3.131   5.411   2.158
 6566SOL    HW120597   3.166   5.499   2.191
 6566SOL    HW220598   3.191   5.338   2.189
 6567SOL     OW20599   5.108   1.032   1.760
 6567SOL    HW120600   5.017   1.029   1.801
 6567SOL    HW220601   5.167   1.093   1.813
 6568SOL     OW20602   3.798   2.125   3.186
 6568SOL    HW120603   3.712   2.101   3.140
 6568SOL    HW220604   3.870   2.135   3.118
 6569SOL     OW20605   1.678   3.541   6.468
 6569SOL    HW120606   1.678   3.637   6.441
 6569SOL    HW220607   1.616   3.490   6.409
 6570SOL     OW20608   3.045   0.970   2.797
 6570SOL    HW120609   3.025   0.873   2.809
 6570SOL    HW220610   3.114   0.998   2.863
 6571SOL     OW20611   2.746   5.114   2.513
 6571SOL    HW120612   2.670   5.178   2.521
 6571SOL    HW220613   2.730   5.035   2.572
 6572SOL     OW20614   0.178   4.066   4.007
 6572SOL    HW120615   0.222   4.093   3.921
 6572SOL    HW220616   0.109   4.134   4.032
 6573SOL     OW20617   1.281   1.006   3.230
 6573SOL    HW120618   1.350   1.072   3.259
 6573SOL    HW220619   1.252   0.950   3.308
 6574SOL     OW20620   2.584   5.943   3.130
 6574SOL    HW120621   2.675   5.975   3.101
 6574SOL    HW220622   2.592   5.900   3.220
 6575SOL     OW20623   0.275   0.070   3.390
 6575SOL    HW120624   0.306   7.006   3.371
 6575SOL    HW220625   0.229   0.073   3.478
 6576SOL     OW20626   2.990   5.896   0.869
 6576SOL    HW120627   3.009   5.964   0.798
 6576SOL    HW220628   2.933   5.937   0.940
 6577SOL     OW20629   1.286   1.633   3.651
 6577SOL    HW120630   1.300   1.578   3.734
 6577SOL    HW220631   1.324   1.724   3.665
 6578SOL     OW20632   1.147   6.071   2.009
 6578SOL    HW120633   1.160   6.055   1.911
 6578SOL    HW220634   1.230   6.047   2.058
 6579SOL     OW20635   0.104   2.735   4.248
 6579SOL    HW120636   0.138   2.733   4.154
 6579SOL    HW220637   0.073   2.827   4.271
 6580SOL     OW20638   0.649   1.532   0.601
 6580SOL    HW120639   0.734   1.479   0.605
 6580SOL    HW220640   0.668   1.626   0.630
 6581SOL     OW20641   1.863   0.812   1.202
 6581SOL    HW120642   1.911   0.748   1.262
 6581SOL    HW220643   1.907   0.812   1.112
 6582SOL     OW20644   0.222   0.191   2.592
 6582SOL    HW120645   0.276   0.272   2.618
 6582SOL    HW220646   0.137   0.191   2.644
 6583SOL     OW20647   5.111   6.015   5.126
 6583SOL    HW120648   5.026   6.059   5.099
 6583SOL    HW220649   5.118   6.016   5.226
 6584SOL     OW20650   3.509   2.195   0.816
 6584SOL    HW120651   3.479   2.190   0.911
 6584SOL    HW220652   3.603   2.160   0.809
 6585SOL     OW20653   6.597   6.393   6.559
 6585SOL    HW120654   6.620   6.295   6.560
 6585SOL    HW220655   6.608   6.430   6.651
 6586SOL     OW20656   6.788   1.697   5.813
 6586SOL    HW120657   6.774   1.720   5.909
 6586SOL    HW220658   6.740   1.612   5.792
 6587SOL     OW20659   1.569   4.422   6.391
 6587SOL    HW120660   1.526   4.502   6.433
 6587SOL    HW220661   1.572   4.434   6.292
 6588SOL     OW20662   0.497   3.703   1.324
 6588SOL    HW120663   0.494   3.711   1.224
 6588SOL    HW220664   0.520   3.609   1.349
 6589SOL     OW20665   4.663   0.994   2.395
 6589SOL    HW120666   4.681   1.021   2.490
 6589SOL    HW220667   4.682   1.071   2.335
 6590SOL     OW20668   0.900   0.276   5.476
 6590SOL    HW120669   0.921   0.188   5.519
 6590SOL    HW220670   0.815   0.313   5.516
 6591SOL     OW20671   5.466   6.328   3.569
 6591SOL    HW120672   5.411   6.244   3.572
 6591SOL    HW220673   5.436   6.390   3.642
 6592SOL     OW20674   4.791   6.958   2.720
 6592SOL    HW120675   4.851   6.934   2.643
 6592SOL    HW220676   4.697   6.933   2.697
 6593SOL     OW20677   2.755   2.339   2.233
 6593SOL    HW120678   2.770   2.269   2.303
 6593SOL    HW220679   2.831   2.337   2.168
 6594SOL     OW20680   3.458   1.619   5.671
 6594SOL    HW120681   3.430   1.675   5.750
 6594SOL    HW220682   3.381   1.560   5.644
 6595SOL     OW20683   1.628   3.323   5.593
 6595SOL    HW120684   1.626   3.404   5.535
 6595SOL    HW220685   1.718   3.279   5.585
 6596SOL     OW20686   3.725   6.212   3.485
 6596SOL    HW120687   3.745   6.309   3.497
 6596SOL    HW220688   3.644   6.202   3.427
 6597SOL     OW20689   1.824   5.197   2.159
 6597SOL    HW120690   1.750   5.254   2.123
 6597SOL    HW220691   1.811   5.103   2.128
 6598SOL     OW20692   1.898   4.731   3.990
 6598SOL    HW120693   1.839   4.796   3.942
 6598SOL    HW220694   1.904   4.755   4.087
 6599SOL     OW20695   4.473   6.344   6.532
 6599SOL    HW120696   4.426   6.421   6.488
 6599SOL    HW220697   4.569   6.344   6.506
 6600SOL     OW20698   3.951   6.862   4.668
 6600SOL    HW120699   4.026   6.917   4.704
 6600SOL    HW220700   3.986   6.799   4.598
 6601SOL     OW20701   0.618   2.071   3.698
 6601SOL    HW120702   0.585   2.013   3.623
 6601SOL    HW220703   0.712   2.047   3.720
 6602SOL     OW20704   1.941   0.553   1.736
 6602SOL    HW120705   1.862   0.510   1.693
 6602SOL    HW220706   1.910   0.624   1.800
 6603SOL     OW20707   0.672   2.877   3.871
 6603SOL    HW120708   0.617   2.933   3.808
 6603SOL    HW220709   0.728   2.813   3.818
 6604SOL     OW20710   1.907   7.020   1.529
 6604SOL    HW120711   1.934   6.957   1.603
 6604SOL    HW220712   1.807   7.028   1.527
 6605SOL     OW20713   5.845   6.042   2.468
 6605SOL    HW120714   5.920   6.105   2.448
 6605SOL    HW220715   5.871   5.983   2.545
 6606SOL     OW20716   6.564   4.607   2.253
 6606SOL    HW120717   6.564   4.542   2.329
 6606SOL    HW220718   6.477   4.657   2.253
 6607SOL     OW20719   6.962   5.085   3.474
 6607SOL    HW120720   6.938   4.998   3.431
 6607SOL    HW220721   6.901   5.156   3.441
 6608SOL     OW20722   6.834   6.911   0.334
 6608SOL    HW120723   6.877   7.000   0.349
 6608SOL    HW220724   6.810   6.870   0.422
 6609SOL     OW20725   5.416   1.051   6.471
 6609SOL    HW120726   5.436   1.003   6.556
 6609SOL    HW220727   5.333   1.014   6.429
 6610SOL     OW20728   2.362   6.800   0.087
 6610SOL    HW120729   2.408   6.733   0.145
 6610SOL    HW220730   2.318   6.869   0.144
 6611SOL     OW20731   5.149   3.033   3.383
 6611SOL    HW120732   5.093   2.979   3.447
 6611SOL    HW220733   5.183   3.115   3.430
 6612SOL     OW20734   0.061   2.790   6.087
 6612SOL    HW120735   0.009   2.830   6.162
 6612SOL    HW220736   0.142   2.743   6.123
 6613SOL     OW20737   5.760   6.618   5.299
 6613SOL    HW120738   5.720   6.668   5.222
 6613SOL    HW220739   5.726   6.524   5.299
 6614SOL     OW20740   4.639   6.481   0.240
 6614SOL    HW120741   4.621   6.578   0.222
 6614SOL    HW220742   4.555   6.436   0.270
 6615SOL     OW20743   1.567   5.779   1.214
 6615SOL    HW120744   1.518   5.784   1.301
 6615SOL    HW220745   1.630   5.702   1.216
 6616SOL     OW20746   4.834   0.214   6.051
 6616SOL    HW120747   4.892   0.157   6.109
 6616SOL    HW220748   4.744   0.173   6.043
 6617SOL     OW20749   4.296   6.185   3.480
 6617SOL    HW120750   4.232   6.244   3.530
 6617SOL    HW220751   4.373   6.240   3.449
 6618SOL     OW20752   1.118   1.549   2.356
 6618SOL    HW120753   1.110   1.489   2.435
 6618SOL    HW220754   1.144   1.641   2.387
 6619SOL     OW20755   4.445   0.089   3.522
 6619SOL    HW120756   4.356   0.133   3.529
 6619SOL    HW220757   4.513   0.156   3.491
 6620SOL     OW20758   1.997   3.290   4.571
 6620SOL    HW120759   2.079   3.341   4.596
 6620SOL    HW220760   2.019   3.193   4.562
 6621SOL     OW20761   3.759   2.595   5.368
 6621SOL    HW120762   3.851   2.633   5.355
 6621SOL    HW220763   3.693   2.670   5.377
 6622SOL     OW20764   6.343   5.410   1.782
 6622SOL    HW120765   6.270   5.377   1.721
 6622SOL    HW220766   6.365   5.339   1.848
 6623SOL     OW20767   3.605   3.974   4.646
 6623SOL    HW120768   3.552   3.947   4.566
 6623SOL    HW220769   3.556   4.046   4.695
 6624SOL     OW20770   0.869   3.455   5.287
 6624SOL    HW120771   0.845   3.364   5.322
 6624SOL    HW220772   0.789   3.496   5.244
 6625SOL     OW20773   5.188   1.678   5.218
 6625SOL    HW120774   5.246   1.678   5.300
 6625SOL    HW220775   5.239   1.639   5.141
 6626SOL     OW20776   3.527   6.908   5.609
 6626SOL    HW120777   3.470   6.837   5.567
 6626SOL    HW220778   3.618   6.871   5.628
 6627SOL     OW20779   2.597   6.701   4.228
 6627SOL    HW120780   2.581   6.603   4.226
 6627SOL    HW220781   2.553   6.744   4.149
 6628SOL     OW20782   5.262   5.032   3.953
 6628SOL    HW120783   5.179   5.064   3.907
 6628SOL    HW220784   5.280   5.090   4.032
 6629SOL     OW20785   5.080   5.639   6.308
 6629SOL    HW120786   5.033   5.686   6.383
 6629SOL    HW220787   5.034   5.661   6.221
 6630SOL     OW20788   3.708   2.060   1.463
 6630SOL    HW120789   3.683   1.966   1.487
 6630SOL    HW220790   3.719   2.113   1.547
 6631SOL     OW20791   2.305   5.583   4.285
 6631SOL    HW120792   2.278   5.679   4.278
 6631SOL    HW220793   2.264   5.543   4.366
 6632SOL     OW20794   1.654   1.251   0.891
 6632SOL    HW120795   1.619   1.213   0.976
 6632SOL    HW220796   1.672   1.177   0.826
 6633SOL     OW20797   2.611   4.519   5.843
 6633SOL    HW120798   2.523   4.557   5.813
 6633SOL    HW220799   2.683   4.549   5.781
 6634SOL     OW20800   4.789   1.610   5.513
 6634SOL    HW120801   4.690   1.609   5.499
 6634SOL    HW220802   4.835   1.621   5.425
 6635SOL     OW20803   4.752   4.324   3.461
 6635SOL    HW120804   4.769   4.395   3.392
 6635SOL    HW220805   4.733   4.368   3.549
 6636SOL     OW20806   4.012   1.553   0.572
 6636SOL    HW120807   3.930   1.612   0.566
 6636SOL    HW220808   4.042   1.548   0.667
 6637SOL     OW20809   2.198   6.966   6.275
 6637SOL    HW120810   2.266   0.003   6.304
 6637SOL    HW220811   2.244   6.886   6.235
 6638SOL     OW20812   3.269   3.374   3.044
 6638SOL    HW120813   3.213   3.308   3.094
 6638SOL    HW220814   3.242   3.375   2.948
 6639SOL     OW20815   3.336   3.803   6.746
 6639SOL    HW120816   3.367   3.853   6.827
 6639SOL    HW220817   3.303   3.713   6.773
 6640SOL     OW20818   0.001   1.976   4.615
 6640SOL    HW120819   0.079   1.991   4.677
 6640SOL    HW220820   0.014   2.029   4.532
 6641SOL     OW20821   3.563   1.726   6.927
 6641SOL    HW120822   3.515   1.697   7.010
 6641SOL    HW220823   3.499   1.775   6.868
 6642SOL     OW20824   2.470   5.663   6.067
 6642SOL    HW120825   2.490   5.630   5.975
 6642SOL    HW220826   2.508   5.755   6.078
 6643SOL     OW20827   6.782   6.681   7.009
 6643SOL    HW120828   6.818   6.610   6.948
 6643SOL    HW220829   6.726   6.637   0.050
 6644SOL     OW20830   2.248   6.107   2.698
 6644SOL    HW120831   2.166   6.070   2.743
 6644SOL    HW220832   2.239   6.206   2.688
 6645SOL     OW20833   5.492   3.290   0.922
 6645SOL    HW120834   5.398   3.285   0.889
 6645SOL    HW220835   5.501   3.366   0.986
 6646SOL     OW20836   4.282   1.309   5.372
 6646SOL    HW120837   4.219   1.312   5.450
 6646SOL    HW220838   4.351   1.238   5.388
 6647SOL     OW20839   4.587   6.710   0.579
 6647SOL    HW120840   4.532   6.628   0.598
 6647SOL    HW220841   4.659   6.718   0.648
 6648SOL     OW20842   2.966   6.418   4.737
 6648SOL    HW120843   2.901   6.353   4.698
 6648SOL    HW220844   3.010   6.377   4.816
 6649SOL     OW20845   5.970   2.742   6.156
 6649SOL    HW120846   5.953   2.730   6.059
 6649SOL    HW220847   5.885   2.766   6.203
 6650SOL     OW20848   3.935   1.268   4.795
 6650SOL    HW120849   3.921   1.244   4.892
 6650SOL    HW220850   3.940   1.367   4.786
 6651SOL     OW20851   1.789   1.705   6.269
 6651SOL    HW120852   1.771   1.798   6.237
 6651SOL    HW220853   1.709   1.672   6.319
 6652SOL     OW20854   0.493   4.954   0.076
 6652SOL    HW120855   0.469   5.014   0.153
 6652SOL    HW220856   0.432   4.973   7.029
 6653SOL     OW20857   4.399   2.943   0.502
 6653SOL    HW120858   4.387   3.030   0.550
 6653SOL    HW220859   4.314   2.890   0.506
 6654SOL     OW20860   1.010   5.602   2.661
 6654SOL    HW120861   1.089   5.653   2.629
 6654SOL    HW220862   1.037   5.508   2.683
 6655SOL     OW20863   0.368   6.257   2.332
 6655SOL    HW120864   0.445   6.311   2.366
 6655SOL    HW220865   0.359   6.269   2.234
 6656SOL     OW20866   5.437   2.058   2.815
 6656SOL    HW120867   5.515   2.069   2.753
 6656SOL    HW220868   5.352   2.070   2.763
 6657SOL     OW20869   5.916   3.411   5.251
 6657SOL    HW120870   5.844   3.361   5.300
 6657SOL    HW220871   5.972   3.461   5.316
 6658SOL     OW20872   5.966   6.910   5.727
 6658SOL    HW120873   5.883   6.913   5.671
 6658SOL    HW220874   5.973   6.819   5.770
 6659SOL     OW20875   1.185   3.304   1.155
 6659SOL    HW120876   1.260   3.274   1.096
 6659SOL    HW220877   1.125   3.366   1.104
 6660SOL     OW20878   2.027   4.651   1.813
 6660SOL    HW120879   1.999   4.557   1.793
 6660SOL    HW220880   2.124   4.663   1.789
 6661SOL     OW20881   2.416   0.459   5.671
 6661SOL    HW120882   2.467   0.533   5.627
 6661SOL    HW220883   2.318   0.479   5.667
 6662SOL     OW20884   1.817   0.662   0.894
 6662SOL    HW120885   1.864   0.738   0.848
 6662SOL    HW220886   1.885   0.600   0.933
 6663SOL     OW20887   0.050   6.102   5.032
 6663SOL    HW120888   0.080   6.031   4.968
 6663SOL    HW220889   0.120   6.116   5.101
 6664SOL     OW20890   2.457   0.261   1.144
 6664SOL    HW120891   2.422   0.340   1.093
 6664SOL    HW220892   2.421   0.177   1.105
 6665SOL     OW20893   1.975   6.729   5.478
 6665SOL    HW120894   1.962   6.645   5.530
 6665SOL    HW220895   2.030   6.794   5.531
 6666SOL     OW20896   6.463   5.658   5.923
 6666SOL    HW120897   6.485   5.633   6.018
 6666SOL    HW220898   6.525   5.730   5.892
 6667SOL     OW20899   0.016   6.947   5.399
 6667SOL    HW120900   0.015   6.905   5.309
 6667SOL    HW220901   6.971   6.910   5.454
 6668SOL     OW20902   6.636   6.204   1.261
 6668SOL    HW120903   6.592   6.250   1.338
 6668SOL    HW220904   6.636   6.265   1.182
 6669SOL     OW20905   3.213   2.084   1.552
 6669SOL    HW120906   3.259   2.002   1.585
 6669SOL    HW220907   3.159   2.125   1.625
 6670SOL     OW20908   3.296   0.939   6.212
 6670SOL    HW120909   3.334   0.983   6.131
 6670SOL    HW220910   3.260   1.009   6.273
 6671SOL     OW20911   5.589   6.821   6.874
 6671SOL    HW120912   5.581   6.852   6.968
 6671SOL    HW220913   5.683   6.830   6.843
 6672SOL     OW20914   0.486   2.635   0.282
 6672SOL    HW120915   0.451   2.610   0.372
 6672SOL    HW220916   0.411   2.640   0.217
 6673SOL     OW20917   4.828   4.254   3.827
 6673SOL    HW120918   4.823   4.204   3.741
 6673SOL    HW220919   4.739   4.251   3.873
 6674SOL     OW20920   0.602   3.817   6.973
 6674SOL    HW120921   0.572   3.840   6.880
 6674SOL    HW220922   0.548   3.740   7.007
 6675SOL     OW20923   6.001   2.872   0.171
 6675SOL    HW120924   6.097   2.870   0.143
 6675SOL    HW220925   5.995   2.858   0.270
 6676SOL     OW20926   0.652   3.374   3.851
 6676SOL    HW120927   0.618   3.453   3.801
 6676SOL    HW220928   0.609   3.370   3.941
 6677SOL     OW20929   0.767   1.092   6.780
 6677SOL    HW120930   0.865   1.077   6.768
 6677SOL    HW220931   0.717   1.041   6.710
 6678SOL     OW20932   2.706   4.850   0.759
 6678SOL    HW120933   2.781   4.784   0.761
 6678SOL    HW220934   2.735   4.935   0.804
 6679SOL     OW20935   4.042   0.942   3.935
 6679SOL    HW120936   4.100   0.933   4.015
 6679SOL    HW220937   4.007   0.852   3.908
 6680SOL     OW20938   4.818   6.501   6.791
 6680SOL    HW120939   4.723   6.506   6.762
 6680SOL    HW220940   4.838   6.408   6.823
 6681SOL     OW20941   4.780   5.327   1.044
 6681SOL    HW120942   4.876   5.307   1.060
 6681SOL    HW220943   4.734   5.247   1.006
 6682SOL     OW20944   2.585   5.076   6.982
 6682SOL    HW120945   2.613   5.157   0.005
 6682SOL    HW220946   2.487   5.061   6.994
 6683SOL     OW20947   6.476   3.490   5.627
 6683SOL    HW120948   6.545   3.424   5.598
 6683SOL    HW220949   6.389   3.468   5.585
 6684SOL     OW20950   4.333   6.454   2.039
 6684SOL    HW120951   4.359   6.483   2.131
 6684SOL    HW220952   4.330   6.354   2.035
 6685SOL     OW20953   5.195   2.706   5.985
 6685SOL    HW120954   5.158   2.745   5.901
 6685SOL    HW220955   5.137   2.631   6.016
 6686SOL     OW20956   5.606   5.699   3.647
 6686SOL    HW120957   5.680   5.708   3.714
 6686SOL    HW220958   5.622   5.619   3.590
 6687SOL     OW20959   0.654   2.596   2.485
 6687SOL    HW120960   0.667   2.666   2.555
 6687SOL    HW220961   0.565   2.607   2.442
 6688SOL     OW20962   3.897   4.689   0.787
 6688SOL    HW120963   3.908   4.777   0.834
 6688SOL    HW220964   3.911   4.703   0.689
 6689SOL     OW20965   4.369   3.656   5.927
 6689SOL    HW120966   4.399   3.642   6.022
 6689SOL    HW220967   4.316   3.578   5.897
 6690SOL     OW20968   0.694   6.681   0.864
 6690SOL    HW120969   0.719   6.586   0.884
 6690SOL    HW220970   0.672   6.728   0.949
 6691SOL     OW20971   1.893   0.565   2.409
 6691SOL    HW120972   1.829   0.508   2.357
 6691SOL    HW220973   1.973   0.510   2.435
 6692SOL     OW20974   4.017   3.931   2.846
 6692SOL    HW120975   3.996   4.020   2.807
 6692SOL    HW220976   3.964   3.918   2.930
 6693SOL     OW20977   4.471   2.504   5.018
 6693SOL    HW120978   4.546   2.469   5.073
 6693SOL    HW220979   4.384   2.478   5.059
 6694SOL     OW20980   4.660   6.692   1.260
 6694SOL    HW120981   4.688   6.781   1.224
 6694SOL    HW220982   4.622   6.703   1.352
 6695SOL     OW20983   3.036   2.253   6.580
 6695SOL    HW120984   3.104   2.234   6.650
 6695SOL    HW220985   3.077   2.241   6.489
 6696SOL     OW20986   3.926   3.024   3.839
 6696SOL    HW120987   3.985   2.944   3.844
 6696SOL    HW220988   3.868   3.027   3.921
 6697SOL     OW20989   4.638   2.121   3.337
 6697SOL    HW120990   4.578   2.063   3.392
 6697SOL    HW220991   4.698   2.064   3.282
 6698SOL     OW20992   3.236   3.215   1.047
 6698SOL    HW120993   3.169   3.278   1.009
 6698SOL    HW220994   3.263   3.149   0.977
 6699SOL     OW20995   2.153   6.909   5.575
 6699SOL    HW120996   2.166   7.000   5.538
 6699SOL    HW220997   2.238   6.876   5.616
 6700SOL     OW20998   6.841   1.735   1.515
 6700SOL    HW120999   6.856   1.774   1.605
 6700SOL    HW221000   6.749   1.758   1.484
 6701SOL     OW21001   5.737   5.976   2.014
 6701SOL    HW121002   5.738   5.993   2.113
 6701SOL    HW221003   5.645   5.990   1.979
 6702SOL     OW21004   1.837   2.559   2.232
 6702SOL    HW121005   1.905   2.489   2.253
 6702SOL    HW221006   1.868   2.647   2.268
 6703SOL     OW21007   0.276   0.242   0.587
 6703SOL    HW121008   0.277   0.247   0.487
 6703SOL    HW221009   0.247   0.150   0.615
 6704SOL     OW21010   4.059   2.184   4.126
 6704SOL    HW121011   4.070   2.212   4.031
 6704SOL    HW221012   4.123   2.234   4.184
 6705SOL     OW21013   6.051   2.804   0.705
 6705SOL    HW121014   6.078   2.853   0.788
 6705SOL    HW221015   5.987   2.731   0.729
 6706SOL     OW21016   0.960   5.711   0.680
 6706SOL    HW121017   0.902   5.741   0.755
 6706SOL    HW221018   0.951   5.612   0.667
 6707SOL     OW21019   5.414   6.586   3.485
 6707SOL    HW121020   5.457   6.498   3.505
 6707SOL    HW221021   5.468   6.635   3.417
 6708SOL     OW21022   5.636   5.266   1.323
 6708SOL    HW121023   5.655   5.328   1.399
 6708SOL    HW221024   5.657   5.312   1.236
 6709SOL     OW21025   0.791   5.216   2.665
 6709SOL    HW121026   0.836   5.162   2.737
 6709SOL    HW221027   0.785   5.311   2.695
 6710SOL     OW21028   3.901   0.644   6.850
 6710SOL    HW121029   3.880   0.706   6.774
 6710SOL    HW221030   3.892   0.693   6.936
 6711SOL     OW21031   4.953   6.237   5.949
 6711SOL    HW121032   4.978   6.309   6.013
 6711SOL    HW221033   5.010   6.243   5.867
 6712SOL     OW21034   5.900   3.106   1.135
 6712SOL    HW121035   5.861   3.020   1.169
 6712SOL    HW221036   5.855   3.132   1.050
 6713SOL     OW21037   1.381   0.581   3.180
 6713SOL    HW121038   1.289   0.613   3.202
 6713SOL    HW221039   1.434   0.657   3.142
 6714SOL     OW21040   6.263   1.787   0.077
 6714SOL    HW121041   6.211   1.729   0.139
 6714SOL    HW221042   6.208   1.868   0.054
 6715SOL     OW21043   1.667   0.470   1.478
 6715SOL    HW121044   1.626   0.504   1.563
 6715SOL    HW221045   1.680   0.545   1.414
 6716SOL     OW21046   0.717   5.702   1.938
 6716SOL    HW121047   0.650   5.686   2.010
 6716SOL    HW221048   0.777   5.778   1.964
 6717SOL     OW21049   2.763   2.758   6.503
 6717SOL    HW121050   2.697   2.826   6.534
 6717SOL    HW221051   2.714   2.679   6.465
 6718SOL     OW21052   4.954   6.906   0.773
 6718SOL    HW121053   4.895   6.826   0.776
 6718SOL    HW221054   4.950   6.946   0.682
 6719SOL     OW21055   2.427   0.002   0.355
 6719SOL    HW121056   2.418   0.075   0.422
 6719SOL    HW221057   2.494   0.027   0.286
 6720SOL     OW21058   2.495   0.561   3.419
 6720SOL    HW121059   2.583   0.577   3.374
 6720SOL    HW221060   2.421   0.592   3.360
 6721SOL     OW21061   0.141   6.640   0.730
 6721SOL    HW121062   0.225   6.591   0.751
 6721SOL    HW221063   0.088   6.588   0.663
 6722SOL     OW21064   6.992   2.740   0.391
 6722SOL    HW121065   6.967   2.836   0.405
 6722SOL    HW221066   6.927   2.698   0.327
 6723SOL     OW21067   1.452   6.846   5.223
 6723SOL    HW121068   1.496   6.836   5.134
 6723SOL    HW221069   1.479   6.933   5.264
 6724SOL     OW21070   1.962   3.081   6.230
 6724SOL    HW121071   2.046   3.049   6.186
 6724SOL    HW221072   1.885   3.065   6.169
 6725SOL     OW21073   6.806   2.267   2.358
 6725SOL    HW121074   6.721   2.262   2.305
 6725SOL    HW221075   6.841   2.361   2.355
 6726SOL     OW21076   0.147   2.632   3.787
 6726SOL    HW121077   0.080   2.666   3.721
 6726SOL    HW221078   0.212   2.572   3.740
 6727SOL     OW21079   0.262   4.649   5.504
 6727SOL    HW121080   0.333   4.691   5.447
 6727SOL    HW221081   0.266   4.550   5.493
 6728SOL     OW21082   4.318   2.400   2.908
 6728SOL    HW121083   4.283   2.397   2.814
 6728SOL    HW221084   4.418   2.407   2.906
 6729SOL     OW21085   0.221   1.229   0.226
 6729SOL    HW121086   0.147   1.207   0.164
 6729SOL    HW221087   0.257   1.145   0.267
 6730SOL     OW21088   2.214   7.002   1.287
 6730SOL    HW121089   2.224   0.002   1.382
 6730SOL    HW221090   2.127   0.004   1.251
 6731SOL     OW21091   1.715   6.760   0.642
 6731SOL    HW121092   1.719   6.735   0.546
 6731SOL    HW221093   1.717   6.860   0.650
 6732SOL     OW21094   5.653   4.856   4.808
 6732SOL    HW121095   5.667   4.778   4.747
 6732SOL    HW221096   5.635   4.938   4.754
 6733SOL     OW21097   3.762   5.664   6.517
 6733SOL    HW121098   3.846   5.610   6.514
 6733SOL    HW221099   3.759   5.717   6.601
 6734SOL     OW21100   5.769   2.483   5.683
 6734SOL    HW121101   5.777   2.464   5.585
 6734SOL    HW221102   5.693   2.547   5.698
 6735SOL     OW21103   5.899   3.639   4.734
 6735SOL    HW121104   5.934   3.731   4.752
 6735SOL    HW221105   5.833   3.643   4.660
 6736SOL     OW21106   2.590   3.602   6.159
 6736SOL    HW121107   2.651   3.538   6.112
 6736SOL    HW221108   2.502   3.605   6.113
 6737SOL     OW21109   1.397   2.991   0.894
 6737SOL    HW121110   1.303   2.966   0.915
 6737SOL    HW221111   1.401   3.086   0.862
 6738SOL     OW21112   1.896   5.709   4.285
 6738SOL    HW121113   1.803   5.744   4.272
 6738SOL    HW221114   1.928   5.734   4.376
 6739SOL     OW21115   5.841   6.121   3.802
 6739SOL    HW121116   5.757   6.090   3.848
 6739SOL    HW221117   5.819   6.150   3.709
 6740SOL     OW21118   6.794   0.447   5.608
 6740SOL    HW121119   6.774   0.522   5.671
 6740SOL    HW221120   6.726   0.447   5.534
 6741SOL     OW21121   3.555   2.416   5.404
 6741SOL    HW121122   3.629   2.463   5.356
 6741SOL    HW221123   3.546   2.323   5.367
 6742SOL     OW21124   6.003   5.610   3.250
 6742SOL    HW121125   6.028   5.522   3.210
 6742SOL    HW221126   5.913   5.639   3.217
 6743SOL     OW21127   3.511   4.370   6.599
 6743SOL    HW121128   3.588   4.403   6.544
 6743SOL    HW221129   3.429   4.363   6.541
 6744SOL     OW21130   0.419   6.156   5.437
 6744SOL    HW121131   0.372   6.086   5.491
 6744SOL    HW221132   0.436   6.236   5.495
 6745SOL     OW21133   6.918   6.408   3.431
 6745SOL    HW121134   6.930   6.343   3.355
 6745SOL    HW221135   6.951   6.366   3.516
 6746SOL     OW21136   0.981   0.110   3.633
 6746SOL    HW121137   0.897   0.105   3.688
 6746SOL    HW221138   0.997   0.021   3.590
 6747SOL     OW21139   5.952   0.758   6.932
 6747SOL    HW121140   6.033   0.720   6.888
 6747SOL    HW221141   5.897   0.684   6.971
 6748SOL     OW21142   3.990   1.704   3.133
 6748SOL    HW121143   3.959   1.609   3.133
 6748SOL    HW221144   4.076   1.712   3.082
 6749SOL     OW21145   3.723   4.508   0.900
 6749SOL    HW121146   3.790   4.567   0.854
 6749SOL    HW221147   3.633   4.549   0.893
 6750SOL     OW21148   3.493   1.779   4.161
 6750SOL    HW121149   3.503   1.854   4.226
 6750SOL    HW221150   3.503   1.692   4.209
 6751SOL     OW21151   5.014   0.638   3.310
 6751SOL    HW121152   4.978   0.681   3.394
 6751SOL    HW221153   4.942   0.586   3.266
 6752SOL     OW21154   2.332   0.234   2.589
 6752SOL    HW121155   2.282   0.288   2.656
 6752SOL    HW221156   2.406   0.290   2.550
 6753SOL     OW21157   3.653   1.212   6.142
 6753SOL    HW121158   3.734   1.263   6.113
 6753SOL    HW221159   3.609   1.258   6.219
 6754SOL     OW21160   6.635   0.893   0.996
 6754SOL    HW121161   6.582   0.840   1.063
 6754SOL    HW221162   6.616   0.858   0.904
 6755SOL     OW21163   4.219   2.881   1.374
 6755SOL    HW121164   4.130   2.878   1.328
 6755SOL    HW221165   4.206   2.901   1.471
 6756SOL     OW21166   4.049   6.328   5.293
 6756SOL    HW121167   3.952   6.346   5.310
 6756SOL    HW221168   4.096   6.315   5.381
 6757SOL     OW21169   3.104   2.141   6.848
 6757SOL    HW121170   3.170   2.215   6.840
 6757SOL    HW221171   3.045   2.157   6.927
 6758SOL     OW21172   6.188   3.155   1.942
 6758SOL    HW121173   6.161   3.244   1.979
 6758SOL    HW221174   6.113   3.117   1.888
 6759SOL     OW21175   0.456   3.682   2.899
 6759SOL    HW121176   0.398   3.759   2.874
 6759SOL    HW221177   0.435   3.603   2.841
 6760SOL     OW21178   6.534   3.313   2.402
 6760SOL    HW121179   6.492   3.246   2.464
 6760SOL    HW221180   6.478   3.324   2.321
 6761SOL     OW21181   6.269   2.690   5.030
 6761SOL    HW121182   6.182   2.737   5.017
 6761SOL    HW221183   6.252   2.596   5.058
 6762SOL     OW21184   0.706   4.000   4.290
 6762SOL    HW121185   0.777   3.930   4.302
 6762SOL    HW221186   0.732   4.060   4.214
 6763SOL     OW21187   6.482   5.363   3.947
 6763SOL    HW121188   6.477   5.463   3.944
 6763SOL    HW221189   6.480   5.332   4.042
 6764SOL     OW21190   1.986   5.927   1.891
 6764SOL    HW121191   1.901   5.971   1.862
 6764SOL    HW221192   1.974   5.888   1.982
 6765SOL     OW21193   5.641   4.867   3.553
 6765SOL    HW121194   5.617   4.803   3.480
 6765SOL    HW221195   5.741   4.871   3.561
 6766SOL     OW21196   5.432   6.266   5.486
 6766SOL    HW121197   5.367   6.341   5.496
 6766SOL    HW221198   5.429   6.232   5.392
 6767SOL     OW21199   2.771   0.872   1.642
 6767SOL    HW121200   2.762   0.773   1.649
 6767SOL    HW221201   2.696   0.908   1.588
 6768SOL     OW21202   1.893   0.625   5.370
 6768SOL    HW121203   1.894   0.576   5.457
 6768SOL    HW221204   1.867   0.720   5.385
 6769SOL     OW21205   3.634   0.949   6.897
 6769SOL    HW121206   3.546   0.995   6.887
 6769SOL    HW221207   3.665   0.917   6.807
 6770SOL     OW21208   6.595   0.690   2.356
 6770SOL    HW121209   6.673   0.691   2.294
 6770SOL    HW221210   6.609   0.757   2.429
 6771SOL     OW21211   4.899   2.013   3.504
 6771SOL    HW121212   4.948   2.041   3.586
 6771SOL    HW221213   4.962   2.013   3.426
 6772SOL     OW21214   3.990   2.158   2.970
 6772SOL    HW121215   3.928   2.167   2.892
 6772SOL    HW221216   4.078   2.124   2.938
 6773SOL     OW21217   6.755   4.920   2.484
 6773SOL    HW121218   6.801   4.998   2.527
 6773SOL    HW221219   6.663   4.947   2.455
 6774SOL     OW21220   0.958   2.902   5.359
 6774SOL    HW121221   0.976   2.816   5.408
 6774SOL    HW221222   1.044   2.953   5.351
 6775SOL     OW21223   2.111   2.653   1.887
 6775SOL    HW121224   2.147   2.648   1.794
 6775SOL    HW221225   2.183   2.632   1.953
 6776SOL     OW21226   4.586   4.924   6.979
 6776SOL    HW121227   4.621   4.848   6.924
 6776SOL    HW221228   4.586   4.898   0.046
 6777SOL     OW21229   4.426   4.608   0.575
 6777SOL    HW121230   4.459   4.524   0.617
 6777SOL    HW221231   4.400   4.590   0.480
 6778SOL     OW21232   5.923   5.201   1.645
 6778SOL    HW121233   5.955   5.145   1.569
 6778SOL    HW221234   5.980   5.283   1.652
 6779SOL     OW21235   6.148   5.565   6.714
 6779SOL    HW121236   6.085   5.585   6.639
 6779SOL    HW221237   6.145   5.467   6.734
 6780SOL     OW21238   1.314   2.964   2.330
 6780SOL    HW121239   1.346   2.869   2.328
 6780SOL    HW221240   1.288   2.992   2.238
 6781SOL     OW21241   6.755   1.615   4.149
 6781SOL    HW121242   6.853   1.598   4.155
 6781SOL    HW221243   6.732   1.643   4.056
 6782SOL     OW21244   6.907   0.807   3.774
 6782SOL    HW121245   6.995   0.827   3.732
 6782SOL    HW221246   6.858   0.892   3.791
 6783SOL     OW21247   6.510   1.984   5.879
 6783SOL    HW121248   6.499   1.895   5.836
 6783SOL    HW221249   6.567   2.042   5.821
 6784SOL     OW21250   2.295   3.567   0.856
 6784SOL    HW121251   2.330   3.658   0.835
 6784SOL    HW221252   2.359   3.498   0.823
 6785SOL     OW21253   6.102   5.227   3.752
 6785SOL    HW121254   6.179   5.277   3.711
 6785SOL    HW221255   6.020   5.284   3.748
 6786SOL     OW21256   2.028   2.235   0.248
 6786SOL    HW121257   1.952   2.201   0.304
 6786SOL    HW221258   2.087   2.159   0.221
 6787SOL     OW21259   1.601   2.857   1.216
 6787SOL    HW121260   1.636   2.858   1.310
 6787SOL    HW221261   1.653   2.922   1.161
 6788SOL     OW21262   2.176   4.567   1.315
 6788SOL    HW121263   2.184   4.469   1.332
 6788SOL    HW221264   2.210   4.617   1.395
 6789SOL     OW21265   0.211   5.372   3.350
 6789SOL    HW121266   0.184   5.464   3.379
 6789SOL    HW221267   0.225   5.315   3.431
 6790SOL     OW21268   0.750   3.794   1.411
 6790SOL    HW121269   0.654   3.817   1.394
 6790SOL    HW221270   0.783   3.734   1.338
 6791SOL     OW21271   4.056   2.417   1.442
 6791SOL    HW121272   4.072   2.484   1.514
 6791SOL    HW221273   4.132   2.353   1.438
 6792SOL     OW21274   6.620   5.813   5.081
 6792SOL    HW121275   6.582   5.753   5.151
 6792SOL    HW221276   6.714   5.784   5.061
 6793SOL     OW21277   1.200   2.326   0.950
 6793SOL    HW121278   1.266   2.291   1.017
 6793SOL    HW221279   1.184   2.423   0.967
 6794SOL     OW21280   4.994   1.918   6.099
 6794SOL    HW121281   5.092   1.912   6.116
 6794SOL    HW221282   4.944   1.888   6.181
 6795SOL     OW21283   2.642   6.671   1.345
 6795SOL    HW121284   2.551   6.697   1.376
 6795SOL    HW221285   2.702   6.751   1.346
 6796SOL     OW21286   6.534   0.360   2.085
 6796SOL    HW121287   6.510   0.442   2.032
 6796SOL    HW221288   6.633   0.358   2.100
 6797SOL     OW21289   6.055   2.274   1.933
 6797SOL    HW121290   6.131   2.284   1.868
 6797SOL    HW221291   6.043   2.177   1.954
 6798SOL     OW21292   4.784   6.732   2.216
 6798SOL    HW121293   4.763   6.645   2.171
 6798SOL    HW221294   4.702   6.766   2.262
 6799SOL     OW21295   6.184   6.283   1.687
 6799SOL    HW121296   6.179   6.183   1.692
 6799SOL    HW221297   6.122   6.317   1.617
 6800SOL     OW21298   2.174   3.739   1.584
 6800SOL    HW121299   2.269   3.714   1.602
 6800SOL    HW221300   2.115   3.661   1.604
 6801SOL     OW21301   0.676   0.007   3.067
 6801SOL    HW121302   0.725   7.009   2.984
 6801SOL    HW221303   0.739   0.006   3.144
 6802SOL     OW21304   3.343   6.198   1.035
 6802SOL    HW121305   3.378   6.273   0.979
 6802SOL    HW221306   3.418   6.158   1.088
 6803SOL     OW21307   4.809   2.849   5.861
 6803SOL    HW121308   4.753   2.773   5.829
 6803SOL    HW221309   4.762   2.935   5.840
 6804SOL     OW21310   3.711   5.262   3.591
 6804SOL    HW121311   3.745   5.251   3.684
 6804SOL    HW221312   3.611   5.257   3.590
 6805SOL     OW21313   6.931   4.930   6.458
 6805SOL    HW121314   6.845   4.943   6.509
 6805SOL    HW221315   6.916   4.863   6.386
 6806SOL     OW21316   5.828   0.347   3.550
 6806SOL    HW121317   5.895   0.412   3.516
 6806SOL    HW221318   5.874   0.273   3.598
 6807SOL     OW21319   3.257   2.912   0.271
 6807SOL    HW121320   3.224   3.004   0.291
 6807SOL    HW221321   3.349   2.917   0.232
 6808SOL     OW21322   6.796   2.230   5.272
 6808SOL    HW121323   6.814   2.139   5.234
 6808SOL    HW221324   6.882   2.280   5.281
 6809SOL     OW21325   0.892   2.874   1.539
 6809SOL    HW121326   0.852   2.953   1.586
 6809SOL    HW221327   0.863   2.874   1.444
 6810SOL     OW21328   1.688   0.882   2.438
 6810SOL    HW121329   1.614   0.848   2.380
 6810SOL    HW221330   1.672   0.852   2.532
 6811SOL     OW21331   5.797   3.755   1.317
 6811SOL    HW121332   5.853   3.715   1.244
 6811SOL    HW221333   5.826   3.718   1.405
 6812SOL     OW21334   3.208   3.294   3.342
 6812SOL    HW121335   3.303   3.324   3.338
 6812SOL    HW221336   3.197   3.226   3.414
 6813SOL     OW21337   5.053   2.501   2.445
 6813SOL    HW121338   4.976   2.438   2.451
 6813SOL    HW221339   5.039   2.578   2.507
 6814SOL     OW21340   3.250   1.436   5.954
 6814SOL    HW121341   3.226   1.492   6.033
 6814SOL    HW221342   3.182   1.449   5.882
 6815SOL     OW21343   3.511   6.855   1.204
 6815SOL    HW121344   3.471   6.942   1.176
 6815SOL    HW221345   3.491   6.838   1.301
 6816SOL     OW21346   7.015   6.991   6.837
 6816SOL    HW121347   6.985   6.981   6.742
 6816SOL    HW221348   6.941   6.961   6.898
 6817SOL     OW21349   1.839   2.073   2.843
 6817SOL    HW121350   1.828   2.172   2.856
 6817SOL    HW221351   1.757   2.026   2.877
 6818SOL     OW21352   3.177   5.811   2.406
 6818SOL    HW121353   3.087   5.839   2.374
 6818SOL    HW221354   3.171   5.781   2.501
 6819SOL     OW21355   5.607   1.115   4.173
 6819SOL    HW121356   5.571   1.185   4.111
 6819SOL    HW221357   5.693   1.146   4.212
 6820SOL     OW21358   2.204   5.396   2.503
 6820SOL    HW121359   2.172   5.458   2.431
 6820SOL    HW221360   2.268   5.445   2.563
 6821SOL     OW21361   3.980   2.180   4.779
 6821SOL    HW121362   4.065   2.193   4.830
 6821SOL    HW221363   3.922   2.260   4.790
 6822SOL     OW21364   5.730   2.465   6.661
 6822SOL    HW121365   5.675   2.441   6.741
 6822SOL    HW221366   5.816   2.507   6.690
 6823SOL     OW21367   4.053   3.128   5.225
 6823SOL    HW121368   4.068   3.208   5.283
 6823SOL    HW221369   4.025   3.157   5.134
 6824SOL     OW21370   0.977   2.176   6.100
 6824SOL    HW121371   1.030   2.165   6.016
 6824SOL    HW221372   0.917   2.255   6.091
 6825SOL     OW21373   5.229   6.451   1.808
 6825SOL    HW121374   5.291   6.445   1.730
 6825SOL    HW221375   5.280   6.439   1.893
 6826SOL     OW21376   1.886   3.861   2.921
 6826SOL    HW121377   1.966   3.819   2.878
 6826SOL    HW221378   1.865   3.947   2.875
 6827SOL     OW21379   4.624   5.557   6.044
 6827SOL    HW121380   4.540   5.612   6.050
 6827SOL    HW221381   4.604   5.471   5.997
 6828SOL     OW21382   2.688   2.117   1.483
 6828SOL    HW121383   2.763   2.156   1.430
 6828SOL    HW221384   2.661   2.181   1.555
 6829SOL     OW21385   4.401   6.874   4.100
 6829SOL    HW121386   4.332   6.946   4.100
 6829SOL    HW221387   4.453   6.878   4.185
 6830SOL     OW21388   5.369   0.809   3.886
 6830SOL    HW121389   5.424   0.777   3.809
 6830SOL    HW221390   5.335   0.730   3.937
 6831SOL     OW21391   1.690   0.712   0.096
 6831SOL    HW121392   1.685   0.650   0.173
 6831SOL    HW221393   1.705   0.660   0.012
 6832SOL     OW21394   3.074   4.214   1.202
 6832SOL    HW121395   3.138   4.283   1.167
 6832SOL    HW221396   2.984   4.255   1.212
 6833SOL     OW21397   3.575   4.595   6.404
 6833SOL    HW121398   3.517   4.541   6.343
 6833SOL    HW221399   3.523   4.619   6.486
 6834SOL     OW21400   5.064   6.490   1.099
 6834SOL    HW121401   4.967   6.515   1.092
 6834SOL    HW221402   5.095   6.454   1.012
 6835SOL     OW21403   4.032   0.121   4.476
 6835SOL    HW121404   3.952   0.175   4.502
 6835SOL    HW221405   4.051   0.053   4.547
 6836SOL     OW21406   2.589   5.296   0.103
 6836SOL    HW121407   2.499   5.340   0.106
 6836SOL    HW221408   2.630   5.297   0.194
 6837SOL     OW21409   0.578   1.736   2.314
 6837SOL    HW121410   0.520   1.688   2.248
 6837SOL    HW221411   0.672   1.739   2.279
 6838SOL     OW21412   2.906   6.166   0.370
 6838SOL    HW121413   2.854   6.219   0.438
 6838SOL    HW221414   2.861   6.077   0.357
 6839SOL     OW21415   5.389   0.811   6.818
 6839SOL    HW121416   5.439   0.898   6.817
 6839SOL    HW221417   5.377   0.781   6.912
 6840SOL     OW21418   3.547   0.614   5.050
 6840SOL    HW121419   3.627   0.664   5.019
 6840SOL    HW221420   3.576   0.535   5.105
 6841SOL     OW21421   4.265   4.214   6.627
 6841SOL    HW121422   4.298   4.120   6.632
 6841SOL    HW221423   4.224   4.240   6.714
 6842SOL     OW21424   1.985   4.201   0.729
 6842SOL    HW121425   2.005   4.286   0.679
 6842SOL    HW221426   1.942   4.135   0.668
 6843SOL     OW21427   6.447   0.041   0.792
 6843SOL    HW121428   6.465   0.073   0.699
 6843SOL    HW221429   6.522   0.069   0.852
 6844SOL     OW21430   5.706   0.426   4.255
 6844SOL    HW121431   5.789   0.457   4.303
 6844SOL    HW221432   5.696   0.478   4.170
 6845SOL     OW21433   6.423   3.398   3.209
 6845SOL    HW121434   6.357   3.323   3.214
 6845SOL    HW221435   6.444   3.417   3.113
 6846SOL     OW21436   3.726   3.249   0.160
 6846SOL    HW121437   3.710   3.268   0.063
 6846SOL    HW221438   3.819   3.215   0.172
 6847SOL     OW21439   0.332   3.454   4.612
 6847SOL    HW121440   0.408   3.513   4.582
 6847SOL    HW221441   0.248   3.508   4.616
 6848SOL     OW21442   4.763   5.154   3.777
 6848SOL    HW121443   4.730   5.098   3.701
 6848SOL    HW221444   4.690   5.215   3.808
 6849SOL     OW21445   4.621   4.344   5.636
 6849SOL    HW121446   4.526   4.328   5.611
 6849SOL    HW221447   4.629   4.431   5.684
 6850SOL     OW21448   5.589   3.461   3.173
 6850SOL    HW121449   5.531   3.542   3.183
 6850SOL    HW221450   5.534   3.379   3.183
 6851SOL     OW21451   6.803   1.943   3.413
 6851SOL    HW121452   6.811   1.940   3.313
 6851SOL    HW221453   6.721   1.996   3.438
 6852SOL     OW21454   2.509   4.608   1.351
 6852SOL    HW121455   2.414   4.605   1.383
 6852SOL    HW221456   2.551   4.518   1.361
 6853SOL     OW21457   5.708   4.573   0.250
 6853SOL    HW121458   5.653   4.624   0.183
 6853SOL    HW221459   5.751   4.638   0.313
 6854SOL     OW21460   4.777   0.723   5.500
 6854SOL    HW121461   4.862   0.679   5.529
 6854SOL    HW221462   4.796   0.818   5.473
 6855SOL     OW21463   4.129   6.557   3.915
 6855SOL    HW121464   4.177   6.591   3.996
 6855SOL    HW221465   4.193   6.548   3.839
 6856SOL     OW21466   0.035   2.234   5.070
 6856SOL    HW121467   7.000   2.310   5.064
 6856SOL    HW221468   7.015   2.148   5.085
 6857SOL     OW21469   1.668   2.757   6.552
 6857SOL    HW121470   1.632   2.781   6.462
 6857SOL    HW221471   1.750   2.701   6.541
 6858SOL     OW21472   4.024   3.757   1.850
 6858SOL    HW121473   4.116   3.720   1.863
 6858SOL    HW221474   3.958   3.700   1.900
 6859SOL     OW21475   1.237   1.258   1.263
 6859SOL    HW121476   1.304   1.184   1.267
 6859SOL    HW221477   1.146   1.219   1.247
 6860SOL     OW21478   0.218   5.229   1.473
 6860SOL    HW121479   0.316   5.218   1.462
 6860SOL    HW221480   0.197   5.257   1.567
 6861SOL     OW21481   4.362   4.301   7.019
 6861SOL    HW121482   4.337   4.214   0.031
 6861SOL    HW221483   4.382   4.368   0.061
 6862SOL     OW21484   0.871   5.611   5.625
 6862SOL    HW121485   0.878   5.693   5.681
 6862SOL    HW221486   0.935   5.617   5.548
 6863SOL     OW21487   6.104   6.494   5.896
 6863SOL    HW121488   6.165   6.489   5.818
 6863SOL    HW221489   6.075   6.589   5.910
 6864SOL     OW21490   2.209   4.760   4.969
 6864SOL    HW121491   2.249   4.842   4.930
 6864SOL    HW221492   2.178   4.700   4.895
 6865SOL     OW21493   0.729   6.132   4.645
 6865SOL    HW121494   0.798   6.205   4.647
 6865SOL    HW221495   0.702   6.114   4.550
 6866SOL     OW21496   5.751   5.453   2.923
 6866SOL    HW121497   5.785   5.365   2.890
 6866SOL    HW221498   5.811   5.526   2.891
 6867SOL     OW21499   2.112   3.775   2.211
 6867SOL    HW121500   2.101   3.728   2.124
 6867SOL    HW221501   2.154   3.865   2.195
 6868SOL     OW21502   1.878   6.383   6.487
 6868SOL    HW121503   1.969   6.380   6.528
 6868SOL    HW221504   1.887   6.389   6.387
 6869SOL     OW21505   4.497   0.949   6.320
 6869SOL    HW121506   4.547   0.952   6.407
 6869SOL    HW221507   4.526   1.026   6.263
 6870SOL     OW21508   0.274   4.425   1.118
 6870SOL    HW121509   0.354   4.402   1.174
 6870SOL    HW221510   0.304   4.466   1.032
 6871SOL     OW21511   6.205   4.234   3.227
 6871SOL    HW121512   6.164   4.307   3.281
 6871SOL    HW221513   6.264   4.179   3.285
 6872SOL     OW21514   7.004   2.458   1.546
 6872SOL    HW121515   0.002   2.397   1.472
 6872SOL    HW221516   6.964   2.405   1.620
 6873SOL     OW21517   0.372   3.464   3.774
 6873SOL    HW121518   0.346   3.427   3.863
 6873SOL    HW221519   0.390   3.562   3.782
 6874SOL     OW21520   6.585   5.166   3.193
 6874SOL    HW121521   6.640   5.200   3.116
 6874SOL    HW221522   6.557   5.072   3.175
 6875SOL     OW21523   2.146   2.483   2.435
 6875SOL    HW121524   2.203   2.449   2.510
 6875SOL    HW221525   2.195   2.554   2.385
 6876SOL     OW21526   4.076   7.026   3.792
 6876SOL    HW121527   4.063   6.971   3.874
 6876SOL    HW221528   4.114   0.085   3.817
 6877SOL     OW21529   3.252   4.073   1.414
 6877SOL    HW121530   3.224   4.142   1.347
 6877SOL    HW221531   3.176   4.012   1.434
 6878SOL     OW21532   3.685   1.303   4.475
 6878SOL    HW121533   3.690   1.323   4.573
 6878SOL    HW221534   3.777   1.294   4.438
 6879SOL     OW21535   1.250   2.828   0.622
 6879SOL    HW121536   1.340   2.834   0.664
 6879SOL    HW221537   1.212   2.920   0.610
 6880SOL     OW21538   1.753   5.387   5.878
 6880SOL    HW121539   1.796   5.429   5.958
 6880SOL    HW221540   1.676   5.443   5.848
 6881SOL     OW21541   1.496   3.947   1.424
 6881SOL    HW121542   1.534   3.860   1.392
 6881SOL    HW221543   1.549   4.023   1.387
 6882SOL     OW21544   2.799   0.786   0.243
 6882SOL    HW121545   2.796   0.743   0.333
 6882SOL    HW221546   2.708   0.786   0.202
 6883SOL     OW21547   5.236   2.579   0.219
 6883SOL    HW121548   5.272   2.653   0.276
 6883SOL    HW221549   5.292   2.570   0.137
 6884SOL     OW21550   1.189   4.397   3.579
 6884SOL    HW121551   1.143   4.333   3.640
 6884SOL    HW221552   1.124   4.433   3.513
 6885SOL     OW21553   4.631   4.993   3.545
 6885SOL    HW121554   4.567   4.920   3.568
 6885SOL    HW221555   4.684   4.967   3.465
 6886SOL     OW21556   6.863   1.496   4.498
 6886SOL    HW121557   6.934   1.498   4.428
 6886SOL    HW221558   6.891   1.433   4.571
 6887SOL     OW21559   4.531   5.429   6.707
 6887SOL    HW121560   4.503   5.343   6.665
 6887SOL    HW221561   4.627   5.424   6.734
 6888SOL     OW21562   5.560   5.641   6.529
 6888SOL    HW121563   5.506   5.724   6.516
 6888SOL    HW221564   5.635   5.639   6.463
 6889SOL     OW21565   1.042   3.036   5.743
 6889SOL    HW121566   0.942   3.032   5.742
 6889SOL    HW221567   1.080   2.949   5.714
 6890SOL     OW21568   3.924   6.216   2.194
 6890SOL    HW121569   3.974   6.280   2.136
 6890SOL    HW221570   3.907   6.258   2.284
 6891SOL     OW21571   2.073   4.446   2.263
 6891SOL    HW121572   2.012   4.431   2.341
 6891SOL    HW221573   2.055   4.536   2.223
 6892SOL     OW21574   3.266   1.908   3.940
 6892SOL    HW121575   3.317   1.895   4.025
 6892SOL    HW221576   3.300   1.846   3.870
 6893SOL     OW21577   4.361   4.219   0.346
 6893SOL    HW121578   4.456   4.188   0.355
 6893SOL    HW221579   4.323   4.240   0.436
 6894SOL     OW21580   5.741   4.502   1.049
 6894SOL    HW121581   5.713   4.586   1.003
 6894SOL    HW221582   5.804   4.524   1.124
 6895SOL     OW21583   2.305   5.052   1.311
 6895SOL    HW121584   2.366   4.981   1.278
 6895SOL    HW221585   2.242   5.014   1.379
 6896SOL     OW21586   2.902   1.627   4.230
 6896SOL    HW121587   2.863   1.541   4.264
 6896SOL    HW221588   3.001   1.626   4.244
 6897SOL     OW21589   4.931   3.674   4.826
 6897SOL    HW121590   4.948   3.771   4.839
 6897SOL    HW221591   4.906   3.632   4.914
 6898SOL     OW21592   4.007   1.654   1.178
 6898SOL    HW121593   4.033   1.681   1.271
 6898SOL    HW221594   4.083   1.671   1.115
 6899SOL     OW21595   4.471   6.075   2.379
 6899SOL    HW121596   4.534   6.136   2.428
 6899SOL    HW221597   4.454   6.111   2.288
 6900SOL     OW21598   6.283   5.203   4.941
 6900SOL    HW121599   6.380   5.199   4.965
 6900SOL    HW221600   6.265   5.137   4.867
 6901SOL     OW21601   6.374   6.242   6.278
 6901SOL    HW121602   6.356   6.317   6.214
 6901SOL    HW221603   6.473   6.229   6.286
 6902SOL     OW21604   6.605   5.594   6.176
 6902SOL    HW121605   6.667   5.516   6.176
 6902SOL    HW221606   6.659   5.679   6.174
 6903SOL     OW21607   3.236   5.117   5.036
 6903SOL    HW121608   3.258   5.039   4.977
 6903SOL    HW221609   3.140   5.142   5.023
 6904SOL     OW21610   5.938   0.691   5.908
 6904SOL    HW121611   6.008   0.747   5.952
 6904SOL    HW221612   5.899   0.742   5.831
 6905SOL     OW21613   5.448   6.062   0.131
 6905SOL    HW121614   5.394   6.017   0.059
 6905SOL    HW221615   5.508   6.130   0.090
 6906SOL     OW21616   3.577   1.693   3.903
 6906SOL    HW121617   3.551   1.754   3.977
 6906SOL    HW221618   3.676   1.681   3.902
 6907SOL     OW21619   5.560   2.407   1.643
 6907SOL    HW121620   5.464   2.398   1.669
 6907SOL    HW221621   5.609   2.322   1.664
 6908SOL     OW21622   1.676   5.690   6.626
 6908SOL    HW121623   1.753   5.642   6.583
 6908SOL    HW221624   1.637   5.633   6.698
 6909SOL     OW21625   5.172   3.833   0.920
 6909SOL    HW121626   5.156   3.932   0.922
 6909SOL    HW221627   5.147   3.793   1.008
 6910SOL     OW21628   1.532   3.797   3.372
 6910SOL    HW121629   1.544   3.721   3.307
 6910SOL    HW221630   1.546   3.763   3.465
 6911SOL     OW21631   4.025   6.907   4.033
 6911SOL    HW121632   4.039   6.992   4.084
 6911SOL    HW221633   4.086   6.836   4.068
 6912SOL     OW21634   2.725   3.370   5.982
 6912SOL    HW121635   2.813   3.328   5.964
 6912SOL    HW221636   2.653   3.300   5.982
 6913SOL     OW21637   5.480   5.969   4.319
 6913SOL    HW121638   5.477   5.879   4.364
 6913SOL    HW221639   5.481   6.041   4.389
 6914SOL     OW21640   5.740   4.387   3.740
 6914SOL    HW121641   5.682   4.467   3.753
 6914SOL    HW221642   5.797   4.373   3.821
 6915SOL     OW21643   6.127   2.818   1.822
 6915SOL    HW121644   6.198   2.821   1.893
 6915SOL    HW221645   6.067   2.897   1.831
 6916SOL     OW21646   5.311   1.666   0.212
 6916SOL    HW121647   5.406   1.695   0.201
 6916SOL    HW221648   5.295   1.583   0.157
 6917SOL     OW21649   3.908   6.618   0.868
 6917SOL    HW121650   4.002   6.650   0.877
 6917SOL    HW221651   3.847   6.678   0.919
 6918SOL     OW21652   0.675   2.350   4.412
 6918SOL    HW121653   0.613   2.428   4.401
 6918SOL    HW221654   0.740   2.348   4.335
 6919SOL     OW21655   5.574   5.727   4.412
 6919SOL    HW121656   5.659   5.700   4.367
 6919SOL    HW221657   5.498   5.674   4.374
 6920SOL     OW21658   4.775   0.133   5.533
 6920SOL    HW121659   4.771   0.232   5.549
 6920SOL    HW221660   4.868   0.106   5.509
 6921SOL     OW21661   4.452   6.025   4.175
 6921SOL    HW121662   4.482   5.954   4.239
 6921SOL    HW221663   4.377   5.991   4.119
 6922SOL     OW21664   2.097   5.613   5.404
 6922SOL    HW121665   2.126   5.538   5.344
 6922SOL    HW221666   2.007   5.645   5.376
 6923SOL     OW21667   5.270   5.443   2.784
 6923SOL    HW121668   5.226   5.518   2.833
 6923SOL    HW221669   5.222   5.358   2.803
 6924SOL     OW21670   1.789   4.542   0.232
 6924SOL    HW121671   1.832   4.453   0.250
 6924SOL    HW221672   1.779   4.555   0.133
 6925SOL     OW21673   4.881   5.958   4.512
 6925SOL    HW121674   4.975   5.958   4.546
 6925SOL    HW221675   4.848   5.863   4.509
 6926SOL     OW21676   2.629   3.085   0.756
 6926SOL    HW121677   2.682   3.145   0.815
 6926SOL    HW221678   2.533   3.088   0.783
 6927SOL     OW21679   3.527   2.967   5.963
 6927SOL    HW121680   3.451   2.930   6.016
 6927SOL    HW221681   3.599   2.897   5.956
 6928SOL     OW21682   5.720   5.491   1.138
 6928SOL    HW121683   5.781   5.463   1.063
 6928SOL    HW221684   5.636   5.529   1.101
 6929SOL     OW21685   4.735   5.538   2.197
 6929SOL    HW121686   4.644   5.545   2.156
 6929SOL    HW221687   4.730   5.482   2.280
 6930SOL     OW21688   1.860   0.867   1.842
 6930SOL    HW121689   1.838   0.838   1.749
 6930SOL    HW221690   1.809   0.950   1.864
 6931SOL     OW21691   1.544   1.136   2.427
 6931SOL    HW121692   1.585   1.046   2.415
 6931SOL    HW221693   1.500   1.165   2.343
 6932SOL     OW21694   4.501   0.262   0.414
 6932SOL    HW121695   4.448   0.317   0.349
 6932SOL    HW221696   4.468   0.279   0.507
 6933SOL     OW21697   3.515   6.179   5.548
 6933SOL    HW121698   3.492   6.122   5.627
 6933SOL    HW221699   3.435   6.184   5.487
 6934SOL     OW21700   4.377   3.218   6.073
 6934SOL    HW121701   4.310   3.258   6.010
 6934SOL    HW221702   4.441   3.288   6.103
 6935SOL     OW21703   4.879   5.768   2.844
 6935SOL    HW121704   4.792   5.724   2.865
 6935SOL    HW221705   4.951   5.699   2.842
 6936SOL     OW21706   6.289   3.295   4.273
 6936SOL    HW121707   6.274   3.206   4.315
 6936SOL    HW221708   6.327   3.282   4.181
 6937SOL     OW21709   6.126   6.152   0.930
 6937SOL    HW121710   6.077   6.117   0.850
 6937SOL    HW221711   6.071   6.222   0.975
 6938SOL     OW21712   6.539   2.641   4.950
 6938SOL    HW121713   6.448   2.658   4.989
 6938SOL    HW221714   6.609   2.667   5.016
 6939SOL     OW21715   0.065   5.143   2.323
 6939SOL    HW121716   0.027   5.050   2.324
 6939SOL    HW221717   0.153   5.142   2.274
 6940SOL     OW21718   3.992   0.374   6.865
 6940SOL    HW121719   3.950   0.315   6.796
 6940SOL    HW221720   3.948   0.464   6.863
 6941SOL     OW21721   2.992   3.697   1.867
 6941SOL    HW121722   3.008   3.725   1.962
 6941SOL    HW221723   2.995   3.778   1.808
 6942SOL     OW21724   6.165   6.707   2.574
 6942SOL    HW121725   6.098   6.706   2.499
 6942SOL    HW221726   6.209   6.797   2.577
 6943SOL     OW21727   4.002   5.878   0.894
 6943SOL    HW121728   4.035   5.823   0.971
 6943SOL    HW221729   3.921   5.930   0.922
 6944SOL     OW21730   1.201   4.851   6.436
 6944SOL    HW121731   1.148   4.788   6.493
 6944SOL    HW221732   1.179   4.945   6.459
 6945SOL     OW21733   6.924   1.636   0.301
 6945SOL    HW121734   6.900   1.721   0.254
 6945SOL    HW221735   6.962   1.657   0.391
 6946SOL     OW21736   4.426   6.911   1.224
 6946SOL    HW121737   4.478   6.931   1.307
 6946SOL    HW221738   4.329   6.922   1.242
 6947SOL     OW21739   3.527   5.490   0.296
 6947SOL    HW121740   3.493   5.482   0.203
 6947SOL    HW221741   3.626   5.474   0.297
 6948SOL     OW21742   1.211   6.326   0.794
 6948SOL    HW121743   1.249   6.332   0.701
 6948SOL    HW221744   1.254   6.394   0.852
 6949SOL     OW21745   3.670   6.974   3.210
 6949SOL    HW121746   3.715   6.887   3.232
 6949SOL    HW221747   3.730   7.029   3.152
 6950SOL     OW21748   1.708   1.317   5.109
 6950SOL    HW121749   1.723   1.315   5.010
 6950SOL    HW221750   1.735   1.229   5.149
 6951SOL     OW21751   6.865   5.523   5.942
 6951SOL    HW121752   6.945   5.493   5.993
 6951SOL    HW221753   6.819   5.596   5.992
 6952SOL     OW21754   0.937   5.153   3.095
 6952SOL    HW121755   0.873   5.202   3.154
 6952SOL    HW221756   0.887   5.103   3.025
 6953SOL     OW21757   4.774   6.493   1.064
 6953SOL    HW121758   4.756   6.399   1.094
 6953SOL    HW221759   4.741   6.557   1.133
 6954SOL     OW21760   0.886   4.075   1.802
 6954SOL    HW121761   0.885   4.005   1.873
 6954SOL    HW221762   0.861   4.034   1.714
 6955SOL     OW21763   5.419   0.814   1.978
 6955SOL    HW121764   5.325   0.784   1.967
 6955SOL    HW221765   5.479   0.756   1.923
 6956SOL     OW21766   5.039   5.398   3.411
 6956SOL    HW121767   5.004   5.313   3.450
 6956SOL    HW221768   5.110   5.436   3.471
 6957SOL     OW21769   6.322   5.981   0.944
 6957SOL    HW121770   6.299   5.921   0.868
 6957SOL    HW221771   6.252   6.053   0.952
 6958SOL     OW21772   4.039   3.181   4.961
 6958SOL    HW121773   4.128   3.139   4.941
 6958SOL    HW221774   4.042   3.278   4.937
 6959SOL     OW21775   2.143   3.036   2.927
 6959SOL    HW121776   2.088   3.116   2.905
 6959SOL    HW221777   2.186   3.049   3.017
 6960SOL     OW21778   2.174   3.986   1.472
 6960SOL    HW121779   2.161   3.904   1.527
 6960SOL    HW221780   2.240   3.967   1.399
 6961SOL     OW21781   6.113   0.314   4.743
 6961SOL    HW121782   6.041   0.245   4.733
 6961SOL    HW221783   6.083   0.384   4.807
 6962SOL     OW21784   4.382   5.749   1.607
 6962SOL    HW121785   4.419   5.777   1.695
 6962SOL    HW221786   4.399   5.821   1.539
 6963SOL     OW21787   5.231   5.575   1.190
 6963SOL    HW121788   5.262   5.664   1.225
 6963SOL    HW221789   5.303   5.533   1.135
 6964SOL     OW21790   3.875   1.478   5.893
 6964SOL    HW121791   3.872   1.414   5.817
 6964SOL    HW221792   3.881   1.427   5.979
 6965SOL     OW21793   2.219   1.257   0.088
 6965SOL    HW121794   2.160   1.225   0.013
 6965SOL    HW221795   2.314   1.255   0.058
 6966SOL     OW21796   0.766   1.250   2.672
 6966SOL    HW121797   0.859   1.212   2.679
 6966SOL    HW221798   0.722   1.214   2.590
 6967SOL     OW21799   3.138   1.089   6.385
 6967SOL    HW121800   3.046   1.124   6.399
 6967SOL    HW221801   3.203   1.142   6.440
 6968SOL     OW21802   3.697   1.020   3.871
 6968SOL    HW121803   3.727   1.069   3.952
 6968SOL    HW221804   3.776   0.990   3.818
 6969SOL     OW21805   2.928   2.380   1.498
 6969SOL    HW121806   2.913   2.312   1.427
 6969SOL    HW221807   2.922   2.472   1.459
 6970SOL     OW21808   3.845   3.703   5.592
 6970SOL    HW121809   3.931   3.701   5.643
 6970SOL    HW221810   3.860   3.742   5.502
 6971SOL     OW21811   6.366   4.737   0.591
 6971SOL    HW121812   6.294   4.793   0.631
 6971SOL    HW221813   6.334   4.643   0.583
 6972SOL     OW21814   5.168   4.660   3.040
 6972SOL    HW121815   5.265   4.640   3.026
 6972SOL    HW221816   5.119   4.575   3.060
 6973SOL     OW21817   0.228   2.954   3.059
 6973SOL    HW121818   0.303   2.889   3.070
 6973SOL    HW221819   0.141   2.905   3.068
 6974SOL     OW21820   2.878   3.664   2.472
 6974SOL    HW121821   2.784   3.691   2.450
 6974SOL    HW221822   2.939   3.742   2.462
 6975SOL     OW21823   1.631   6.503   5.379
 6975SOL    HW121824   1.572   6.522   5.300
 6975SOL    HW221825   1.726   6.518   5.354
 6976SOL     OW21826   6.737   4.873   5.820
 6976SOL    HW121827   6.809   4.812   5.786
 6976SOL    HW221828   6.755   4.894   5.916
 6977SOL     OW21829   3.502   3.080   0.663
 6977SOL    HW121830   3.570   3.041   0.725
 6977SOL    HW221831   3.443   3.007   0.629
 6978SOL     OW21832   5.079   2.417   2.034
 6978SOL    HW121833   5.171   2.383   2.017
 6978SOL    HW221834   5.017   2.385   1.962
 6979SOL     OW21835   1.094   4.127   1.422
 6979SOL    HW121836   1.154   4.134   1.502
 6979SOL    HW221837   1.146   4.090   1.345
 6980SOL     OW21838   2.262   0.636   3.298
 6980SOL    HW121839   2.173   0.589   3.304
 6980SOL    HW221840   2.247   0.732   3.276
 6981SOL     OW21841   3.438   3.956   5.606
 6981SOL    HW121842   3.486   3.871   5.630
 6981SOL    HW221843   3.350   3.959   5.653
 6982SOL     OW21844   1.063   1.121   4.866
 6982SOL    HW121845   1.060   1.198   4.931
 6982SOL    HW221846   1.112   1.045   4.908
 6983SOL     OW21847   4.492   1.743   4.784
 6983SOL    HW121848   4.588   1.768   4.796
 6983SOL    HW221849   4.439   1.826   4.764
 6984SOL     OW21850   2.327   1.729   3.300
 6984SOL    HW121851   2.284   1.803   3.248
 6984SOL    HW221852   2.282   1.721   3.389
 6985SOL     OW21853   5.963   5.386   0.998
 6985SOL    HW121854   5.914   5.301   1.019
 6985SOL    HW221855   6.037   5.398   1.063
 6986SOL     OW21856   3.057   0.178   6.588
 6986SOL    HW121857   3.006   0.196   6.503
 6986SOL    HW221858   3.036   0.085   6.620
 6987SOL     OW21859   6.540   1.625   6.288
 6987SOL    HW121860   6.467   1.624   6.220
 6987SOL    HW221861   6.532   1.545   6.347
 6988SOL     OW21862   1.039   0.020   6.777
 6988SOL    HW121863   1.138   0.010   6.760
 6988SOL    HW221864   0.996   6.960   6.773
 6989SOL     OW21865   0.423   4.418   2.770
 6989SOL    HW121866   0.367   4.449   2.693
 6989SOL    HW221867   0.493   4.487   2.789
 6990SOL     OW21868   4.289   2.761   0.925
 6990SOL    HW121869   4.336   2.716   0.849
 6990SOL    HW221870   4.205   2.805   0.892
 6991SOL     OW21871   4.748   4.490   3.663
 6991SOL    HW121872   4.813   4.567   3.659
 6991SOL    HW221873   4.791   4.413   3.710
 6992SOL     OW21874   5.926   0.513   6.514
 6992SOL    HW121875   5.838   0.525   6.559
 6992SOL    HW221876   5.966   0.603   6.494
 6993SOL     OW21877   6.023   6.893   2.157
 6993SOL    HW121878   5.924   6.907   2.162
 6993SOL    HW221879   6.069   6.962   2.214
 6994SOL     OW21880   7.026   2.171   3.975
 6994SOL    HW121881   6.968   2.097   4.010
 6994SOL    HW221882   7.020   2.250   4.036
 6995SOL     OW21883   0.920   4.047   6.414
 6995SOL    HW121884   0.954   4.002   6.496
 6995SOL    HW221885   0.833   4.007   6.387
 6996SOL     OW21886   2.348   0.329   0.262
 6996SOL    HW121887   2.371   0.290   0.352
 6996SOL    HW221888   2.263   0.381   0.269
 6997SOL     OW21889   0.571   4.952   4.889
 6997SOL    HW121890   0.622   4.986   4.810
 6997SOL    HW221891   0.484   4.913   4.857
 6998SOL     OW21892   1.365   1.738   1.316
 6998SOL    HW121893   1.462   1.735   1.289
 6998SOL    HW221894   1.359   1.748   1.415
 6999SOL     OW21895   1.661   3.440   6.117
 6999SOL    HW121896   1.594   3.404   6.183
 6999SOL    HW221897   1.656   3.387   6.033
 7000SOL     OW21898   5.955   6.349   2.071
 7000SOL    HW121899   5.964   6.250   2.061
 7000SOL    HW221900   5.989   6.395   1.988
 7001SOL     OW21901   1.290   3.323   5.102
 7001SOL    HW121902   1.363   3.369   5.051
 7001SOL    HW221903   1.288   3.226   5.074
 7002SOL     OW21904   2.024   5.315   4.514
 7002SOL    HW121905   1.989   5.361   4.433
 7002SOL    HW221906   1.955   5.318   4.587
 7003SOL     OW21907   4.273   5.867   1.219
 7003SOL    HW121908   4.301   5.905   1.131
 7003SOL    HW221909   4.312   5.921   1.293
 7004SOL     OW21910   0.627   5.990   1.143
 7004SOL    HW121911   0.628   5.898   1.105
 7004SOL    HW221912   0.550   6.041   1.105
 7005SOL     OW21913   1.014   0.307   0.997
 7005SOL    HW121914   1.017   0.233   0.929
 7005SOL    HW221915   0.926   0.306   1.044
 7006SOL     OW21916   5.694   5.486   3.453
 7006SOL    HW121917   5.765   5.416   3.445
 7006SOL    HW221918   5.661   5.511   3.362
 7007SOL     OW21919   3.912   0.844   4.726
 7007SOL    HW121920   3.856   0.883   4.654
 7007SOL    HW221921   3.993   0.900   4.740
 7008SOL     OW21922   0.799   4.228   4.125
 7008SOL    HW121923   0.797   4.223   4.025
 7008SOL    HW221924   0.849   4.310   4.152
 7009SOL     OW21925   3.876   6.473   2.780
 7009SOL    HW121926   3.873   6.492   2.878
 7009SOL    HW221927   3.853   6.556   2.729
 7010SOL     OW21928   5.351   4.041   3.876
 7010SOL    HW121929   5.395   3.983   3.944
 7010SOL    HW221930   5.393   4.025   3.787
 7011SOL     OW21931   3.295   6.518   6.810
 7011SOL    HW121932   3.218   6.481   6.758
 7011SOL    HW221933   3.294   6.480   6.902
 7012SOL     OW21934   1.134   1.850   0.973
 7012SOL    HW121935   1.048   1.885   0.936
 7012SOL    HW221936   1.135   1.750   0.965
 7013SOL     OW21937   1.178   6.683   6.732
 7013SOL    HW121938   1.237   6.603   6.718
 7013SOL    HW221939   1.186   6.744   6.654
 7014SOL     OW21940   4.832   3.243   0.504
 7014SOL    HW121941   4.799   3.151   0.526
 7014SOL    HW221942   4.805   3.307   0.576
 7015SOL     OW21943   5.760   4.130   1.113
 7015SOL    HW121944   5.668   4.154   1.085
 7015SOL    HW221945   5.758   4.089   1.205
 7016SOL     OW21946   3.763   4.753   1.231
 7016SOL    HW121947   3.747   4.812   1.151
 7016SOL    HW221948   3.727   4.798   1.313
 7017SOL     OW21949   3.099   5.503   3.353
 7017SOL    HW121950   3.047   5.495   3.437
 7017SOL    HW221951   3.161   5.425   3.344
 7018SOL     OW21952   5.086   3.722   4.184
 7018SOL    HW121953   5.178   3.726   4.222
 7018SOL    HW221954   5.085   3.762   4.092
 7019SOL     OW21955   3.489   4.912   0.567
 7019SOL    HW121956   3.489   4.957   0.478
 7019SOL    HW221957   3.505   4.814   0.554
 7020SOL     OW21958   6.921   3.985   5.128
 7020SOL    HW121959   6.987   3.933   5.074
 7020SOL    HW221960   6.837   3.997   5.075
 7021SOL     OW21961   2.025   2.340   4.640
 7021SOL    HW121962   1.968   2.343   4.722
 7021SOL    HW221963   1.972   2.370   4.561
 7022SOL     OW21964   4.855   0.130   6.729
 7022SOL    HW121965   4.878   0.194   6.802
 7022SOL    HW221966   4.926   0.135   6.658
 7023SOL     OW21967   0.862   2.964   2.246
 7023SOL    HW121968   0.880   2.872   2.280
 7023SOL    HW221969   0.854   2.962   2.146
 7024SOL     OW21970   3.063   3.594   4.493
 7024SOL    HW121971   3.072   3.494   4.497
 7024SOL    HW221972   3.095   3.627   4.404
 7025SOL     OW21973   4.062   1.110   1.324
 7025SOL    HW121974   4.047   1.123   1.226
 7025SOL    HW221975   3.994   1.161   1.375
 7026SOL     OW21976   3.649   2.098   2.240
 7026SOL    HW121977   3.673   2.140   2.153
 7026SOL    HW221978   3.549   2.089   2.246
 7027SOL     OW21979   2.676   5.647   4.490
 7027SOL    HW121980   2.688   5.683   4.582
 7027SOL    HW221981   2.579   5.649   4.466
 7028SOL     OW21982   3.529   1.219   3.376
 7028SOL    HW121983   3.457   1.225   3.446
 7028SOL    HW221984   3.494   1.256   3.290
 7029SOL     OW21985   4.311   4.134   5.332
 7029SOL    HW121986   4.242   4.181   5.277
 7029SOL    HW221987   4.274   4.048   5.365
 7030SOL     OW21988   6.974   1.067   4.524
 7030SOL    HW121989   6.972   1.029   4.432
 7030SOL    HW221990   6.928   1.005   4.587
 7031SOL     OW21991   4.053   6.237   6.983
 7031SOL    HW121992   3.972   6.184   7.008
 7031SOL    HW221993   4.028   6.333   6.973
 7032SOL     OW21994   3.905   1.338   3.725
 7032SOL    HW121995   3.888   1.415   3.665
 7032SOL    HW221996   3.851   1.348   3.808
 7033SOL     OW21997   1.230   2.588   3.469
 7033SOL    HW121998   1.287   2.507   3.486
 7033SOL    HW221999   1.247   2.622   3.377
 7034SOL     OW22000   0.097   1.610   2.774
 7034SOL    HW122001   7.027   1.605   2.769
 7034SOL    HW222002   0.125   1.698   2.812
 7035SOL     OW22003   1.633   0.019   0.783
 7035SOL    HW122004   1.627   0.113   0.748
 7035SOL    HW222005   1.553   6.998   0.753
 7036SOL     OW22006   6.820   1.230   2.250
 7036SOL    HW122007   6.885   1.187   2.314
 7036SOL    HW222008   6.849   1.211   2.156
 7037SOL     OW22009   0.869   1.249   6.496
 7037SOL    HW122010   0.932   1.187   6.544
 7037SOL    HW222011   0.813   1.196   6.432
 7038SOL     OW22012   2.369   4.380   4.776
 7038SOL    HW122013   2.404   4.394   4.869
 7038SOL    HW222014   2.308   4.301   4.775
 7039SOL     OW22015   0.156   6.202   3.141
 7039SOL    HW122016   0.252   6.175   3.131
 7039SOL    HW222017   0.138   6.280   3.080
 7040SOL     OW22018   5.560   2.895   6.145
 7040SOL    HW122019   5.473   2.944   6.149
 7040SOL    HW222020   5.635   2.959   6.162
 7041SOL     OW22021   6.984   1.582   2.165
 7041SOL    HW122022   6.933   1.668   2.167
 7041SOL    HW222023   7.022   1.564   2.256
 7042SOL     OW22024   4.498   6.234   4.363
 7042SOL    HW122025   4.470   6.160   4.302
 7042SOL    HW222026   4.595   6.225   4.384
 7043SOL     OW22027   2.218   4.770   3.579
 7043SOL    HW122028   2.309   4.787   3.618
 7043SOL    HW222029   2.166   4.710   3.639
 7044SOL     OW22030   5.316   5.436   5.395
 7044SOL    HW122031   5.385   5.418   5.466
 7044SOL    HW222032   5.265   5.519   5.419
 7045SOL     OW22033   4.998   5.528   2.345
 7045SOL    HW122034   5.078   5.512   2.403
 7045SOL    HW222035   4.924   5.567   2.400
 7046SOL     OW22036   3.271   1.609   3.328
 7046SOL    HW122037   3.364   1.643   3.340
 7046SOL    HW222038   3.257   1.531   3.389
 7047SOL     OW22039   6.499   0.895   1.888
 7047SOL    HW122040   6.450   0.939   1.964
 7047SOL    HW222041   6.490   0.796   1.895
 7048SOL     OW22042   5.714   6.585   4.647
 7048SOL    HW122043   5.737   6.574   4.550
 7048SOL    HW222044   5.672   6.674   4.660
 7049SOL     OW22045   3.772   2.106   0.812
 7049SOL    HW122046   3.804   2.118   0.906
 7049SOL    HW222047   3.817   2.026   0.772
 7050SOL     OW22048   4.063   3.272   1.519
 7050SOL    HW122049   4.163   3.272   1.527
 7050SOL    HW222050   4.024   3.229   1.600
 7051SOL     OW22051   6.936   6.386   1.336
 7051SOL    HW122052   6.924   6.332   1.419
 7051SOL    HW222053   6.980   6.330   1.266
 7052SOL     OW22054   6.580   0.906   4.242
 7052SOL    HW122055   6.576   0.817   4.197
 7052SOL    HW222056   6.543   0.976   4.181
 7053SOL     OW22057   1.424   3.707   4.444
 7053SOL    HW122058   1.505   3.647   4.441
 7053SOL    HW222059   1.392   3.714   4.539
 7054SOL     OW22060   6.923   6.767   0.829
 7054SOL    HW122061   7.015   6.754   0.791
 7054SOL    HW222062   6.924   6.743   0.926
 7055SOL     OW22063   2.899   0.290   0.201
 7055SOL    HW122064   2.930   0.260   0.291
 7055SOL    HW222065   2.808   0.254   0.183
 7056SOL     OW22066   6.648   5.096   1.519
 7056SOL    HW122067   6.598   5.175   1.483
 7056SOL    HW222068   6.720   5.127   1.582
 7057SOL     OW22069   2.896   4.888   3.894
 7057SOL    HW122070   2.894   4.871   3.796
 7057SOL    HW222071   2.966   4.956   3.915
 7058SOL     OW22072   5.537   2.380   6.007
 7058SOL    HW122073   5.619   2.425   6.041
 7058SOL    HW222074   5.470   2.373   6.081
 7059SOL     OW22075   1.353   1.051   3.995
 7059SOL    HW122076   1.403   1.074   4.079
 7059SOL    HW222077   1.311   0.961   4.005
 7060SOL     OW22078   3.481   0.442   0.729
 7060SOL    HW122079   3.409   0.511   0.728
 7060SOL    HW222080   3.551   0.468   0.796
 7061SOL     OW22081   6.999   2.752   3.617
 7061SOL    HW122082   6.910   2.758   3.662
 7061SOL    HW222083   7.010   2.832   3.557
 7062SOL     OW22084   3.562   2.180   5.243
 7062SOL    HW122085   3.649   2.147   5.206
 7062SOL    HW222086   3.487   2.146   5.187
 7063SOL     OW22087   1.624   0.016   2.014
 7063SOL    HW122088   1.623   7.014   2.109
 7063SOL    HW222089   1.719   0.025   1.984
 7064SOL     OW22090   4.121   2.261   6.924
 7064SOL    HW122091   4.108   2.296   6.831
 7064SOL    HW222092   4.217   2.271   6.950
 7065SOL     OW22093   3.021   4.076   5.056
 7065SOL    HW122094   3.014   4.012   4.980
 7065SOL    HW222095   2.986   4.166   5.029
 7066SOL     OW22096   4.311   0.087   6.063
 7066SOL    HW122097   4.250   0.026   6.013
 7066SOL    HW222098   4.289   0.182   6.040
 7067SOL     OW22099   0.918   3.718   5.602
 7067SOL    HW122100   0.911   3.816   5.583
 7067SOL    HW222101   0.967   3.673   5.528
 7068SOL     OW22102   5.615   4.201   4.645
 7068SOL    HW122103   5.665   4.122   4.680
 7068SOL    HW222104   5.549   4.231   4.714
 7069SOL     OW22105   6.084   1.366   5.427
 7069SOL    HW122106   6.049   1.358   5.334
 7069SOL    HW222107   6.176   1.406   5.424
 7070SOL     OW22108   1.171   6.719   4.256
 7070SOL    HW122109   1.073   6.720   4.277
 7070SOL    HW222110   1.197   6.806   4.215
 7071SOL     OW22111   3.669   5.752   7.011
 7071SOL    HW122112   3.733   5.744   0.058
 7071SOL    HW222113   3.599   5.819   0.003
 7072SOL     OW22114   2.298   5.058   7.018
 7072SOL    HW122115   2.294   5.055   6.918
 7072SOL    HW222116   2.229   4.996   0.026
 7073SOL     OW22117   3.886   0.249   3.506
 7073SOL    HW122118   3.801   0.287   3.470
 7073SOL    HW222119   3.963   0.280   3.449
 7074SOL     OW22120   6.173   2.778   3.047
 7074SOL    HW122121   6.265   2.805   3.075
 7074SOL    HW222122   6.118   2.859   3.029
 7075SOL     OW22123   2.290   4.762   4.507
 7075SOL    HW122124   2.266   4.670   4.476
 7075SOL    HW222125   2.298   4.823   4.428
 7076SOL     OW22126   5.610   3.117   0.410
 7076SOL    HW122127   5.594   3.153   0.502
 7076SOL    HW222128   5.565   3.029   0.400
 7077SOL     OW22129   2.233   3.992   3.872
 7077SOL    HW122130   2.274   3.954   3.789
 7077SOL    HW222131   2.238   3.924   3.946
 7078SOL     OW22132   6.295   6.320   1.234
 7078SOL    HW122133   6.336   6.295   1.146
 7078SOL    HW222134   6.256   6.412   1.228
 7079SOL     OW22135   0.967   6.771   3.381
 7079SOL    HW122136   0.883   6.825   3.379
 7079SOL    HW222137   0.951   6.685   3.429
 7080SOL     OW22138   3.858   1.733   3.918
 7080SOL    HW122139   3.898   1.740   4.010
 7080SOL    HW222140   3.931   1.729   3.850
 7081SOL     OW22141   1.094   5.324   0.425
 7081SOL    HW122142   1.086   5.318   0.326
 7081SOL    HW222143   1.160   5.396   0.448
 7082SOL     OW22144   6.966   4.145   0.444
 7082SOL    HW122145   6.948   4.052   0.412
 7082SOL    HW222146   6.908   4.209   0.393
 7083SOL     OW22147   0.211   1.246   2.409
 7083SOL    HW122148   0.168   1.264   2.320
 7083SOL    HW222149   0.151   1.278   2.482
 7084SOL     OW22150   0.768   5.248   5.793
 7084SOL    HW122151   0.858   5.224   5.757
 7084SOL    HW222152   0.775   5.332   5.847
 7085SOL     OW22153   6.646   2.304   2.580
 7085SOL    HW122154   6.696   2.284   2.496
 7085SOL    HW222155   6.653   2.226   2.643
 7086SOL     OW22156   5.333   0.884   6.037
 7086SOL    HW122157   5.247   0.859   5.992
 7086SOL    HW222158   5.406   0.821   6.007
 7087SOL     OW22159   5.775   3.989   2.819
 7087SOL    HW122160   5.763   3.909   2.761
 7087SOL    HW222161   5.705   4.057   2.797
 7088SOL     OW22162   5.084   2.529   5.432
 7088SOL    HW122163   4.993   2.571   5.427
 7088SOL    HW222164   5.075   2.430   5.436
 7089SOL     OW22165   2.155   3.293   3.451
 7089SOL    HW122166   2.180   3.348   3.531
 7089SOL    HW222167   2.095   3.346   3.392
 7090SOL     OW22168   2.349   1.599   0.300
 7090SOL    HW122169   2.260   1.557   0.283
 7090SOL    HW222170   2.371   1.662   0.226
 7091SOL     OW22171   0.474   0.830   1.128
 7091SOL    HW122172   0.533   0.845   1.207
 7091SOL    HW222173   0.439   0.736   1.130
 7092SOL     OW22174   3.763   2.927   5.612
 7092SOL    HW122175   3.702   2.986   5.665
 7092SOL    HW222176   3.803   2.859   5.673
 7093SOL     OW22177   3.341   4.227   1.691
 7093SOL    HW122178   3.323   4.175   1.607
 7093SOL    HW222179   3.421   4.189   1.736
 7094SOL     OW22180   0.682   0.374   5.592
 7094SOL    HW122181   0.680   0.469   5.624
 7094SOL    HW222182   0.661   0.313   5.668
 7095SOL     OW22183   3.058   4.716   5.945
 7095SOL    HW122184   3.055   4.627   5.899
 7095SOL    HW222185   2.965   4.750   5.955
 7096SOL     OW22186   6.336   0.059   1.548
 7096SOL    HW122187   6.316   0.060   1.450
 7096SOL    HW222188   6.417   0.114   1.566
 7097SOL     OW22189   5.471   1.008   1.646
 7097SOL    HW122190   5.488   1.030   1.742
 7097SOL    HW222191   5.520   0.924   1.622
 7098SOL     OW22192   1.469   5.538   5.584
 7098SOL    HW122193   1.462   5.579   5.493
 7098SOL    HW222194   1.564   5.542   5.614
 7099SOL     OW22195   3.522   2.082   4.273
 7099SOL    HW122196   3.585   2.136   4.217
 7099SOL    HW222197   3.563   2.063   4.362
 7100SOL     OW22198   6.118   3.050   0.574
 7100SOL    HW122199   6.188   3.027   0.506
 7100SOL    HW222200   6.062   2.969   0.592
 7101SOL     OW22201   2.250   0.893   5.151
 7101SOL    HW122202   2.230   0.984   5.113
 7101SOL    HW222203   2.165   0.840   5.155
 7102SOL     OW22204   5.642   0.216   0.736
 7102SOL    HW122205   5.582   0.154   0.685
 7102SOL    HW222206   5.602   0.235   0.826
 7103SOL     OW22207   5.421   5.390   1.674
 7103SOL    HW122208   5.383   5.476   1.707
 7103SOL    HW222209   5.520   5.400   1.659
 7104SOL     OW22210   6.285   3.568   2.648
 7104SOL    HW122211   6.290   3.663   2.678
 7104SOL    HW222212   6.204   3.524   2.688
 7105SOL     OW22213   3.529   3.172   4.857
 7105SOL    HW122214   3.528   3.072   4.848
 7105SOL    HW222215   3.435   3.205   4.866
 7106SOL     OW22216   3.341   2.908   1.380
 7106SOL    HW122217   3.345   2.996   1.333
 7106SOL    HW222218   3.323   2.922   1.477
 7107SOL     OW22219   4.642   0.466   0.602
 7107SOL    HW122220   4.618   0.492   0.508
 7107SOL    HW222221   4.577   0.398   0.635
 7108SOL     OW22222   2.825   5.700   3.013
 7108SOL    HW122223   2.912   5.655   3.030
 7108SOL    HW222224   2.778   5.655   2.937
 7109SOL     OW22225   2.052   0.942   6.912
 7109SOL    HW122226   2.101   1.026   6.891
 7109SOL    HW222227   2.019   0.901   6.826
 7110SOL     OW22228   2.981   5.810   4.205
 7110SOL    HW122229   2.907   5.811   4.138
 7110SOL    HW222230   2.967   5.736   4.270
 7111SOL     OW22231   1.852   2.125   4.261
 7111SOL    HW122232   1.892   2.212   4.232
 7111SOL    HW222233   1.829   2.131   4.359
 7112SOL     OW22234   1.765   4.989   4.541
 7112SOL    HW122235   1.751   4.916   4.474
 7112SOL    HW222236   1.708   5.067   4.519
 7113SOL     OW22237   3.390   4.086   4.919
 7113SOL    HW122238   3.346   4.138   4.993
 7113SOL    HW222239   3.461   4.141   4.876
 7114SOL     OW22240   4.503   5.114   1.374
 7114SOL    HW122241   4.449   5.083   1.453
 7114SOL    HW222242   4.477   5.208   1.351
 7115SOL     OW22243   5.551   3.320   6.485
 7115SOL    HW122244   5.505   3.302   6.398
 7115SOL    HW222245   5.484   3.318   6.560
 7116SOL     OW22246   5.214   4.281   3.273
 7116SOL    HW122247   5.293   4.339   3.293
 7116SOL    HW222248   5.245   4.188   3.256
 7117SOL     OW22249   0.339   6.958   4.696
 7117SOL    HW122250   0.396   7.021   4.643
 7117SOL    HW222251   0.397   6.898   4.750
 7118SOL     OW22252   3.737   4.230   5.818
 7118SOL    HW122253   3.704   4.248   5.911
 7118SOL    HW222254   3.725   4.133   5.797
 7119SOL     OW22255   5.476   0.534   5.095
 7119SOL    HW122256   5.407   0.505   5.029
 7119SOL    HW222257   5.448   0.505   5.187
 7120SOL     OW22258   3.609   1.800   1.286
 7120SOL    HW122259   3.595   1.705   1.256
 7120SOL    HW222260   3.661   1.800   1.372
 7121SOL     OW22261   0.562   6.569   2.911
 7121SOL    HW122262   0.544   6.573   3.010
 7121SOL    HW222263   0.511   6.642   2.865
 7122SOL     OW22264   1.584   0.729   5.636
 7122SOL    HW122265   1.647   0.770   5.702
 7122SOL    HW222266   1.498   0.780   5.636
 7123SOL     OW22267   0.696   5.344   3.699
 7123SOL    HW122268   0.598   5.347   3.679
 7123SOL    HW222269   0.710   5.325   3.796
 7124SOL     OW22270   0.870   2.586   1.596
 7124SOL    HW122271   0.842   2.679   1.573
 7124SOL    HW222272   0.952   2.590   1.654
 7125SOL     OW22273   1.020   1.268   1.005
 7125SOL    HW122274   0.924   1.267   0.978
 7125SOL    HW222275   1.049   1.362   1.023
 7126SOL     OW22276   4.219   6.167   0.487
 7126SOL    HW122277   4.297   6.122   0.530
 7126SOL    HW222278   4.204   6.257   0.530
 7127SOL     OW22279   2.513   6.394   6.193
 7127SOL    HW122280   2.608   6.415   6.215
 7127SOL    HW222281   2.455   6.419   6.270
 7128SOL     OW22282   3.734   4.072   6.806
 7128SOL    HW122283   3.636   4.094   6.809
 7128SOL    HW222284   3.752   3.995   6.867
 7129SOL     OW22285   1.913   1.264   1.193
 7129SOL    HW122286   1.868   1.331   1.252
 7129SOL    HW222287   1.858   1.180   1.191
 7130SOL     OW22288   3.823   6.452   4.581
 7130SOL    HW122289   3.724   6.454   4.586
 7130SOL    HW222290   3.861   6.429   4.670
 7131SOL     OW22291   3.261   1.052   1.561
 7131SOL    HW122292   3.203   1.129   1.533
 7131SOL    HW222293   3.204   0.976   1.591
 7132SOL     OW22294   4.627   4.152   0.414
 7132SOL    HW122295   4.723   4.156   0.388
 7132SOL    HW222296   4.616   4.084   0.487
 7133SOL     OW22297   4.240   4.841   4.974
 7133SOL    HW122298   4.182   4.798   5.043
 7133SOL    HW222299   4.183   4.871   4.897
 7134SOL     OW22300   5.092   6.535   2.383
 7134SOL    HW122301   5.011   6.509   2.436
 7134SOL    HW222302   5.160   6.461   2.386
 7135SOL     OW22303   2.308   2.806   2.864
 7135SOL    HW122304   2.277   2.895   2.895
 7135SOL    HW222305   2.289   2.737   2.934
 7136SOL     OW22306   3.245   2.086   0.748
 7136SOL    HW122307   3.344   2.097   0.746
 7136SOL    HW222308   3.208   2.129   0.830
 7137SOL     OW22309   2.861   1.949   0.151
 7137SOL    HW122310   2.831   1.965   0.245
 7137SOL    HW222311   2.927   2.019   0.124
 7138SOL     OW22312   1.904   1.364   0.939
 7138SOL    HW122313   1.812   1.327   0.929
 7138SOL    HW222314   1.949   1.321   1.017
 7139SOL     OW22315   5.340   4.639   2.383
 7139SOL    HW122316   5.421   4.589   2.353
 7139SOL    HW222317   5.368   4.725   2.425
 7140SOL     OW22318   6.155   4.107   0.911
 7140SOL    HW122319   6.239   4.083   0.959
 7140SOL    HW222320   6.076   4.067   0.959
 7141SOL     OW22321   4.597   6.972   0.958
 7141SOL    HW122322   4.655   6.963   1.039
 7141SOL    HW222323   4.501   6.965   0.985
 7142SOL     OW22324   3.713   6.914   4.060
 7142SOL    HW122325   3.706   6.864   4.147
 7142SOL    HW222326   3.808   6.911   4.028
 7143SOL     OW22327   1.930   3.816   6.980
 7143SOL    HW122328   1.924   3.787   0.045
 7143SOL    HW222329   1.865   3.763   6.925
 7144SOL     OW22330   0.815   0.855   3.197
 7144SOL    HW122331   0.788   0.906   3.116
 7144SOL    HW222332   0.914   0.847   3.200
 7145SOL     OW22333   4.580   1.022   6.778
 7145SOL    HW122334   4.645   1.081   6.825
 7145SOL    HW222335   4.495   1.071   6.762
 7146SOL     OW22336   1.768   1.271   6.108
 7146SOL    HW122337   1.673   1.301   6.103
 7146SOL    HW222338   1.791   1.252   6.204
 7147SOL     OW22339   6.650   6.078   3.314
 7147SOL    HW122340   6.702   6.138   3.253
 7147SOL    HW222341   6.627   6.128   3.398
 7148SOL     OW22342   6.110   6.032   1.729
 7148SOL    HW122343   6.159   5.982   1.800
 7148SOL    HW222344   6.022   5.988   1.712
 7149SOL     OW22345   0.430   5.004   3.649
 7149SOL    HW122346   0.502   5.041   3.590
 7149SOL    HW222347   0.341   5.037   3.619
 7150SOL     OW22348   3.426   3.274   0.258
 7150SOL    HW122349   3.418   3.370   0.231
 7150SOL    HW222350   3.516   3.257   0.298
 7151SOL     OW22351   3.130   6.460   1.118
 7151SOL    HW122352   3.145   6.379   1.174
 7151SOL    HW222353   3.053   6.444   1.056
 7152SOL     OW22354   6.331   0.527   6.616
 7152SOL    HW122355   6.340   0.529   6.516
 7152SOL    HW222356   6.390   0.454   6.652
 7153SOL     OW22357   3.748   5.256   1.747
 7153SOL    HW122358   3.801   5.214   1.821
 7153SOL    HW222359   3.657   5.280   1.781
 7154SOL     OW22360   4.407   6.823   3.144
 7154SOL    HW122361   4.390   6.921   3.137
 7154SOL    HW222362   4.493   6.801   3.099
 7155SOL     OW22363   3.351   3.162   1.296
 7155SOL    HW122364   3.377   3.246   1.343
 7155SOL    HW222365   3.313   3.184   1.206
 7156SOL     OW22366   4.950   3.536   2.522
 7156SOL    HW122367   4.875   3.598   2.545
 7156SOL    HW222368   4.952   3.520   2.424
 7157SOL     OW22369   6.742   4.564   1.900
 7157SOL    HW122370   6.791   4.479   1.878
 7157SOL    HW222371   6.774   4.637   1.840
 7158SOL     OW22372   0.148   6.470   2.800
 7158SOL    HW122373   0.234   6.479   2.750
 7158SOL    HW222374   0.075   6.446   2.736
 7159SOL     OW22375   1.245   4.580   4.242
 7159SOL    HW122376   1.329   4.593   4.188
 7159SOL    HW222377   1.249   4.638   4.323
 7160SOL     OW22378   6.048   6.227   2.405
 7160SOL    HW122379   6.025   6.302   2.467
 7160SOL    HW222380   5.992   6.233   2.322
 7161SOL     OW22381   3.153   3.968   2.984
 7161SOL    HW122382   3.073   3.927   3.027
 7161SOL    HW222383   3.198   3.900   2.926
 7162SOL     OW22384   0.688   4.931   6.689
 7162SOL    HW122385   0.644   4.869   6.753
 7162SOL    HW222386   0.698   4.887   6.600
 7163SOL     OW22387   3.259   0.651   2.641
 7163SOL    HW122388   3.178   0.706   2.623
 7163SOL    HW222389   3.234   0.555   2.648
 7164SOL     OW22390   1.795   0.315   5.094
 7164SOL    HW122391   1.733   0.394   5.090
 7164SOL    HW222392   1.742   0.232   5.107
 7165SOL     OW22393   5.817   6.034   1.748
 7165SOL    HW122394   5.780   6.068   1.835
 7165SOL    HW222395   5.801   6.102   1.676
 7166SOL     OW22396   5.196   1.281   6.680
 7166SOL    HW122397   5.177   1.206   6.743
 7166SOL    HW222398   5.180   1.368   6.727
 7167SOL     OW22399   4.770   3.007   5.155
 7167SOL    HW122400   4.862   3.044   5.169
 7167SOL    HW222401   4.751   2.998   5.058
 7168SOL     OW22402   2.913   2.006   3.108
 7168SOL    HW122403   2.919   2.054   3.020
 7168SOL    HW222404   2.845   2.050   3.166
 7169SOL     OW22405   0.263   4.119   4.608
 7169SOL    HW122406   0.355   4.139   4.642
 7169SOL    HW222407   0.245   4.174   4.526
 7170SOL     OW22408   4.115   6.781   2.596
 7170SOL    HW122409   4.122   6.830   2.509
 7170SOL    HW222410   4.185   6.813   2.659
 7171SOL     OW22411   6.256   3.654   0.858
 7171SOL    HW122412   6.200   3.601   0.922
 7171SOL    HW222413   6.332   3.696   0.908
 7172SOL     OW22414   2.259   1.514   5.597
 7172SOL    HW122415   2.264   1.470   5.507
 7172SOL    HW222416   2.287   1.610   5.588
 7173SOL     OW22417   6.202   4.968   6.715
 7173SOL    HW122418   6.138   4.905   6.671
 7173SOL    HW222419   6.264   5.006   6.646
 7174SOL     OW22420   0.161   4.905   0.722
 7174SOL    HW122421   0.116   4.980   0.674
 7174SOL    HW222422   0.093   4.836   0.748
 7175SOL     OW22423   0.237   3.349   5.259
 7175SOL    HW122424   0.317   3.399   5.293
 7175SOL    HW222425   0.252   3.325   5.163
 7176SOL     OW22426   6.811   1.625   4.879
 7176SOL    HW122427   6.846   1.571   4.955
 7176SOL    HW222428   6.728   1.583   4.844
 7177SOL     OW22429   1.343   4.903   5.398
 7177SOL    HW122430   1.271   4.903   5.467
 7177SOL    HW222431   1.418   4.843   5.429
 7178SOL     OW22432   0.669   1.498   6.100
 7178SOL    HW122433   0.610   1.492   6.181
 7178SOL    HW222434   0.744   1.433   6.109
 7179SOL     OW22435   1.858   4.008   4.281
 7179SOL    HW122436   1.840   3.911   4.263
 7179SOL    HW222437   1.881   4.055   4.196
 7180SOL     OW22438   2.390   3.795   0.749
 7180SOL    HW122439   2.376   3.740   0.666
 7180SOL    HW222440   2.340   3.880   0.741
 7181SOL     OW22441   2.282   1.329   6.704
 7181SOL    HW122442   2.261   1.372   6.616
 7181SOL    HW222443   2.381   1.316   6.712
 7182SOL     OW22444   0.843   3.640   3.475
 7182SOL    HW122445   0.909   3.589   3.420
 7182SOL    HW222446   0.846   3.737   3.450
 7183SOL     OW22447   1.844   6.533   2.309
 7183SOL    HW122448   1.925   6.553   2.254
 7183SOL    HW222449   1.783   6.612   2.309
 7184SOL     OW22450   6.504   0.881   3.820
 7184SOL    HW122451   6.472   0.786   3.829
 7184SOL    HW222452   6.599   0.887   3.849
 7185SOL     OW22453   5.292   0.722   5.586
 7185SOL    HW122454   5.349   0.766   5.655
 7185SOL    HW222455   5.326   0.745   5.495
 7186SOL     OW22456   0.042   1.354   1.541
 7186SOL    HW122457   0.003   1.367   1.450
 7186SOL    HW222458   0.140   1.369   1.539
 7187SOL     OW22459   2.811   3.835   5.399
 7187SOL    HW122460   2.801   3.837   5.498
 7187SOL    HW222461   2.760   3.910   5.358
 7188SOL     OW22462   4.672   5.459   0.162
 7188SOL    HW122463   4.742   5.423   0.100
 7188SOL    HW222464   4.629   5.382   0.210
 7189SOL     OW22465   6.599   3.258   5.588
 7189SOL    HW122466   6.617   3.226   5.495
 7189SOL    HW222467   6.509   3.225   5.617
 7190SOL     OW22468   6.090   5.883   1.128
 7190SOL    HW122469   6.151   5.937   1.187
 7190SOL    HW222470   6.082   5.928   1.039
 7191SOL     OW22471   0.244   4.571   2.976
 7191SOL    HW122472   0.317   4.563   3.044
 7191SOL    HW222473   0.266   4.513   2.897
 7192SOL     OW22474   1.584   4.052   6.343
 7192SOL    HW122475   1.622   4.118   6.408
 7192SOL    HW222476   1.494   4.083   6.312
 7193SOL     OW22477   2.381   1.817   2.987
 7193SOL    HW122478   2.479   1.802   2.998
 7193SOL    HW222479   2.339   1.830   3.077
 7194SOL     OW22480   1.861   2.896   0.113
 7194SOL    HW122481   1.884   2.847   0.029
 7194SOL    HW222482   1.872   2.994   0.099
 7195SOL     OW22483   6.390   4.642   6.917
 7195SOL    HW122484   6.415   4.630   7.013
 7195SOL    HW222485   6.469   4.624   6.859
 7196SOL     OW22486   3.064   3.946   1.725
 7196SOL    HW122487   3.007   4.011   1.774
 7196SOL    HW222488   3.039   3.945   1.628
 7197SOL     OW22489   0.996   3.360   5.072
 7197SOL    HW122490   1.082   3.329   5.113
 7197SOL    HW222491   0.936   3.396   5.144
 7198SOL     OW22492   0.856   0.912   6.970
 7198SOL    HW122493   0.789   0.852   7.013
 7198SOL    HW222494   0.812   0.963   6.896
 7199SOL     OW22495   1.335   0.118   3.152
 7199SOL    HW122496   1.317   0.212   3.124
 7199SOL    HW222497   1.277   0.095   3.230
 7200SOL     OW22498   1.591   3.335   6.832
 7200SOL    HW122499   1.687   3.353   6.812
 7200SOL    HW222500   1.557   3.263   6.771
 7201SOL     OW22501   0.605   5.749   4.128
 7201SOL    HW122502   0.564   5.787   4.211
 7201SOL    HW222503   0.647   5.660   4.150
 7202SOL     OW22504   4.989   6.390   6.420
 7202SOL    HW122505   4.975   6.466   6.484
 7202SOL    HW222506   5.060   6.329   6.455
 7203SOL     OW22507   0.022   1.391   1.816
 7203SOL    HW122508   0.025   1.372   1.718
 7203SOL    HW222509   0.040   1.488   1.833
 7204SOL     OW22510   6.806   1.302   6.583
 7204SOL    HW122511   6.797   1.221   6.526
 7204SOL    HW222512   6.724   1.358   6.575
 7205SOL     OW22513   1.774   3.809   5.103
 7205SOL    HW122514   1.859   3.847   5.139
 7205SOL    HW222515   1.752   3.855   5.017
 7206SOL     OW22516   1.435   1.494   1.418
 7206SOL    HW122517   1.471   1.401   1.407
 7206SOL    HW222518   1.475   1.554   1.348
 7207SOL     OW22519   2.805   0.811   4.692
 7207SOL    HW122520   2.903   0.833   4.698
 7207SOL    HW222521   2.765   0.857   4.612
 7208SOL     OW22522   4.987   0.833   3.509
 7208SOL    HW122523   4.924   0.852   3.584
 7208SOL    HW222524   5.081   0.833   3.543
 7209SOL     OW22525   1.910   2.958   1.919
 7209SOL    HW122526   1.825   2.908   1.905
 7209SOL    HW222527   1.937   3.003   1.834
 7210SOL     OW22528   3.818   2.111   4.245
 7210SOL    HW122529   3.913   2.140   4.255
 7210SOL    HW222530   3.795   2.105   4.148
 7211SOL     OW22531   2.920   6.098   5.156
 7211SOL    HW122532   2.994   6.163   5.140
 7211SOL    HW222533   2.933   6.053   5.244
 7212SOL     OW22534   0.746   5.891   5.549
 7212SOL    HW122535   0.730   5.960   5.479
 7212SOL    HW222536   0.760   5.802   5.506
 7213SOL     OW22537   3.357   6.184   6.220
 7213SOL    HW122538   3.356   6.122   6.141
 7213SOL    HW222539   3.282   6.161   6.282
 7214SOL     OW22540   6.482   0.959   5.678
 7214SOL    HW122541   6.494   0.897   5.755
 7214SOL    HW222542   6.517   0.916   5.594
 7215SOL     OW22543   5.562   3.045   4.560
 7215SOL    HW122544   5.476   3.040   4.510
 7215SOL    HW222545   5.599   3.138   4.554
 7216SOL     OW22546   3.043   6.426   2.672
 7216SOL    HW122547   3.125   6.483   2.661
 7216SOL    HW222548   3.064   6.333   2.643
 7217SOL     OW22549   1.862   3.246   3.105
 7217SOL    HW122550   1.915   3.267   3.187
 7217SOL    HW222551   1.913   3.278   3.024
 7218SOL     OW22552   6.621   2.630   4.572
 7218SOL    HW122553   6.690   2.689   4.614
 7218SOL    HW222554   6.555   2.686   4.521
 7219SOL     OW22555   3.101   0.242   2.107
 7219SOL    HW122556   3.037   0.318   2.116
 7219SOL    HW222557   3.126   0.208   2.197
 7220SOL     OW22558   6.404   4.362   4.093
 7220SOL    HW122559   6.392   4.446   4.041
 7220SOL    HW222560   6.395   4.283   4.031
 7221SOL     OW22561   3.835   6.117   4.692
 7221SOL    HW122562   3.866   6.202   4.735
 7221SOL    HW222563   3.741   6.098   4.718
 7222SOL     OW22564   6.126   6.244   3.678
 7222SOL    HW122565   6.118   6.147   3.703
 7222SOL    HW222566   6.137   6.299   3.761
 7223SOL     OW22567   3.049   0.990   1.259
 7223SOL    HW122568   2.992   0.913   1.289
 7223SOL    HW222569   2.990   1.068   1.236
 7224SOL     OW22570   4.985   2.991   4.617
 7224SOL    HW122571   4.955   3.086   4.620
 7224SOL    HW222572   5.054   2.976   4.688
 7225SOL     OW22573   1.899   6.338   0.806
 7225SOL    HW122574   1.849   6.413   0.850
 7225SOL    HW222575   1.839   6.291   0.742
 7226SOL     OW22576   5.778   6.987   1.100
 7226SOL    HW122577   5.689   6.959   1.065
 7226SOL    HW222578   5.809   6.922   1.170
 7227SOL     OW22579   2.643   2.078   1.865
 7227SOL    HW122580   2.567   2.050   1.806
 7227SOL    HW222581   2.642   2.177   1.877
 7228SOL     OW22582   1.383   0.830   2.900
 7228SOL    HW122583   1.295   0.787   2.923
 7228SOL    HW222584   1.445   0.823   2.978
 7229SOL     OW22585   0.836   6.788   4.612
 7229SOL    HW122586   0.933   6.812   4.609
 7229SOL    HW222587   0.826   6.690   4.628
 7230SOL     OW22588   3.236   6.016   3.608
 7230SOL    HW122589   3.266   5.953   3.681
 7230SOL    HW222590   3.298   6.007   3.530
 7231SOL     OW22591   4.223   0.398   6.663
 7231SOL    HW122592   4.256   0.308   6.692
 7231SOL    HW222593   4.175   0.442   6.739
 7232SOL     OW22594   4.962   6.104   3.090
 7232SOL    HW122595   4.910   6.166   3.149
 7232SOL    HW222596   4.912   6.091   3.005
 7233SOL     OW22597   1.234   0.959   5.099
 7233SOL    HW122598   1.191   0.943   5.188
 7233SOL    HW222599   1.276   1.050   5.097
 7234SOL     OW22600   5.668   2.870   3.415
 7234SOL    HW122601   5.619   2.923   3.484
 7234SOL    HW222602   5.660   2.914   3.326
 7235SOL     OW22603   6.576   4.317   2.142
 7235SOL    HW122604   6.613   4.226   2.161
 7235SOL    HW222605   6.537   4.355   2.225
 7236SOL     OW22606   2.746   2.331   2.579
 7236SOL    HW122607   2.837   2.314   2.543
 7236SOL    HW222608   2.719   2.256   2.639
 7237SOL     OW22609   3.988   0.043   6.120
 7237SOL    HW122610   4.041   0.011   6.041
 7237SOL    HW222611   3.936   6.996   6.158
 7238SOL     OW22612   4.049   2.163   6.096
 7238SOL    HW122613   4.004   2.249   6.122
 7238SOL    HW222614   4.041   2.097   6.170
 7239SOL     OW22615   0.934   2.714   1.889
 7239SOL    HW122616   0.896   2.673   1.972
 7239SOL    HW222617   1.008   2.656   1.854
 7240SOL     OW22618   0.157   1.626   6.383
 7240SOL    HW122619   0.199   1.587   6.300
 7240SOL    HW222620   0.229   1.649   6.448
 7241SOL     OW22621   2.660   0.284   0.873
 7241SOL    HW122622   2.644   0.374   0.915
 7241SOL    HW222623   2.617   0.282   0.782
 7242SOL     OW22624   6.865   5.586   6.514
 7242SOL    HW122625   6.921   5.523   6.461
 7242SOL    HW222626   6.782   5.540   6.544
 7243SOL     OW22627   6.972   4.430   6.087
 7243SOL    HW122628   6.908   4.402   6.015
 7243SOL    HW222629   0.019   4.479   6.045
 7244SOL     OW22630   0.317   0.578   1.217
 7244SOL    HW122631   0.278   0.645   1.280
 7244SOL    HW222632   0.259   0.572   1.135
 7245SOL     OW22633   1.226   3.030   5.314
 7245SOL    HW122634   1.220   2.985   5.225
 7245SOL    HW222635   1.313   3.007   5.357
 7246SOL     OW22636   1.778   0.250   3.426
 7246SOL    HW122637   1.754   0.253   3.523
 7246SOL    HW222638   1.701   0.212   3.374
 7247SOL     OW22639   2.657   1.467   4.879
 7247SOL    HW122640   2.693   1.555   4.910
 7247SOL    HW222641   2.732   1.401   4.873
 7248SOL     OW22642   2.977   1.010   2.521
 7248SOL    HW122643   3.008   1.102   2.499
 7248SOL    HW222644   2.983   0.995   2.620
 7249SOL     OW22645   4.977   4.839   1.857
 7249SOL    HW122646   5.025   4.831   1.944
 7249SOL    HW222647   4.921   4.758   1.841
 7250SOL     OW22648   5.577   5.637   5.708
 7250SOL    HW122649   5.607   5.646   5.803
 7250SOL    HW222650   5.573   5.540   5.683
 7251SOL     OW22651   1.050   6.828   5.123
 7251SOL    HW122652   0.963   6.837   5.172
 7251SOL    HW222653   1.126   6.840   5.186
 7252SOL     OW22654   3.335   3.844   1.799
 7252SOL    HW122655   3.359   3.755   1.761
 7252SOL    HW222656   3.244   3.871   1.766
 7253SOL     OW22657   1.768   5.425   0.133
 7253SOL    HW122658   1.795   5.399   0.040
 7253SOL    HW222659   1.837   5.395   0.198
 7254SOL     OW22660   5.591   5.388   4.596
 7254SOL    HW122661   5.505   5.418   4.555
 7254SOL    HW222662   5.575   5.362   4.692
 7255SOL     OW22663   4.422   3.968   7.027
 7255SOL    HW122664   4.345   3.998   0.053
 7255SOL    HW222665   4.401   3.984   6.930
 7256SOL     OW22666   3.154   5.923   5.318
 7256SOL    HW122667   3.127   5.959   5.407
 7256SOL    HW222668   3.229   5.977   5.280
 7257SOL     OW22669   6.965   1.930   3.637
 7257SOL    HW122670   7.018   2.014   3.652
 7257SOL    HW222671   6.908   1.942   3.555
 7258SOL     OW22672   4.929   2.656   3.279
 7258SOL    HW122673   5.023   2.674   3.306
 7258SOL    HW222674   4.879   2.617   3.356
 7259SOL     OW22675   1.814   3.389   1.947
 7259SOL    HW122676   1.772   3.479   1.949
 7259SOL    HW222677   1.908   3.395   1.981
 7260SOL     OW22678   5.552   1.581   1.813
 7260SOL    HW122679   5.589   1.602   1.903
 7260SOL    HW222680   5.619   1.527   1.762
 7261SOL     OW22681   1.325   4.380   1.978
 7261SOL    HW122682   1.380   4.404   2.059
 7261SOL    HW222683   1.368   4.304   1.930
 7262SOL     OW22684   5.692   2.229   6.532
 7262SOL    HW122685   5.730   2.319   6.553
 7262SOL    HW222686   5.706   2.167   6.610
 7263SOL     OW22687   0.677   0.011   6.838
 7263SOL    HW122688   0.654   6.943   6.842
 7263SOL    HW222689   0.691   0.038   6.743
 7264SOL     OW22690   5.163   1.466   0.402
 7264SOL    HW122691   5.244   1.413   0.425
 7264SOL    HW222692   5.190   1.558   0.374
 7265SOL     OW22693   5.467   5.121   6.355
 7265SOL    HW122694   5.558   5.083   6.335
 7265SOL    HW222695   5.476   5.199   6.416
 7266SOL     OW22696   5.508   0.492   2.898
 7266SOL    HW122697   5.481   0.520   2.990
 7266SOL    HW222698   5.449   0.537   2.831
 7267SOL     OW22699   6.478   6.326   4.916
 7267SOL    HW122700   6.539   6.329   4.837
 7267SOL    HW222701   6.451   6.232   4.934
 7268SOL     OW22702   6.696   5.558   4.245
 7268SOL    HW122703   6.610   5.550   4.195
 7268SOL    HW222704   6.768   5.590   4.184
 7269SOL     OW22705   1.525   6.021   5.760
 7269SOL    HW122706   1.454   5.953   5.745
 7269SOL    HW222707   1.497   6.108   5.719
 7270SOL     OW22708   0.759   2.821   4.921
 7270SOL    HW122709   0.794   2.910   4.952
 7270SOL    HW222710   0.742   2.823   4.823
 7271SOL     OW22711   1.328   5.019   4.045
 7271SOL    HW122712   1.407   5.030   4.105
 7271SOL    HW222713   1.354   4.968   3.963
 7272SOL     OW22714   6.280   5.522   2.555
 7272SOL    HW122715   6.309   5.469   2.635
 7272SOL    HW222716   6.334   5.495   2.475
 7273SOL     OW22717   6.574   4.231   1.003
 7273SOL    HW122718   6.568   4.304   0.934
 7273SOL    HW222719   6.618   4.151   0.962
 7274SOL     OW22720   0.697   5.353   6.409
 7274SOL    HW122721   0.639   5.272   6.422
 7274SOL    HW222722   0.639   5.434   6.401
 7275SOL     OW22723   0.166   5.615   2.791
 7275SOL    HW122724   0.155   5.711   2.766
 7275SOL    HW222725   0.191   5.562   2.710
 7276SOL     OW22726   4.931   0.246   3.118
 7276SOL    HW122727   4.958   0.191   3.197
 7276SOL    HW222728   5.010   0.295   3.082
 7277SOL     OW22729   5.294   0.604   4.205
 7277SOL    HW122730   5.291   0.526   4.142
 7277SOL    HW222731   5.378   0.600   4.259
 7278SOL     OW22732   3.959   2.711   1.222
 7278SOL    HW122733   4.048   2.676   1.252
 7278SOL    HW222734   3.912   2.640   1.169
 7279SOL     OW22735   3.961   4.744   6.559
 7279SOL    HW122736   3.994   4.689   6.635
 7279SOL    HW222737   3.994   4.838   6.569
 7280SOL     OW22738   0.343   1.891   3.959
 7280SOL    HW122739   0.422   1.845   3.921
 7280SOL    HW222740   0.259   1.842   3.934
 7281SOL     OW22741   2.578   1.973   6.689
 7281SOL    HW122742   2.528   1.988   6.775
 7281SOL    HW222743   2.587   2.060   6.641
 7282SOL     OW22744   5.638   5.121   3.404
 7282SOL    HW122745   5.590   5.127   3.317
 7282SOL    HW222746   5.631   5.028   3.440
 7283SOL     OW22747   4.390   1.496   2.467
 7283SOL    HW122748   4.345   1.545   2.541
 7283SOL    HW222749   4.361   1.400   2.466
 7284SOL     OW22750   0.540   2.629   6.136
 7284SOL    HW122751   0.620   2.599   6.190
 7284SOL    HW222752   0.467   2.657   6.198
 7285SOL     OW22753   5.333   3.360   2.319
 7285SOL    HW122754   5.239   3.363   2.353
 7285SOL    HW222755   5.338   3.410   2.232
 7286SOL     OW22756   2.663   1.077   0.731
 7286SOL    HW122757   2.581   1.043   0.684
 7286SOL    HW222758   2.671   1.175   0.717
 7287SOL     OW22759   0.400   2.466   5.966
 7287SOL    HW122760   0.326   2.410   6.003
 7287SOL    HW222761   0.438   2.523   6.038
 7288SOL     OW22762   2.806   0.910   0.906
 7288SOL    HW122763   2.734   0.905   0.976
 7288SOL    HW222764   2.780   0.976   0.836
 7289SOL     OW22765   4.849   2.447   4.653
 7289SOL    HW122766   4.948   2.461   4.652
 7289SOL    HW222767   4.825   2.375   4.589
 7290SOL     OW22768   3.775   0.029   5.136
 7290SOL    HW122769   3.708   0.099   5.161
 7290SOL    HW222770   3.854   0.034   5.199
 7291SOL     OW22771   2.174   6.548   0.886
 7291SOL    HW122772   2.122   6.632   0.904
 7291SOL    HW222773   2.138   6.505   0.803
 7292SOL     OW22774   3.349   1.153   3.575
 7292SOL    HW122775   3.252   1.149   3.599
 7292SOL    HW222776   3.396   1.075   3.615
 7293SOL     OW22777   1.290   1.762   4.683
 7293SOL    HW122778   1.385   1.770   4.712
 7293SOL    HW222779   1.232   1.749   4.764
 7294SOL     OW22780   2.539   4.927   6.660
 7294SOL    HW122781   2.616   4.902   6.718
 7294SOL    HW222782   2.550   4.885   6.570
 7295SOL     OW22783   0.195   2.902   0.965
 7295SOL    HW122784   0.104   2.908   0.925
 7295SOL    HW222785   0.206   2.815   1.012
 7296SOL     OW22786   3.278   5.577   2.324
 7296SOL    HW122787   3.344   5.527   2.380
 7296SOL    HW222788   3.264   5.668   2.363
 7297SOL     OW22789   4.071   0.165   1.703
 7297SOL    HW122790   4.072   0.265   1.703
 7297SOL    HW222791   3.988   0.133   1.747
 7298SOL     OW22792   5.351   4.845   5.855
 7298SOL    HW122793   5.367   4.789   5.774
 7298SOL    HW222794   5.255   4.839   5.882
 7299SOL     OW22795   1.138   2.065   6.941
 7299SOL    HW122796   1.199   1.990   6.967
 7299SOL    HW222797   1.182   2.152   6.962
 7300SOL     OW22798   0.332   6.288   3.387
 7300SOL    HW122799   0.254   6.350   3.374
 7300SOL    HW222800   0.300   6.193   3.381
 7301SOL     OW22801   5.397   1.034   4.799
 7301SOL    HW122802   5.401   0.954   4.858
 7301SOL    HW222803   5.483   1.084   4.806
 7302SOL     OW22804   0.914   2.347   5.239
 7302SOL    HW122805   0.908   2.291   5.156
 7302SOL    HW222806   0.968   2.429   5.220
 7303SOL     OW22807   4.063   0.365   0.330
 7303SOL    HW122808   4.040   0.436   0.396
 7303SOL    HW222809   4.155   0.382   0.294
 7304SOL     OW22810   3.647   5.427   1.441
 7304SOL    HW122811   3.726   5.387   1.396
 7304SOL    HW222812   3.677   5.492   1.511
 7305SOL     OW22813   4.585   1.156   0.226
 7305SOL    HW122814   4.579   1.187   0.321
 7305SOL    HW222815   4.631   1.226   0.171
 7306SOL     OW22816   5.109   1.624   0.679
 7306SOL    HW122817   5.032   1.687   0.685
 7306SOL    HW222818   5.106   1.575   0.592
 7307SOL     OW22819   2.327   6.881   2.419
 7307SOL    HW122820   2.318   6.932   2.504
 7307SOL    HW222821   2.415   6.901   2.377
 7308SOL     OW22822   0.104   3.015   5.565
 7308SOL    HW122823   0.192   3.015   5.518
 7308SOL    HW222824   0.037   3.066   5.510
 7309SOL     OW22825   4.417   5.791   1.912
 7309SOL    HW122826   4.493   5.791   1.977
 7309SOL    HW222827   4.368   5.705   1.917
 7310SOL     OW22828   2.671   4.023   1.139
 7310SOL    HW122829   2.662   4.099   1.075
 7310SOL    HW222830   2.590   4.021   1.199
 7311SOL     OW22831   2.388   2.033   1.728
 7311SOL    HW122832   2.397   1.980   1.812
 7311SOL    HW222833   2.358   1.973   1.654
 7312SOL     OW22834   0.578   3.516   4.496
 7312SOL    HW122835   0.593   3.606   4.454
 7312SOL    HW222836   0.648   3.501   4.567
 7313SOL     OW22837   2.473   1.268   6.984
 7313SOL    HW122838   2.457   1.179   6.940
 7313SOL    HW222839   2.570   1.292   6.974
 7314SOL     OW22840   6.948   5.762   5.815
 7314SOL    HW122841   6.927   5.678   5.865
 7314SOL    HW222842   6.975   5.739   5.722
 7315SOL     OW22843   6.525   0.026   2.353
 7315SOL    HW122844   6.519   0.035   2.254
 7315SOL    HW222845   6.533   6.959   2.377
 7316SOL     OW22846   2.674   4.235   6.418
 7316SOL    HW122847   2.645   4.329   6.432
 7316SOL    HW222848   2.593   4.179   6.396
 7317SOL     OW22849   5.006   1.310   2.950
 7317SOL    HW122850   5.043   1.225   2.987
 7317SOL    HW222851   5.040   1.387   3.004
 7318SOL     OW22852   2.276   0.898   1.642
 7318SOL    HW122853   2.212   0.848   1.583
 7318SOL    HW222854   2.227   0.973   1.687
 7319SOL     OW22855   0.149   3.930   6.446
 7319SOL    HW122856   0.084   3.955   6.374
 7319SOL    HW222857   0.191   3.843   6.424
 7320SOL     OW22858   6.803   3.399   2.320
 7320SOL    HW122859   6.712   3.358   2.327
 7320SOL    HW222860   6.873   3.327   2.318
 7321SOL     OW22861   1.909   0.788   6.236
 7321SOL    HW122862   1.894   0.882   6.203
 7321SOL    HW222863   1.999   0.782   6.279
 7322SOL     OW22864   6.796   2.961   3.266
 7322SOL    HW122865   6.870   3.016   3.226
 7322SOL    HW222866   6.781   2.989   3.360
 7323SOL     OW22867   1.469   2.379   1.800
 7323SOL    HW122868   1.395   2.389   1.866
 7323SOL    HW222869   1.535   2.312   1.832
 7324SOL     OW22870   4.732   5.966   2.563
 7324SOL    HW122871   4.638   5.931   2.561
 7324SOL    HW222872   4.742   6.040   2.498
 7325SOL     OW22873   3.393   6.787   0.622
 7325SOL    HW122874   3.364   6.878   0.591
 7325SOL    HW222875   3.362   6.773   0.716
 7326SOL     OW22876   3.020   6.096   5.800
 7326SOL    HW122877   2.971   6.179   5.827
 7326SOL    HW222878   3.023   6.032   5.876
 7327SOL     OW22879   6.128   1.529   6.314
 7327SOL    HW122880   6.087   1.549   6.403
 7327SOL    HW222881   6.073   1.460   6.267
 7328SOL     OW22882   3.002   0.851   6.262
 7328SOL    HW122883   3.074   0.907   6.302
 7328SOL    HW222884   2.962   0.900   6.184
 7329SOL     OW22885   6.407   3.776   1.423
 7329SOL    HW122886   6.350   3.756   1.343
 7329SOL    HW222887   6.467   3.698   1.442
 7330SOL     OW22888   2.431   2.648   0.401
 7330SOL    HW122889   2.405   2.659   0.305
 7330SOL    HW222890   2.363   2.591   0.447
 7331SOL     OW22891   5.394   6.388   1.614
 7331SOL    HW122892   5.468   6.454   1.625
 7331SOL    HW222893   5.354   6.398   1.523
 7332SOL     OW22894   2.549   6.170   0.264
 7332SOL    HW122895   2.487   6.138   0.336
 7332SOL    HW222896   2.500   6.170   0.176
 7333SOL     OW22897   0.614   2.922   2.403
 7333SOL    HW122898   0.562   2.844   2.369
 7333SOL    HW222899   0.692   2.939   2.343
 7334SOL     OW22900   2.589   5.939   6.215
 7334SOL    HW122901   2.610   6.023   6.166
 7334SOL    HW222902   2.507   5.952   6.270
 7335SOL     OW22903   1.841   2.336   2.906
 7335SOL    HW122904   1.921   2.392   2.881
 7335SOL    HW222905   1.758   2.378   2.868
 7336SOL     OW22906   1.624   6.470   2.752
 7336SOL    HW122907   1.604   6.395   2.816
 7336SOL    HW222908   1.698   6.442   2.691
 7337SOL     OW22909   0.082   3.196   1.765
 7337SOL    HW122910   0.164   3.243   1.798
 7337SOL    HW222911   0.020   3.262   1.723
 7338SOL     OW22912   6.352   1.658   1.588
 7338SOL    HW122913   6.275   1.722   1.591
 7338SOL    HW222914   6.391   1.649   1.679
 7339SOL     OW22915   5.740   6.612   4.054
 7339SOL    HW122916   5.716   6.574   4.143
 7339SOL    HW222917   5.817   6.675   4.063
 7340SOL     OW22918   2.969   1.657   1.134
 7340SOL    HW122919   3.034   1.583   1.120
 7340SOL    HW222920   2.995   1.736   1.078
 7341SOL     OW22921   0.527   3.285   6.390
 7341SOL    HW122922   0.464   3.208   6.380
 7341SOL    HW222923   0.566   3.285   6.482
 7342SOL     OW22924   0.387   2.022   1.195
 7342SOL    HW122925   0.458   2.068   1.142
 7342SOL    HW222926   0.399   1.923   1.187
 7343SOL     OW22927   6.003   3.717   1.114
 7343SOL    HW122928   6.031   3.632   1.069
 7343SOL    HW222929   6.084   3.764   1.149
 7344SOL     OW22930   0.990   1.445   6.364
 7344SOL    HW122931   0.996   1.517   6.432
 7344SOL    HW222932   0.956   1.361   6.406
 7345SOL     OW22933   3.954   4.556   5.684
 7345SOL    HW122934   3.983   4.638   5.636
 7345SOL    HW222935   3.862   4.569   5.722
 7346SOL     OW22936   3.922   5.330   2.225
 7346SOL    HW122937   3.960   5.239   2.210
 7346SOL    HW222938   3.885   5.336   2.318
 7347SOL     OW22939   0.985   1.616   0.699
 7347SOL    HW122940   0.938   1.528   0.690
 7347SOL    HW222941   0.920   1.691   0.690
 7348SOL     OW22942   1.592   4.034   4.064
 7348SOL    HW122943   1.565   4.006   4.156
 7348SOL    HW222944   1.632   4.125   4.067
 7349SOL     OW22945   4.730   1.218   1.485
 7349SOL    HW122946   4.772   1.137   1.443
 7349SOL    HW222947   4.679   1.190   1.566
 7350SOL     OW22948   2.601   2.315   5.571
 7350SOL    HW122949   2.633   2.371   5.495
 7350SOL    HW222950   2.562   2.374   5.641
 7351SOL     OW22951   5.537   5.673   4.674
 7351SOL    HW122952   5.560   5.691   4.578
 7351SOL    HW222953   5.599   5.724   4.733
 7352SOL     OW22954   1.402   1.453   2.849
 7352SOL    HW122955   1.378   1.426   2.756
 7352SOL    HW222956   1.492   1.418   2.872
 7353SOL     OW22957   0.058   0.235   6.100
 7353SOL    HW122958   0.092   0.170   6.168
 7353SOL    HW222959   0.126   0.244   6.027
 7354SOL     OW22960   1.074   1.753   4.406
 7354SOL    HW122961   1.110   1.832   4.455
 7354SOL    HW222962   1.050   1.780   4.313
 7355SOL     OW22963   1.403   0.466   0.772
 7355SOL    HW122964   1.459   0.399   0.822
 7355SOL    HW222965   1.443   0.557   0.783
 7356SOL     OW22966   3.617   3.645   6.385
 7356SOL    HW122967   3.652   3.687   6.301
 7356SOL    HW222968   3.619   3.713   6.458
 7357SOL     OW22969   3.140   6.802   1.821
 7357SOL    HW122970   3.197   6.727   1.854
 7357SOL    HW222971   3.106   6.855   1.898
 7358SOL     OW22972   6.093   3.055   2.975
 7358SOL    HW122973   6.004   3.065   3.019
 7358SOL    HW222974   6.116   3.140   2.927
 7359SOL     OW22975   4.013   1.913   5.729
 7359SOL    HW122976   4.045   1.850   5.800
 7359SOL    HW222977   4.077   1.913   5.652
 7360SOL     OW22978   2.999   3.015   5.562
 7360SOL    HW122979   2.935   2.948   5.601
 7360SOL    HW222980   3.089   3.003   5.605
 7361SOL     OW22981   5.219   0.792   2.303
 7361SOL    HW122982   5.313   0.818   2.328
 7361SOL    HW222983   5.183   0.857   2.237
 7362SOL     OW22984   1.581   5.847   6.424
 7362SOL    HW122985   1.590   5.780   6.498
 7362SOL    HW222986   1.521   5.921   6.454
 7363SOL     OW22987   4.589   1.852   1.255
 7363SOL    HW122988   4.498   1.810   1.248
 7363SOL    HW222989   4.579   1.946   1.286
 7364SOL     OW22990   4.671   0.749   1.880
 7364SOL    HW122991   4.615   0.744   1.963
 7364SOL    HW222992   4.656   0.667   1.825
 7365SOL     OW22993   0.681   6.056   2.148
 7365SOL    HW122994   0.735   6.039   2.065
 7365SOL    HW222995   0.587   6.079   2.123
 7366SOL     OW22996   2.172   6.292   6.227
 7366SOL    HW122997   2.256   6.252   6.190
 7366SOL    HW222998   2.147   6.371   6.171
 7367SOL     OW22999   4.952   2.856   1.290
 7367SOL    HW123000   4.975   2.913   1.211
 7367SOL    HW223001   4.889   2.905   1.350
 7368SOL     OW23002   3.900   2.990   2.735
 7368SOL    HW123003   3.952   2.991   2.820
 7368SOL    HW223004   3.921   3.073   2.683
 7369SOL     OW23005   3.133   2.100   0.282
 7369SOL    HW123006   3.139   2.000   0.272
 7369SOL    HW223007   3.104   2.122   0.375
 7370SOL     OW23008   2.503   0.864   5.264
 7370SOL    HW123009   2.416   0.875   5.216
 7370SOL    HW223010   2.511   0.771   5.299
 7371SOL     OW23011   2.530   6.803   3.374
 7371SOL    HW123012   2.474   6.792   3.292
 7371SOL    HW223013   2.605   6.866   3.355
 7372SOL     OW23014   4.514   0.652   3.980
 7372SOL    HW123015   4.424   0.696   3.973
 7372SOL    HW223016   4.522   0.583   3.909
 7373SOL     OW23017   6.195   1.401   3.680
 7373SOL    HW123018   6.120   1.336   3.668
 7373SOL    HW223019   6.169   1.490   3.642
 7374SOL     OW23020   2.677   1.814   5.068
 7374SOL    HW123021   2.751   1.833   5.004
 7374SOL    HW223022   2.714   1.780   5.154
 7375SOL     OW23023   2.153   2.164   2.378
 7375SOL    HW123024   2.106   2.195   2.461
 7375SOL    HW223025   2.102   2.087   2.338
 7376SOL     OW23026   1.444   1.827   1.006
 7376SOL    HW123027   1.348   1.829   0.977
 7376SOL    HW223028   1.457   1.752   1.070
 7377SOL     OW23029   5.317   4.713   0.569
 7377SOL    HW123030   5.294   4.626   0.524
 7377SOL    HW223031   5.296   4.789   0.507
 7378SOL     OW23032   0.074   0.609   5.330
 7378SOL    HW123033   0.100   0.525   5.379
 7378SOL    HW223034   7.023   0.591   5.275
 7379SOL     OW23035   3.309   1.871   2.222
 7379SOL    HW123036   3.299   1.925   2.138
 7379SOL    HW223037   3.356   1.785   2.201
 7380SOL     OW23038   0.177   4.339   3.720
 7380SOL    HW123039   0.177   4.401   3.799
 7380SOL    HW223040   0.230   4.378   3.646
 7381SOL     OW23041   4.360   3.166   0.688
 7381SOL    HW123042   4.363   3.181   0.787
 7381SOL    HW223043   4.264   3.163   0.658
 7382SOL     OW23044   0.515   1.050   4.834
 7382SOL    HW123045   0.495   1.085   4.743
 7382SOL    HW223046   0.562   1.120   4.887
 7383SOL     OW23047   2.695   6.727   0.814
 7383SOL    HW123048   2.732   6.789   0.883
 7383SOL    HW223049   2.705   6.632   0.845
 7384SOL     OW23050   6.693   6.503   2.420
 7384SOL    HW123051   6.601   6.465   2.424
 7384SOL    HW223052   6.697   6.577   2.353
 7385SOL     OW23053   3.265   5.214   2.272
 7385SOL    HW123054   3.236   5.276   2.345
 7385SOL    HW223055   3.213   5.129   2.278
 7386SOL     OW23056   0.080   2.502   0.115
 7386SOL    HW123057   0.065   2.404   0.109
 7386SOL    HW223058   7.023   2.550   0.107
 7387SOL     OW23059   6.438   5.229   5.849
 7387SOL    HW123060   6.453   5.306   5.788
 7387SOL    HW223061   6.518   5.218   5.909
 7388SOL     OW23062   1.242   5.376   1.593
 7388SOL    HW123063   1.299   5.412   1.667
 7388SOL    HW223064   1.240   5.277   1.599
 7389SOL     OW23065   6.155   4.101   6.271
 7389SOL    HW123066   6.132   4.150   6.187
 7389SOL    HW223067   6.074   4.056   6.307
 7390SOL     OW23068   1.839   2.644   1.960
 7390SOL    HW123069   1.937   2.649   1.942
 7390SOL    HW223070   1.824   2.609   2.052
 7391SOL     OW23071   4.015   3.556   3.809
 7391SOL    HW123072   4.073   3.621   3.858
 7391SOL    HW223073   4.033   3.464   3.843
 7392SOL     OW23074   3.245   5.787   6.445
 7392SOL    HW123075   3.292   5.861   6.494
 7392SOL    HW223076   3.313   5.728   6.402
 7393SOL     OW23077   6.401   4.535   2.745
 7393SOL    HW123078   6.335   4.473   2.787
 7393SOL    HW223079   6.493   4.496   2.752
 7394SOL     OW23080   1.921   3.087   5.837
 7394SOL    HW123081   1.989   3.114   5.905
 7394SOL    HW223082   1.967   3.068   5.750
 7395SOL     OW23083   1.813   3.631   1.532
 7395SOL    HW123084   1.814   3.729   1.515
 7395SOL    HW223085   1.907   3.596   1.529
 7396SOL     OW23086   2.296   6.451   1.283
 7396SOL    HW123087   2.286   6.384   1.357
 7396SOL    HW223088   2.221   6.440   1.217
 7397SOL     OW23089   4.888   5.997   4.837
 7397SOL    HW123090   4.818   5.964   4.773
 7397SOL    HW223091   4.978   5.967   4.806
 7398SOL     OW23092   1.315   4.683   3.653
 7398SOL    HW123093   1.247   4.753   3.674
 7398SOL    HW223094   1.273   4.610   3.600
 7399SOL     OW23095   0.794   2.462   4.627
 7399SOL    HW123096   0.752   2.424   4.545
 7399SOL    HW223097   0.723   2.491   4.691
 7400SOL     OW23098   3.968   2.780   5.839
 7400SOL    HW123099   4.042   2.778   5.773
 7400SOL    HW223100   3.988   2.848   5.910
 7401SOL     OW23101   1.298   2.824   3.609
 7401SOL    HW123102   1.311   2.895   3.539
 7401SOL    HW223103   1.292   2.735   3.565
 7402SOL     OW23104   3.330   4.508   5.955
 7402SOL    HW123105   3.426   4.533   5.952
 7402SOL    HW223106   3.286   4.535   5.868
 7403SOL     OW23107   1.590   4.377   2.154
 7403SOL    HW123108   1.629   4.329   2.233
 7403SOL    HW223109   1.660   4.434   2.112
 7404SOL     OW23110   2.892   4.525   1.589
 7404SOL    HW123111   2.979   4.486   1.559
 7404SOL    HW223112   2.885   4.520   1.689
 7405SOL     OW23113   3.360   5.083   4.358
 7405SOL    HW123114   3.408   5.046   4.437
 7405SOL    HW223115   3.424   5.133   4.300
 7406SOL     OW23116   0.325   2.433   3.682
 7406SOL    HW123117   0.390   2.496   3.638
 7406SOL    HW223118   0.322   2.348   3.630
 7407SOL     OW23119   0.776   6.907   5.154
 7407SOL    HW123120   0.821   6.996   5.145
 7407SOL    HW223121   0.766   6.866   5.064
 7408SOL     OW23122   3.367   3.947   6.293
 7408SOL    HW123123   3.358   4.025   6.355
 7408SOL    HW223124   3.283   3.934   6.241
 7409SOL     OW23125   5.302   3.364   6.932
 7409SOL    HW123126   5.300   3.331   7.026
 7409SOL    HW223127   5.244   3.445   6.924
 7410SOL     OW23128   0.464   0.603   0.453
 7410SOL    HW123129   0.408   0.619   0.534
 7410SOL    HW223130   0.475   0.504   0.439
 7411SOL     OW23131   2.263   1.016   0.278
 7411SOL    HW123132   2.360   1.033   0.262
 7411SOL    HW223133   2.209   1.091   0.242
 7412SOL     OW23134   4.071   0.626   1.305
 7412SOL    HW123135   3.990   0.575   1.332
 7412SOL    HW223136   4.134   0.633   1.383
 7413SOL     OW23137   4.456   4.931   4.027
 7413SOL    HW123138   4.543   4.958   4.069
 7413SOL    HW223139   4.425   5.003   3.965
 7414SOL     OW23140   1.513   0.825   3.154
 7414SOL    HW123141   1.487   0.917   3.183
 7414SOL    HW223142   1.610   0.824   3.130
 7415SOL     OW23143   2.020   4.527   4.483
 7415SOL    HW123144   1.955   4.467   4.437
 7415SOL    HW223145   2.113   4.507   4.451
 7416SOL     OW23146   1.993   0.728   2.018
 7416SOL    HW123147   1.934   0.774   1.951
 7416SOL    HW223148   2.086   0.721   1.982
 7417SOL     OW23149   2.163   2.490   1.070
 7417SOL    HW123150   2.255   2.506   1.035
 7417SOL    HW223151   2.120   2.416   1.017
 7418SOL     OW23152   1.593   5.272   0.409
 7418SOL    HW123153   1.532   5.234   0.341
 7418SOL    HW223154   1.577   5.371   0.417
 7419SOL     OW23155   6.583   3.750   4.065
 7419SOL    HW123156   6.519   3.770   3.990
 7419SOL    HW223157   6.674   3.782   4.041
 7420SOL     OW23158   0.155   6.576   1.547
 7420SOL    HW123159   0.212   6.591   1.627
 7420SOL    HW223160   0.187   6.495   1.498
 7421SOL     OW23161   4.571   3.532   0.895
 7421SOL    HW123162   4.668   3.555   0.899
 7421SOL    HW223163   4.551   3.458   0.960
 7422SOL     OW23164   0.076   4.606   1.892
 7422SOL    HW123165   0.101   4.680   1.955
 7422SOL    HW223166   7.017   4.569   1.918
 7423SOL     OW23167   5.729   2.778   5.578
 7423SOL    HW123168   5.668   2.699   5.573
 7423SOL    HW223169   5.677   2.861   5.561
 7424SOL     OW23170   6.581   1.510   5.752
 7424SOL    HW123171   6.561   1.424   5.705
 7424SOL    HW223172   6.571   1.497   5.850
 7425SOL     OW23173   5.217   6.996   0.226
 7425SOL    HW123174   5.124   7.022   0.253
 7425SOL    HW223175   5.222   6.987   0.127
 7426SOL     OW23176   2.988   1.892   5.210
 7426SOL    HW123177   3.057   1.940   5.265
 7426SOL    HW223178   2.911   1.866   5.269
 7427SOL     OW23179   5.024   0.665   4.034
 7427SOL    HW123180   4.991   0.603   4.106
 7427SOL    HW223181   4.958   0.740   4.022
 7428SOL     OW23182   4.070   1.278   5.146
 7428SOL    HW123183   4.114   1.308   5.231
 7428SOL    HW223184   4.140   1.257   5.078
 7429SOL     OW23185   0.640   6.573   4.063
 7429SOL    HW123186   0.546   6.544   4.045
 7429SOL    HW223187   0.650   6.670   4.041
 7430SOL     OW23188   0.888   3.668   1.135
 7430SOL    HW123189   0.829   3.597   1.172
 7430SOL    HW223190   0.846   3.757   1.149
 7431SOL     OW23191   0.633   2.367   3.176
 7431SOL    HW123192   0.635   2.283   3.122
 7431SOL    HW223193   0.682   2.440   3.128
 7432SOL     OW23194   2.110   0.459   3.605
 7432SOL    HW123195   2.014   0.488   3.601
 7432SOL    HW223196   2.118   0.365   3.572
 7433SOL     OW23197   3.938   6.122   6.547
 7433SOL    HW123198   4.034   6.100   6.532
 7433SOL    HW223199   3.932   6.213   6.588
 7434SOL     OW23200   5.018   5.407   5.473
 7434SOL    HW123201   5.015   5.479   5.404
 7434SOL    HW223202   5.021   5.318   5.428
 7435SOL     OW23203   4.413   6.284   1.244
 7435SOL    HW123204   4.494   6.311   1.192
 7435SOL    HW223205   4.361   6.366   1.269
 7436SOL     OW23206   4.465   4.417   6.320
 7436SOL    HW123207   4.541   4.398   6.382
 7436SOL    HW223208   4.437   4.332   6.275
 7437SOL     OW23209   2.217   6.090   6.994
 7437SOL    HW123210   2.169   6.089   6.907
 7437SOL    HW223211   2.234   5.997   7.024
 7438SOL     OW23212   0.966   6.364   0.114
 7438SOL    HW123213   1.055   6.365   0.067
 7438SOL    HW223214   0.914   6.283   0.084
 7439SOL     OW23215   1.817   6.494   6.163
 7439SOL    HW123216   1.767   6.566   6.115
 7439SOL    HW223217   1.803   6.407   6.116
 7440SOL     OW23218   6.780   2.783   3.826
 7440SOL    HW123219   6.701   2.791   3.766
 7440SOL    HW223220   6.821   2.873   3.841
 7441SOL     OW23221   5.663   0.213   4.402
 7441SOL    HW123222   5.679   0.292   4.342
 7441SOL    HW223223   5.748   0.160   4.410
 7442SOL     OW23224   5.908   1.731   6.858
 7442SOL    HW123225   5.940   1.641   6.885
 7442SOL    HW223226   5.952   1.758   6.773
 7443SOL     OW23227   6.231   6.038   1.278
 7443SOL    HW123228   6.280   5.970   1.333
 7443SOL    HW223229   6.295   6.107   1.245
 7444SOL     OW23230   5.342   2.376   6.950
 7444SOL    HW123231   5.259   2.334   6.913
 7444SOL    HW223232   5.333   2.476   6.944
 7445SOL     OW23233   3.397   0.546   1.124
 7445SOL    HW123234   3.373   0.550   1.221
 7445SOL    HW223235   3.373   0.456   1.087
 7446SOL     OW23236   5.868   3.132   0.236
 7446SOL    HW123237   5.897   3.058   0.175
 7446SOL    HW223238   5.787   3.104   0.287
 7447SOL     OW23239   6.712   4.703   6.719
 7447SOL    HW123240   6.726   4.729   6.815
 7447SOL    HW223241   6.765   4.621   6.699
 7448SOL     OW23242   6.379   6.578   4.858
 7448SOL    HW123243   6.444   6.631   4.913
 7448SOL    HW223244   6.397   6.480   4.871
 7449SOL     OW23245   0.746   4.848   1.098
 7449SOL    HW123246   0.781   4.930   1.053
 7449SOL    HW223247   0.654   4.866   1.134
 7450SOL     OW23248   5.262   2.721   4.626
 7450SOL    HW123249   5.214   2.804   4.655
 7450SOL    HW223250   5.361   2.735   4.637
 7451SOL     OW23251   6.730   6.213   2.535
 7451SOL    HW123252   6.813   6.268   2.528
 7451SOL    HW223253   6.710   6.171   2.446
 7452SOL     OW23254   5.710   5.924   4.162
 7452SOL    HW123255   5.621   5.922   4.207
 7452SOL    HW223256   5.782   5.910   4.231
 7453SOL     OW23257   5.280   4.966   4.675
 7453SOL    HW123258   5.263   4.868   4.688
 7453SOL    HW223259   5.207   5.018   4.719
 7454SOL     OW23260   1.983   2.314   0.969
 7454SOL    HW123261   1.970   2.367   0.885
 7454SOL    HW223262   1.946   2.222   0.956
 7455SOL     OW23263   6.832   2.901   1.986
 7455SOL    HW123264   6.831   2.802   1.971
 7455SOL    HW223265   6.745   2.929   2.026
 7456SOL     OW23266   2.067   1.112   5.076
 7456SOL    HW123267   2.036   1.175   5.005
 7456SOL    HW223268   1.990   1.088   5.135
 7457SOL     OW23269   3.197   0.520   5.045
 7457SOL    HW123270   3.162   0.579   5.117
 7457SOL    HW223271   3.139   0.530   4.964
 7458SOL     OW23272   1.730   0.590   6.275
 7458SOL    HW123273   1.777   0.673   6.246
 7458SOL    HW223274   1.796   0.514   6.279
 7459SOL     OW23275   5.490   0.796   2.405
 7459SOL    HW123276   5.537   0.846   2.479
 7459SOL    HW223277   5.550   0.724   2.372
 7460SOL     OW23278   0.728   5.586   0.517
 7460SOL    HW123279   0.792   5.529   0.569
 7460SOL    HW223280   0.743   5.572   0.419
 7461SOL     OW23281   6.324   0.192   6.552
 7461SOL    HW123282   6.237   0.241   6.557
 7461SOL    HW223283   6.310   0.096   6.577
 7462SOL     OW23284   1.432   4.565   2.366
 7462SOL    HW123285   1.465   4.490   2.309
 7462SOL    HW223286   1.362   4.531   2.428
 7463SOL     OW23287   2.951   4.340   0.241
 7463SOL    HW123288   2.921   4.415   0.299
 7463SOL    HW223289   2.971   4.375   0.149
 7464SOL     OW23290   5.699   7.009   5.680
 7464SOL    HW123291   5.641   6.935   5.647
 7464SOL    HW223292   5.672   0.065   5.636
 7465SOL     OW23293   2.687   5.265   6.553
 7465SOL    HW123294   2.639   5.295   6.470
 7465SOL    HW223295   2.668   5.168   6.568
 7466SOL     OW23296   6.792   0.996   5.253
 7466SOL    HW123297   6.800   1.088   5.215
 7466SOL    HW223298   6.842   0.931   5.195
 7467SOL     OW23299   0.003   1.780   6.218
 7467SOL    HW123300   0.064   1.731   6.281
 7467SOL    HW223301   0.054   1.805   6.135
 7468SOL     OW23302   5.427   3.061   4.026
 7468SOL    HW123303   5.331   3.033   4.031
 7468SOL    HW223304   5.463   3.043   3.934
 7469SOL     OW23305   6.988   0.451   6.571
 7469SOL    HW123306   6.903   0.454   6.518
 7469SOL    HW223307   0.017   0.380   6.535
 7470SOL     OW23308   5.258   3.232   3.520
 7470SOL    HW123309   5.248   3.221   3.618
 7470SOL    HW223310   5.215   3.318   3.491
 7471SOL     OW23311   5.059   6.671   6.063
 7471SOL    HW123312   5.061   6.736   5.988
 7471SOL    HW223313   5.105   6.711   6.143
 7472SOL     OW23314   6.309   1.103   5.845
 7472SOL    HW123315   6.384   1.063   5.792
 7472SOL    HW223316   6.229   1.114   5.786
 7473SOL     OW23317   5.135   5.427   3.834
 7473SOL    HW123318   5.220   5.456   3.791
 7473SOL    HW223319   5.058   5.473   3.790
 7474SOL     OW23320   7.008   2.148   6.320
 7474SOL    HW123321   0.038   2.090   6.266
 7474SOL    HW223322   6.913   2.119   6.308
 7475SOL     OW23323   4.525   2.440   2.141
 7475SOL    HW123324   4.574   2.526   2.156
 7475SOL    HW223325   4.538   2.412   2.046
 7476SOL     OW23326   3.151   1.127   3.015
 7476SOL    HW123327   3.239   1.166   3.040
 7476SOL    HW223328   3.084   1.146   3.087
 7477SOL     OW23329   6.205   2.429   5.127
 7477SOL    HW123330   6.218   2.425   5.227
 7477SOL    HW223331   6.131   2.366   5.101
 7478SOL     OW23332   6.344   3.755   5.688
 7478SOL    HW123333   6.402   3.674   5.680
 7478SOL    HW223334   6.250   3.726   5.707
 7479SOL     OW23335   4.326   2.158   2.027
 7479SOL    HW123336   4.375   2.176   2.113
 7479SOL    HW223337   4.243   2.106   2.047
 7480SOL     OW23338   1.532   4.809   2.419
 7480SOL    HW123339   1.493   4.718   2.399
 7480SOL    HW223340   1.469   4.880   2.387
 7481SOL     OW23341   5.797   5.148   0.965
 7481SOL    HW123342   5.839   5.113   0.880
 7481SOL    HW223343   5.829   5.093   1.042
 7482SOL     OW23344   4.676   2.510   3.106
 7482SOL    HW123345   4.772   2.488   3.089
 7482SOL    HW223346   4.643   2.572   3.034
 7483SOL     OW23347   4.876   3.282   4.731
 7483SOL    HW123348   4.926   3.343   4.669
 7483SOL    HW223349   4.786   3.321   4.750
 7484SOL     OW23350   1.712   6.210   4.367
 7484SOL    HW123351   1.639   6.262   4.411
 7484SOL    HW223352   1.681   6.116   4.350
 7485SOL     OW23353   2.795   0.501   4.979
 7485SOL    HW123354   2.724   0.435   4.956
 7485SOL    HW223355   2.818   0.556   4.899
 7486SOL     OW23356   1.422   6.560   6.855
 7486SOL    HW123357   1.469   6.472   6.851
 7486SOL    HW223358   1.427   6.596   6.948
 7487SOL     OW23359   2.535   0.844   3.186
 7487SOL    HW123360   2.537   0.944   3.188
 7487SOL    HW223361   2.491   0.813   3.102
 7488SOL     OW23362   2.397   5.469   5.114
 7488SOL    HW123363   2.351   5.426   5.192
 7488SOL    HW223364   2.495   5.472   5.131
 7489SOL     OW23365   6.623   3.382   6.405
 7489SOL    HW123366   6.556   3.341   6.467
 7489SOL    HW223367   6.622   3.334   6.318
 7490SOL     OW23368   1.525   0.465   3.416
 7490SOL    HW123369   1.559   0.532   3.350
 7490SOL    HW223370   1.548   0.495   3.508
 7491SOL     OW23371   4.813   3.275   6.554
 7491SOL    HW123372   4.806   3.220   6.637
 7491SOL    HW223373   4.734   3.336   6.548
 7492SOL     OW23374   2.395   0.471   3.665
 7492SOL    HW123375   2.432   0.509   3.580
 7492SOL    HW223376   2.297   0.489   3.670
 7493SOL     OW23377   0.221   2.313   6.107
 7493SOL    HW123378   0.251   2.218   6.104
 7493SOL    HW223379   0.198   2.339   6.201
 7494SOL     OW23380   6.008   1.549   3.465
 7494SOL    HW123381   5.979   1.490   3.390
 7494SOL    HW223382   5.938   1.619   3.482
 7495SOL     OW23383   1.126   2.928   6.438
 7495SOL    HW123384   1.203   2.865   6.449
 7495SOL    HW223385   1.058   2.886   6.377
 7496SOL     OW23386   6.112   3.619   4.059
 7496SOL    HW123387   6.041   3.549   4.050
 7496SOL    HW223388   6.197   3.585   4.019
 7497SOL     OW23389   1.900   4.598   1.432
 7497SOL    HW123390   1.851   4.678   1.398
 7497SOL    HW223391   1.981   4.582   1.376
 7498SOL     OW23392   3.172   1.102   4.611
 7498SOL    HW123393   3.246   1.150   4.563
 7498SOL    HW223394   3.152   1.149   4.697
 7499SOL     OW23395   4.514   2.313   3.175
 7499SOL    HW123396   4.557   2.238   3.225
 7499SOL    HW223397   4.575   2.392   3.173
 7500SOL     OW23398   3.965   5.569   3.087
 7500SOL    HW123399   3.976   5.469   3.083
 7500SOL    HW223400   4.025   5.605   3.159
 7501SOL     OW23401   5.126   4.368   4.545
 7501SOL    HW123402   5.078   4.301   4.601
 7501SOL    HW223403   5.198   4.322   4.492
 7502SOL     OW23404   3.495   0.775   4.560
 7502SOL    HW123405   3.440   0.794   4.478
 7502SOL    HW223406   3.435   0.777   4.641
 7503SOL     OW23407   2.444   6.840   1.403
 7503SOL    HW123408   2.369   6.906   1.398
 7503SOL    HW223409   2.503   6.863   1.481
 7504SOL     OW23410   0.964   6.476   3.785
 7504SOL    HW123411   0.953   6.414   3.708
 7504SOL    HW223412   1.059   6.473   3.817
 7505SOL     OW23413   1.253   2.343   6.184
 7505SOL    HW123414   1.231   2.403   6.261
 7505SOL    HW223415   1.226   2.249   6.206
 7506SOL     OW23416   5.191   2.299   3.842
 7506SOL    HW123417   5.159   2.383   3.886
 7506SOL    HW223418   5.280   2.273   3.880
 7507SOL     OW23419   5.877   1.814   2.330
 7507SOL    HW123420   5.810   1.839   2.399
 7507SOL    HW223421   5.900   1.718   2.339
 7508SOL     OW23422   2.122   5.676   0.846
 7508SOL    HW123423   2.166   5.725   0.770
 7508SOL    HW223424   2.082   5.742   0.909
 7509SOL     OW23425   6.228   4.221   0.657
 7509SOL    HW123426   6.243   4.170   0.742
 7509SOL    HW223427   6.143   4.190   0.615
 7510SOL     OW23428   3.830   3.574   4.806
 7510SOL    HW123429   3.886   3.599   4.726
 7510SOL    HW223430   3.778   3.654   4.835
 7511SOL     OW23431   3.091   6.064   3.264
 7511SOL    HW123432   3.150   5.993   3.302
 7511SOL    HW223433   3.007   6.070   3.318
 7512SOL     OW23434   2.889   1.172   6.482
 7512SOL    HW123435   2.920   1.122   6.562
 7512SOL    HW223436   2.846   1.258   6.510
 7513SOL     OW23437   1.458   1.011   1.593
 7513SOL    HW123438   1.467   0.997   1.495
 7513SOL    HW223439   1.382   1.073   1.611
 7514SOL     OW23440   2.343   4.932   2.623
 7514SOL    HW123441   2.358   4.846   2.670
 7514SOL    HW223442   2.310   5.001   2.688
 7515SOL     OW23443   6.735   4.875   4.411
 7515SOL    HW123444   6.662   4.807   4.406
 7515SOL    HW223445   6.724   4.942   4.338
 7516SOL     OW23446   0.098   5.553   6.127
 7516SOL    HW123447   0.085   5.506   6.214
 7516SOL    HW223448   0.168   5.504   6.073
 7517SOL     OW23449   0.579   2.156   0.160
 7517SOL    HW123450   0.536   2.086   0.217
 7517SOL    HW223451   0.509   2.219   0.127
 7518SOL     OW23452   4.965   3.522   4.604
 7518SOL    HW123453   4.943   3.552   4.511
 7518SOL    HW223454   4.911   3.574   4.670
 7519SOL     OW23455   6.849   6.243   5.081
 7519SOL    HW123456   6.933   6.189   5.084
 7519SOL    HW223457   6.864   6.324   5.025
 7520SOL     OW23458   2.199   0.412   2.774
 7520SOL    HW123459   2.184   0.510   2.769
 7520SOL    HW223460   2.230   0.388   2.866
 7521SOL     OW23461   5.307   2.688   5.457
 7521SOL    HW123462   5.271   2.755   5.522
 7521SOL    HW223463   5.236   2.621   5.435
 7522SOL     OW23464   1.345   0.903   5.923
 7522SOL    HW123465   1.393   0.984   5.957
 7522SOL    HW223466   1.282   0.929   5.850
 7523SOL     OW23467   4.937   0.770   6.461
 7523SOL    HW123468   4.880   0.692   6.484
 7523SOL    HW223469   4.955   0.770   6.363
 7524SOL     OW23470   0.589   2.597   5.252
 7524SOL    HW123471   0.613   2.614   5.156
 7524SOL    HW223472   0.623   2.507   5.279
 7525SOL     OW23473   4.024   6.911   0.337
 7525SOL    HW123474   4.069   6.919   0.248
 7525SOL    HW223475   3.941   6.967   0.338
 7526SOL     OW23476   2.874   2.927   1.686
 7526SOL    HW123477   2.873   2.958   1.781
 7526SOL    HW223478   2.919   2.837   1.681
 7527SOL     OW23479   3.248   5.667   4.064
 7527SOL    HW123480   3.181   5.741   4.078
 7527SOL    HW223481   3.237   5.598   4.136
 7528SOL     OW23482   6.319   2.356   6.130
 7528SOL    HW123483   6.418   2.370   6.129
 7528SOL    HW223484   6.276   2.422   6.068
 7529SOL     OW23485   6.036   1.326   4.835
 7529SOL    HW123486   5.966   1.286   4.894
 7529SOL    HW223487   6.022   1.424   4.828
 7530SOL     OW23488   6.147   1.934   1.851
 7530SOL    HW123489   6.192   1.845   1.847
 7530SOL    HW223490   6.194   1.999   1.791
 7531SOL     OW23491   5.408   3.222   4.265
 7531SOL    HW123492   5.451   3.311   4.254
 7531SOL    HW223493   5.410   3.173   4.178
 7532SOL     OW23494   4.765   6.090   0.661
 7532SOL    HW123495   4.769   6.137   0.750
 7532SOL    HW223496   4.843   6.118   0.605
 7533SOL     OW23497   3.441   1.926   1.760
 7533SOL    HW123498   3.539   1.910   1.757
 7533SOL    HW223499   3.423   2.020   1.788
 7534SOL     OW23500   4.774   5.705   4.468
 7534SOL    HW123501   4.707   5.630   4.465
 7534SOL    HW223502   4.866   5.668   4.460
 7535SOL     OW23503   1.728   6.725   5.083
 7535SOL    HW123504   1.779   6.732   4.997
 7535SOL    HW223505   1.749   6.637   5.126
 7536SOL     OW23506   4.899   4.983   4.090
 7536SOL    HW123507   4.866   5.034   4.011
 7536SOL    HW223508   4.891   5.039   4.172
 7537SOL     OW23509   1.592   5.005   2.908
 7537SOL    HW123510   1.510   4.952   2.885
 7537SOL    HW223511   1.577   5.053   2.995
 7538SOL     OW23512   1.728   2.256   1.485
 7538SOL    HW123513   1.714   2.354   1.473
 7538SOL    HW223514   1.814   2.240   1.533
 7539SOL     OW23515   1.565   3.962   4.351
 7539SOL    HW123516   1.663   3.952   4.331
 7539SOL    HW223517   1.523   3.872   4.362
 7540SOL     OW23518   4.211   0.569   4.735
 7540SOL    HW123519   4.139   0.562   4.666
 7540SOL    HW223520   4.300   0.552   4.691
 7541SOL     OW23521   0.625   4.009   5.401
 7541SOL    HW123522   0.588   4.055   5.482
 7541SOL    HW223523   0.577   4.041   5.320
 7542SOL     OW23524   6.966   6.244   0.359
 7542SOL    HW123525   7.012   6.156   0.371
 7542SOL    HW223526   6.922   6.270   0.444
 7543SOL     OW23527   3.457   1.048   5.433
 7543SOL    HW123528   3.368   1.013   5.460
 7543SOL    HW223529   3.511   0.975   5.391
 7544SOL     OW23530   6.169   2.515   4.659
 7544SOL    HW123531   6.263   2.493   4.683
 7544SOL    HW223532   6.157   2.614   4.658
 7545SOL     OW23533   1.016   6.076   6.116
 7545SOL    HW123534   0.973   6.152   6.067
 7545SOL    HW223535   1.043   6.107   6.208
 7546SOL     OW23536   4.838   2.126   1.245
 7546SOL    HW123537   4.850   2.033   1.278
 7546SOL    HW223538   4.793   2.125   1.155
 7547SOL     OW23539   5.218   1.621   1.222
 7547SOL    HW123540   5.313   1.652   1.225
 7547SOL    HW223541   5.179   1.644   1.133
 7548SOL     OW23542   4.754   2.332   6.115
 7548SOL    HW123543   4.718   2.305   6.204
 7548SOL    HW223544   4.829   2.271   6.090
 7549SOL     OW23545   3.493   3.389   6.336
 7549SOL    HW123546   3.554   3.467   6.319
 7549SOL    HW223547   3.425   3.414   6.405
 7550SOL     OW23548   1.686   4.372   3.754
 7550SOL    HW123549   1.765   4.312   3.770
 7550SOL    HW223550   1.717   4.465   3.739
 7551SOL     OW23551   6.070   2.952   5.230
 7551SOL    HW123552   5.996   3.016   5.210
 7551SOL    HW223553   6.033   2.873   5.278
 7552SOL     OW23554   1.623   5.742   4.018
 7552SOL    HW123555   1.707   5.738   3.964
 7552SOL    HW223556   1.546   5.766   3.959
 7553SOL     OW23557   4.770   7.012   5.768
 7553SOL    HW123558   4.797   0.036   5.688
 7553SOL    HW223559   4.671   7.002   5.769
 7554SOL     OW23560   4.678   0.918   6.544
 7554SOL    HW123561   4.635   0.958   6.624
 7554SOL    HW223562   4.777   0.915   6.558
 7555SOL     OW23563   3.269   5.451   6.369
 7555SOL    HW123564   3.179   5.482   6.399
 7555SOL    HW223565   3.339   5.510   6.409
 7556SOL     OW23566   2.594   1.973   0.076
 7556SOL    HW123567   2.541   2.056   0.089
 7556SOL    HW223568   2.691   1.992   0.092
 7557SOL     OW23569   4.932   0.662   6.108
 7557SOL    HW123570   4.870   0.598   6.064
 7557SOL    HW223571   4.879   0.735   6.151
 7558SOL     OW23572   2.245   2.979   4.274
 7558SOL    HW123573   2.334   3.020   4.291
 7558SOL    HW223574   2.234   2.898   4.332
 7559SOL     OW23575   3.597   3.095   5.747
 7559SOL    HW123576   3.551   3.053   5.826
 7559SOL    HW223577   3.647   3.177   5.778
 7560SOL     OW23578   5.499   0.056   7.003
 7560SOL    HW123579   5.519   7.007   0.030
 7560SOL    HW223580   5.400   0.062   6.986
 7561SOL     OW23581   6.890   3.168   5.473
 7561SOL    HW123582   6.897   3.261   5.439
 7561SOL    HW223583   6.812   3.122   5.429
 7562SOL     OW23584   0.508   4.716   5.373
 7562SOL    HW123585   0.544   4.680   5.286
 7562SOL    HW223586   0.582   4.760   5.424
 7563SOL     OW23587   3.202   6.680   1.572
 7563SOL    HW123588   3.124   6.644   1.521
 7563SOL    HW223589   3.172   6.708   1.663
 7564SOL     OW23590   3.817   0.254   4.558
 7564SOL    HW123591   3.803   0.251   4.657
 7564SOL    HW223592   3.732   0.233   4.511
 7565SOL     OW23593   5.586   4.022   6.212
 7565SOL    HW123594   5.673   4.003   6.258
 7565SOL    HW223595   5.515   3.964   6.250
 7566SOL     OW23596   5.753   5.121   2.260
 7566SOL    HW123597   5.797   5.196   2.212
 7566SOL    HW223598   5.720   5.053   2.195
 7567SOL     OW23599   1.496   1.116   5.962
 7567SOL    HW123600   1.532   1.199   6.006
 7567SOL    HW223601   1.490   1.131   5.863
 7568SOL     OW23602   5.803   4.520   2.301
 7568SOL    HW123603   5.785   4.583   2.377
 7568SOL    HW223604   5.832   4.431   2.337
 7569SOL     OW23605   2.752   4.698   6.035
 7569SOL    HW123606   2.710   4.623   5.985
 7569SOL    HW223607   2.722   4.696   6.131
 7570SOL     OW23608   5.097   4.027   4.313
 7570SOL    HW123609   5.156   4.098   4.352
 7570SOL    HW223610   5.060   3.970   4.386
 7571SOL     OW23611   4.840   3.825   3.557
 7571SOL    HW123612   4.803   3.826   3.464
 7571SOL    HW223613   4.849   3.730   3.589
 7572SOL     OW23614   5.136   0.615   2.832
 7572SOL    HW123615   5.191   0.598   2.750
 7572SOL    HW223616   5.131   0.532   2.887
 7573SOL     OW23617   6.538   0.247   5.182
 7573SOL    HW123618   6.513   0.316   5.249
 7573SOL    HW223619   6.472   0.172   5.184
 7574SOL     OW23620   5.867   0.675   4.656
 7574SOL    HW123621   5.855   0.580   4.627
 7574SOL    HW223622   5.931   0.679   4.733
 7575SOL     OW23623   5.631   0.099   6.780
 7575SOL    HW123624   5.569   0.073   6.706
 7575SOL    HW223625   5.591   0.072   6.867
 7576SOL     OW23626   4.834   3.213   0.230
 7576SOL    HW123627   4.763   3.265   0.183
 7576SOL    HW223628   4.823   3.225   0.329
 7577SOL     OW23629   0.408   6.386   6.564
 7577SOL    HW123630   0.313   6.386   6.532
 7577SOL    HW223631   0.423   6.307   6.623
 7578SOL     OW23632   2.908   5.283   2.335
 7578SOL    HW123633   2.860   5.226   2.402
 7578SOL    HW223634   2.959   5.224   2.272
 7579SOL     OW23635   0.203   1.529   1.290
 7579SOL    HW123636   0.121   1.480   1.258
 7579SOL    HW223637   0.179   1.585   1.369
 7580SOL     OW23638   0.694   4.202   3.430
 7580SOL    HW123639   0.773   4.242   3.384
 7580SOL    HW223640   0.694   4.103   3.416
 7581SOL     OW23641   0.854   1.751   1.347
 7581SOL    HW123642   0.861   1.822   1.417
 7581SOL    HW223643   0.778   1.690   1.369
 7582SOL     OW23644   4.084   1.747   3.750
 7582SOL    HW123645   4.162   1.802   3.780
 7582SOL    HW223646   4.114   1.678   3.685
 7583SOL     OW23647   5.182   3.058   2.142
 7583SOL    HW123648   5.248   3.114   2.092
 7583SOL    HW223649   5.153   2.981   2.086
 7584SOL     OW23650   1.485   6.993   2.890
 7584SOL    HW123651   1.443   0.028   2.953
 7584SOL    HW223652   1.525   6.918   2.941
 7585SOL     OW23653   1.593   2.648   5.746
 7585SOL    HW123654   1.610   2.741   5.780
 7585SOL    HW223655   1.680   2.598   5.742
 7586SOL     OW23656   1.971   6.665   3.559
 7586SOL    HW123657   1.895   6.645   3.621
 7586SOL    HW223658   2.050   6.695   3.612
 7587SOL     OW23659   2.736   1.550   6.741
 7587SOL    HW123660   2.792   1.510   6.814
 7587SOL    HW223661   2.780   1.534   6.653
 7588SOL     OW23662   2.325   2.286   3.510
 7588SOL    HW123663   2.348   2.384   3.506
 7588SOL    HW223664   2.330   2.255   3.605
 7589SOL     OW23665   0.484   0.882   2.825
 7589SOL    HW123666   0.489   0.790   2.788
 7589SOL    HW223667   0.434   0.941   2.761
 7590SOL     OW23668   4.934   1.730   6.813
 7590SOL    HW123669   4.977   1.779   6.737
 7590SOL    HW223670   5.002   1.713   6.884
 7591SOL     OW23671   5.161   4.440   0.102
 7591SOL    HW123672   5.071   4.407   0.129
 7591SOL    HW223673   5.215   4.461   0.183
 7592SOL     OW23674   6.213   5.376   4.143
 7592SOL    HW123675   6.288   5.443   4.137
 7592SOL    HW223676   6.216   5.332   4.233
 7593SOL     OW23677   6.853   2.963   6.951
 7593SOL    HW123678   6.832   3.060   6.961
 7593SOL    HW223679   6.780   2.918   6.899
 7594SOL     OW23680   2.239   4.494   1.584
 7594SOL    HW123681   2.186   4.422   1.627
 7594SOL    HW223682   2.252   4.569   1.649
 7595SOL     OW23683   6.329   3.536   6.081
 7595SOL    HW123684   6.305   3.612   6.142
 7595SOL    HW223685   6.428   3.530   6.072
 7596SOL     OW23686   3.265   6.844   4.317
 7596SOL    HW123687   3.170   6.817   4.331
 7596SOL    HW223688   3.287   6.921   4.377
 7597SOL     OW23689   2.233   6.327   3.054
 7597SOL    HW123690   2.292   6.371   2.986
 7597SOL    HW223691   2.282   6.250   3.096
 7598SOL     OW23692   6.037   0.498   3.498
 7598SOL    HW123693   6.095   0.569   3.459
 7598SOL    HW223694   6.091   0.437   3.556
 7599SOL     OW23695   5.524   1.819   1.619
 7599SOL    HW123696   5.587   1.812   1.542
 7599SOL    HW223697   5.545   1.748   1.686
 7600SOL     OW23698   1.090   0.925   4.081
 7600SOL    HW123699   1.089   0.888   4.174
 7600SOL    HW223700   1.024   1.000   4.075
 7601SOL     OW23701   2.471   4.806   1.983
 7601SOL    HW123702   2.481   4.716   2.026
 7601SOL    HW223703   2.551   4.826   1.927
 7602SOL     OW23704   1.016   3.007   6.918
 7602SOL    HW123705   0.973   3.097   6.913
 7602SOL    HW223706   1.105   3.015   6.963
 7603SOL     OW23707   2.452   6.226   6.587
 7603SOL    HW123708   2.544   6.200   6.615
 7603SOL    HW223709   2.450   6.324   6.567
 7604SOL     OW23710   0.928   2.606   5.043
 7604SOL    HW123711   1.018   2.648   5.038
 7604SOL    HW223712   0.858   2.674   5.017
 7605SOL     OW23713   1.116   0.286   0.564
 7605SOL    HW123714   1.163   0.346   0.629
 7605SOL    HW223715   1.181   0.254   0.495
 7606SOL     OW23716   5.425   3.021   4.820
 7606SOL    HW123717   5.518   3.029   4.856
 7606SOL    HW223718   5.428   3.009   4.721
 7607SOL     OW23719   4.547   5.340   0.383
 7607SOL    HW123720   4.506   5.409   0.442
 7607SOL    HW223721   4.645   5.358   0.374
 7608SOL     OW23722   5.049   3.092   0.709
 7608SOL    HW123723   5.038   3.093   0.809
 7608SOL    HW223724   4.968   3.050   0.668
 7609SOL     OW23725   1.599   3.508   4.436
 7609SOL    HW123726   1.692   3.494   4.471
 7609SOL    HW223727   1.580   3.439   4.366
 7610SOL     OW23728   3.910   4.916   6.100
 7610SOL    HW123729   3.906   4.824   6.061
 7610SOL    HW223730   3.931   4.981   6.027
 7611SOL     OW23731   5.150   4.421   1.303
 7611SOL    HW123732   5.226   4.459   1.356
 7611SOL    HW223733   5.075   4.487   1.300
 7612SOL     OW23734   4.860   2.735   2.870
 7612SOL    HW123735   4.910   2.678   2.935
 7612SOL    HW223736   4.764   2.708   2.868
 7613SOL     OW23737   0.404   1.736   1.195
 7613SOL    HW123738   0.322   1.680   1.199
 7613SOL    HW223739   0.473   1.699   1.258
 7614SOL     OW23740   5.578   3.245   1.510
 7614SOL    HW123741   5.658   3.247   1.570
 7614SOL    HW223742   5.503   3.295   1.553
 7615SOL     OW23743   4.680   4.355   6.492
 7615SOL    HW123744   4.656   4.340   6.587
 7615SOL    HW223745   4.775   4.386   6.486
 7616SOL     OW23746   6.609   6.689   4.482
 7616SOL    HW123747   6.584   6.774   4.529
 7616SOL    HW223748   6.529   6.629   4.479
 7617SOL     OW23749   4.474   6.428   3.526
 7617SOL    HW123750   4.498   6.515   3.484
 7617SOL    HW223751   4.551   6.364   3.516
 7618SOL     OW23752   0.948   2.972   6.657
 7618SOL    HW123753   0.988   3.001   6.744
 7618SOL    HW223754   1.020   2.933   6.599
 7619SOL     OW23755   6.960   3.254   4.661
 7619SOL    HW123756   6.985   3.238   4.565
 7619SOL    HW223757   6.864   3.233   4.675
 7620SOL     OW23758   3.988   5.858   1.683
 7620SOL    HW123759   3.989   5.806   1.597
 7620SOL    HW223760   4.053   5.934   1.676
 7621SOL     OW23761   0.170   0.838   0.834
 7621SOL    HW123762   0.249   0.898   0.852
 7621SOL    HW223763   0.089   0.895   0.820
 7622SOL     OW23764   4.979   4.658   6.474
 7622SOL    HW123765   4.921   4.694   6.547
 7622SOL    HW223766   4.997   4.561   6.490
 7623SOL     OW23767   4.285   4.403   0.988
 7623SOL    HW123768   4.239   4.360   0.910
 7623SOL    HW223769   4.221   4.413   1.064
 7624SOL     OW23770   7.021   3.831   3.675
 7624SOL    HW123771   7.026   3.838   3.775
 7624SOL    HW223772   0.079   3.857   3.636
 7625SOL     OW23773   5.773   1.429   6.694
 7625SOL    HW123774   5.736   1.518   6.721
 7625SOL    HW223775   5.817   1.386   6.773
 7626SOL     OW23776   6.330   0.526   5.906
 7626SOL    HW123777   6.426   0.502   5.919
 7626SOL    HW223778   6.295   0.570   5.989
 7627SOL     OW23779   3.337   2.536   0.336
 7627SOL    HW123780   3.362   2.440   0.323
 7627SOL    HW223781   3.238   2.544   0.337
 7628SOL     OW23782   3.786   3.012   1.792
 7628SOL    HW123783   3.868   3.001   1.848
 7628SOL    HW223784   3.813   3.033   1.698
 7629SOL     OW23785   0.329   4.042   3.245
 7629SOL    HW123786   0.237   4.073   3.223
 7629SOL    HW223787   0.327   3.944   3.264
 7630SOL     OW23788   1.251   0.627   6.918
 7630SOL    HW123789   1.236   0.528   6.925
 7630SOL    HW223790   1.336   0.651   6.965
 7631SOL     OW23791   1.046   1.285   5.459
 7631SOL    HW123792   1.011   1.364   5.509
 7631SOL    HW223793   1.139   1.303   5.428
 7632SOL     OW23794   4.523   4.554   0.929
 7632SOL    HW123795   4.512   4.652   0.910
 7632SOL    HW223796   4.441   4.520   0.975
 7633SOL     OW23797   5.317   0.615   1.572
 7633SOL    HW123798   5.248   0.547   1.547
 7633SOL    HW223799   5.281   0.676   1.643
 7634SOL     OW23800   2.612   1.234   1.610
 7634SOL    HW123801   2.709   1.238   1.588
 7634SOL    HW223802   2.589   1.309   1.673
 7635SOL     OW23803   3.235   4.898   4.612
 7635SOL    HW123804   3.181   4.982   4.614
 7635SOL    HW223805   3.185   4.828   4.561
 7636SOL     OW23806   1.144   3.500   3.609
 7636SOL    HW123807   1.219   3.564   3.623
 7636SOL    HW223808   1.058   3.541   3.640
 7637SOL     OW23809   2.620   5.875   2.681
 7637SOL    HW123810   2.533   5.864   2.730
 7637SOL    HW223811   2.659   5.785   2.663
 7638SOL     OW23812   1.583   5.777   2.613
 7638SOL    HW123813   1.554   5.770   2.709
 7638SOL    HW223814   1.505   5.760   2.553
 7639SOL     OW23815   0.282   1.232   0.668
 7639SOL    HW123816   0.333   1.172   0.730
 7639SOL    HW223817   0.346   1.286   0.614
 7640SOL     OW23818   2.541   2.930   6.552
 7640SOL    HW123819   2.471   2.972   6.493
 7640SOL    HW223820   2.601   3.001   6.589
 7641SOL     OW23821   6.884   3.558   2.536
 7641SOL    HW123822   6.850   3.511   2.454
 7641SOL    HW223823   6.880   3.657   2.523
 7642SOL     OW23824   4.750   1.207   2.240
 7642SOL    HW123825   4.829   1.152   2.214
 7642SOL    HW223826   4.774   1.264   2.319
 7643SOL     OW23827   4.946   1.435   2.708
 7643SOL    HW123828   5.023   1.468   2.652
 7643SOL    HW223829   4.982   1.387   2.788
 7644SOL     OW23830   4.949   3.079   1.807
 7644SOL    HW123831   4.899   3.006   1.761
 7644SOL    HW223832   4.898   3.106   1.890
 7645SOL     OW23833   4.928   3.579   6.273
 7645SOL    HW123834   4.864   3.654   6.288
 7645SOL    HW223835   4.978   3.560   6.358
 7646SOL     OW23836   0.522   2.640   3.515
 7646SOL    HW123837   0.490   2.733   3.497
 7646SOL    HW223838   0.589   2.641   3.589
 7647SOL     OW23839   0.034   2.475   4.789
 7647SOL    HW123840   6.969   2.451   4.768
 7647SOL    HW223841   0.037   2.536   4.868
 7648SOL     OW23842   2.076   1.683   2.326
 7648SOL    HW123843   2.049   1.604   2.381
 7648SOL    HW223844   2.175   1.695   2.332
 7649SOL     OW23845   1.851   0.831   4.086
 7649SOL    HW123846   1.914   0.756   4.108
 7649SOL    HW223847   1.814   0.869   4.171
 7650SOL     OW23848   6.097   0.526   0.801
 7650SOL    HW123849   6.002   0.550   0.780
 7650SOL    HW223850   6.157   0.565   0.731
 7651SOL     OW23851   2.297   6.622   4.872
 7651SOL    HW123852   2.390   6.608   4.837
 7651SOL    HW223853   2.266   6.713   4.845
 7652SOL     OW23854   5.426   2.087   5.094
 7652SOL    HW123855   5.426   2.037   5.181
 7652SOL    HW223856   5.389   2.179   5.109
 7653SOL     OW23857   1.225   1.561   0.572
 7653SOL    HW123858   1.147   1.588   0.629
 7653SOL    HW223859   1.197   1.487   0.510
 7654SOL     OW23860   5.076   3.142   4.266
 7654SOL    HW123861   5.108   3.229   4.230
 7654SOL    HW223862   4.998   3.157   4.328
 7655SOL     OW23863   3.842   0.074   3.696
 7655SOL    HW123864   3.865   0.147   3.632
 7655SOL    HW223865   3.926   0.037   3.736
 7656SOL     OW23866   4.146   3.762   6.552
 7656SOL    HW123867   4.085   3.801   6.482
 7656SOL    HW223868   4.120   3.797   6.642
 7657SOL     OW23869   2.316   2.145   3.779
 7657SOL    HW123870   2.331   2.176   3.873
 7657SOL    HW223871   2.252   2.068   3.779
 7658SOL     OW23872   2.342   0.391   0.721
 7658SOL    HW123873   2.358   0.385   0.820
 7658SOL    HW223874   2.385   0.474   0.685
 7659SOL     OW23875   4.612   4.643   0.282
 7659SOL    HW123876   4.547   4.644   0.358
 7659SOL    HW223877   4.622   4.550   0.246
 7660SOL     OW23878   0.064   5.996   4.124
 7660SOL    HW123879   0.112   6.070   4.076
 7660SOL    HW223880   7.001   6.025   4.144
 7661SOL     OW23881   5.540   2.212   5.625
 7661SOL    HW123882   5.601   2.268   5.570
 7661SOL    HW223883   5.487   2.271   5.686
 7662SOL     OW23884   0.964   2.668   3.492
 7662SOL    HW123885   0.940   2.684   3.588
 7662SOL    HW223886   1.064   2.660   3.484
 7663SOL     OW23887   5.518   4.908   6.066
 7663SOL    HW123888   5.583   4.835   6.047
 7663SOL    HW223889   5.493   4.953   5.980
 7664SOL     OW23890   4.184   1.278   2.415
 7664SOL    HW123891   4.105   1.235   2.370
 7664SOL    HW223892   4.221   1.215   2.484
 7665SOL     OW23893   5.755   0.694   5.175
 7665SOL    HW123894   5.787   0.649   5.259
 7665SOL    HW223895   5.660   0.723   5.187
 7666SOL     OW23896   0.869   4.945   3.453
 7666SOL    HW123897   0.774   4.975   3.449
 7666SOL    HW223898   0.929   5.025   3.448
 7667SOL     OW23899   4.495   0.454   2.416
 7667SOL    HW123900   4.425   0.525   2.418
 7667SOL    HW223901   4.537   0.451   2.326
 7668SOL     OW23902   2.745   4.898   1.107
 7668SOL    HW123903   2.750   4.982   1.053
 7668SOL    HW223904   2.657   4.853   1.090
 7669SOL     OW23905   4.498   1.138   5.532
 7669SOL    HW123906   4.517   1.105   5.440
 7669SOL    HW223907   4.577   1.119   5.591
 7670SOL     OW23908   1.214   5.556   0.710
 7670SOL    HW123909   1.141   5.613   0.748
 7670SOL    HW223910   1.244   5.490   0.779
 7671SOL     OW23911   3.797   0.673   2.218
 7671SOL    HW123912   3.718   0.731   2.195
 7671SOL    HW223913   3.831   0.629   2.135
 7672SOL     OW23914   6.962   5.526   3.179
 7672SOL    HW123915   6.910   5.605   3.145
 7672SOL    HW223916   7.015   5.554   3.259
 7673SOL     OW23917   1.619   5.597   2.196
 7673SOL    HW123918   1.609   5.548   2.110
 7673SOL    HW223919   1.549   5.668   2.202
 7674SOL     OW23920   4.859   0.906   4.104
 7674SOL    HW123921   4.846   0.876   4.199
 7674SOL    HW223922   4.770   0.920   4.062
 7675SOL     OW23923   5.820   6.420   3.311
 7675SOL    HW123924   5.877   6.343   3.341
 7675SOL    HW223925   5.807   6.483   3.388
 7676SOL     OW23926   3.020   2.577   6.343
 7676SOL    HW123927   3.073   2.631   6.277
 7676SOL    HW223928   2.954   2.637   6.388
 7677SOL     OW23929   0.746   4.271   1.174
 7677SOL    HW123930   0.697   4.322   1.104
 7677SOL    HW223931   0.707   4.179   1.182
 7678SOL     OW23932   2.422   2.647   5.387
 7678SOL    HW123933   2.410   2.624   5.290
 7678SOL    HW223934   2.500   2.709   5.397
 7679SOL     OW23935   2.279   5.595   5.659
 7679SOL    HW123936   2.296   5.522   5.592
 7679SOL    HW223937   2.359   5.655   5.664
 7680SOL     OW23938   1.614   0.656   0.674
 7680SOL    HW123939   1.675   0.638   0.751
 7680SOL    HW223940   1.649   0.733   0.621
 7681SOL     OW23941   2.914   1.156   0.372
 7681SOL    HW123942   2.995   1.201   0.334
 7681SOL    HW223943   2.917   1.059   0.349
 7682SOL     OW23944   4.761   0.753   2.297
 7682SOL    HW123945   4.732   0.846   2.322
 7682SOL    HW223946   4.698   0.716   2.229
 7683SOL     OW23947   0.256   1.699   4.851
 7683SOL    HW123948   0.304   1.769   4.798
 7683SOL    HW223949   0.164   1.687   4.814
 7684SOL     OW23950   4.385   2.122   1.057
 7684SOL    HW123951   4.323   2.046   1.033
 7684SOL    HW223952   4.414   2.112   1.152
 7685SOL     OW23953   2.925   1.621   6.255
 7685SOL    HW123954   2.928   1.625   6.155
 7685SOL    HW223955   2.897   1.710   6.291
 7686SOL     OW23956   6.819   6.908   3.938
 7686SOL    HW123957   6.730   6.863   3.935
 7686SOL    HW223958   6.846   6.923   4.033
 7687SOL     OW23959   5.537   5.072   4.604
 7687SOL    HW123960   5.528   5.170   4.621
 7687SOL    HW223961   5.450   5.027   4.624
 7688SOL     OW23962   0.215   5.987   5.563
 7688SOL    HW123963   0.198   6.053   5.636
 7688SOL    HW223964   0.129   5.963   5.518
 7689SOL     OW23965   5.584   6.330   2.644
 7689SOL    HW123966   5.516   6.260   2.664
 7689SOL    HW223967   5.540   6.421   2.648
 7690SOL     OW23968   4.877   5.531   0.707
 7690SOL    HW123969   4.898   5.628   0.708
 7690SOL    HW223970   4.951   5.480   0.751
 7691SOL     OW23971   5.853   3.798   2.430
 7691SOL    HW123972   5.933   3.739   2.425
 7691SOL    HW223973   5.791   3.765   2.501
 7692SOL     OW23974   0.859   6.006   1.953
 7692SOL    HW123975   0.956   5.992   1.970
 7692SOL    HW223976   0.845   6.092   1.904
 7693SOL     OW23977   2.909   0.415   1.204
 7693SOL    HW123978   2.998   0.453   1.228
 7693SOL    HW223979   2.921   0.344   1.134
 7694SOL     OW23980   5.905   2.695   3.692
 7694SOL    HW123981   5.871   2.629   3.624
 7694SOL    HW223982   5.982   2.654   3.741
 7695SOL     OW23983   5.867   0.870   1.419
 7695SOL    HW123984   5.857   0.961   1.459
 7695SOL    HW223985   5.796   0.856   1.350
 7696SOL     OW23986   6.670   2.073   6.100
 7696SOL    HW123987   6.575   2.098   6.122
 7696SOL    HW223988   6.676   2.046   6.004
 7697SOL     OW23989   2.519   0.866   2.780
 7697SOL    HW123990   2.477   0.798   2.841
 7697SOL    HW223991   2.603   0.901   2.822
 7698SOL     OW23992   6.145   1.123   4.650
 7698SOL    HW123993   6.131   1.219   4.677
 7698SOL    HW223994   6.237   1.094   4.676
 7699SOL     OW23995   2.532   5.256   6.162
 7699SOL    HW123996   2.554   5.353   6.154
 7699SOL    HW223997   2.452   5.236   6.104
 7700SOL     OW23998   4.531   5.810   3.544
 7700SOL    HW123999   4.453   5.747   3.542
 7700SOL    HW224000   4.558   5.826   3.639
 7701SOL     OW24001   0.307   2.544   6.786
 7701SOL    HW124002   0.227   2.598   6.813
 7701SOL    HW224003   0.388   2.579   6.834
 7702SOL     OW24004   4.838   5.594   5.233
 7702SOL    HW124005   4.791   5.604   5.321
 7702SOL    HW224006   4.790   5.527   5.177
 7703SOL     OW24007   6.675   6.226   6.288
 7703SOL    HW124008   6.717   6.286   6.356
 7703SOL    HW224009   6.724   6.235   6.201
 7704SOL     OW24010   5.925   1.323   3.291
 7704SOL    HW124011   5.830   1.305   3.315
 7704SOL    HW224012   5.940   1.299   3.195
 7705SOL     OW24013   2.441   5.999   1.305
 7705SOL    HW124014   2.482   5.982   1.216
 7705SOL    HW224015   2.373   5.928   1.325
 7706SOL     OW24016   3.982   3.087   4.429
 7706SOL    HW124017   3.970   3.054   4.522
 7706SOL    HW224018   4.029   3.017   4.375
 7707SOL     OW24019   0.573   4.652   6.523
 7707SOL    HW124020   0.660   4.610   6.550
 7707SOL    HW224021   0.576   4.675   6.426
 7708SOL     OW24022   1.809   6.391   4.566
 7708SOL    HW124023   1.770   6.362   4.478
 7708SOL    HW224024   1.866   6.318   4.603
 7709SOL     OW24025   6.930   4.911   2.017
 7709SOL    HW124026   7.016   4.905   2.067
 7709SOL    HW224027   6.892   4.819   2.005
 7710SOL     OW24028   1.625   2.466   0.749
 7710SOL    HW124029   1.568   2.470   0.832
 7710SOL    HW224030   1.572   2.426   0.674
 7711SOL     OW24031   5.724   5.951   5.515
 7711SOL    HW124032   5.787   5.949   5.593
 7711SOL    HW224033   5.650   5.885   5.530
 7712SOL     OW24034   6.221   5.212   0.388
 7712SOL    HW124035   6.156   5.224   0.313
 7712SOL    HW224036   6.305   5.171   0.353
 7713SOL     OW24037   1.747   3.199   0.492
 7713SOL    HW124038   1.841   3.174   0.466
 7713SOL    HW224039   1.750   3.277   0.555
 7714SOL     OW24040   0.506   5.575   5.027
 7714SOL    HW124041   0.550   5.549   5.113
 7714SOL    HW224042   0.421   5.523   5.017
 7715SOL     OW24043   2.989   2.875   6.532
 7715SOL    HW124044   2.903   2.836   6.501
 7715SOL    HW224045   2.980   2.975   6.539
 7716SOL     OW24046   6.649   4.807   0.588
 7716SOL    HW124047   6.715   4.744   0.546
 7716SOL    HW224048   6.558   4.766   0.586
 7717SOL     OW24049   1.235   1.898   5.601
 7717SOL    HW124050   1.140   1.929   5.597
 7717SOL    HW224051   1.295   1.976   5.619
 7718SOL     OW24052   6.524   3.817   3.235
 7718SOL    HW124053   6.549   3.850   3.326
 7718SOL    HW224054   6.591   3.748   3.205
 7719SOL     OW24055   1.379   3.758   4.702
 7719SOL    HW124056   1.389   3.692   4.776
 7719SOL    HW224057   1.286   3.793   4.700
 7720SOL     OW24058   6.463   2.584   6.035
 7720SOL    HW124059   6.502   2.659   6.088
 7720SOL    HW224060   6.518   2.502   6.047
 7721SOL     OW24061   0.645   6.090   2.409
 7721SOL    HW124062   0.659   6.080   2.311
 7721SOL    HW224063   0.622   6.186   2.429
 7722SOL     OW24064   1.716   4.782   3.429
 7722SOL    HW124065   1.622   4.815   3.427
 7722SOL    HW224066   1.721   4.694   3.382
 7723SOL     OW24067   3.941   3.754   6.921
 7723SOL    HW124068   3.870   3.685   6.937
 7723SOL    HW224069   4.027   3.724   6.962
 7724SOL     OW24070   3.213   4.598   0.380
 7724SOL    HW124071   3.222   4.696   0.360
 7724SOL    HW224072   3.281   4.547   0.327
 7725SOL     OW24073   6.023   2.053   3.003
 7725SOL    HW124074   6.120   2.074   2.996
 7725SOL    HW224075   5.972   2.104   2.934
 7726SOL     OW24076   1.683   3.830   6.471
 7726SOL    HW124077   1.662   3.897   6.400
 7726SOL    HW224078   1.605   3.823   6.534
 7727SOL     OW24079   6.103   2.792   2.191
 7727SOL    HW124080   6.101   2.711   2.131
 7727SOL    HW224081   6.079   2.764   2.284
 7728SOL     OW24082   2.249   2.944   4.807
 7728SOL    HW124083   2.288   2.981   4.891
 7728SOL    HW224084   2.275   2.848   4.797
 7729SOL     OW24085   5.841   1.195   2.265
 7729SOL    HW124086   5.939   1.192   2.283
 7729SOL    HW224087   5.801   1.105   2.283
 7730SOL     OW24088   0.162   4.683   6.404
 7730SOL    HW124089   0.239   4.729   6.358
 7730SOL    HW224090   0.193   4.647   6.492
 7731SOL     OW24091   6.830   6.959   0.002
 7731SOL    HW124092   6.811   6.861   0.009
 7731SOL    HW224093   6.820   7.001   0.092
 7732SOL     OW24094   4.320   0.456   0.227
 7732SOL    HW124095   4.278   0.442   0.137
 7732SOL    HW224096   4.373   0.541   0.226
 7733SOL     OW24097   6.196   5.457   2.125
 7733SOL    HW124098   6.181   5.405   2.209
 7733SOL    HW224099   6.294   5.468   2.111
 7734SOL     OW24100   1.854   4.835   4.749
 7734SOL    HW124101   1.821   4.906   4.687
 7734SOL    HW224102   1.858   4.872   4.842
 7735SOL     OW24103   5.974   5.839   6.565
 7735SOL    HW124104   6.067   5.813   6.538
 7735SOL    HW224105   5.978   5.916   6.629
 7736SOL     OW24106   2.036   3.161   0.155
 7736SOL    HW124107   2.133   3.181   0.173
 7736SOL    HW224108   2.024   3.140   0.058
 7737SOL     OW24109   3.701   6.810   1.878
 7737SOL    HW124110   3.621   6.818   1.937
 7737SOL    HW224111   3.775   6.766   1.929
 7738SOL     OW24112   2.861   5.167   0.366
 7738SOL    HW124113   2.917   5.176   0.448
 7738SOL    HW224114   2.871   5.248   0.309
 7739SOL     OW24115   1.806   2.014   1.763
 7739SOL    HW124116   1.841   2.081   1.698
 7739SOL    HW224117   1.712   1.990   1.739
 7740SOL     OW24118   1.848   1.197   2.968
 7740SOL    HW124119   1.800   1.117   2.932
 7740SOL    HW224120   1.947   1.186   2.953
 7741SOL     OW24121   0.065   3.793   4.896
 7741SOL    HW124122   7.006   3.751   4.915
 7741SOL    HW224123   0.136   3.724   4.901
 7742SOL     OW24124   4.363   1.815   3.795
 7742SOL    HW124125   4.416   1.745   3.747
 7742SOL    HW224126   4.412   1.843   3.878
 7743SOL     OW24127   4.448   1.752   6.634
 7743SOL    HW124128   4.474   1.663   6.672
 7743SOL    HW224129   4.357   1.777   6.667
 7744SOL     OW24130   1.417   6.427   3.575
 7744SOL    HW124131   1.405   6.494   3.648
 7744SOL    HW224132   1.476   6.353   3.607
 7745SOL     OW24133   2.571   0.007   0.840
 7745SOL    HW124134   2.491   0.002   0.900
 7745SOL    HW224135   2.620   0.093   0.858
 7746SOL     OW24136   1.148   0.004   0.555
 7746SOL    HW124137   1.186   0.063   0.485
 7746SOL    HW224138   1.066   6.988   0.520
 7747SOL     OW24139   6.698   5.942   1.365
 7747SOL    HW124140   6.702   6.009   1.292
 7747SOL    HW224141   6.786   5.940   1.413
 7748SOL     OW24142   3.450   4.167   3.558
 7748SOL    HW124143   3.416   4.100   3.491
 7748SOL    HW224144   3.403   4.155   3.644
 7749SOL     OW24145   3.629   3.725   3.950
 7749SOL    HW124146   3.681   3.765   4.025
 7749SOL    HW224147   3.633   3.785   3.870
 7750SOL     OW24148   6.645   5.782   6.669
 7750SOL    HW124149   6.562   5.728   6.669
 7750SOL    HW224150   6.633   5.862   6.728
 7751SOL     OW24151   0.529   2.169   2.740
 7751SOL    HW124152   0.481   2.110   2.675
 7751SOL    HW224153   0.595   2.116   2.793
 7752SOL     OW24154   5.512   5.922   5.122
 7752SOL    HW124155   5.611   5.909   5.130
 7752SOL    HW224156   5.466   5.872   5.195
 7753SOL     OW24157   2.809   0.868   4.204
 7753SOL    HW124158   2.866   0.950   4.197
 7753SOL    HW224159   2.860   0.789   4.172
 7754SOL     OW24160   5.595   6.582   1.720
 7754SOL    HW124161   5.563   6.677   1.729
 7754SOL    HW224162   5.669   6.566   1.785
 7755SOL     OW24163   1.352   2.076   6.019
 7755SOL    HW124164   1.272   2.115   5.974
 7755SOL    HW224165   1.384   1.997   5.967
 7756SOL     OW24166   3.313   4.867   2.657
 7756SOL    HW124167   3.399   4.857   2.707
 7756SOL    HW224168   3.332   4.867   2.559
 7757SOL     OW24169   5.013   5.968   4.035
 7757SOL    HW124170   4.967   5.958   4.123
 7757SOL    HW224171   5.014   5.880   3.987
 7758SOL     OW24172   1.854   2.110   6.665
 7758SOL    HW124173   1.840   2.019   6.706
 7758SOL    HW224174   1.870   2.100   6.567
 7759SOL     OW24175   1.134   1.706   4.884
 7759SOL    HW124176   1.046   1.664   4.905
 7759SOL    HW224177   1.199   1.688   4.958
 7760SOL     OW24178   5.595   2.761   2.648
 7760SOL    HW124179   5.656   2.723   2.718
 7760SOL    HW224180   5.613   2.858   2.637
 7761SOL     OW24181   1.484   0.030   6.214
 7761SOL    HW124182   1.553   0.102   6.205
 7761SOL    HW224183   1.435   0.020   6.128
 7762SOL     OW24184   4.456   0.818   4.318
 7762SOL    HW124185   4.470   0.893   4.254
 7762SOL    HW224186   4.358   0.796   4.323
 7763SOL     OW24187   0.902   1.419   1.329
 7763SOL    HW124188   0.924   1.396   1.424
 7763SOL    HW224189   0.965   1.489   1.296
 7764SOL     OW24190   3.593   2.868   3.101
 7764SOL    HW124191   3.565   2.775   3.128
 7764SOL    HW224192   3.650   2.908   3.173
 7765SOL     OW24193   5.909   2.925   4.219
 7765SOL    HW124194   5.977   2.883   4.158
 7765SOL    HW224195   5.825   2.942   4.168
 7766SOL     OW24196   5.240   1.912   0.370
 7766SOL    HW124197   5.150   1.934   0.332
 7766SOL    HW224198   5.273   1.827   0.330
 7767SOL     OW24199   3.982   6.155   3.598
 7767SOL    HW124200   3.886   6.132   3.579
 7767SOL    HW224201   3.992   6.254   3.602
 7768SOL     OW24202   4.376   5.145   2.434
 7768SOL    HW124203   4.316   5.099   2.369
 7768SOL    HW224204   4.326   5.162   2.519
 7769SOL     OW24205   4.852   2.346   2.529
 7769SOL    HW124206   4.774   2.400   2.498
 7769SOL    HW224207   4.820   2.277   2.594
 7770SOL     OW24208   1.082   3.470   2.580
 7770SOL    HW124209   0.998   3.456   2.528
 7770SOL    HW224210   1.122   3.381   2.603
 7771SOL     OW24211   2.660   2.462   5.024
 7771SOL    HW124212   2.630   2.416   4.940
 7771SOL    HW224213   2.650   2.561   5.013
 7772SOL     OW24214   5.086   1.143   3.338
 7772SOL    HW124215   5.149   1.154   3.261
 7772SOL    HW224216   5.012   1.080   3.311
 7773SOL     OW24217   3.203   5.421   5.232
 7773SOL    HW124218   3.277   5.479   5.269
 7773SOL    HW224219   3.209   5.420   5.133
 7774SOL     OW24220   6.387   2.865   6.539
 7774SOL    HW124221   6.306   2.923   6.545
 7774SOL    HW224222   6.416   2.857   6.444
 7775SOL     OW24223   4.126   6.808   2.997
 7775SOL    HW124224   4.118   6.837   3.093
 7775SOL    HW224225   4.199   6.861   2.953
 7776SOL     OW24226   3.245   4.131   6.563
 7776SOL    HW124227   3.217   4.220   6.528
 7776SOL    HW224228   3.183   4.102   6.636
 7777SOL     OW24229   1.755   1.001   5.193
 7777SOL    HW124230   1.757   0.966   5.099
 7777SOL    HW224231   1.786   0.929   5.256
 7778SOL     OW24232   4.824   6.161   0.205
 7778SOL    HW124233   4.751   6.100   0.235
 7778SOL    HW224234   4.788   6.223   0.135
 7779SOL     OW24235   3.005   3.113   0.855
 7779SOL    HW124236   3.098   3.079   0.843
 7779SOL    HW224237   2.948   3.086   0.777
 7780SOL     OW24238   1.655   5.329   5.033
 7780SOL    HW124239   1.658   5.392   4.955
 7780SOL    HW224240   1.727   5.261   5.023
 7781SOL     OW24241   1.737   5.024   7.021
 7781SOL    HW124242   1.652   5.062   6.984
 7781SOL    HW224243   1.723   4.999   0.086
 7782SOL     OW24244   1.223   4.268   5.650
 7782SOL    HW124245   1.295   4.231   5.709
 7782SOL    HW224246   1.172   4.338   5.700
 7783SOL     OW24247   1.888   5.783   5.305
 7783SOL    HW124248   1.831   5.840   5.364
 7783SOL    HW224249   1.840   5.768   5.218
 7784SOL     OW24250   3.022   2.821   0.122
 7784SOL    HW124251   3.097   2.858   0.177
 7784SOL    HW224252   3.047   2.730   0.088
 7785SOL     OW24253   1.850   6.565   4.206
 7785SOL    HW124254   1.900   6.484   4.236
 7785SOL    HW224255   1.898   6.606   4.128
 7786SOL     OW24256   2.952   5.669   6.750
 7786SOL    HW124257   2.996   5.756   6.773
 7786SOL    HW224258   2.909   5.630   6.832
 7787SOL     OW24259   2.567   2.750   6.045
 7787SOL    HW124260   2.641   2.815   6.064
 7787SOL    HW224261   2.484   2.781   6.090
 7788SOL     OW24262   1.810   6.786   2.165
 7788SOL    HW124263   1.882   6.842   2.206
 7788SOL    HW224264   1.843   6.745   2.080
 7789SOL     OW24265   3.072   6.926   0.178
 7789SOL    HW124266   3.148   6.862   0.165
 7789SOL    HW224267   3.077   6.965   0.270
 7790SOL     OW24268   5.854   5.142   2.515
 7790SOL    HW124269   5.813   5.206   2.580
 7790SOL    HW224270   5.787   5.118   2.445
 7791SOL     OW24271   2.609   6.291   3.989
 7791SOL    HW124272   2.637   6.273   3.895
 7791SOL    HW224273   2.687   6.278   4.050
 7792SOL     OW24274   1.928   5.138   6.000
 7792SOL    HW124275   1.983   5.180   6.072
 7792SOL    HW224276   1.952   5.178   5.912
 7793SOL     OW24277   2.722   0.506   6.734
 7793SOL    HW124278   2.723   0.497   6.634
 7793SOL    HW224279   2.642   0.460   6.771
 7794SOL     OW24280   5.505   5.271   3.617
 7794SOL    HW124281   5.501   5.209   3.695
 7794SOL    HW224282   5.565   5.232   3.547
 7795SOL     OW24283   2.103   3.375   5.411
 7795SOL    HW124284   2.011   3.361   5.373
 7795SOL    HW224285   2.170   3.374   5.337
 7796SOL     OW24286   3.259   3.671   3.263
 7796SOL    HW124287   3.188   3.734   3.232
 7796SOL    HW224288   3.219   3.581   3.280
 7797SOL     OW24289   0.902   6.612   3.149
 7797SOL    HW124290   0.810   6.618   3.189
 7797SOL    HW224291   0.965   6.667   3.202
 7798SOL     OW24292   1.410   4.863   5.985
 7798SOL    HW124293   1.452   4.813   6.061
 7798SOL    HW224294   1.408   4.960   6.006
 7799SOL     OW24295   0.445   6.489   1.749
 7799SOL    HW124296   0.505   6.410   1.738
 7799SOL    HW224297   0.359   6.459   1.790
 7800SOL     OW24298   1.444   5.215   0.969
 7800SOL    HW124299   1.537   5.244   0.987
 7800SOL    HW224300   1.442   5.159   0.886
 7801SOL     OW24301   1.673   2.212   1.923
 7801SOL    HW124302   1.619   2.138   1.884
 7801SOL    HW224303   1.770   2.197   1.901
 7802SOL     OW24304   5.906   1.964   1.094
 7802SOL    HW124305   5.849   2.045   1.111
 7802SOL    HW224306   5.993   1.975   1.142
 7803SOL     OW24307   4.073   2.475   6.427
 7803SOL    HW124308   4.089   2.451   6.332
 7803SOL    HW224309   3.995   2.537   6.433
 7804SOL     OW24310   5.321   1.269   4.536
 7804SOL    HW124311   5.345   1.219   4.453
 7804SOL    HW224312   5.395   1.261   4.602
 7805SOL     OW24313   5.622   1.414   1.061
 7805SOL    HW124314   5.575   1.421   1.150
 7805SOL    HW224315   5.720   1.404   1.076
 7806SOL     OW24316   5.801   2.427   6.061
 7806SOL    HW124317   5.822   2.441   6.157
 7806SOL    HW224318   5.852   2.493   6.006
 7807SOL     OW24319   0.402   4.372   5.396
 7807SOL    HW124320   0.327   4.330   5.448
 7807SOL    HW224321   0.489   4.333   5.424
 7808SOL     OW24322   0.032   2.798   4.582
 7808SOL    HW124323   6.965   2.788   4.605
 7808SOL    HW224324   0.040   2.836   4.490
 7809SOL     OW24325   2.456   5.600   4.725
 7809SOL    HW124326   2.391   5.534   4.762
 7809SOL    HW224327   2.509   5.639   4.800
 7810SOL     OW24328   3.540   6.873   5.100
 7810SOL    HW124329   3.602   6.888   5.023
 7810SOL    HW224330   3.593   6.861   5.184
 7811SOL     OW24331   0.645   5.109   3.467
 7811SOL    HW124332   0.578   5.113   3.393
 7811SOL    HW224333   0.721   5.170   3.446
 7812SOL     OW24334   1.558   1.852   3.730
 7812SOL    HW124335   1.608   1.937   3.710
 7812SOL    HW224336   1.559   1.793   3.649
 7813SOL     OW24337   3.647   2.736   6.702
 7813SOL    HW124338   3.670   2.830   6.677
 7813SOL    HW224339   3.611   2.735   6.795
 7814SOL     OW24340   6.624   3.046   3.850
 7814SOL    HW124341   6.684   3.123   3.827
 7814SOL    HW224342   6.674   2.979   3.904
 7815SOL     OW24343   5.109   0.354   6.407
 7815SOL    HW124344   5.179   0.286   6.388
 7815SOL    HW224345   5.020   0.310   6.411
 7816SOL     OW24346   1.390   2.566   6.602
 7816SOL    HW124347   1.444   2.498   6.552
 7816SOL    HW224348   1.439   2.591   6.686
 7817SOL     OW24349   5.401   4.239   3.620
 7817SOL    HW124350   5.354   4.159   3.583
 7817SOL    HW224351   5.387   4.318   3.560
 7818SOL     OW24352   4.221   1.079   3.105
 7818SOL    HW124353   4.168   1.004   3.145
 7818SOL    HW224354   4.194   1.165   3.148
 7819SOL     OW24355   6.456   2.960   2.266
 7819SOL    HW124356   6.515   2.990   2.192
 7819SOL    HW224357   6.365   3.001   2.256
 7820SOL     OW24358   1.220   2.371   4.519
 7820SOL    HW124359   1.173   2.387   4.432
 7820SOL    HW224360   1.154   2.373   4.594
 7821SOL     OW24361   5.019   5.894   1.409
 7821SOL    HW124362   4.998   5.917   1.504
 7821SOL    HW224363   5.092   5.954   1.375
 7822SOL     OW24364   0.561   0.724   5.877
 7822SOL    HW124365   0.470   0.756   5.852
 7822SOL    HW224366   0.619   0.803   5.901
 7823SOL     OW24367   2.618   4.037   5.341
 7823SOL    HW124368   2.581   4.070   5.427
 7823SOL    HW224369   2.544   4.012   5.279
 7824SOL     OW24370   6.066   1.490   4.431
 7824SOL    HW124371   6.107   1.504   4.521
 7824SOL    HW224372   6.138   1.473   4.364
 7825SOL     OW24373   0.912   2.777   0.811
 7825SOL    HW124374   0.903   2.761   0.713
 7825SOL    HW224375   0.847   2.848   0.839
 7826SOL     OW24376   6.257   1.371   1.138
 7826SOL    HW124377   6.208   1.333   1.060
 7826SOL    HW224378   6.353   1.341   1.135
 7827SOL     OW24379   1.897   5.816   1.324
 7827SOL    HW124380   1.948   5.900   1.337
 7827SOL    HW224381   1.840   5.798   1.404
 7828SOL     OW24382   0.094   4.828   0.097
 7828SOL    HW124383   0.145   4.743   0.104
 7828SOL    HW224384   0.047   4.846   0.184
 7829SOL     OW24385   2.036   3.490   1.596
 7829SOL    HW124386   2.030   3.410   1.536
 7829SOL    HW224387   2.104   3.473   1.667
 7830SOL     OW24388   2.522   5.049   5.396
 7830SOL    HW124389   2.592   4.977   5.395
 7830SOL    HW224390   2.533   5.108   5.317
 7831SOL     OW24391   1.637   0.013   1.512
 7831SOL    HW124392   1.618   6.948   1.485
 7831SOL    HW224393   1.621   0.074   1.434
 7832SOL     OW24394   5.984   1.011   4.286
 7832SOL    HW124395   5.923   0.955   4.230
 7832SOL    HW224396   5.968   0.992   4.383
 7833SOL     OW24397   0.553   0.710   5.469
 7833SOL    HW124398   0.489   0.705   5.546
 7833SOL    HW224399   0.580   0.805   5.454
 7834SOL     OW24400   6.667   1.225   3.686
 7834SOL    HW124401   6.580   1.270   3.704
 7834SOL    HW224402   6.742   1.281   3.723
 7835SOL     OW24403   3.507   1.897   5.393
 7835SOL    HW124404   3.558   1.982   5.390
 7835SOL    HW224405   3.562   1.827   5.438
 7836SOL     OW24406   3.264   3.254   4.895
 7836SOL    HW124407   3.202   3.187   4.854
 7836SOL    HW224408   3.248   3.344   4.854
 7837SOL     OW24409   4.382   5.209   6.997
 7837SOL    HW124410   4.376   5.182   0.063
 7837SOL    HW224411   4.476   5.200   6.966
 7838SOL     OW24412   4.165   6.702   0.880
 7838SOL    HW124413   4.195   6.768   0.811
 7838SOL    HW224414   4.228   6.704   0.958
 7839SOL     OW24415   5.613   4.323   4.944
 7839SOL    HW124416   5.641   4.230   4.968
 7839SOL    HW224417   5.528   4.347   4.991
 7840SOL     OW24418   6.737   3.217   4.141
 7840SOL    HW124419   6.790   3.211   4.226
 7840SOL    HW224420   6.747   3.131   4.090
 7841SOL     OW24421   3.585   1.834   6.286
 7841SOL    HW124422   3.536   1.912   6.247
 7841SOL    HW224423   3.643   1.866   6.362
 7842SOL     OW24424   2.328   1.926   2.733
 7842SOL    HW124425   2.327   1.914   2.833
 7842SOL    HW224426   2.254   1.872   2.693
 7843SOL     OW24427   0.699   6.118   3.310
 7843SOL    HW124428   0.640   6.040   3.288
 7843SOL    HW224429   0.676   6.195   3.250
 7844SOL     OW24430   2.735   0.972   2.906
 7844SOL    HW124431   2.793   1.043   2.867
 7844SOL    HW224432   2.791   0.907   2.958
 7845SOL     OW24433   5.178   2.030   2.726
 7845SOL    HW124434   5.122   1.949   2.737
 7845SOL    HW224435   5.120   2.112   2.726
 7846SOL     OW24436   0.223   2.452   0.947
 7846SOL    HW124437   0.215   2.442   0.847
 7846SOL    HW224438   0.163   2.384   0.991
 7847SOL     OW24439   6.749   1.236   3.407
 7847SOL    HW124440   6.743   1.331   3.377
 7847SOL    HW224441   6.718   1.229   3.502
 7848SOL     OW24442   3.388   5.002   0.819
 7848SOL    HW124443   3.463   5.034   0.876
 7848SOL    HW224444   3.422   4.981   0.727
 7849SOL     OW24445   6.572   4.375   4.717
 7849SOL    HW124446   6.561   4.451   4.782
 7849SOL    HW224447   6.483   4.337   4.694
 7850SOL     OW24448   0.432   1.431   3.939
 7850SOL    HW124449   0.479   1.352   3.980
 7850SOL    HW224450   0.499   1.489   3.893
 7851SOL     OW24451   6.844   2.078   1.200
 7851SOL    HW124452   6.777   2.139   1.243
 7851SOL    HW224453   6.844   1.990   1.246
 7852SOL     OW24454   3.409   1.901   6.781
 7852SOL    HW124455   3.314   1.897   6.752
 7852SOL    HW224456   3.419   1.970   6.853
 7853SOL     OW24457   4.953   2.576   1.265
 7853SOL    HW124458   5.038   2.553   1.312
 7853SOL    HW224459   4.938   2.675   1.269
 7854SOL     OW24460   3.329   3.363   5.950
 7854SOL    HW124461   3.344   3.312   6.034
 7854SOL    HW224462   3.406   3.426   5.936
 7855SOL     OW24463   4.361   6.750   4.742
 7855SOL    HW124464   4.436   6.798   4.788
 7855SOL    HW224465   4.399   6.680   4.681
 7856SOL     OW24466   6.453   5.666   5.276
 7856SOL    HW124467   6.518   5.593   5.298
 7856SOL    HW224468   6.398   5.638   5.197
 7857SOL     OW24469   4.567   2.803   0.096
 7857SOL    HW124470   4.650   2.771   0.050
 7857SOL    HW224471   4.521   2.870   0.038
 7858SOL     OW24472   6.553   6.225   4.442
 7858SOL    HW124473   6.595   6.134   4.442
 7858SOL    HW224474   6.594   6.280   4.515
 7859SOL     OW24475   4.324   3.402   6.444
 7859SOL    HW124476   4.382   3.370   6.369
 7859SOL    HW224477   4.358   3.489   6.479
 7860SOL     OW24478   4.448   1.040   4.183
 7860SOL    HW124479   4.356   1.028   4.218
 7860SOL    HW224480   4.472   1.138   4.185
 7861SOL     OW24481   3.346   4.562   1.695
 7861SOL    HW124482   3.412   4.622   1.740
 7861SOL    HW224483   3.390   4.475   1.674
 7862SOL     OW24484   2.258   5.249   1.917
 7862SOL    HW124485   2.275   5.316   1.844
 7862SOL    HW224486   2.188   5.286   1.979
 7863SOL     OW24487   0.080   3.908   4.269
 7863SOL    HW124488   7.013   3.934   4.277
 7863SOL    HW224489   0.123   3.960   4.196
 7864SOL     OW24490   0.632   4.945   5.517
 7864SOL    HW124491   0.640   4.876   5.589
 7864SOL    HW224492   0.536   4.970   5.504
 7865SOL     OW24493   6.780   5.910   3.903
 7865SOL    HW124494   6.751   5.989   3.848
 7865SOL    HW224495   6.741   5.917   3.995
 7866SOL     OW24496   0.737   0.632   5.675
 7866SOL    HW124497   0.714   0.675   5.588
 7866SOL    HW224498   0.679   0.670   5.747
 7867SOL     OW24499   6.287   6.022   3.478
 7867SOL    HW124500   6.297   6.089   3.405
 7867SOL    HW224501   6.201   5.972   3.466
 7868SOL     OW24502   4.636   5.875   1.264
 7868SOL    HW124503   4.700   5.848   1.192
 7868SOL    HW224504   4.652   5.819   1.345
 7869SOL     OW24505   5.206   4.253   6.424
 7869SOL    HW124506   5.224   4.293   6.334
 7869SOL    HW224507   5.292   4.244   6.474
 7870SOL     OW24508   5.458   6.316   4.154
 7870SOL    HW124509   5.370   6.350   4.119
 7870SOL    HW224510   5.498   6.254   4.087
 7871SOL     OW24511   4.489   2.075   1.642
 7871SOL    HW124512   4.548   2.106   1.567
 7871SOL    HW224513   4.520   1.985   1.673
 7872SOL     OW24514   2.115   3.617   3.088
 7872SOL    HW124515   2.052   3.615   3.010
 7872SOL    HW224516   2.209   3.615   3.055
 7873SOL     OW24517   6.214   6.651   0.074
 7873SOL    HW124518   6.233   6.637   0.172
 7873SOL    HW224519   6.232   6.746   0.050
 7874SOL     OW24520   4.956   2.379   0.570
 7874SOL    HW124521   4.903   2.463   0.560
 7874SOL    HW224522   5.016   2.368   0.491
 7875SOL     OW24523   4.511   2.511   6.484
 7875SOL    HW124524   4.424   2.482   6.524
 7875SOL    HW224525   4.497   2.595   6.431
 7876SOL     OW24526   1.177   6.512   3.422
 7876SOL    HW124527   1.252   6.482   3.480
 7876SOL    HW224528   1.207   6.587   3.364
 7877SOL     OW24529   0.628   1.730   2.892
 7877SOL    HW124530   0.542   1.682   2.871
 7877SOL    HW224531   0.697   1.704   2.825
 7878SOL     OW24532   4.788   4.584   4.754
 7878SOL    HW124533   4.713   4.525   4.784
 7878SOL    HW224534   4.792   4.584   4.654
 7879SOL     OW24535   3.842   5.010   3.008
 7879SOL    HW124536   3.849   4.990   3.106
 7879SOL    HW224537   3.746   5.021   2.984
 7880SOL     OW24538   1.885   4.053   2.025
 7880SOL    HW124539   1.940   3.974   1.997
 7880SOL    HW224540   1.945   4.131   2.041
 7881SOL     OW24541   5.646   4.443   5.212
 7881SOL    HW124542   5.560   4.487   5.185
 7881SOL    HW224543   5.718   4.470   5.148
 7882SOL     OW24544   1.566   3.755   1.898
 7882SOL    HW124545   1.468   3.733   1.895
 7882SOL    HW224546   1.607   3.712   1.979
 7883SOL     OW24547   1.000   0.571   6.753
 7883SOL    HW124548   0.916   0.549   6.803
 7883SOL    HW224549   1.074   0.587   6.817
 7884SOL     OW24550   1.941   4.126   4.759
 7884SOL    HW124551   1.871   4.108   4.690
 7884SOL    HW224552   1.926   4.216   4.799
 7885SOL     OW24553   6.719   5.260   1.195
 7885SOL    HW124554   6.812   5.295   1.188
 7885SOL    HW224555   6.676   5.259   1.104
 7886SOL     OW24556   3.838   5.714   0.187
 7886SOL    HW124557   3.802   5.756   0.270
 7886SOL    HW224558   3.938   5.713   0.191
 7887SOL     OW24559   2.912   2.417   5.926
 7887SOL    HW124560   2.922   2.425   5.827
 7887SOL    HW224561   2.985   2.358   5.962
 7888SOL     OW24562   6.490   0.428   5.575
 7888SOL    HW124563   6.422   0.499   5.593
 7888SOL    HW224564   6.475   0.352   5.638
 7889SOL     OW24565   1.723   4.036   2.527
 7889SOL    HW124566   1.740   4.081   2.440
 7889SOL    HW224567   1.644   3.975   2.519
 7890SOL     OW24568   1.644   3.086   2.661
 7890SOL    HW124569   1.697   3.042   2.589
 7890SOL    HW224570   1.559   3.121   2.623
 7891SOL     OW24571   1.727   3.171   3.644
 7891SOL    HW124572   1.772   3.259   3.660
 7891SOL    HW224573   1.788   3.111   3.593
 7892SOL     OW24574   2.289   1.725   4.089
 7892SOL    HW124575   2.288   1.632   4.125
 7892SOL    HW224576   2.348   1.730   4.009
 7893SOL     OW24577   6.878   6.555   2.665
 7893SOL    HW124578   6.941   6.619   2.622
 7893SOL    HW224579   6.809   6.526   2.599
 7894SOL     OW24580   3.011   0.194   1.377
 7894SOL    HW124581   3.071   0.173   1.300
 7894SOL    HW224582   2.916   0.176   1.352
 7895SOL     OW24583   6.242   1.311   6.056
 7895SOL    HW124584   6.258   1.272   5.965
 7895SOL    HW224585   6.224   1.409   6.047
 7896SOL     OW24586   4.785   3.662   6.720
 7896SOL    HW124587   4.881   3.634   6.722
 7896SOL    HW224588   4.747   3.655   6.812
 7897SOL     OW24589   2.660   4.062   7.018
 7897SOL    HW124590   2.623   4.154   0.001
 7897SOL    HW224591   2.731   4.045   0.057
 7898SOL     OW24592   5.194   1.681   3.868
 7898SOL    HW124593   5.164   1.763   3.818
 7898SOL    HW224594   5.199   1.604   3.805
 7899SOL     OW24595   6.110   1.143   1.227
 7899SOL    HW124596   6.022   1.189   1.241
 7899SOL    HW224597   6.183   1.211   1.230
 7900SOL     OW24598   1.713   6.100   1.536
 7900SOL    HW124599   1.764   6.124   1.453
 7900SOL    HW224600   1.633   6.160   1.545
 7901SOL     OW24601   4.861   1.295   6.282
 7901SOL    HW124602   4.784   1.353   6.309
 7901SOL    HW224603   4.883   1.233   6.357
 7902SOL     OW24604   5.315   5.637   1.730
 7902SOL    HW124605   5.409   5.645   1.762
 7902SOL    HW224606   5.265   5.721   1.751
 7903SOL     OW24607   6.023   1.719   0.593
 7903SOL    HW124608   5.956   1.651   0.564
 7903SOL    HW224609   6.003   1.806   0.547
 7904SOL     OW24610   5.486   6.832   3.328
 7904SOL    HW124611   5.395   6.842   3.367
 7904SOL    HW224612   5.480   6.826   3.229
 7905SOL     OW24613   4.557   2.555   0.484
 7905SOL    HW124614   4.569   2.470   0.535
 7905SOL    HW224615   4.540   2.630   0.548
 7906SOL     OW24616   0.318   5.507   0.490
 7906SOL    HW124617   0.260   5.560   0.552
 7906SOL    HW224618   0.350   5.425   0.536
 7907SOL     OW24619   5.817   1.903   3.702
 7907SOL    HW124620   5.811   1.920   3.604
 7907SOL    HW224621   5.774   1.816   3.724
 7908SOL     OW24622   0.664   1.429   4.739
 7908SOL    HW124623   0.637   1.489   4.664
 7908SOL    HW224624   0.695   1.341   4.702
 7909SOL     OW24625   5.336   3.736   5.296
 7909SOL    HW124626   5.329   3.778   5.205
 7909SOL    HW224627   5.245   3.728   5.336
 7910SOL     OW24628   2.777   3.145   5.620
 7910SOL    HW124629   2.870   3.116   5.594
 7910SOL    HW224630   2.722   3.155   5.537
 7911SOL     OW24631   1.402   2.966   6.178
 7911SOL    HW124632   1.316   2.936   6.220
 7911SOL    HW224633   1.398   3.066   6.165
 7912SOL     OW24634   0.227   5.307   0.293
 7912SOL    HW124635   0.220   5.374   0.367
 7912SOL    HW224636   0.266   5.351   0.212
 7913SOL     OW24637   1.373   5.295   1.260
 7913SOL    HW124638   1.389   5.250   1.172
 7913SOL    HW224639   1.288   5.261   1.299
 7914SOL     OW24640   0.036   4.802   6.185
 7914SOL    HW124641   0.033   4.748   6.101
 7914SOL    HW224642   0.027   4.741   6.264
 7915SOL     OW24643   4.958   2.941   2.486
 7915SOL    HW124644   4.943   3.038   2.506
 7915SOL    HW224645   4.917   2.919   2.398
 7916SOL     OW24646   0.065   3.821   5.717
 7916SOL    HW124647   7.018   3.860   5.767
 7916SOL    HW224648   0.032   3.750   5.655
 7917SOL     OW24649   3.306   3.305   3.737
 7917SOL    HW124650   3.353   3.331   3.821
 7917SOL    HW224651   3.248   3.381   3.706
 7918SOL     OW24652   0.324   1.656   0.374
 7918SOL    HW124653   0.279   1.568   0.391
 7918SOL    HW224654   0.409   1.640   0.323
 7919SOL     OW24655   0.980   4.505   3.175
 7919SOL    HW124656   0.912   4.578   3.172
 7919SOL    HW224657   0.938   4.420   3.144
 7920SOL     OW24658   0.646   5.200   1.213
 7920SOL    HW124659   0.584   5.162   1.145
 7920SOL    HW224660   0.736   5.214   1.172
 7921SOL     OW24661   4.307   5.775   0.640
 7921SOL    HW124662   4.244   5.711   0.684
 7921SOL    HW224663   4.291   5.867   0.675
 7922SOL     OW24664   6.430   5.651   0.353
 7922SOL    HW124665   6.366   5.700   0.293
 7922SOL    HW224666   6.382   5.575   0.396
 7923SOL     OW24667   2.952   0.553   2.330
 7923SOL    HW124668   2.983   0.636   2.377
 7923SOL    HW224669   2.945   0.571   2.232
 7924SOL     OW24670   3.986   6.213   2.792
 7924SOL    HW124671   4.075   6.209   2.745
 7924SOL    HW224672   3.944   6.302   2.777
 7925SOL     OW24673   0.679   1.954   6.374
 7925SOL    HW124674   0.669   1.858   6.350
 7925SOL    HW224675   0.594   2.003   6.354
 7926SOL     OW24676   4.906   1.158   4.850
 7926SOL    HW124677   4.943   1.144   4.942
 7926SOL    HW224678   4.930   1.249   4.818
 7927SOL     OW24679   4.287   5.571   4.528
 7927SOL    HW124680   4.201   5.623   4.528
 7927SOL    HW224681   4.280   5.497   4.460
 7928SOL     OW24682   1.662   2.852   4.356
 7928SOL    HW124683   1.657   2.940   4.403
 7928SOL    HW224684   1.592   2.848   4.285
 7929SOL     OW24685   3.951   4.042   5.638
 7929SOL    HW124686   3.854   4.026   5.620
 7929SOL    HW224687   3.962   4.131   5.682
 7930SOL     OW24688   4.620   5.822   3.923
 7930SOL    HW124689   4.666   5.905   3.890
 7930SOL    HW224690   4.663   5.793   4.009
 7931SOL     OW24691   1.325   1.726   6.429
 7931SOL    HW124692   1.273   1.748   6.512
 7931SOL    HW224693   1.318   1.802   6.364
 7932SOL     OW24694   3.407   6.373   7.029
 7932SOL    HW124695   3.378   6.367   0.095
 7932SOL    HW224696   3.506   6.380   7.025
 7933SOL     OW24697   0.535   6.643   0.106
 7933SOL    HW124698   0.552   6.679   0.014
 7933SOL    HW224699   0.611   6.584   0.133
 7934SOL     OW24700   2.282   4.687   6.847
 7934SOL    HW124701   2.343   4.701   6.925
 7934SOL    HW224702   2.308   4.605   6.798
 7935SOL     OW24703   5.686   5.910   0.083
 7935SOL    HW124704   5.588   5.894   0.093
 7935SOL    HW224705   5.726   5.930   0.172
 7936SOL     OW24706   3.571   4.941   2.747
 7936SOL    HW124707   3.563   4.957   2.845
 7936SOL    HW224708   3.666   4.922   2.724
 7937SOL     OW24709   5.894   6.772   3.868
 7937SOL    HW124710   5.866   6.681   3.838
 7937SOL    HW224711   5.979   6.765   3.921
 7938SOL     OW24712   5.972   4.764   5.641
 7938SOL    HW124713   5.902   4.697   5.617
 7938SOL    HW224714   5.939   4.856   5.620
 7939SOL     OW24715   0.740   2.367   5.733
 7939SOL    HW124716   0.803   2.443   5.717
 7939SOL    HW224717   0.648   2.393   5.703
 7940SOL     OW24718   2.079   4.055   2.555
 7940SOL    HW124719   1.989   4.084   2.586
 7940SOL    HW224720   2.091   4.081   2.459
 7941SOL     OW24721   6.880   0.059   0.830
 7941SOL    HW124722   6.937   0.057   0.912
 7941SOL    HW224723   6.786   0.037   0.855
 7942SOL     OW24724   6.407   6.023   2.965
 7942SOL    HW124725   6.351   6.086   3.018
 7942SOL    HW224726   6.485   6.072   2.927
 7943SOL     OW24727   5.691   2.384   0.360
 7943SOL    HW124728   5.617   2.403   0.424
 7943SOL    HW224729   5.669   2.425   0.271
 7944SOL     OW24730   0.264   3.308   1.368
 7944SOL    HW124731   0.176   3.355   1.372
 7944SOL    HW224732   0.336   3.373   1.341
 7945SOL     OW24733   5.543   6.749   2.537
 7945SOL    HW124734   5.459   6.804   2.536
 7945SOL    HW224735   5.543   6.690   2.617
 7946SOL     OW24736   2.357   2.259   5.628
 7946SOL    HW124737   2.456   2.264   5.616
 7946SOL    HW224738   2.317   2.350   5.619
 7947SOL     OW24739   3.896   3.134   6.322
 7947SOL    HW124740   3.953   3.208   6.359
 7947SOL    HW224741   3.954   3.060   6.288
 7948SOL     OW24742   0.547   6.347   1.091
 7948SOL    HW124743   0.474   6.278   1.084
 7948SOL    HW224744   0.527   6.408   1.168
 7949SOL     OW24745   4.495   4.532   4.240
 7949SOL    HW124746   4.578   4.480   4.219
 7949SOL    HW224747   4.457   4.501   4.327
 7950SOL     OW24748   4.934   5.577   3.756
 7950SOL    HW124749   4.844   5.537   3.737
 7950SOL    HW224750   4.945   5.660   3.702
 7951SOL     OW24751   1.764   3.904   1.185
 7951SOL    HW124752   1.861   3.904   1.160
 7951SOL    HW224753   1.711   3.859   1.113
 7952SOL     OW24754   0.753   3.444   6.527
 7952SOL    HW124755   0.741   3.496   6.442
 7952SOL    HW224756   0.668   3.444   6.579
 7953SOL     OW24757   2.115   2.850   3.248
 7953SOL    HW124758   2.040   2.912   3.228
 7953SOL    HW224759   2.127   2.786   3.172
 7954SOL     OW24760   4.499   4.491   5.437
 7954SOL    HW124761   4.563   4.554   5.392
 7954SOL    HW224762   4.444   4.542   5.504
 7955SOL     OW24763   1.312   6.687   6.174
 7955SOL    HW124764   1.371   6.741   6.234
 7955SOL    HW224765   1.259   6.748   6.115
 7956SOL     OW24766   1.992   6.010   2.805
 7956SOL    HW124767   1.966   6.091   2.753
 7956SOL    HW224768   1.989   6.031   2.903
 7957SOL     OW24769   2.174   1.197   0.522
 7957SOL    HW124770   2.252   1.210   0.461
 7957SOL    HW224771   2.181   1.261   0.599
 7958SOL     OW24772   3.276   5.680   4.422
 7958SOL    HW124773   3.328   5.595   4.410
 7958SOL    HW224774   3.183   5.666   4.388
 7959SOL     OW24775   4.290   5.616   1.392
 7959SOL    HW124776   4.304   5.664   1.478
 7959SOL    HW224777   4.262   5.682   1.322
 7960SOL     OW24778   3.423   1.865   0.842
 7960SOL    HW124779   3.501   1.814   0.878
 7960SOL    HW224780   3.353   1.873   0.914
 7961SOL     OW24781   0.862   5.896   0.270
 7961SOL    HW124782   0.810   5.976   0.241
 7961SOL    HW224783   0.923   5.921   0.346
 7962SOL     OW24784   1.859   0.251   0.497
 7962SOL    HW124785   1.807   0.261   0.412
 7962SOL    HW224786   1.934   0.316   0.498
 7963SOL     OW24787   6.568   0.640   3.549
 7963SOL    HW124788   6.637   0.712   3.536
 7963SOL    HW224789   6.547   0.633   3.647
 7964SOL     OW24790   6.487   5.238   3.453
 7964SOL    HW124791   6.532   5.171   3.393
 7964SOL    HW224792   6.546   5.256   3.532
 7965SOL     OW24793   3.216   3.320   6.502
 7965SOL    HW124794   3.247   3.415   6.498
 7965SOL    HW224795   3.296   3.260   6.507
 7966SOL     OW24796   0.504   3.343   5.544
 7966SOL    HW124797   0.601   3.321   5.534
 7966SOL    HW224798   0.474   3.399   5.467
 7967SOL     OW24799   3.104   6.312   4.261
 7967SOL    HW124800   3.161   6.234   4.285
 7967SOL    HW224801   3.156   6.397   4.276
 7968SOL     OW24802   1.886   2.636   3.392
 7968SOL    HW124803   1.898   2.538   3.408
 7968SOL    HW224804   1.975   2.682   3.398
 7969SOL     OW24805   4.553   6.817   2.325
 7969SOL    HW124806   4.548   6.888   2.254
 7969SOL    HW224807   4.533   6.858   2.414
 7970SOL     OW24808   0.202   3.229   3.077
 7970SOL    HW124809   0.215   3.134   3.049
 7970SOL    HW224810   0.208   3.289   2.997
 7971SOL     OW24811   3.785   1.477   0.822
 7971SOL    HW124812   3.781   1.575   0.845
 7971SOL    HW224813   3.880   1.450   0.809
 7972SOL     OW24814   0.845   4.047   1.531
 7972SOL    HW124815   0.830   3.953   1.499
 7972SOL    HW224816   0.926   4.085   1.485
 7973SOL     OW24817   5.214   3.749   3.247
 7973SOL    HW124818   5.240   3.683   3.177
 7973SOL    HW224819   5.246   3.840   3.221
 7974SOL     OW24820   5.590   0.340   4.863
 7974SOL    HW124821   5.646   0.343   4.946
 7974SOL    HW224822   5.566   0.433   4.835
 7975SOL     OW24823   5.981   0.808   3.157
 7975SOL    HW124824   6.074   0.773   3.142
 7975SOL    HW224825   5.973   0.843   3.250
 7976SOL     OW24826   0.508   0.462   5.955
 7976SOL    HW124827   0.597   0.430   5.987
 7976SOL    HW224828   0.515   0.558   5.927
 7977SOL     OW24829   4.523   5.096   1.779
 7977SOL    HW124830   4.613   5.080   1.738
 7977SOL    HW224831   4.516   5.045   1.865
 7978SOL     OW24832   5.760   3.481   6.036
 7978SOL    HW124833   5.706   3.560   6.066
 7978SOL    HW224834   5.820   3.509   5.960
 7979SOL     OW24835   3.310   0.689   5.628
 7979SOL    HW124836   3.295   0.785   5.651
 7979SOL    HW224837   3.374   0.648   5.693
 7980SOL     OW24838   2.801   5.901   0.044
 7980SOL    HW124839   2.813   5.951   6.989
 7980SOL    HW224840   2.882   5.843   0.060
 7981SOL     OW24841   0.361   6.126   2.784
 7981SOL    HW124842   0.374   6.200   2.850
 7981SOL    HW224843   0.420   6.050   2.808
 7982SOL     OW24844   6.895   1.987   7.030
 7982SOL    HW124845   6.856   1.982   6.938
 7982SOL    HW224846   6.995   1.988   7.024
 7983SOL     OW24847   5.612   2.111   2.590
 7983SOL    HW124848   5.537   2.132   2.528
 7983SOL    HW224849   5.673   2.191   2.598
 7984SOL     OW24850   1.583   2.024   1.426
 7984SOL    HW124851   1.636   2.103   1.456
 7984SOL    HW224852   1.587   2.016   1.327
 7985SOL     OW24853   2.500   6.941   3.637
 7985SOL    HW124854   2.511   0.007   3.609
 7985SOL    HW224855   2.506   6.882   3.557
 7986SOL     OW24856   2.984   0.513   6.851
 7986SOL    HW124857   3.041   0.462   6.787
 7986SOL    HW224858   2.891   0.522   6.814
 7987SOL     OW24859   0.956   3.434   6.714
 7987SOL    HW124860   1.039   3.441   6.657
 7987SOL    HW224861   0.876   3.451   6.657
 7988SOL     OW24862   1.610   1.730   4.329
 7988SOL    HW124863   1.567   1.819   4.343
 7988SOL    HW224864   1.654   1.728   4.239
 7989SOL     OW24865   3.325   2.626   5.288
 7989SOL    HW124866   3.404   2.593   5.341
 7989SOL    HW224867   3.262   2.551   5.273
 7990SOL     OW24868   6.075   3.856   3.922
 7990SOL    HW124869   6.061   3.771   3.974
 7990SOL    HW224870   6.033   3.847   3.832
 7991SOL     OW24871   6.606   0.261   4.926
 7991SOL    HW124872   6.542   0.333   4.896
 7991SOL    HW224873   6.583   0.233   5.019
 7992SOL     OW24874   1.491   6.583   0.755
 7992SOL    HW124875   1.401   6.621   0.773
 7992SOL    HW224876   1.538   6.640   0.687
 7993SOL     OW24877   1.685   6.081   6.752
 7993SOL    HW124878   1.759   6.073   6.685
 7993SOL    HW224879   1.598   6.064   6.707
 7994SOL     OW24880   4.520   0.381   3.061
 7994SOL    HW124881   4.549   0.432   3.142
 7994SOL    HW224882   4.601   0.350   3.010
 7995SOL     OW24883   4.174   5.164   3.426
 7995SOL    HW124884   4.161   5.263   3.430
 7995SOL    HW224885   4.144   5.123   3.512
 7996SOL     OW24886   3.078   6.777   4.897
 7996SOL    HW124887   3.003   6.712   4.904
 7996SOL    HW224888   3.042   6.869   4.882
 7997SOL     OW24889   6.988   1.060   0.827
 7997SOL    HW124890   0.033   1.114   0.864
 7997SOL    HW224891   6.912   1.058   0.892
 7998SOL     OW24892   3.876   5.334   1.322
 7998SOL    HW124893   3.944   5.391   1.368
 7998SOL    HW224894   3.919   5.283   1.248
 7999SOL     OW24895   1.477   0.582   6.333
 7999SOL    HW124896   1.575   0.571   6.317
 7999SOL    HW224897   1.446   0.668   6.293
 8000SOL     OW24898   5.587   1.244   6.999
 8000SOL    HW124899   5.580   1.201   0.059
 8000SOL    HW224900   5.565   1.176   6.928
 8001SOL     OW24901   3.609   6.302   1.333
 8001SOL    HW124902   3.619   6.367   1.258
 8001SOL    HW224903   3.622   6.350   1.420
 8002SOL     OW24904   0.515   2.682   5.529
 8002SOL    HW124905   0.559   2.673   5.440
 8002SOL    HW224906   0.576   2.731   5.591
 8003SOL     OW24907   2.339   4.749   2.336
 8003SOL    HW124908   2.299   4.817   2.275
 8003SOL    HW224909   2.429   4.781   2.367
 8004SOL     OW24910   1.703   3.998   3.391
 8004SOL    HW124911   1.669   4.078   3.440
 8004SOL    HW224912   1.628   3.932   3.380
 8005SOL     OW24913   3.684   1.836   2.147
 8005SOL    HW124914   3.600   1.784   2.130
 8005SOL    HW224915   3.661   1.921   2.194
 8006SOL     OW24916   2.895   6.554   0.420
 8006SOL    HW124917   2.838   6.630   0.388
 8006SOL    HW224918   2.836   6.479   0.449
 8007SOL     OW24919   1.327   0.091   4.620
 8007SOL    HW124920   1.295   0.101   4.714
 8007SOL    HW224921   1.252   0.063   4.561
 8008SOL     OW24922   4.735   6.957   6.123
 8008SOL    HW124923   4.725   6.857   6.126
 8008SOL    HW224924   4.677   6.993   6.049
 8009SOL     OW24925   6.291   0.493   3.131
 8009SOL    HW124926   6.367   0.467   3.190
 8009SOL    HW224927   6.207   0.449   3.164
 8010SOL     OW24928   1.457   1.558   0.372
 8010SOL    HW124929   1.358   1.548   0.359
 8010SOL    HW224930   1.479   1.655   0.380
 8011SOL     OW24931   2.514   2.865   1.166
 8011SOL    HW124932   2.458   2.842   1.087
 8011SOL    HW224933   2.495   2.800   1.240
 8012SOL     OW24934   2.610   6.199   1.665
 8012SOL    HW124935   2.582   6.259   1.740
 8012SOL    HW224936   2.651   6.254   1.592
 8013SOL     OW24937   0.507   4.991   4.364
 8013SOL    HW124938   0.579   4.940   4.412
 8013SOL    HW224939   0.496   4.955   4.272
 8014SOL     OW24940   0.688   6.099   5.377
 8014SOL    HW124941   0.598   6.136   5.402
 8014SOL    HW224942   0.732   6.161   5.311
 8015SOL     OW24943   2.959   1.344   0.002
 8015SOL    HW124944   3.006   1.411   6.975
 8015SOL    HW224945   3.022   1.270   0.026
 8016SOL     OW24946   4.461   0.308   6.159
 8016SOL    HW124947   4.496   0.241   6.094
 8016SOL    HW224948   4.452   0.397   6.115
 8017SOL     OW24949   0.178   5.644   6.524
 8017SOL    HW124950   0.266   5.692   6.522
 8017SOL    HW224951   0.106   5.707   6.495
 8018SOL     OW24952   3.849   2.657   6.332
 8018SOL    HW124953   3.899   2.742   6.352
 8018SOL    HW224954   3.758   2.662   6.374
 8019SOL     OW24955   2.365   3.498   6.851
 8019SOL    HW124956   2.421   3.499   6.935
 8019SOL    HW224957   2.307   3.580   6.849
 8020SOL     OW24958   6.554   5.722   0.677
 8020SOL    HW124959   6.461   5.756   0.693
 8020SOL    HW224960   6.606   5.792   0.627
 8021SOL     OW24961   1.026   2.270   1.647
 8021SOL    HW124962   1.125   2.288   1.650
 8021SOL    HW224963   0.979   2.345   1.602
 8022SOL     OW24964   4.349   0.367   2.643
 8022SOL    HW124965   4.327   0.457   2.679
 8022SOL    HW224966   4.413   0.375   2.566
 8023SOL     OW24967   5.794   5.743   3.126
 8023SOL    HW124968   5.770   5.840   3.119
 8023SOL    HW224969   5.712   5.690   3.147
 8024SOL     OW24970   3.317   5.200   0.012
 8024SOL    HW124971   3.294   5.287   0.055
 8024SOL    HW224972   3.238   5.165   6.993
 8025SOL     OW24973   2.345   5.992   6.376
 8025SOL    HW124974   2.324   5.928   6.450
 8025SOL    HW224975   2.341   6.086   6.411
 8026SOL     OW24976   0.587   4.808   6.896
 8026SOL    HW124977   0.552   4.857   6.977
 8026SOL    HW224978   0.640   4.729   6.926
 8027SOL     OW24979   4.089   1.882   5.449
 8027SOL    HW124980   4.160   1.898   5.381
 8027SOL    HW224981   4.021   1.819   5.412
 8028SOL     OW24982   3.238   5.163   5.345
 8028SOL    HW124983   3.232   5.100   5.267
 8028SOL    HW224984   3.172   5.237   5.334
 8029SOL     OW24985   5.443   3.561   0.402
 8029SOL    HW124986   5.383   3.504   0.345
 8029SOL    HW224987   5.538   3.544   0.378
 8030SOL     OW24988   5.277   4.235   6.871
 8030SOL    HW124989   5.206   4.176   6.908
 8030SOL    HW224990   5.348   4.249   6.941
 8031SOL     OW24991   4.799   6.018   2.874
 8031SOL    HW124992   4.799   6.054   2.781
 8031SOL    HW224993   4.837   5.926   2.875
 8032SOL     OW24994   6.003   4.517   6.084
 8032SOL    HW124995   5.929   4.495   6.147
 8032SOL    HW224996   6.070   4.575   6.131
 8033SOL     OW24997   5.246   3.830   6.953
 8033SOL    HW124998   5.169   3.815   7.015
 8033SOL    HW224999   5.332   3.807   7.000
 8034SOL     OW25000   6.266   1.237   4.898
 8034SOL    HW125001   6.243   1.162   4.961
 8034SOL    HW225002   6.183   1.284   4.871
 8035SOL     OW25003   4.773   0.449   5.036
 8035SOL    HW125004   4.713   0.374   5.008
 8035SOL    HW225005   4.721   0.534   5.040
 8036SOL     OW25006   0.653   3.957   2.426
 8036SOL    HW125007   0.708   4.039   2.410
 8036SOL    HW225008   0.564   3.967   2.383
 8037SOL     OW25009   1.286   3.767   2.131
 8037SOL    HW125010   1.264   3.759   2.033
 8037SOL    HW225011   1.383   3.790   2.141
 8038SOL     OW25012   4.810   0.961   2.936
 8038SOL    HW125013   4.851   0.999   3.019
 8038SOL    HW225014   4.880   0.952   2.866
 8039SOL     OW25015   1.150   0.086   3.359
 8039SOL    HW125016   1.212   0.025   3.408
 8039SOL    HW225017   1.175   0.181   3.379
 8040SOL     OW25018   1.410   5.748   0.722
 8040SOL    HW125019   1.381   5.807   0.797
 8040SOL    HW225020   1.344   5.673   0.712
 8041SOL     OW25021   3.031   2.100   1.989
 8041SOL    HW125022   2.975   2.051   2.056
 8041SOL    HW225023   2.990   2.188   1.969
 8042SOL     OW25024   3.859   3.145   3.170
 8042SOL    HW125025   3.793   3.193   3.112
 8042SOL    HW225026   3.810   3.078   3.226
 8043SOL     OW25027   3.930   6.510   1.529
 8043SOL    HW125028   3.928   6.610   1.522
 8043SOL    HW225029   3.836   6.475   1.530
 8044SOL     OW25030   3.348   3.666   0.380
 8044SOL    HW125031   3.304   3.709   0.459
 8044SOL    HW225032   3.433   3.621   0.408
 8045SOL     OW25033   5.408   0.283   1.646
 8045SOL    HW125034   5.401   0.256   1.742
 8045SOL    HW225035   5.326   0.333   1.619
 8046SOL     OW25036   6.837   4.788   6.946
 8046SOL    HW125037   6.859   4.778   0.013
 8046SOL    HW225038   6.772   4.863   6.933
 8047SOL     OW25039   3.653   4.954   5.154
 8047SOL    HW125040   3.642   4.874   5.212
 8047SOL    HW225041   3.728   4.937   5.089
 8048SOL     OW25042   5.085   0.797   5.919
 8048SOL    HW125043   5.024   0.756   5.987
 8048SOL    HW225044   5.034   0.862   5.863
 8049SOL     OW25045   1.588   0.247   1.302
 8049SOL    HW125046   1.506   0.251   1.359
 8049SOL    HW225047   1.659   0.306   1.341
 8050SOL     OW25048   0.483   4.849   2.095
 8050SOL    HW125049   0.503   4.908   2.017
 8050SOL    HW225050   0.505   4.754   2.072
 8051SOL     OW25051   4.947   6.403   3.323
 8051SOL    HW125052   5.039   6.412   3.285
 8051SOL    HW225053   4.893   6.484   3.300
 8052SOL     OW25054   3.704   1.472   1.811
 8052SOL    HW125055   3.760   1.478   1.728
 8052SOL    HW225056   3.616   1.517   1.794
 8053SOL     OW25057   3.834   4.053   3.018
 8053SOL    HW125058   3.826   4.061   3.118
 8053SOL    HW225059   3.752   4.090   2.975
 8054SOL     OW25060   5.525   6.685   4.412
 8054SOL    HW125061   5.428   6.664   4.397
 8054SOL    HW225062   5.535   6.739   4.495
 8055SOL     OW25063   0.275   0.331   5.935
 8055SOL    HW125064   0.299   0.246   5.888
 8055SOL    HW225065   0.352   0.395   5.931
 8056SOL     OW25066   4.242   1.088   3.807
 8056SOL    HW125067   4.192   1.045   3.731
 8056SOL    HW225068   4.184   1.090   3.888
 8057SOL     OW25069   2.423   2.205   2.844
 8057SOL    HW125070   2.516   2.229   2.818
 8057SOL    HW225071   2.402   2.113   2.812
 8058SOL     OW25072   3.803   0.445   2.897
 8058SOL    HW125073   3.866   0.451   2.974
 8058SOL    HW225074   3.714   0.481   2.924
 8059SOL     OW25075   4.430   2.380   4.781
 8059SOL    HW125076   4.333   2.365   4.761
 8059SOL    HW225077   4.440   2.415   4.874
 8060SOL     OW25078   0.335   1.170   4.296
 8060SOL    HW125079   0.404   1.143   4.230
 8060SOL    HW225080   0.336   1.270   4.307
 8061SOL     OW25081   6.522   7.022   1.309
 8061SOL    HW125082   6.521   6.931   1.269
 8061SOL    HW225083   6.600   0.000   1.372
 8062SOL     OW25084   2.866   5.022   4.618
 8062SOL    HW125085   2.793   5.004   4.553
 8062SOL    HW225086   2.877   4.943   4.679
 8063SOL     OW25087   1.809   2.939   0.609
 8063SOL    HW125088   1.807   3.005   0.535
 8063SOL    HW225089   1.857   2.978   0.688
 8064SOL     OW25090   0.056   5.154   1.918
 8064SOL    HW125091   7.030   5.079   1.950
 8064SOL    HW225092   0.149   5.121   1.900
 8065SOL     OW25093   4.398   6.788   3.826
 8065SOL    HW125094   4.456   6.709   3.844
 8065SOL    HW225095   4.347   6.812   3.908
 8066SOL     OW25096   1.068   1.650   6.199
 8066SOL    HW125097   1.154   1.651   6.250
 8066SOL    HW225098   1.012   1.574   6.231
 8067SOL     OW25099   4.681   3.178   1.642
 8067SOL    HW125100   4.656   3.140   1.731
 8067SOL    HW225101   4.666   3.109   1.571
 8068SOL     OW25102   5.829   4.670   6.680
 8068SOL    HW125103   5.730   4.656   6.681
 8068SOL    HW225104   5.850   4.761   6.715
 8069SOL     OW25105   2.026   6.177   1.098
 8069SOL    HW125106   2.072   6.127   1.172
 8069SOL    HW225107   1.988   6.111   1.033
 8070SOL     OW25108   2.521   3.510   0.627
 8070SOL    HW125109   2.542   3.428   0.575
 8070SOL    HW225110   2.570   3.508   0.715
 8071SOL     OW25111   3.083   6.305   4.938
 8071SOL    HW125112   3.156   6.322   5.005
 8071SOL    HW225113   3.096   6.216   4.895
 8072SOL     OW25114   3.355   0.740   0.071
 8072SOL    HW125115   3.454   0.738   0.086
 8072SOL    HW225116   3.309   0.685   0.141
 8073SOL     OW25117   4.241   6.701   6.209
 8073SOL    HW125118   4.311   6.756   6.255
 8073SOL    HW225119   4.276   6.671   6.120
 8074SOL     OW25120   3.006   3.145   6.588
 8074SOL    HW125121   3.053   3.199   6.518
 8074SOL    HW225122   2.995   3.201   6.671
 8075SOL     OW25123   6.451   1.109   1.276
 8075SOL    HW125124   6.541   1.114   1.319
 8075SOL    HW225125   6.462   1.101   1.177
 8076SOL     OW25126   5.002   2.346   5.840
 8076SOL    HW125127   5.031   2.416   5.906
 8076SOL    HW225128   4.907   2.363   5.813
 8077SOL     OW25129   1.149   6.156   1.740
 8077SOL    HW125130   1.173   6.253   1.751
 8077SOL    HW225131   1.151   6.133   1.643
 8078SOL     OW25132   6.128   1.613   0.295
 8078SOL    HW125133   6.040   1.582   0.333
 8078SOL    HW225134   6.184   1.650   0.369
 8079SOL     OW25135   5.362   1.514   3.650
 8079SOL    HW125136   5.403   1.556   3.731
 8079SOL    HW225137   5.413   1.540   3.568
 8080SOL     OW25138   0.797   4.181   0.164
 8080SOL    HW125139   0.725   4.251   0.158
 8080SOL    HW225140   0.801   4.145   0.257
 8081SOL     OW25141   5.015   0.304   4.994
 8081SOL    HW125142   4.934   0.353   5.026
 8081SOL    HW225143   5.045   0.343   4.907
 8082SOL     OW25144   5.701   0.604   1.606
 8082SOL    HW125145   5.677   0.663   1.529
 8082SOL    HW225146   5.769   0.649   1.663
 8083SOL     OW25147   5.237   2.983   2.413
 8083SOL    HW125148   5.240   3.020   2.320
 8083SOL    HW225149   5.145   2.949   2.433
 8084SOL     OW25150   5.511   6.937   1.029
 8084SOL    HW125151   5.482   6.867   0.963
 8084SOL    HW225152   5.430   6.979   1.070
 8085SOL     OW25153   5.997   0.346   2.817
 8085SOL    HW125154   5.977   0.266   2.760
 8085SOL    HW225155   6.048   0.317   2.898
 8086SOL     OW25156   4.613   0.942   3.992
 8086SOL    HW125157   4.596   0.844   3.996
 8086SOL    HW225158   4.547   0.989   4.052
 8087SOL     OW25159   2.307   1.877   1.504
 8087SOL    HW125160   2.305   1.778   1.516
 8087SOL    HW225161   2.213   1.913   1.505
 8088SOL     OW25162   5.867   1.703   1.801
 8088SOL    HW125163   5.821   1.649   1.730
 8088SOL    HW225164   5.830   1.796   1.801
 8089SOL     OW25165   5.248   2.635   0.591
 8089SOL    HW125166   5.155   2.657   0.562
 8089SOL    HW225167   5.256   2.536   0.606
 8090SOL     OW25168   4.334   2.449   6.689
 8090SOL    HW125169   4.408   2.399   6.735
 8090SOL    HW225170   4.250   2.395   6.693
 8091SOL     OW25171   2.608   3.962   6.766
 8091SOL    HW125172   2.631   3.978   6.862
 8091SOL    HW225173   2.524   3.908   6.761
 8092SOL     OW25174   0.920   2.185   5.013
 8092SOL    HW125175   0.875   2.104   4.974
 8092SOL    HW225176   0.909   2.263   4.951
 8093SOL     OW25177   4.992   5.616   1.898
 8093SOL    HW125178   4.994   5.679   1.820
 8093SOL    HW225179   5.033   5.529   1.871
 8094SOL     OW25180   2.161   3.939   4.316
 8094SOL    HW125181   2.199   4.011   4.374
 8094SOL    HW225182   2.071   3.968   4.283
 8095SOL     OW25183   5.588   4.237   4.179
 8095SOL    HW125184   5.491   4.259   4.162
 8095SOL    HW225185   5.624   4.299   4.249
 8096SOL     OW25186   3.223   5.567   3.775
 8096SOL    HW125187   3.271   5.498   3.828
 8096SOL    HW225188   3.191   5.640   3.836
 8097SOL     OW25189   4.903   0.290   3.517
 8097SOL    HW125190   4.946   0.376   3.545
 8097SOL    HW225191   4.954   0.251   3.440
 8098SOL     OW25192   2.240   6.631   4.493
 8098SOL    HW125193   2.198   6.706   4.545
 8098SOL    HW225194   2.177   6.601   4.421
 8099SOL     OW25195   6.188   0.562   4.023
 8099SOL    HW125196   6.214   0.658   4.015
 8099SOL    HW225197   6.246   0.518   4.091
 8100SOL     OW25198   0.596   6.797   6.912
 8100SOL    HW125199   0.547   6.738   6.848
 8100SOL    HW225200   0.532   6.860   6.955
 8101SOL     OW25201   2.342   0.615   4.454
 8101SOL    HW125202   2.366   0.693   4.397
 8101SOL    HW225203   2.416   0.548   4.454
 8102SOL     OW25204   1.210   5.166   5.445
 8102SOL    HW125205   1.179   5.098   5.379
 8102SOL    HW225206   1.263   5.236   5.399
 8103SOL     OW25207   4.674   0.874   0.290
 8103SOL    HW125208   4.733   0.859   0.369
 8103SOL    HW225209   4.624   0.960   0.301
 8104SOL     OW25210   2.888   6.371   5.853
 8104SOL    HW125211   2.962   6.436   5.840
 8104SOL    HW225212   2.801   6.420   5.861
 8105SOL     OW25213   1.406   2.012   3.338
 8105SOL    HW125214   1.413   1.953   3.257
 8105SOL    HW225215   1.336   2.081   3.322
 8106SOL     OW25216   2.404   5.954   3.809
 8106SOL    HW125217   2.354   6.041   3.802
 8106SOL    HW225218   2.410   5.927   3.905
 8107SOL     OW25219   1.616   5.650   5.366
 8107SOL    HW125220   1.687   5.641   5.297
 8107SOL    HW225221   1.655   5.635   5.457
 8108SOL     OW25222   5.498   2.687   5.253
 8108SOL    HW125223   5.448   2.622   5.196
 8108SOL    HW225224   5.445   2.707   5.336
 8109SOL     OW25225   0.954   3.883   3.947
 8109SOL    HW125226   0.944   3.941   4.028
 8109SOL    HW225227   1.051   3.875   3.924
 8110SOL     OW25228   3.720   6.777   1.018
 8110SOL    HW125229   3.638   6.798   1.072
 8110SOL    HW225230   3.710   6.815   0.926
 8111SOL     OW25231   3.933   0.313   5.994
 8111SOL    HW125232   4.028   0.317   5.965
 8111SOL    HW225233   3.915   0.227   6.041
 8112SOL     OW25234   1.353   1.213   5.071
 8112SOL    HW125235   1.329   1.308   5.053
 8112SOL    HW225236   1.434   1.188   5.017
 8113SOL     OW25237   2.721   3.324   6.878
 8113SOL    HW125238   2.780   3.309   6.957
 8113SOL    HW225239   2.731   3.418   6.845
 8114SOL     OW25240   1.881   3.021   2.188
 8114SOL    HW125241   1.905   3.010   2.091
 8114SOL    HW225242   1.952   2.979   2.244
 8115SOL     OW25243   3.866   1.502   1.585
 8115SOL    HW125244   3.900   1.445   1.511
 8115SOL    HW225245   3.942   1.547   1.631
 8116SOL     OW25246   4.557   6.822   4.326
 8116SOL    HW125247   4.573   6.744   4.387
 8116SOL    HW225248   4.603   6.804   4.238
 8117SOL     OW25249   2.140   1.338   4.333
 8117SOL    HW125250   2.055   1.357   4.284
 8117SOL    HW225251   2.118   1.296   4.422
 8118SOL     OW25252   6.826   3.336   5.747
 8118SOL    HW125253   6.884   3.360   5.669
 8118SOL    HW225254   6.744   3.290   5.715
 8119SOL     OW25255   7.006   5.549   5.119
 8119SOL    HW125256   7.021   5.462   5.071
 8119SOL    HW225257   7.013   5.533   5.218
 8120SOL     OW25258   3.798   4.641   6.774
 8120SOL    HW125259   3.840   4.565   6.723
 8120SOL    HW225260   3.725   4.681   6.718
 8121SOL     OW25261   6.793   5.240   3.001
 8121SOL    HW125262   6.889   5.222   3.022
 8121SOL    HW225263   6.783   5.333   2.967
 8122SOL     OW25264   0.566   5.500   2.606
 8122SOL    HW125265   0.488   5.519   2.547
 8122SOL    HW225266   0.609   5.586   2.633
 8123SOL     OW25267   0.129   6.998   0.121
 8123SOL    HW125268   0.066   0.019   0.062
 8123SOL    HW225269   0.124   6.901   0.098
 8124SOL     OW25270   0.387   6.148   0.993
 8124SOL    HW125271   0.371   6.214   0.919
 8124SOL    HW225272   0.312   6.083   0.996
 8125SOL     OW25273   0.384   6.055   3.141
 8125SOL    HW125274   0.445   6.005   3.202
 8125SOL    HW225275   0.342   5.991   3.076
 8126SOL     OW25276   6.188   3.966   2.389
 8126SOL    HW125277   6.282   3.930   2.389
 8126SOL    HW225278   6.172   4.015   2.474
 8127SOL     OW25279   2.259   5.989   0.952
 8127SOL    HW125280   2.208   6.003   0.867
 8127SOL    HW225281   2.206   6.025   1.029
 8128SOL     OW25282   3.067   3.027   0.550
 8128SOL    HW125283   2.975   3.057   0.528
 8128SOL    HW225284   3.063   2.938   0.595
 8129SOL     OW25285   4.727   1.391   5.732
 8129SOL    HW125286   4.742   1.437   5.819
 8129SOL    HW225287   4.749   1.453   5.656
 8130SOL     OW25288   0.697   4.906   6.117
 8130SOL    HW125289   0.715   4.829   6.056
 8130SOL    HW225290   0.763   4.905   6.192
 8131SOL     OW25291   2.449   0.688   0.700
 8131SOL    HW125292   2.463   0.728   0.609
 8131SOL    HW225293   2.537   0.667   0.742
 8132SOL     OW25294   6.007   6.354   6.355
 8132SOL    HW125295   6.011   6.276   6.292
 8132SOL    HW225296   6.080   6.418   6.333
 8133SOL     OW25297   3.418   4.984   1.988
 8133SOL    HW125298   3.482   4.908   1.999
 8133SOL    HW225299   3.326   4.953   2.009
 8134SOL     OW25300   1.760   1.370   4.580
 8134SOL    HW125301   1.832   1.303   4.560
 8134SOL    HW225302   1.756   1.438   4.507
 8135SOL     OW25303   2.332   5.437   1.756
 8135SOL    HW125304   2.349   5.514   1.817
 8135SOL    HW225305   2.411   5.423   1.696
 8136SOL     OW25306   4.806   4.382   2.753
 8136SOL    HW125307   4.758   4.376   2.666
 8136SOL    HW225308   4.892   4.432   2.741
 8137SOL     OW25309   2.330   1.030   4.623
 8137SOL    HW125310   2.341   1.124   4.592
 8137SOL    HW225311   2.298   1.028   4.717
 8138SOL     OW25312   5.993   2.359   1.151
 8138SOL    HW125313   6.070   2.362   1.087
 8138SOL    HW225314   5.910   2.329   1.102
 8139SOL     OW25315   1.712   2.234   3.119
 8139SOL    HW125316   1.788   2.257   3.058
 8139SOL    HW225317   1.691   2.312   3.178
 8140SOL     OW25318   3.286   0.041   0.540
 8140SOL    HW125319   3.328   0.069   0.454
 8140SOL    HW225320   3.326   0.093   0.615
 8141SOL     OW25321   4.987   6.752   5.619
 8141SOL    HW125322   4.901   6.761   5.570
 8141SOL    HW225323   5.063   6.753   5.554
 8142SOL     OW25324   2.171   5.205   1.111
 8142SOL    HW125325   2.248   5.149   1.140
 8142SOL    HW225326   2.087   5.172   1.156
 8143SOL     OW25327   5.103   5.004   0.720
 8143SOL    HW125328   5.164   4.980   0.644
 8143SOL    HW225329   5.012   4.969   0.701
 8144SOL     OW25330   1.191   5.907   5.222
 8144SOL    HW125331   1.236   5.975   5.280
 8144SOL    HW225332   1.094   5.902   5.245
 8145SOL     OW25333   4.898   4.800   0.674
 8145SOL    HW125334   4.801   4.823   0.676
 8145SOL    HW225335   4.909   4.705   0.645
 8146SOL     OW25336   6.261   6.981   5.709
 8146SOL    HW125337   6.191   6.910   5.722
 8146SOL    HW225338   6.281   6.990   5.611
 8147SOL     OW25339   6.775   0.479   0.595
 8147SOL    HW125340   6.793   0.569   0.634
 8147SOL    HW225341   6.861   0.432   0.578
 8148SOL     OW25342   4.295   4.932   6.687
 8148SOL    HW125343   4.278   4.873   6.608
 8148SOL    HW225344   4.314   4.876   6.767
 8149SOL     OW25345   1.828   6.085   3.619
 8149SOL    HW125346   1.921   6.053   3.601
 8149SOL    HW225347   1.789   6.124   3.536
 8150SOL     OW25348   1.165   3.692   1.207
 8150SOL    HW125349   1.077   3.664   1.170
 8150SOL    HW225350   1.157   3.785   1.243
 8151SOL     OW25351   5.660   5.417   3.805
 8151SOL    HW125352   5.713   5.348   3.854
 8151SOL    HW225353   5.601   5.372   3.738
 8152SOL     OW25354   5.570   2.627   3.440
 8152SOL    HW125355   5.474   2.642   3.465
 8152SOL    HW225356   5.623   2.709   3.461
 8153SOL     OW25357   0.519   1.193   3.058
 8153SOL    HW125358   0.569   1.275   3.031
 8153SOL    HW225359   0.467   1.212   3.142
 8154SOL     OW25360   3.540   0.044   2.881
 8154SOL    HW125361   3.480   7.028   2.948
 8154SOL    HW225362   3.633   0.048   2.918
 8155SOL     OW25363   1.053   3.938   2.181
 8155SOL    HW125364   1.119   3.866   2.159
 8155SOL    HW225365   1.099   4.011   2.232
 8156SOL     OW25366   4.802   6.223   1.733
 8156SOL    HW125367   4.724   6.162   1.742
 8156SOL    HW225368   4.853   6.199   1.650
 8157SOL     OW25369   6.472   4.489   6.078
 8157SOL    HW125370   6.397   4.555   6.090
 8157SOL    HW225371   6.535   4.523   6.009
 8158SOL     OW25372   4.969   4.854   6.861
 8158SOL    HW125373   4.987   4.898   6.949
 8158SOL    HW225374   5.034   4.888   6.793
 8159SOL     OW25375   3.462   6.000   5.781
 8159SOL    HW125376   3.384   6.003   5.843
 8159SOL    HW225377   3.515   5.916   5.797
 8160SOL     OW25378   4.573   0.422   3.866
 8160SOL    HW125379   4.670   0.405   3.887
 8160SOL    HW225380   4.522   0.336   3.870
 8161SOL     OW25381   6.113   3.957   6.626
 8161SOL    HW125382   6.037   4.020   6.642
 8161SOL    HW225383   6.092   3.899   6.547
 8162SOL     OW25384   7.029   5.276   6.795
 8162SOL    HW125385   0.050   5.360   6.779
 8162SOL    HW225386   7.027   5.222   6.710
 8163SOL     OW25387   2.245   4.984   5.675
 8163SOL    HW125388   2.328   4.997   5.729
 8163SOL    HW225389   2.204   4.895   5.697
 8164SOL     OW25390   4.457   1.462   7.000
 8164SOL    HW125391   4.429   1.377   0.015
 8164SOL    HW225392   4.502   1.522   0.037
 8165SOL     OW25393   6.911   3.887   6.337
 8165SOL    HW125394   6.918   3.800   6.386
 8165SOL    HW225395   6.831   3.937   6.369
 8166SOL     OW25396   2.418   0.841   3.437
 8166SOL    HW125397   2.358   0.919   3.419
 8166SOL    HW225398   2.464   0.815   3.352
 8167SOL     OW25399   0.315   0.914   3.365
 8167SOL    HW125400   0.250   0.980   3.330
 8167SOL    HW225401   0.285   0.882   3.455
 8168SOL     OW25402   2.635   6.899   1.600
 8168SOL    HW125403   2.694   6.905   1.520
 8168SOL    HW225404   2.690   6.884   1.682
 8169SOL     OW25405   3.985   1.886   0.320
 8169SOL    HW125406   3.923   1.960   0.342
 8169SOL    HW225407   4.069   1.894   0.374
 8170SOL     OW25408   6.431   4.659   1.409
 8170SOL    HW125409   6.473   4.580   1.453
 8170SOL    HW225410   6.351   4.629   1.356
 8171SOL     OW25411   1.957   1.427   6.923
 8171SOL    HW125412   1.867   1.469   6.932
 8171SOL    HW225413   2.028   1.492   6.951
 8172SOL     OW25414   0.163   2.158   1.577
 8172SOL    HW125415   0.259   2.182   1.560
 8172SOL    HW225416   0.104   2.227   1.535
 8173SOL     OW25417   5.376   1.876   2.278
 8173SOL    HW125418   5.433   1.795   2.260
 8173SOL    HW225419   5.382   1.938   2.200
 8174SOL     OW25420   0.767   6.950   2.774
 8174SOL    HW125421   0.780   0.002   2.718
 8174SOL    HW225422   0.670   6.925   2.774
 8175SOL     OW25423   0.362   2.842   4.502
 8175SOL    HW125424   0.298   2.915   4.526
 8175SOL    HW225425   0.318   2.753   4.515
 8176SOL     OW25426   2.596   4.432   1.776
 8176SOL    HW125427   2.594   4.416   1.677
 8176SOL    HW225428   2.683   4.477   1.800
 8177SOL     OW25429   4.381   1.180   3.438
 8177SOL    HW125430   4.294   1.143   3.470
 8177SOL    HW225431   4.427   1.112   3.381
 8178SOL     OW25432   3.647   6.514   1.171
 8178SOL    HW125433   3.548   6.531   1.167
 8178SOL    HW225434   3.695   6.580   1.115
 8179SOL     OW25435   5.817   1.230   4.980
 8179SOL    HW125436   5.756   1.302   5.015
 8179SOL    HW225437   5.765   1.169   4.921
 8180SOL     OW25438   5.757   0.846   0.155
 8180SOL    HW125439   5.808   0.803   0.080
 8180SOL    HW225440   5.813   0.919   0.195
 8181SOL     OW25441   1.615   1.028   0.723
 8181SOL    HW125442   1.518   1.013   0.706
 8181SOL    HW225443   1.669   0.970   0.662
 8182SOL     OW25444   3.690   3.808   4.883
 8182SOL    HW125445   3.634   3.828   4.964
 8182SOL    HW225446   3.647   3.847   4.802
 8183SOL     OW25447   6.046   2.148   4.565
 8183SOL    HW125448   6.068   2.146   4.468
 8183SOL    HW225449   6.130   2.136   4.618
 8184SOL     OW25450   0.578   0.062   0.821
 8184SOL    HW125451   0.619   0.076   0.731
 8184SOL    HW225452   0.580   0.147   0.873
 8185SOL     OW25453   2.059   0.372   0.791
 8185SOL    HW125454   2.023   0.393   0.700
 8185SOL    HW225455   2.158   0.361   0.786
 8186SOL     OW25456   2.564   4.436   5.443
 8186SOL    HW125457   2.662   4.420   5.430
 8186SOL    HW225458   2.545   4.534   5.444
 8187SOL     OW25459   2.002   0.797   5.156
 8187SOL    HW125460   1.928   0.833   5.099
 8187SOL    HW225461   1.965   0.736   5.225
 8188SOL     OW25462   4.721   2.853   3.741
 8188SOL    HW125463   4.661   2.782   3.776
 8188SOL    HW225464   4.716   2.855   3.641
 8189SOL     OW25465   5.388   5.546   2.102
 8189SOL    HW125466   5.312   5.487   2.130
 8189SOL    HW225467   5.473   5.512   2.142
 8190SOL     OW25468   4.792   4.137   4.146
 8190SOL    HW125469   4.869   4.139   4.083
 8190SOL    HW225470   4.825   4.125   4.239
 8191SOL     OW25471   4.501   5.388   2.420
 8191SOL    HW125472   4.444   5.450   2.365
 8191SOL    HW225473   4.452   5.302   2.434
 8192SOL     OW25474   1.301   6.013   2.480
 8192SOL    HW125475   1.388   6.021   2.431
 8192SOL    HW225476   1.259   6.103   2.489
 8193SOL     OW25477   5.951   5.119   5.339
 8193SOL    HW125478   5.975   5.169   5.255
 8193SOL    HW225479   5.986   5.169   5.418
 8194SOL     OW25480   4.699   1.072   0.993
 8194SOL    HW125481   4.796   1.093   1.007
 8194SOL    HW225482   4.654   1.151   0.952
 8195SOL     OW25483   6.844   0.344   2.904
 8195SOL    HW125484   6.815   0.420   2.962
 8195SOL    HW225485   6.807   0.259   2.940
 8196SOL     OW25486   4.756   6.350   0.019
 8196SOL    HW125487   4.761   6.410   0.099
 8196SOL    HW225488   4.661   6.324   0.002
 8197SOL     OW25489   3.562   1.330   0.791
 8197SOL    HW125490   3.569   1.233   0.769
 8197SOL    HW225491   3.653   1.367   0.809
 8198SOL     OW25492   3.851   6.706   2.619
 8198SOL    HW125493   3.934   6.761   2.631
 8198SOL    HW225494   3.771   6.762   2.639
 8199SOL     OW25495   5.613   3.568   5.708
 8199SOL    HW125496   5.597   3.667   5.715
 8199SOL    HW225497   5.533   3.524   5.669
 8200SOL     OW25498   5.654   4.434   1.557
 8200SOL    HW125499   5.562   4.449   1.522
 8200SOL    HW225500   5.716   4.410   1.482
 8201SOL     OW25501   6.537   1.062   5.090
 8201SOL    HW125502   6.459   1.083   5.148
 8201SOL    HW225503   6.565   1.144   5.040
 8202SOL     OW25504   0.451   5.442   3.605
 8202SOL    HW125505   0.376   5.378   3.618
 8202SOL    HW225506   0.472   5.487   3.691
 8203SOL     OW25507   2.418   2.130   6.879
 8203SOL    HW125508   2.505   2.168   6.846
 8203SOL    HW225509   2.364   2.100   6.800
 8204SOL     OW25510   3.946   4.177   0.218
 8204SOL    HW125511   3.857   4.135   0.232
 8204SOL    HW225512   3.948   4.224   0.130
 8205SOL     OW25513   6.819   4.434   0.033
 8205SOL    HW125514   6.903   4.454   7.012
 8205SOL    HW225515   6.740   4.463   7.009
 8206SOL     OW25516   4.844   2.454   6.809
 8206SOL    HW125517   4.773   2.428   6.875
 8206SOL    HW225518   4.811   2.529   6.752
 8207SOL     OW25519   3.339   3.184   4.533
 8207SOL    HW125520   3.400   3.231   4.469
 8207SOL    HW225521   3.326   3.240   4.614
 8208SOL     OW25522   0.984   0.732   0.796
 8208SOL    HW125523   1.016   0.813   0.846
 8208SOL    HW225524   1.051   0.658   0.807
 8209SOL     OW25525   0.413   0.802   4.710
 8209SOL    HW125526   0.329   0.848   4.680
 8209SOL    HW225527   0.491   0.863   4.695
 8210SOL     OW25528   2.292   2.373   0.769
 8210SOL    HW125529   2.318   2.296   0.710
 8210SOL    HW225530   2.278   2.454   0.713
 8211SOL     OW25531   3.875   4.354   1.383
 8211SOL    HW125532   3.845   4.439   1.339
 8211SOL    HW225533   3.797   4.310   1.427
 8212SOL     OW25534   1.073   2.165   2.729
 8212SOL    HW125535   1.172   2.169   2.742
 8212SOL    HW225536   1.046   2.230   2.657
 8213SOL     OW25537   0.165   4.589   1.460
 8213SOL    HW125538   0.069   4.564   1.457
 8213SOL    HW225539   0.205   4.561   1.547
 8214SOL     OW25540   6.399   5.086   3.896
 8214SOL    HW125541   6.410   5.082   3.995
 8214SOL    HW225542   6.440   5.171   3.861
 8215SOL     OW25543   3.617   5.743   5.803
 8215SOL    HW125544   3.542   5.677   5.802
 8215SOL    HW225545   3.652   5.752   5.897
 8216SOL     OW25546   5.668   5.617   4.027
 8216SOL    HW125547   5.701   5.533   3.985
 8216SOL    HW225548   5.742   5.684   4.032
 8217SOL     OW25549   1.562   4.884   0.555
 8217SOL    HW125550   1.603   4.969   0.588
 8217SOL    HW225551   1.591   4.808   0.613
 8218SOL     OW25552   6.863   0.165   6.362
 8218SOL    HW125553   6.962   0.172   6.373
 8218SOL    HW225554   6.839   0.173   6.265
 8219SOL     OW25555   4.278   2.191   0.258
 8219SOL    HW125556   4.191   2.232   0.285
 8219SOL    HW225557   4.309   2.127   0.329
 8220SOL     OW25558   3.713   2.963   3.324
 8220SOL    HW125559   3.768   2.959   3.408
 8220SOL    HW225560   3.630   3.015   3.341
 8221SOL     OW25561   5.605   6.292   4.403
 8221SOL    HW125562   5.545   6.266   4.478
 8221SOL    HW225563   5.553   6.295   4.318
 8222SOL     OW25564   5.247   1.376   2.174
 8222SOL    HW125565   5.232   1.339   2.082
 8222SOL    HW225566   5.278   1.303   2.234
 8223SOL     OW25567   1.008   4.845   6.233
 8223SOL    HW125568   1.030   4.903   6.155
 8223SOL    HW225569   1.080   4.853   6.302
 8224SOL     OW25570   6.688   1.248   2.589
 8224SOL    HW125571   6.603   1.258   2.641
 8224SOL    HW225572   6.678   1.294   2.501
 8225SOL     OW25573   3.837   1.060   0.001
 8225SOL    HW125574   3.836   1.152   0.042
 8225SOL    HW225575   3.760   1.052   6.967
 8226SOL     OW25576   4.426   6.634   1.843
 8226SOL    HW125577   4.384   6.639   1.752
 8226SOL    HW225578   4.378   6.566   1.898
 8227SOL     OW25579   6.041   2.292   3.516
 8227SOL    HW125580   5.997   2.346   3.444
 8227SOL    HW225581   6.070   2.204   3.480
 8228SOL     OW25582   6.720   1.898   5.588
 8228SOL    HW125583   6.820   1.906   5.589
 8228SOL    HW225584   6.694   1.805   5.614
 8229SOL     OW25585   3.849   4.115   0.831
 8229SOL    HW125586   3.755   4.151   0.835
 8229SOL    HW225587   3.858   4.040   0.896
 8230SOL     OW25588   3.825   0.202   4.903
 8230SOL    HW125589   3.920   0.173   4.895
 8230SOL    HW225590   3.770   0.128   4.942
 8231SOL     OW25591   3.914   5.149   0.580
 8231SOL    HW125592   3.815   5.143   0.589
 8231SOL    HW225593   3.955   5.170   0.669
 8232SOL     OW25594   4.748   1.488   1.437
 8232SOL    HW125595   4.740   1.388   1.441
 8232SOL    HW225596   4.840   1.512   1.405
 8233SOL     OW25597   1.411   6.072   6.614
 8233SOL    HW125598   1.461   6.154   6.588
 8233SOL    HW225599   1.368   6.032   6.533
 8234SOL     OW25600   2.958   4.430   6.678
 8234SOL    HW125601   2.948   4.393   6.586
 8234SOL    HW225602   2.918   4.367   6.744
 8235SOL     OW25603   1.077   3.734   0.060
 8235SOL    HW125604   1.028   3.797   0.000
 8235SOL    HW225605   1.076   3.642   0.021
 8236SOL     OW25606   0.354   4.664   0.324
 8236SOL    HW125607   0.423   4.604   0.364
 8236SOL    HW225608   0.311   4.618   0.246
 8237SOL     OW25609   4.101   6.631   4.670
 8237SOL    HW125610   4.181   6.681   4.704
 8237SOL    HW225611   4.068   6.569   4.742
 8238SOL     OW25612   1.033   5.142   6.881
 8238SOL    HW125613   0.940   5.161   6.850
 8238SOL    HW225614   1.094   5.215   6.851
 8239SOL     OW25615   6.201   0.872   5.380
 8239SOL    HW125616   6.245   0.784   5.365
 8239SOL    HW225617   6.199   0.924   5.294
 8240SOL     OW25618   3.219   4.091   2.471
 8240SOL    HW125619   3.156   4.168   2.469
 8240SOL    HW225620   3.288   4.102   2.399
 8241SOL     OW25621   4.249   0.391   7.021
 8241SOL    HW125622   4.281   0.461   6.958
 8241SOL    HW225623   4.160   0.357   6.992
 8242SOL     OW25624   0.260   4.893   5.785
 8242SOL    HW125625   0.343   4.926   5.742
 8242SOL    HW225626   0.283   4.828   5.858
 8243SOL     OW25627   0.421   3.057   0.649
 8243SOL    HW125628   0.393   2.983   0.587
 8243SOL    HW225629   0.515   3.042   0.678
 8244SOL     OW25630   0.463   0.115   4.523
 8244SOL    HW125631   0.540   0.053   4.506
 8244SOL    HW225632   0.484   0.204   4.483
 8245SOL     OW25633   4.197   2.265   3.107
 8245SOL    HW125634   4.115   2.245   3.054
 8245SOL    HW225635   4.256   2.328   3.055
 8246SOL     OW25636   0.781   2.768   5.673
 8246SOL    HW125637   0.851   2.713   5.719
 8246SOL    HW225638   0.765   2.852   5.725
 8247SOL     OW25639   1.146   6.740   2.601
 8247SOL    HW125640   1.241   6.716   2.617
 8247SOL    HW225641   1.091   6.656   2.597
 8248SOL     OW25642   6.184   5.271   4.420
 8248SOL    HW125643   6.190   5.363   4.457
 8248SOL    HW225644   6.115   5.219   4.470
 8249SOL     OW25645   1.724   2.723   4.926
 8249SOL    HW125646   1.819   2.697   4.944
 8249SOL    HW225647   1.722   2.801   4.864
 8250SOL     OW25648   3.397   4.111   2.276
 8250SOL    HW125649   3.491   4.122   2.244
 8250SOL    HW225650   3.336   4.103   2.197
 8251SOL     OW25651   5.621   3.423   3.640
 8251SOL    HW125652   5.639   3.430   3.738
 8251SOL    HW225653   5.631   3.513   3.598
 8252SOL     OW25654   3.248   1.461   5.535
 8252SOL    HW125655   3.263   1.462   5.436
 8252SOL    HW225656   3.175   1.525   5.559
 8253SOL     OW25657   4.340   4.264   5.573
 8253SOL    HW125658   4.363   4.240   5.479
 8253SOL    HW225659   4.325   4.181   5.627
 8254SOL     OW25660   4.699   4.453   5.237
 8254SOL    HW125661   4.727   4.533   5.184
 8254SOL    HW225662   4.760   4.441   5.315
 8255SOL     OW25663   1.996   6.906   5.151
 8255SOL    HW125664   2.044   6.823   5.124
 8255SOL    HW225665   1.976   6.961   5.070
 8256SOL     OW25666   6.231   6.995   2.601
 8256SOL    HW125667   6.300   0.038   2.598
 8256SOL    HW225668   6.214   6.970   2.696
 8257SOL     OW25669   6.127   3.538   3.742
 8257SOL    HW125670   6.183   3.512   3.821
 8257SOL    HW225671   6.074   3.460   3.711
 8258SOL     OW25672   5.666   2.080   0.519
 8258SOL    HW125673   5.659   2.180   0.517
 8258SOL    HW225674   5.654   2.048   0.613
 8259SOL     OW25675   3.980   2.057   3.639
 8259SOL    HW125676   4.027   1.984   3.588
 8259SOL    HW225677   4.039   2.137   3.644
 8260SOL     OW25678   2.988   6.587   1.418
 8260SOL    HW125679   2.988   6.609   1.321
 8260SOL    HW225680   2.936   6.503   1.433
 8261SOL     OW25681   5.847   0.377   2.006
 8261SOL    HW125682   5.903   0.457   2.024
 8261SOL    HW225683   5.798   0.351   2.090
 8262SOL     OW25684   0.092   2.732   6.845
 8262SOL    HW125685   0.108   2.797   6.919
 8262SOL    HW225686   0.000   2.746   6.808
 8263SOL     OW25687   1.432   2.175   6.740
 8263SOL    HW125688   1.444   2.076   6.743
 8263SOL    HW225689   1.345   2.197   6.698
 8264SOL     OW25690   3.216   6.146   3.028
 8264SOL    HW125691   3.238   6.243   3.015
 8264SOL    HW225692   3.186   6.130   3.122
 8265SOL     OW25693   0.801   6.880   0.720
 8265SOL    HW125694   0.768   6.807   0.781
 8265SOL    HW225695   0.866   6.937   0.769
 8266SOL     OW25696   2.237   1.103   3.501
 8266SOL    HW125697   2.144   1.079   3.526
 8266SOL    HW225698   2.258   1.196   3.533
 8267SOL     OW25699   1.066   2.875   1.205
 8267SOL    HW125700   1.163   2.895   1.216
 8267SOL    HW225701   1.042   2.797   1.263
 8268SOL     OW25702   1.763   6.283   6.009
 8268SOL    HW125703   1.743   6.292   5.911
 8268SOL    HW225704   1.789   6.189   6.029
 8269SOL     OW25705   4.139   1.923   2.071
 8269SOL    HW125706   4.070   1.882   2.012
 8269SOL    HW225707   4.143   1.873   2.158
 8270SOL     OW25708   2.777   6.810   5.537
 8270SOL    HW125709   2.862   6.791   5.587
 8270SOL    HW225710   2.798   6.871   5.460
 8271SOL     OW25711   0.359   0.383   3.512
 8271SOL    HW125712   0.267   0.388   3.550
 8271SOL    HW225713   0.355   0.392   3.413
 8272SOL     OW25714   4.944   2.020   2.444
 8272SOL    HW125715   4.921   1.955   2.372
 8272SOL    HW225716   4.982   2.103   2.403
 8273SOL     OW25717   3.045   0.895   0.320
 8273SOL    HW125718   2.966   0.863   0.267
 8273SOL    HW225719   3.021   0.897   0.417
 8274SOL     OW25720   5.509   5.067   3.840
 8274SOL    HW125721   5.549   4.992   3.787
 8274SOL    HW225722   5.422   5.037   3.879
 8275SOL     OW25723   5.215   1.274   5.718
 8275SOL    HW125724   5.253   1.228   5.798
 8275SOL    HW225725   5.252   1.366   5.711
 8276SOL     OW25726   0.995   1.744   3.684
 8276SOL    HW125727   1.004   1.842   3.703
 8276SOL    HW225728   1.017   1.692   3.766
 8277SOL     OW25729   0.343   0.095   0.011
 8277SOL    HW125730   0.276   0.043   0.063
 8277SOL    HW225731   0.307   0.115   6.949
 8278SOL     OW25732   2.655   2.037   5.532
 8278SOL    HW125733   2.626   2.132   5.524
 8278SOL    HW225734   2.754   2.033   5.549
 8279SOL     OW25735   1.923   6.668   4.599
 8279SOL    HW125736   1.914   6.574   4.566
 8279SOL    HW225737   1.886   6.731   4.531
 8280SOL     OW25738   2.115   3.947   0.758
 8280SOL    HW125739   2.111   4.047   0.758
 8280SOL    HW225740   2.034   3.910   0.714
 8281SOL     OW25741   3.082   4.698   1.808
 8281SOL    HW125742   3.162   4.639   1.802
 8281SOL    HW225743   2.999   4.642   1.813
 8282SOL     OW25744   4.780   3.708   6.992
 8282SOL    HW125745   4.775   3.609   6.982
 8282SOL    HW225746   4.735   3.735   0.047
 8283SOL     OW25747   1.786   5.501   6.150
 8283SOL    HW125748   1.726   5.558   6.207
 8283SOL    HW225749   1.870   5.551   6.130
 8284SOL     OW25750   1.077   3.784   0.929
 8284SOL    HW125751   1.019   3.756   0.853
 8284SOL    HW225752   1.067   3.721   1.005
 8285SOL     OW25753   3.042   3.939   4.159
 8285SOL    HW125754   3.050   3.844   4.189
 8285SOL    HW225755   3.021   3.941   4.061
 8286SOL     OW25756   5.911   2.526   6.315
 8286SOL    HW125757   5.842   2.576   6.368
 8286SOL    HW225758   5.981   2.590   6.283
 8287SOL     OW25759   1.934   5.455   3.937
 8287SOL    HW125760   2.020   5.489   3.898
 8287SOL    HW225761   1.924   5.487   4.031
 8288SOL     OW25762   3.218   1.808   1.666
 8288SOL    HW125763   3.242   1.794   1.570
 8288SOL    HW225764   3.299   1.833   1.718
 8289SOL     OW25765   0.768   5.527   0.964
 8289SOL    HW125766   0.735   5.610   1.009
 8289SOL    HW225767   0.710   5.507   0.885
 8290SOL     OW25768   6.406   1.356   1.380
 8290SOL    HW125769   6.340   1.420   1.340
 8290SOL    HW225770   6.449   1.304   1.307
 8291SOL     OW25771   5.209   6.280   5.790
 8291SOL    HW125772   5.243   6.343   5.861
 8291SOL    HW225773   5.190   6.331   5.706
 8292SOL     OW25774   2.664   6.507   6.756
 8292SOL    HW125775   2.594   6.462   6.811
 8292SOL    HW225776   2.727   6.439   6.719
 8293SOL     OW25777   3.261   6.014   0.175
 8293SOL    HW125778   3.324   6.085   0.208
 8293SOL    HW225779   3.230   5.959   0.252
 8294SOL     OW25780   5.239   4.020   4.630
 8294SOL    HW125781   5.168   4.021   4.700
 8294SOL    HW225782   5.272   3.926   4.617
 8295SOL     OW25783   5.146   5.094   1.652
 8295SOL    HW125784   5.118   5.029   1.581
 8295SOL    HW225785   5.245   5.093   1.661
 8296SOL     OW25786   1.198   5.124   6.425
 8296SOL    HW125787   1.237   5.207   6.463
 8296SOL    HW225788   1.199   5.129   6.325
 8297SOL     OW25789   6.136   2.818   2.674
 8297SOL    HW125790   6.062   2.782   2.731
 8297SOL    HW225791   6.224   2.785   2.709
 8298SOL     OW25792   6.533   1.368   1.102
 8298SOL    HW125793   6.618   1.349   1.152
 8298SOL    HW225794   6.544   1.342   1.006
 8299SOL     OW25795   6.844   3.285   1.407
 8299SOL    HW125796   6.861   3.257   1.312
 8299SOL    HW225797   6.816   3.381   1.409
 8300SOL     OW25798   0.306   5.723   4.707
 8300SOL    HW125799   0.322   5.761   4.798
 8300SOL    HW225800   0.210   5.697   4.698
 8301SOL     OW25801   4.003   1.968   1.164
 8301SOL    HW125802   3.973   2.057   1.128
 8301SOL    HW225803   3.927   1.903   1.160
 8302SOL     OW25804   5.661   6.642   0.285
 8302SOL    HW125805   5.578   6.662   0.337
 8302SOL    HW225806   5.739   6.636   0.348
 8303SOL     OW25807   6.457   0.607   3.816
 8303SOL    HW125808   6.380   0.555   3.779
 8303SOL    HW225809   6.485   0.566   3.903
 8304SOL     OW25810   0.125   3.537   0.676
 8304SOL    HW125811   0.174   3.457   0.710
 8304SOL    HW225812   0.035   3.543   0.720
 8305SOL     OW25813   4.361   5.163   4.622
 8305SOL    HW125814   4.266   5.159   4.590
 8305SOL    HW225815   4.421   5.123   4.553
 8306SOL     OW25816   6.901   2.552   6.695
 8306SOL    HW125817   6.970   2.506   6.639
 8306SOL    HW225818   6.878   2.494   6.773
 8307SOL     OW25819   3.712   5.654   1.633
 8307SOL    HW125820   3.801   5.689   1.606
 8307SOL    HW225821   3.657   5.729   1.671
 8308SOL     OW25822   3.959   5.715   1.458
 8308SOL    HW125823   3.969   5.744   1.363
 8308SOL    HW225824   3.980   5.617   1.465
 8309SOL     OW25825   6.802   5.495   3.785
 8309SOL    HW125826   6.802   5.510   3.686
 8309SOL    HW225827   6.761   5.574   3.830
 8310SOL     OW25828   0.097   4.522   0.509
 8310SOL    HW125829   0.174   4.545   0.449
 8310SOL    HW225830   0.116   4.436   0.555
 8311SOL     OW25831   0.553   1.819   4.327
 8311SOL    HW125832   0.531   1.864   4.413
 8311SOL    HW225833   0.588   1.886   4.262
 8312SOL     OW25834   4.820   0.562   6.921
 8312SOL    HW125835   4.774   0.537   6.835
 8312SOL    HW225836   4.872   0.646   6.907
 8313SOL     OW25837   5.103   0.346   1.892
 8313SOL    HW125838   5.038   0.302   1.954
 8313SOL    HW225839   5.053   0.389   1.816
 8314SOL     OW25840   4.874   0.689   0.166
 8314SOL    HW125841   4.865   0.646   0.076
 8314SOL    HW225842   4.783   0.715   0.199
 8315SOL     OW25843   4.092   3.113   1.128
 8315SOL    HW125844   4.104   3.129   1.226
 8315SOL    HW225845   4.178   3.133   1.080
 8316SOL     OW25846   0.157   2.578   2.291
 8316SOL    HW125847   0.185   2.533   2.207
 8316SOL    HW225848   0.208   2.664   2.301
 8317SOL     OW25849   1.887   2.447   2.571
 8317SOL    HW125850   1.830   2.377   2.528
 8317SOL    HW225851   1.978   2.447   2.528
 8318SOL     OW25852   4.647   1.173   4.902
 8318SOL    HW125853   4.631   1.201   4.996
 8318SOL    HW225854   4.743   1.150   4.889
 8319SOL     OW25855   2.229   2.084   6.659
 8319SOL    HW125856   2.208   2.175   6.624
 8319SOL    HW225857   2.145   2.029   6.659
 8320SOL     OW25858   3.329   3.235   1.634
 8320SOL    HW125859   3.265   3.289   1.580
 8320SOL    HW225860   3.300   3.139   1.635
 8321SOL     OW25861   6.707   0.947   6.867
 8321SOL    HW125862   6.651   0.989   6.796
 8321SOL    HW225863   6.785   1.006   6.887
 8322SOL     OW25864   0.047   0.046   0.643
 8322SOL    HW125865   0.106   6.998   0.663
 8322SOL    HW225866   7.007   0.055   0.713
 8323SOL     OW25867   5.544   5.732   2.292
 8323SOL    HW125868   5.452   5.756   2.325
 8323SOL    HW225869   5.537   5.653   2.231
 8324SOL     OW25870   5.381   6.796   1.332
 8324SOL    HW125871   5.379   6.875   1.270
 8324SOL    HW225872   5.315   6.810   1.405
 8325SOL     OW25873   2.559   3.542   5.752
 8325SOL    HW125874   2.459   3.549   5.752
 8325SOL    HW225875   2.589   3.490   5.832
 8326SOL     OW25876   5.128   3.845   5.926
 8326SOL    HW125877   5.143   3.782   6.001
 8326SOL    HW225878   5.034   3.879   5.929
 8327SOL     OW25879   6.508   1.183   6.413
 8327SOL    HW125880   6.477   1.141   6.328
 8327SOL    HW225881   6.461   1.270   6.427
 8328SOL     OW25882   2.562   5.469   5.475
 8328SOL    HW125883   2.469   5.436   5.490
 8328SOL    HW225884   2.623   5.433   5.546
 8329SOL     OW25885   1.083   2.881   6.133
 8329SOL    HW125886   1.001   2.842   6.090
 8329SOL    HW225887   1.073   2.980   6.141
 8330SOL     OW25888   3.009   0.940   0.587
 8330SOL    HW125889   3.032   0.880   0.664
 8330SOL    HW225890   3.066   1.022   0.591
 8331SOL     OW25891   2.869   1.302   1.585
 8331SOL    HW125892   2.843   1.346   1.498
 8331SOL    HW225893   2.855   1.367   1.660
 8332SOL     OW25894   5.402   5.343   2.286
 8332SOL    HW125895   5.392   5.284   2.206
 8332SOL    HW225896   5.449   5.293   2.359
 8333SOL     OW25897   0.532   6.829   6.347
 8333SOL    HW125898   0.601   6.809   6.416
 8333SOL    HW225899   0.560   6.790   6.259
 8334SOL     OW25900   4.153   1.853   4.032
 8334SOL    HW125901   4.245   1.889   4.050
 8334SOL    HW225902   4.160   1.757   4.003
 8335SOL     OW25903   6.391   6.224   6.860
 8335SOL    HW125904   6.469   6.171   6.893
 8335SOL    HW225905   6.406   6.321   6.878
 8336SOL     OW25906   6.494   5.905   2.741
 8336SOL    HW125907   6.449   5.940   2.659
 8336SOL    HW225908   6.459   5.954   2.821
 8337SOL     OW25909   1.495   6.251   2.412
 8337SOL    HW125910   1.432   6.293   2.477
 8337SOL    HW225911   1.586   6.290   2.423
 8338SOL     OW25912   2.573   5.379   1.627
 8338SOL    HW125913   2.545   5.316   1.555
 8338SOL    HW225914   2.627   5.330   1.695
 8339SOL     OW25915   5.568   0.380   1.445
 8339SOL    HW125916   5.607   0.441   1.514
 8339SOL    HW225917   5.502   0.319   1.488
 8340SOL     OW25918   5.012   3.084   1.530
 8340SOL    HW125919   5.064   2.999   1.539
 8340SOL    HW225920   4.971   3.107   1.618
 8341SOL     OW25921   2.069   6.187   0.190
 8341SOL    HW125922   2.128   6.167   0.112
 8341SOL    HW225923   2.087   6.279   0.223
 8342SOL     OW25924   4.522   0.024   1.465
 8342SOL    HW125925   4.444   0.085   1.478
 8342SOL    HW225926   4.538   7.003   1.550
 8343SOL     OW25927   1.364   5.201   5.677
 8343SOL    HW125928   1.433   5.216   5.607
 8343SOL    HW225929   1.292   5.142   5.641
 8344SOL     OW25930   4.849   6.752   5.185
 8344SOL    HW125931   4.795   6.709   5.112
 8344SOL    HW225932   4.941   6.713   5.185
 8345SOL     OW25933   4.824   1.571   3.395
 8345SOL    HW125934   4.746   1.531   3.348
 8345SOL    HW225935   4.897   1.503   3.402
 8346SOL     OW25936   2.939   4.708   0.716
 8346SOL    HW125937   2.963   4.657   0.799
 8346SOL    HW225938   3.016   4.766   0.689
 8347SOL     OW25939   3.475   5.489   4.764
 8347SOL    HW125940   3.410   5.413   4.754
 8347SOL    HW225941   3.433   5.574   4.733
 8348SOL     OW25942   2.143   0.458   2.467
 8348SOL    HW125943   2.187   0.378   2.506
 8348SOL    HW225944   2.174   0.540   2.515
 8349SOL     OW25945   5.804   6.619   1.542
 8349SOL    HW125946   5.741   6.609   1.618
 8349SOL    HW225947   5.753   6.643   1.459
 8350SOL     OW25948   4.493   0.377   4.953
 8350SOL    HW125949   4.396   0.384   4.972
 8350SOL    HW225950   4.525   0.285   4.977
 8351SOL     OW25951   5.047   4.555   4.398
 8351SOL    HW125952   5.071   4.474   4.452
 8351SOL    HW225953   5.115   4.627   4.414
 8352SOL     OW25954   0.186   6.745   3.342
 8352SOL    HW125955   0.151   6.792   3.261
 8352SOL    HW225956   0.265   6.794   3.377
 8353SOL     OW25957   6.776   3.742   1.539
 8353SOL    HW125958   6.756   3.762   1.635
 8353SOL    HW225959   6.801   3.827   1.492
 8354SOL     OW25960   3.912   6.988   6.529
 8354SOL    HW125961   3.970   0.032   6.495
 8354SOL    HW225962   3.860   7.020   6.607
 8355SOL     OW25963   2.854   0.815   6.933
 8355SOL    HW125964   2.870   0.718   6.950
 8355SOL    HW225965   2.894   0.868   7.008
 8356SOL     OW25966   1.624   6.242   0.990
 8356SOL    HW125967   1.623   6.193   1.077
 8356SOL    HW225968   1.652   6.337   1.005
 8357SOL     OW25969   3.709   0.489   5.238
 8357SOL    HW125970   3.633   0.499   5.302
 8357SOL    HW225971   3.762   0.407   5.261
 8358SOL     OW25972   0.732   4.066   5.792
 8358SOL    HW125973   0.690   4.009   5.863
 8358SOL    HW225974   0.803   4.123   5.833
 8359SOL     OW25975   2.967   0.490   5.226
 8359SOL    HW125976   3.067   0.479   5.221
 8359SOL    HW225977   2.927   0.468   5.138
 8360SOL     OW25978   3.512   6.077   1.204
 8360SOL    HW125979   3.545   6.149   1.265
 8360SOL    HW225980   3.451   6.016   1.255
 8361SOL     OW25981   3.129   6.898   2.938
 8361SOL    HW125982   3.150   6.859   3.027
 8361SOL    HW225983   3.107   6.995   2.948
 8362SOL     OW25984   3.617   2.546   0.812
 8362SOL    HW125985   3.519   2.535   0.822
 8362SOL    HW225986   3.645   2.516   0.720
 8363SOL     OW25987   0.631   2.693   6.535
 8363SOL    HW125988   0.690   2.707   6.614
 8363SOL    HW225989   0.547   2.747   6.546
 8364SOL     OW25990   0.559   3.559   2.462
 8364SOL    HW125991   0.486   3.608   2.414
 8364SOL    HW225992   0.636   3.620   2.477
 8365SOL     OW25993   2.112   3.918   1.944
 8365SOL    HW125994   2.189   3.936   1.882
 8365SOL    HW225995   2.097   3.819   1.951
 8366SOL     OW25996   2.593   5.692   2.154
 8366SOL    HW125997   2.523   5.634   2.195
 8366SOL    HW225998   2.600   5.777   2.206
 8367SOL     OW25999   3.872   6.139   3.861
 8367SOL    HW126000   3.941   6.186   3.916
 8367SOL    HW226001   3.890   6.156   3.764
 8368SOL     OW26002   2.303   6.682   6.564
 8368SOL    HW126003   2.292   6.694   6.662
 8368SOL    HW226004   2.220   6.713   6.517
 8369SOL     OW26005   2.015   6.959   6.736
 8369SOL    HW126006   2.003   6.937   6.833
 8369SOL    HW226007   2.112   6.964   6.714
 8370SOL     OW26008   2.547   2.239   5.180
 8370SOL    HW126009   2.614   2.276   5.116
 8370SOL    HW226010   2.530   2.306   5.252
 8371SOL     OW26011   2.128   4.747   1.118
 8371SOL    HW126012   2.078   4.833   1.127
 8371SOL    HW226013   2.146   4.709   1.209
 8372SOL     OW26014   0.540   5.568   2.215
 8372SOL    HW126015   0.586   5.635   2.273
 8372SOL    HW226016   0.608   5.509   2.172
 8373SOL     OW26017   1.681   0.225   3.688
 8373SOL    HW126018   1.592   0.265   3.709
 8373SOL    HW226019   1.676   0.125   3.699
 8374SOL     OW26020   0.080   1.030   5.281
 8374SOL    HW126021   0.136   1.049   5.200
 8374SOL    HW226022   7.024   0.988   5.253
 8375SOL     OW26023   4.216   6.946   5.075
 8375SOL    HW126024   4.309   6.914   5.092
 8375SOL    HW226025   4.151   6.874   5.096
 8376SOL     OW26026   1.669   0.483   3.937
 8376SOL    HW126027   1.633   0.404   3.986
 8376SOL    HW226028   1.769   0.485   3.947
 8377SOL     OW26029   5.337   6.031   1.052
 8377SOL    HW126030   5.327   5.975   1.135
 8377SOL    HW226031   5.376   6.120   1.077
 8378SOL     OW26032   4.197   4.797   2.430
 8378SOL    HW126033   4.186   4.730   2.504
 8378SOL    HW226034   4.167   4.887   2.461
 8379SOL     OW26035   5.859   2.256   1.413
 8379SOL    HW126036   5.887   2.265   1.317
 8379SOL    HW226037   5.853   2.347   1.454
 8380SOL     OW26038   0.205   0.587   2.501
 8380SOL    HW126039   0.129   0.527   2.475
 8380SOL    HW226040   0.259   0.609   2.419
 8381SOL     OW26041   0.155   3.270   4.803
 8381SOL    HW126042   0.065   3.277   4.760
 8381SOL    HW226043   0.220   3.325   4.751
 8382SOL     OW26044   2.635   0.659   2.257
 8382SOL    HW126045   2.632   0.710   2.343
 8382SOL    HW226046   2.686   0.712   2.189
 8383SOL     OW26047   2.167   0.360   6.004
 8383SOL    HW126048   2.091   0.357   5.939
 8383SOL    HW226049   2.222   0.276   5.995
 8384SOL     OW26050   6.829   1.189   0.610
 8384SOL    HW126051   6.911   1.146   0.650
 8384SOL    HW226052   6.850   1.220   0.518
 8385SOL     OW26053   6.513   1.735   1.387
 8385SOL    HW126054   6.522   1.819   1.439
 8385SOL    HW226055   6.451   1.672   1.435
 8386SOL     OW26056   1.151   4.612   2.118
 8386SOL    HW126057   1.077   4.590   2.054
 8386SOL    HW226058   1.212   4.533   2.127
 8387SOL     OW26059   1.964   1.009   2.128
 8387SOL    HW126060   1.961   0.985   2.225
 8387SOL    HW226061   1.954   0.926   2.073
 8388SOL     OW26062   2.219   6.397   0.297
 8388SOL    HW126063   2.175   6.448   0.224
 8388SOL    HW226064   2.250   6.461   0.368
 8389SOL     OW26065   6.396   2.893   3.160
 8389SOL    HW126066   6.439   2.952   3.092
 8389SOL    HW226067   6.372   2.948   3.240
 8390SOL     OW26068   3.806   0.966   6.212
 8390SOL    HW126069   3.769   1.033   6.149
 8390SOL    HW226070   3.732   0.911   6.250
 8391SOL     OW26071   6.632   5.186   0.951
 8391SOL    HW126072   6.544   5.159   0.911
 8391SOL    HW226073   6.676   5.253   0.892
 8392SOL     OW26074   6.634   3.670   4.358
 8392SOL    HW126075   6.624   3.678   4.258
 8392SOL    HW226076   6.561   3.721   4.403
 8393SOL     OW26077   7.010   0.174   2.696
 8393SOL    HW126078   7.003   0.226   2.781
 8393SOL    HW226079   6.923   0.128   2.678
 8394SOL     OW26080   6.420   2.207   0.710
 8394SOL    HW126081   6.396   2.241   0.619
 8394SOL    HW226082   6.378   2.117   0.724
 8395SOL     OW26083   2.734   6.455   5.417
 8395SOL    HW126084   2.759   6.410   5.331
 8395SOL    HW226085   2.814   6.463   5.475
 8396SOL     OW26086   4.775   5.394   3.618
 8396SOL    HW126087   4.769   5.422   3.522
 8396SOL    HW226088   4.819   5.304   3.624
 8397SOL     OW26089   1.155   0.867   2.355
 8397SOL    HW126090   1.102   0.910   2.283
 8397SOL    HW226091   1.099   0.858   2.438
 8398SOL     OW26092   4.077   2.321   6.657
 8398SOL    HW126093   4.084   2.381   6.576
 8398SOL    HW226094   3.984   2.287   6.666
 8399SOL     OW26095   6.009   6.895   6.572
 8399SOL    HW126096   5.996   6.913   6.474
 8399SOL    HW226097   6.107   6.897   6.592
 8400SOL     OW26098   2.095   0.724   4.294
 8400SOL    HW126099   2.150   0.754   4.216
 8400SOL    HW226100   2.155   0.711   4.374
 8401SOL     OW26101   2.757   1.077   5.295
 8401SOL    HW126102   2.710   1.012   5.235
 8401SOL    HW226103   2.839   1.034   5.333
 8402SOL     OW26104   5.093   1.856   6.616
 8402SOL    HW126105   5.101   1.940   6.563
 8402SOL    HW226106   5.101   1.777   6.554
 8403SOL     OW26107   6.618   3.418   4.669
 8403SOL    HW126108   6.584   3.399   4.577
 8403SOL    HW226109   6.646   3.332   4.712
 8404SOL     OW26110   3.800   6.847   5.735
 8404SOL    HW126111   3.791   6.838   5.834
 8404SOL    HW226112   3.824   6.941   5.712
 8405SOL     OW26113   2.082   1.253   5.484
 8405SOL    HW126114   2.004   1.298   5.439
 8405SOL    HW226115   2.166   1.276   5.435
 8406SOL     OW26116   4.423   0.587   6.915
 8406SOL    HW126117   4.448   0.537   6.832
 8406SOL    HW226118   4.504   0.633   6.952
 8407SOL     OW26119   3.928   5.973   3.381
 8407SOL    HW126120   3.930   6.023   3.294
 8407SOL    HW226121   3.997   6.011   3.443
 8408SOL     OW26122   5.451   4.495   1.177
 8408SOL    HW126123   5.454   4.421   1.244
 8408SOL    HW226124   5.385   4.564   1.207
 8409SOL     OW26125   4.749   1.851   3.318
 8409SOL    HW126126   4.771   1.904   3.400
 8409SOL    HW226127   4.766   1.754   3.336
 8410SOL     OW26128   5.988   0.687   1.126
 8410SOL    HW126129   5.996   0.679   1.226
 8410SOL    HW226130   6.002   0.597   1.084
 8411SOL     OW26131   0.549   5.856   0.258
 8411SOL    HW126132   0.641   5.827   0.229
 8411SOL    HW226133   0.481   5.796   0.217
 8412SOL     OW26134   3.345   2.570   0.929
 8412SOL    HW126135   3.374   2.545   1.022
 8412SOL    HW226136   3.309   2.663   0.930
 8413SOL     OW26137   5.150   5.921   6.503
 8413SOL    HW126138   5.171   6.018   6.513
 8413SOL    HW226139   5.051   5.909   6.491
 8414SOL     OW26140   3.253   6.857   3.510
 8414SOL    HW126141   3.234   6.759   3.502
 8414SOL    HW226142   3.260   6.882   3.607
 8415SOL     OW26143   1.186   5.749   4.609
 8415SOL    HW126144   1.118   5.755   4.682
 8415SOL    HW226145   1.195   5.654   4.580
 8416SOL     OW26146   6.436   2.004   3.452
 8416SOL    HW126147   6.510   2.051   3.501
 8416SOL    HW226148   6.370   1.969   3.518
 8417SOL     OW26149   0.812   2.848   5.977
 8417SOL    HW126150   0.790   2.946   5.982
 8417SOL    HW226151   0.735   2.799   5.936
 8418SOL     OW26152   6.331   5.204   1.121
 8418SOL    HW126153   6.408   5.186   1.183
 8418SOL    HW226154   6.288   5.117   1.097
 8419SOL     OW26155   5.640   0.099   1.853
 8419SOL    HW126156   5.684   0.177   1.808
 8419SOL    HW226157   5.553   0.129   1.892
 8420SOL     OW26158   4.400   0.237   1.030
 8420SOL    HW126159   4.345   0.178   0.971
 8420SOL    HW226160   4.476   0.275   0.978
 8421SOL     OW26161   3.400   5.285   0.402
 8421SOL    HW126162   3.340   5.323   0.471
 8421SOL    HW226163   3.460   5.356   0.366
 8422SOL     OW26164   4.362   1.278   2.084
 8422SOL    HW126165   4.277   1.228   2.068
 8422SOL    HW226166   4.357   1.324   2.172
 8423SOL     OW26167   3.689   4.574   5.730
 8423SOL    HW126168   3.620   4.602   5.796
 8423SOL    HW226169   3.654   4.496   5.678
 8424SOL     OW26170   1.338   2.154   2.799
 8424SOL    HW126171   1.352   2.062   2.763
 8424SOL    HW226172   1.425   2.203   2.801
 8425SOL     OW26173   3.862   4.311   6.370
 8425SOL    HW126174   3.831   4.405   6.353
 8425SOL    HW226175   3.865   4.294   6.468
 8426SOL     OW26176   3.937   3.302   2.844
 8426SOL    HW126177   3.966   3.394   2.872
 8426SOL    HW226178   3.869   3.268   2.909
 8427SOL     OW26179   3.622   3.781   3.347
 8427SOL    HW126180   3.580   3.722   3.278
 8427SOL    HW226181   3.551   3.813   3.410
 8428SOL     OW26182   0.195   6.152   1.303
 8428SOL    HW126183   0.224   6.074   1.249
 8428SOL    HW226184   0.105   6.182   1.272
 8429SOL     OW26185   1.817   5.894   5.690
 8429SOL    HW126186   1.898   5.924   5.740
 8429SOL    HW226187   1.735   5.935   5.731
 8430SOL     OW26188   3.460   4.920   4.086
 8430SOL    HW126189   3.389   4.892   4.151
 8430SOL    HW226190   3.505   5.002   4.120
 8431SOL     OW26191   3.966   3.780   0.494
 8431SOL    HW126192   3.996   3.694   0.535
 8431SOL    HW226193   3.867   3.778   0.482
 8432SOL     OW26194   6.286   5.620   5.040
 8432SOL    HW126195   6.217   5.568   5.089
 8432SOL    HW226196   6.296   5.584   4.947
 8433SOL     OW26197   4.337   3.266   6.949
 8433SOL    HW126198   4.342   3.331   6.873
 8433SOL    HW226199   4.252   3.215   6.944
 8434SOL     OW26200   2.635   1.102   4.607
 8434SOL    HW126201   2.578   1.083   4.688
 8434SOL    HW226202   2.577   1.132   4.532
 8435SOL     OW26203   5.778   0.016   2.105
 8435SOL    HW126204   5.717   7.019   2.031
 8435SOL    HW226205   5.855   0.067   2.067
 8436SOL     OW26206   3.139   6.611   3.480
 8436SOL    HW126207   3.057   6.576   3.435
 8436SOL    HW226208   3.174   6.543   3.544
 8437SOL     OW26209   1.975   1.771   3.791
 8437SOL    HW126210   1.932   1.702   3.849
 8437SOL    HW226211   1.936   1.767   3.700
 8438SOL     OW26212   2.398   4.367   2.939
 8438SOL    HW126213   2.418   4.399   2.846
 8438SOL    HW226214   2.402   4.267   2.941
 8439SOL     OW26215   6.094   4.434   2.669
 8439SOL    HW126216   6.129   4.505   2.606
 8439SOL    HW226217   6.008   4.399   2.634
 8440SOL     OW26218   3.270   1.731   3.734
 8440SOL    HW126219   3.360   1.723   3.691
 8440SOL    HW226220   3.203   1.678   3.683
 8441SOL     OW26221   5.575   6.867   0.124
 8441SOL    HW126222   5.482   6.864   0.159
 8441SOL    HW226223   5.629   6.793   0.165
 8442SOL     OW26224   3.731   2.222   5.707
 8442SOL    HW126225   3.639   2.258   5.692
 8442SOL    HW226226   3.729   2.122   5.705
 8443SOL     OW26227   2.489   4.553   3.711
 8443SOL    HW126228   2.486   4.483   3.639
 8443SOL    HW226229   2.467   4.512   3.799
 8444SOL     OW26230   2.956   6.561   4.102
 8444SOL    HW126231   2.926   6.469   4.125
 8444SOL    HW226232   2.929   6.625   4.174
 8445SOL     OW26233   2.628   0.472   1.183
 8445SOL    HW126234   2.723   0.451   1.206
 8445SOL    HW226235   2.573   0.390   1.192
 8446SOL     OW26236   5.722   5.429   6.172
 8446SOL    HW126237   5.658   5.489   6.221
 8446SOL    HW226238   5.809   5.427   6.221
 8447SOL     OW26239   4.426   1.403   1.674
 8447SOL    HW126240   4.402   1.500   1.676
 8447SOL    HW226241   4.348   1.348   1.704
 8448SOL     OW26242   4.104   5.955   3.781
 8448SOL    HW126243   4.111   6.054   3.767
 8448SOL    HW226244   4.018   5.934   3.826
 8449SOL     OW26245   0.380   3.342   3.520
 8449SOL    HW126246   0.372   3.393   3.606
 8449SOL    HW226247   0.465   3.370   3.475
 8450SOL     OW26248   0.846   0.958   1.136
 8450SOL    HW126249   0.847   0.929   1.040
 8450SOL    HW226250   0.822   0.880   1.194
 8451SOL     OW26251   3.034   1.556   6.887
 8451SOL    HW126252   2.983   1.641   6.872
 8451SOL    HW226253   3.081   1.530   6.803
 8452SOL     OW26254   6.044   2.931   3.726
 8452SOL    HW126255   5.975   2.862   3.706
 8452SOL    HW226256   6.132   2.903   3.687
 8453SOL     OW26257   0.396   5.091   0.279
 8453SOL    HW126258   0.351   5.021   0.334
 8453SOL    HW226259   0.328   5.154   0.243
 8454SOL     OW26260   0.216   5.443   1.312
 8454SOL    HW126261   0.147   5.431   1.241
 8454SOL    HW226262   0.218   5.362   1.371
 8455SOL     OW26263   0.269   1.926   1.874
 8455SOL    HW126264   0.182   1.936   1.826
 8455SOL    HW226265   0.290   1.829   1.886
 8456SOL     OW26266   4.841   6.630   3.285
 8456SOL    HW126267   4.853   6.699   3.213
 8456SOL    HW226268   4.758   6.650   3.337
 8457SOL     OW26269   6.934   6.613   4.212
 8457SOL    HW126270   6.913   6.555   4.134
 8457SOL    HW226271   6.914   6.564   4.297
 8458SOL     OW26272   2.548   0.808   0.158
 8458SOL    HW126273   2.551   0.906   0.137
 8458SOL    HW226274   2.510   0.758   0.080
 8459SOL     OW26275   2.878   6.172   2.222
 8459SOL    HW126276   2.865   6.172   2.123
 8459SOL    HW226277   2.826   6.246   2.263
 8460SOL     OW26278   4.644   4.133   5.220
 8460SOL    HW126279   4.597   4.053   5.260
 8460SOL    HW226280   4.743   4.123   5.234
 8461SOL     OW26281   1.041   3.109   4.471
 8461SOL    HW126282   1.024   3.070   4.380
 8461SOL    HW226283   0.955   3.142   4.510
 8462SOL     OW26284   2.000   3.167   6.662
 8462SOL    HW126285   1.977   3.239   6.596
 8462SOL    HW226286   1.953   3.083   6.637
 8463SOL     OW26287   6.882   0.320   1.747
 8463SOL    HW126288   6.974   0.300   1.780
 8463SOL    HW226289   6.848   0.242   1.695
 8464SOL     OW26290   5.259   4.673   4.678
 8464SOL    HW126291   5.337   4.622   4.715
 8464SOL    HW226292   5.260   4.668   4.579
 8465SOL     OW26293   0.692   3.007   0.709
 8465SOL    HW126294   0.741   3.059   0.778
 8465SOL    HW226295   0.749   2.996   0.628
 8466SOL     OW26296   0.878   6.716   4.307
 8466SOL    HW126297   0.811   6.676   4.244
 8466SOL    HW226298   0.885   6.815   4.289
 8467SOL     OW26299   3.009   6.066   0.641
 8467SOL    HW126300   3.003   6.084   0.543
 8467SOL    HW226301   3.055   6.143   0.686
 8468SOL     OW26302   3.158   1.628   0.101
 8468SOL    HW126303   3.161   1.728   0.105
 8468SOL    HW226304   3.124   1.599   0.012
 8469SOL     OW26305   3.572   2.751   6.977
 8469SOL    HW126306   3.613   2.837   7.006
 8469SOL    HW226307   3.473   2.759   6.979
 8470SOL     OW26308   1.283   3.567   0.494
 8470SOL    HW126309   1.292   3.547   0.592
 8470SOL    HW226310   1.334   3.498   0.442
 8471SOL     OW26311   2.935   1.496   2.554
 8471SOL    HW126312   3.005   1.544   2.607
 8471SOL    HW226313   2.904   1.555   2.479
 8472SOL     OW26314   0.637   0.388   4.093
 8472SOL    HW126315   0.675   0.480   4.099
 8472SOL    HW226316   0.583   0.380   4.009
 8473SOL     OW26317   6.070   5.264   6.501
 8473SOL    HW126318   6.102   5.326   6.573
 8473SOL    HW226319   6.134   5.188   6.490
 8474SOL     OW26320   3.501   3.231   2.117
 8474SOL    HW126321   3.435   3.157   2.126
 8474SOL    HW226322   3.452   3.318   2.105
 8475SOL     OW26323   0.332   1.601   3.234
 8475SOL    HW126324   0.308   1.553   3.150
 8475SOL    HW226325   0.267   1.578   3.306
 8476SOL     OW26326   6.756   1.180   1.268
 8476SOL    HW126327   6.744   1.185   1.367
 8476SOL    HW226328   6.833   1.120   1.247
 8477SOL     OW26329   3.858   6.720   2.342
 8477SOL    HW126330   3.906   6.731   2.429
 8477SOL    HW226331   3.780   6.659   2.354
 8478SOL     OW26332   1.103   0.581   6.037
 8478SOL    HW126333   1.030   0.563   5.971
 8478SOL    HW226334   1.088   0.670   6.080
 8479SOL     OW26335   6.210   2.527   0.999
 8479SOL    HW126336   6.249   2.619   1.000
 8479SOL    HW226337   6.158   2.514   0.915
 8480SOL     OW26338   3.717   0.808   0.373
 8480SOL    HW126339   3.813   0.779   0.378
 8480SOL    HW226340   3.703   0.886   0.435
 8481SOL     OW26341   4.481   1.558   3.758
 8481SOL    HW126342   4.574   1.538   3.728
 8481SOL    HW226343   4.427   1.474   3.760
 8482SOL     OW26344   3.413   6.994   3.140
 8482SOL    HW126345   3.384   0.057   3.162
 8482SOL    HW226346   3.502   6.976   3.182
 8483SOL     OW26347   4.061   5.431   2.025
 8483SOL    HW126348   4.007   5.409   2.106
 8483SOL    HW226349   4.018   5.508   1.976
 8484SOL     OW26350   0.393   5.544   2.938
 8484SOL    HW126351   0.428   5.457   2.905
 8484SOL    HW226352   0.307   5.565   2.891
 8485SOL     OW26353   2.723   3.852   6.526
 8485SOL    HW126354   2.818   3.868   6.498
 8485SOL    HW226355   2.704   3.903   6.609
 8486SOL     OW26356   5.113   1.027   2.971
 8486SOL    HW126357   5.137   0.943   3.019
 8486SOL    HW226358   5.086   1.004   2.877
 8487SOL     OW26359   5.511   0.710   0.286
 8487SOL    HW126360   5.586   0.761   0.245
 8487SOL    HW226361   5.527   0.701   0.384
 8488SOL     OW26362   5.810   4.542   5.036
 8488SOL    HW126363   5.904   4.568   5.013
 8488SOL    HW226364   5.766   4.501   4.956
 8489SOL     OW26365   6.566   0.588   1.450
 8489SOL    HW126366   6.642   0.529   1.479
 8489SOL    HW226367   6.545   0.653   1.523
 8490SOL     OW26368   4.187   6.532   4.398
 8490SOL    HW126369   4.123   6.478   4.343
 8490SOL    HW226370   4.139   6.571   4.476
 8491SOL     OW26371   2.132   0.372   1.729
 8491SOL    HW126372   2.175   0.381   1.639
 8491SOL    HW226373   2.070   0.449   1.744
 8492SOL     OW26374   4.524   4.406   6.825
 8492SOL    HW126375   4.458   4.381   6.896
 8492SOL    HW226376   4.568   4.323   6.790
 8493SOL     OW26377   2.595   2.149   6.120
 8493SOL    HW126378   2.498   2.139   6.142
 8493SOL    HW226379   2.635   2.223   6.174
 8494SOL     OW26380   2.692   4.773   0.496
 8494SOL    HW126381   2.706   4.795   0.592
 8494SOL    HW226382   2.759   4.821   0.440
 8495SOL     OW26383   6.550   3.749   0.186
 8495SOL    HW126384   6.585   3.656   0.198
 8495SOL    HW226385   6.545   3.794   0.275
 8496SOL     OW26386   0.602   1.980   1.562
 8496SOL    HW126387   0.552   1.902   1.526
 8496SOL    HW226388   0.614   2.048   1.490
 8497SOL     OW26389   6.540   0.666   4.117
 8497SOL    HW126390   6.617   0.679   4.054
 8497SOL    HW226391   6.501   0.575   4.104
 8498SOL     OW26392   0.025   6.200   2.630
 8498SOL    HW126393   0.001   6.123   2.689
 8498SOL    HW226394   0.096   6.255   2.674
 8499SOL     OW26395   2.585   5.511   6.694
 8499SOL    HW126396   2.644   5.432   6.675
 8499SOL    HW226397   2.522   5.524   6.618
 8500SOL     OW26398   1.717   0.853   5.842
 8500SOL    HW126399   1.666   0.929   5.883
 8500SOL    HW226400   1.813   0.878   5.834
 8501SOL     OW26401   0.666   2.621   0.707
 8501SOL    HW126402   0.703   2.663   0.624
 8501SOL    HW226403   0.610   2.688   0.756
 8502SOL     OW26404   2.203   5.198   1.578
 8502SOL    HW126405   2.274   5.172   1.512
 8502SOL    HW226406   2.180   5.294   1.566
 8503SOL     OW26407   1.116   5.892   3.030
 8503SOL    HW126408   1.166   5.977   3.010
 8503SOL    HW226409   1.081   5.896   3.124
 8504SOL     OW26410   2.052   5.763   3.701
 8504SOL    HW126411   2.132   5.714   3.735
 8504SOL    HW226412   2.061   5.861   3.720
 8505SOL     OW26413   4.869   3.857   4.069
 8505SOL    HW126414   4.896   3.775   4.119
 8505SOL    HW226415   4.827   3.922   4.132
 8506SOL     OW26416   6.574   1.321   0.619
 8506SOL    HW126417   6.660   1.270   0.609
 8506SOL    HW226418   6.526   1.289   0.701
 8507SOL     OW26419   3.214   0.984   5.560
 8507SOL    HW126420   3.200   1.053   5.631
 8507SOL    HW226421   3.140   0.989   5.493
 8508SOL     OW26422   6.668   2.330   4.883
 8508SOL    HW126423   6.678   2.230   4.891
 8508SOL    HW226424   6.571   2.354   4.883
 8509SOL     OW26425   5.110   1.390   3.745
 8509SOL    HW126426   5.055   1.354   3.670
 8509SOL    HW226427   5.193   1.432   3.709
 8510SOL     OW26428   5.573   4.838   3.132
 8510SOL    HW126429   5.554   4.807   3.225
 8510SOL    HW226430   5.556   4.936   3.125
 8511SOL     OW26431   5.726   3.542   1.740
 8511SOL    HW126432   5.728   3.581   1.832
 8511SOL    HW226433   5.631   3.529   1.711
 8512SOL     OW26434   2.697   2.804   0.749
 8512SOL    HW126435   2.757   2.779   0.825
 8512SOL    HW226436   2.675   2.901   0.755
 8513SOL     OW26437   4.750   3.544   1.208
 8513SOL    HW126438   4.847   3.532   1.230
 8513SOL    HW226439   4.724   3.639   1.224
 8514SOL     OW26440   2.599   1.938   3.892
 8514SOL    HW126441   2.652   1.998   3.832
 8514SOL    HW226442   2.537   1.882   3.837
 8515SOL     OW26443   5.865   1.297   6.944
 8515SOL    HW126444   5.770   1.307   6.974
 8515SOL    HW226445   5.907   1.219   6.992
 8516SOL     OW26446   6.635   2.168   1.367
 8516SOL    HW126447   6.613   2.254   1.413
 8516SOL    HW226448   6.554   2.135   1.319
 8517SOL     OW26449   1.791   2.719   6.023
 8517SOL    HW126450   1.719   2.654   5.999
 8517SOL    HW226451   1.870   2.706   5.964
 8518SOL     OW26452   5.027   4.349   6.178
 8518SOL    HW126453   4.966   4.305   6.243
 8518SOL    HW226454   5.032   4.447   6.198
 8519SOL     OW26455   1.606   5.080   1.331
 8519SOL    HW126456   1.661   5.133   1.266
 8519SOL    HW226457   1.600   5.130   1.417
 8520SOL     OW26458   3.426   3.264   6.705
 8520SOL    HW126459   3.511   3.299   6.667
 8520SOL    HW226460   3.397   3.323   6.781
 8521SOL     OW26461   2.426   4.689   5.730
 8521SOL    HW126462   2.439   4.679   5.632
 8521SOL    HW226463   2.328   4.690   5.751
 8522SOL     OW26464   1.294   0.060   1.397
 8522SOL    HW126465   1.334   0.147   1.423
 8522SOL    HW226466   1.284   0.002   1.479
 8523SOL     OW26467   1.679   5.939   7.021
 8523SOL    HW126468   1.588   5.950   0.030
 8523SOL    HW226469   1.677   5.964   6.924
 8524SOL     OW26470   0.231   2.673   5.623
 8524SOL    HW126471   0.318   2.665   5.574
 8524SOL    HW226472   0.246   2.724   5.708
 8525SOL     OW26473   6.306   4.932   1.777
 8525SOL    HW126474   6.251   4.853   1.805
 8525SOL    HW226475   6.334   4.921   1.681
 8526SOL     OW26476   3.912   6.256   0.473
 8526SOL    HW126477   3.938   6.224   0.564
 8526SOL    HW226478   3.927   6.183   0.406
 8527SOL     OW26479   2.986   1.055   6.722
 8527SOL    HW126480   2.940   0.995   6.787
 8527SOL    HW226481   2.999   1.146   6.763
 8528SOL     OW26482   4.096   1.084   6.893
 8528SOL    HW126483   4.055   1.054   6.807
 8528SOL    HW226484   4.031   1.069   6.968
 8529SOL     OW26485   1.393   6.937   0.717
 8529SOL    HW126486   1.352   6.849   0.744
 8529SOL    HW226487   1.324   6.994   0.673
 8530SOL     OW26488   4.198   3.933   5.484
 8530SOL    HW126489   4.126   3.984   5.531
 8530SOL    HW226490   4.255   3.887   5.551
 8531SOL     OW26491   6.998   4.897   2.343
 8531SOL    HW126492   6.910   4.907   2.390
 8531SOL    HW226493   6.992   4.823   2.276
 8532SOL     OW26494   4.462   5.418   4.697
 8532SOL    HW126495   4.401   5.486   4.654
 8532SOL    HW226496   4.433   5.326   4.670
 8533SOL     OW26497   1.869   5.868   0.163
 8533SOL    HW126498   1.850   5.949   0.218
 8533SOL    HW226499   1.805   5.864   0.086
 8534SOL     OW26500   5.868   1.922   4.480
 8534SOL    HW126501   5.963   1.946   4.500
 8534SOL    HW226502   5.834   1.978   4.404
 8535SOL     OW26503   6.613   1.133   3.165
 8535SOL    HW126504   6.668   1.156   3.245
 8535SOL    HW226505   6.554   1.054   3.187
 8536SOL     OW26506   6.688   2.048   4.905
 8536SOL    HW126507   6.732   2.060   4.816
 8536SOL    HW226508   6.755   2.010   4.970
 8537SOL     OW26509   5.240   0.736   3.571
 8537SOL    HW126510   5.289   0.740   3.658
 8537SOL    HW226511   5.186   0.651   3.567
 8538SOL     OW26512   1.398   0.900   0.441
 8538SOL    HW126513   1.388   0.978   0.379
 8538SOL    HW226514   1.494   0.873   0.446
 8539SOL     OW26515   6.197   0.972   2.498
 8539SOL    HW126516   6.190   0.873   2.507
 8539SOL    HW226517   6.162   1.016   2.581
 8540SOL     OW26518   5.642   0.602   6.228
 8540SOL    HW126519   5.559   0.631   6.275
 8540SOL    HW226520   5.669   0.511   6.260
 8541SOL     OW26521   2.994   1.919   3.689
 8541SOL    HW126522   2.935   1.983   3.640
 8541SOL    HW226523   3.090   1.946   3.677
 8542SOL     OW26524   4.384   5.071   6.134
 8542SOL    HW126525   4.410   5.121   6.217
 8542SOL    HW226526   4.333   4.989   6.160
 8543SOL     OW26527   2.536   1.938   1.363
 8543SOL    HW126528   2.446   1.926   1.406
 8543SOL    HW226529   2.587   2.010   1.409
 8544SOL     OW26530   5.368   3.430   3.991
 8544SOL    HW126531   5.443   3.369   3.964
 8544SOL    HW226532   5.379   3.519   3.946
 8545SOL     OW26533   4.258   0.342   5.298
 8545SOL    HW126534   4.214   0.354   5.210
 8545SOL    HW226535   4.277   0.432   5.339
 8546SOL     OW26536   5.463   2.009   4.339
 8546SOL    HW126537   5.553   2.051   4.330
 8546SOL    HW226538   5.436   2.008   4.436
 8547SOL     OW26539   1.158   6.326   5.842
 8547SOL    HW126540   1.187   6.236   5.810
 8547SOL    HW226541   1.220   6.358   5.914
 8548SOL     OW26542   6.419   3.059   5.999
 8548SOL    HW126543   6.481   3.103   6.064
 8548SOL    HW226544   6.458   3.066   5.907
 8549SOL     OW26545   1.150   2.945   3.800
 8549SOL    HW126546   1.214   2.992   3.861
 8549SOL    HW226547   1.200   2.908   3.722
 8550SOL     OW26548   1.920   4.946   0.242
 8550SOL    HW126549   1.954   4.999   0.164
 8550SOL    HW226550   1.981   4.868   0.258
 8551SOL     OW26551   3.678   4.055   5.593
 8551SOL    HW126552   3.675   4.155   5.594
 8551SOL    HW226553   3.586   4.018   5.603
 8552SOL     OW26554   2.480   6.451   3.448
 8552SOL    HW126555   2.536   6.417   3.372
 8552SOL    HW226556   2.538   6.502   3.512
 8553SOL     OW26557   5.035   4.624   6.162
 8553SOL    HW126558   4.953   4.680   6.177
 8553SOL    HW226559   5.088   4.662   6.086
 8554SOL     OW26560   0.531   5.257   0.480
 8554SOL    HW126561   0.503   5.223   0.390
 8554SOL    HW226562   0.625   5.230   0.497
 8555SOL     OW26563   1.132   0.332   2.604
 8555SOL    HW126564   1.170   0.405   2.660
 8555SOL    HW226565   1.175   0.334   2.514
 8556SOL     OW26566   0.672   6.439   4.475
 8556SOL    HW126567   0.708   6.497   4.549
 8556SOL    HW226568   0.596   6.384   4.510
 8557SOL     OW26569   6.196   0.513   2.648
 8557SOL    HW126570   6.243   0.487   2.733
 8557SOL    HW226571   6.110   0.463   2.642
 8558SOL     OW26572   2.914   5.736   3.441
 8558SOL    HW126573   2.936   5.690   3.527
 8558SOL    HW226574   2.882   5.668   3.374
 8559SOL     OW26575   6.362   0.690   2.228
 8559SOL    HW126576   6.353   0.774   2.175
 8559SOL    HW226577   6.456   0.682   2.262
 8560SOL     OW26578   0.337   6.291   2.064
 8560SOL    HW126579   0.395   6.234   2.006
 8560SOL    HW226580   0.280   6.351   2.007
 8561SOL     OW26581   3.789   0.091   2.145
 8561SOL    HW126582   3.780   0.044   2.233
 8561SOL    HW226583   3.708   0.146   2.127
 8562SOL     OW26584   4.770   6.359   5.067
 8562SOL    HW126585   4.691   6.331   5.013
 8562SOL    HW226586   4.820   6.431   5.019
 8563SOL     OW26587   2.691   4.564   0.161
 8563SOL    HW126588   2.685   4.664   0.159
 8563SOL    HW226589   2.672   4.532   0.254
 8564SOL     OW26590   2.728   1.274   3.784
 8564SOL    HW126591   2.784   1.353   3.808
 8564SOL    HW226592   2.739   1.253   3.687
 8565SOL     OW26593   4.505   5.990   1.044
 8565SOL    HW126594   4.542   5.980   1.136
 8565SOL    HW226595   4.511   5.903   0.996
 8566SOL     OW26596   1.260   0.524   1.315
 8566SOL    HW126597   1.268   0.548   1.412
 8566SOL    HW226598   1.163   0.525   1.288
 8567SOL     OW26599   6.641   1.410   2.356
 8567SOL    HW126600   6.682   1.354   2.284
 8567SOL    HW226601   6.564   1.462   2.318
 8568SOL     OW26602   5.346   1.145   5.926
 8568SOL    HW126603   5.417   1.161   5.857
 8568SOL    HW226604   5.366   1.061   5.976
 8569SOL     OW26605   5.223   1.707   5.715
 8569SOL    HW126606   5.185   1.770   5.648
 8569SOL    HW226607   5.152   1.645   5.747
 8570SOL     OW26608   1.202   2.487   5.175
 8570SOL    HW126609   1.246   2.564   5.222
 8570SOL    HW226610   1.226   2.490   5.078
 8571SOL     OW26611   0.895   5.506   5.901
 8571SOL    HW126612   0.876   5.532   5.806
 8571SOL    HW226613   0.845   5.567   5.963
 8572SOL     OW26614   3.375   5.215   6.243
 8572SOL    HW126615   3.340   5.288   6.302
 8572SOL    HW226616   3.400   5.136   6.300
 8573SOL     OW26617   3.410   0.095   6.333
 8573SOL    HW126618   3.345   0.170   6.344
 8573SOL    HW226619   3.379   0.017   6.387
 8574SOL     OW26620   0.318   6.182   5.765
 8574SOL    HW126621   0.417   6.192   5.777
 8574SOL    HW226622   0.277   6.156   5.852
 8575SOL     OW26623   2.944   2.701   5.920
 8575SOL    HW126624   2.933   2.601   5.927
 8575SOL    HW226625   3.010   2.732   5.989
 8576SOL     OW26626   1.145   6.145   0.230
 8576SOL    HW126627   1.189   6.118   0.315
 8576SOL    HW226628   1.188   6.228   0.195
 8577SOL     OW26629   0.237   5.791   4.064
 8577SOL    HW126630   0.199   5.881   4.087
 8577SOL    HW226631   0.320   5.802   4.011
 8578SOL     OW26632   5.068   0.507   4.459
 8578SOL    HW126633   5.096   0.482   4.366
 8578SOL    HW226634   5.150   0.526   4.514
 8579SOL     OW26635   1.347   7.002   3.506
 8579SOL    HW126636   1.442   6.972   3.511
 8579SOL    HW226637   1.324   0.027   3.586
 8580SOL     OW26638   2.054   6.910   2.308
 8580SOL    HW126639   2.022   7.005   2.319
 8580SOL    HW226640   2.124   6.890   2.376
 8581SOL     OW26641   3.270   3.369   1.870
 8581SOL    HW126642   3.330   3.333   1.799
 8581SOL    HW226643   3.211   3.295   1.905
 8582SOL     OW26644   4.139   4.683   2.151
 8582SOL    HW126645   4.043   4.663   2.167
 8582SOL    HW226646   4.179   4.724   2.233
 8583SOL     OW26647   5.769   0.767   5.611
 8583SOL    HW126648   5.699   0.707   5.571
 8583SOL    HW226649   5.814   0.818   5.538
 8584SOL     OW26650   0.268   3.741   6.266
 8584SOL    HW126651   0.242   3.648   6.294
 8584SOL    HW226652   0.357   3.739   6.220
 8585SOL     OW26653   0.548   6.393   5.580
 8585SOL    HW126654   0.626   6.399   5.643
 8585SOL    HW226655   0.516   6.486   5.558
 8586SOL     OW26656   2.906   6.649   3.624
 8586SOL    HW126657   2.849   6.641   3.543
 8586SOL    HW226658   3.002   6.658   3.597
 8587SOL     OW26659   1.606   6.818   3.045
 8587SOL    HW126660   1.625   6.856   3.136
 8587SOL    HW226661   1.558   6.731   3.055
 8588SOL     OW26662   2.466   0.429   6.788
 8588SOL    HW126663   2.403   0.431   6.710
 8588SOL    HW226664   2.467   0.337   6.828
 8589SOL     OW26665   4.961   2.807   3.962
 8589SOL    HW126666   4.948   2.809   3.863
 8589SOL    HW226667   4.877   2.836   4.007
 8590SOL     OW26668   6.562   6.360   4.203
 8590SOL    HW126669   6.502   6.309   4.141
 8590SOL    HW226670   6.582   6.304   4.283
 8591SOL     OW26671   0.784   4.477   6.465
 8591SOL    HW126672   0.868   4.435   6.500
 8591SOL    HW226673   0.735   4.411   6.408
 8592SOL     OW26674   0.115   3.488   0.302
 8592SOL    HW126675   0.121   3.468   0.204
 8592SOL    HW226676   0.063   3.573   0.316
 8593SOL     OW26677   1.121   0.365   2.147
 8593SOL    HW126678   1.034   0.317   2.149
 8593SOL    HW226679   1.186   0.314   2.091
 8594SOL     OW26680   3.389   3.278   5.133
 8594SOL    HW126681   3.346   3.240   5.051
 8594SOL    HW226682   3.458   3.345   5.107
 8595SOL     OW26683   1.928   1.510   3.309
 8595SOL    HW126684   1.998   1.453   3.265
 8595SOL    HW226685   1.900   1.582   3.246
 8596SOL     OW26686   6.676   5.818   3.279
 8596SOL    HW126687   6.603   5.805   3.211
 8596SOL    HW226688   6.693   5.915   3.291
 8597SOL     OW26689   4.797   1.479   1.045
 8597SOL    HW126690   4.802   1.404   1.110
 8597SOL    HW226691   4.809   1.444   0.952
 8598SOL     OW26692   0.011   5.527   1.072
 8598SOL    HW126693   6.977   5.593   1.112
 8598SOL    HW226694   7.006   5.435   1.084
 8599SOL     OW26695   0.665   2.572   3.757
 8599SOL    HW126696   0.647   2.508   3.832
 8599SOL    HW226697   0.757   2.609   3.767
 8600SOL     OW26698   5.000   5.186   6.202
 8600SOL    HW126699   4.917   5.202   6.150
 8600SOL    HW226700   4.976   5.157   6.295
 8601SOL     OW26701   1.010   0.701   5.306
 8601SOL    HW126702   1.006   0.735   5.213
 8601SOL    HW226703   0.947   0.754   5.364
 8602SOL     OW26704   3.178   5.773   3.290
 8602SOL    HW126705   3.161   5.739   3.197
 8602SOL    HW226706   3.102   5.746   3.350
 8603SOL     OW26707   3.753   5.438   0.643
 8603SOL    HW126708   3.793   5.363   0.591
 8603SOL    HW226709   3.761   5.523   0.591
 8604SOL     OW26710   0.226   3.117   3.625
 8604SOL    HW126711   0.245   3.211   3.595
 8604SOL    HW226712   0.289   3.093   3.699
 8605SOL     OW26713   3.200   4.908   4.211
 8605SOL    HW126714   3.266   4.973   4.248
 8605SOL    HW226715   3.125   4.896   4.276
 8606SOL     OW26716   1.907   4.634   5.978
 8606SOL    HW126717   1.853   4.715   5.954
 8606SOL    HW226718   1.875   4.556   5.925
 8607SOL     OW26719   3.421   5.863   0.658
 8607SOL    HW126720   3.406   5.775   0.613
 8607SOL    HW226721   3.494   5.854   0.726
 8608SOL     OW26722   4.451   5.225   2.959
 8608SOL    HW126723   4.378   5.274   3.007
 8608SOL    HW226724   4.511   5.181   3.026
 8609SOL     OW26725   4.748   0.875   3.684
 8609SOL    HW126726   4.737   0.943   3.612
 8609SOL    HW226727   4.708   0.788   3.654
 8610SOL     OW26728   1.377   1.101   2.864
 8610SOL    HW126729   1.344   1.127   2.774
 8610SOL    HW226730   1.385   1.001   2.869
 8611SOL     OW26731   2.348   1.902   4.298
 8611SOL    HW126732   2.313   1.847   4.222
 8611SOL    HW226733   2.429   1.953   4.268
 8612SOL     OW26734   2.857   3.294   0.097
 8612SOL    HW126735   2.897   3.208   0.067
 8612SOL    HW226736   2.768   3.275   0.141
 8613SOL     OW26737   2.335   2.297   1.632
 8613SOL    HW126738   2.394   2.219   1.653
 8613SOL    HW226739   2.321   2.303   1.533
 8614SOL     OW26740   0.415   3.498   2.711
 8614SOL    HW126741   0.351   3.425   2.688
 8614SOL    HW226742   0.444   3.544   2.627
 8615SOL     OW26743   5.058   1.916   5.216
 8615SOL    HW126744   4.984   1.916   5.282
 8615SOL    HW226745   5.101   1.825   5.213
 8616SOL     OW26746   2.176   5.493   1.312
 8616SOL    HW126747   2.252   5.427   1.305
 8616SOL    HW226748   2.126   5.476   1.396
 8617SOL     OW26749   6.505   1.044   6.673
 8617SOL    HW126750   6.440   0.974   6.643
 8617SOL    HW226751   6.526   1.105   6.597
 8618SOL     OW26752   5.751   6.671   1.073
 8618SOL    HW126753   5.758   6.714   0.983
 8618SOL    HW226754   5.843   6.645   1.103
 8619SOL     OW26755   3.516   5.247   1.916
 8619SOL    HW126756   3.443   5.303   1.876
 8619SOL    HW226757   3.489   5.151   1.914
 8620SOL     OW26758   0.036   0.218   3.353
 8620SOL    HW126759   0.124   0.176   3.376
 8620SOL    HW226760   0.048   0.282   3.277
 8621SOL     OW26761   6.036   1.777   2.956
 8621SOL    HW126762   6.020   1.865   3.000
 8621SOL    HW226763   6.112   1.730   3.002
 8622SOL     OW26764   5.301   4.151   0.115
 8622SOL    HW126765   5.394   4.169   0.148
 8622SOL    HW226766   5.246   4.234   0.123
 8623SOL     OW26767   1.247   3.730   3.240
 8623SOL    HW126768   1.338   3.694   3.262
 8623SOL    HW226769   1.242   3.750   3.142
 8624SOL     OW26770   1.321   3.678   3.681
 8624SOL    HW126771   1.266   3.753   3.645
 8624SOL    HW226772   1.415   3.688   3.648
 8625SOL     OW26773   4.857   6.816   4.807
 8625SOL    HW126774   4.867   6.844   4.712
 8625SOL    HW226775   4.913   6.875   4.865
 8626SOL     OW26776   3.607   2.939   5.219
 8626SOL    HW126777   3.617   3.010   5.288
 8626SOL    HW226778   3.662   2.964   5.138
 8627SOL     OW26779   0.625   1.019   3.723
 8627SOL    HW126780   0.717   0.990   3.698
 8627SOL    HW226781   0.568   1.023   3.640
 8628SOL     OW26782   5.770   7.029   1.419
 8628SOL    HW126783   5.861   6.988   1.415
 8628SOL    HW226784   5.740   0.023   1.326
 8629SOL     OW26785   1.366   5.406   5.324
 8629SOL    HW126786   1.329   5.481   5.270
 8629SOL    HW226787   1.459   5.429   5.354
 8630SOL     OW26788   5.898   4.592   4.532
 8630SOL    HW126789   5.963   4.659   4.568
 8630SOL    HW226790   5.813   4.595   4.586
 8631SOL     OW26791   2.994   5.785   6.316
 8631SOL    HW126792   2.939   5.750   6.392
 8631SOL    HW226793   3.084   5.811   6.349
 8632SOL     OW26794   3.030   6.894   4.079
 8632SOL    HW126795   2.942   6.941   4.074
 8632SOL    HW226796   3.034   6.838   4.162
 8633SOL     OW26797   5.087   1.149   5.076
 8633SOL    HW126798   5.169   1.100   5.046
 8633SOL    HW226799   5.023   1.085   5.117
 8634SOL     OW26800   5.544   3.278   0.653
 8634SOL    HW126801   5.546   3.261   0.752
 8634SOL    HW226802   5.596   3.361   0.633
 8635SOL     OW26803   6.167   4.486   6.820
 8635SOL    HW126804   6.221   4.415   6.776
 8635SOL    HW226805   6.227   4.561   6.849
 8636SOL     OW26806   5.235   6.171   0.646
 8636SOL    HW126807   5.207   6.209   0.558
 8636SOL    HW226808   5.319   6.118   0.634
 8637SOL     OW26809   1.890   1.347   0.342
 8637SOL    HW126810   1.828   1.339   0.420
 8637SOL    HW226811   1.863   1.283   0.271
 8638SOL     OW26812   2.205   3.013   6.788
 8638SOL    HW126813   2.287   3.025   6.732
 8638SOL    HW226814   2.129   3.064   6.748
 8639SOL     OW26815   6.079   1.799   1.570
 8639SOL    HW126816   6.080   1.899   1.576
 8639SOL    HW226817   6.036   1.761   1.651
 8640SOL     OW26818   4.415   4.162   0.776
 8640SOL    HW126819   4.355   4.116   0.842
 8640SOL    HW226820   4.361   4.190   0.697
 8641SOL     OW26821   6.690   4.839   4.017
 8641SOL    HW126822   6.756   4.912   4.001
 8641SOL    HW226823   6.611   4.852   3.957
 8642SOL     OW26824   3.309   1.027   2.649
 8642SOL    HW126825   3.356   0.939   2.653
 8642SOL    HW226826   3.211   1.012   2.636
 8643SOL     OW26827   3.967   0.070   7.011
 8643SOL    HW126828   3.938   0.147   0.038
 8643SOL    HW226829   3.913   0.068   6.927
 8644SOL     OW26830   4.648   2.640   5.755
 8644SOL    HW126831   4.687   2.636   5.663
 8644SOL    HW226832   4.610   2.550   5.778
 8645SOL     OW26833   4.821   4.245   1.278
 8645SOL    HW126834   4.784   4.329   1.318
 8645SOL    HW226835   4.909   4.265   1.235
 8646SOL     OW26836   6.525   1.624   1.135
 8646SOL    HW126837   6.521   1.682   1.216
 8646SOL    HW226838   6.516   1.528   1.162
 8647SOL     OW26839   2.825   4.992   6.346
 8647SOL    HW126840   2.881   5.011   6.265
 8647SOL    HW226841   2.826   4.893   6.364
 8648SOL     OW26842   6.102   0.967   3.857
 8648SOL    HW126843   6.026   1.020   3.896
 8648SOL    HW226844   6.161   0.935   3.930
 8649SOL     OW26845   5.525   4.327   7.002
 8649SOL    HW126846   5.604   4.316   6.941
 8649SOL    HW226847   5.546   4.289   0.062
 8650SOL     OW26848   1.430   4.131   6.067
 8650SOL    HW126849   1.378   4.127   6.152
 8650SOL    HW226850   1.495   4.207   6.070
 8651SOL     OW26851   3.608   1.055   0.767
 8651SOL    HW126852   3.546   0.981   0.793
 8651SOL    HW226853   3.697   1.042   0.811
 8652SOL     OW26854   1.490   3.540   3.283
 8652SOL    HW126855   1.417   3.491   3.330
 8652SOL    HW226856   1.494   3.511   3.187
 8653SOL     OW26857   5.801   1.320   6.067
 8653SOL    HW126858   5.855   1.298   6.149
 8653SOL    HW226859   5.855   1.376   6.005
 8654SOL     OW26860   1.229   5.850   1.579
 8654SOL    HW126861   1.132   5.828   1.569
 8654SOL    HW226862   1.247   5.939   1.535
 8655SOL     OW26863   5.957   1.148   4.035
 8655SOL    HW126864   5.975   1.140   4.133
 8655SOL    HW226865   6.005   1.228   3.998
 8656SOL     OW26866   6.306   1.051   0.990
 8656SOL    HW126867   6.290   0.978   0.924
 8656SOL    HW226868   6.222   1.068   1.042
 8657SOL     OW26869   4.649   5.166   6.869
 8657SOL    HW126870   4.645   5.089   6.933
 8657SOL    HW226871   4.702   5.140   6.788
 8658SOL     OW26872   4.463   6.710   6.976
 8658SOL    HW126873   4.381   6.679   7.024
 8658SOL    HW226874   4.446   6.713   6.877
 8659SOL     OW26875   4.149   1.050   3.464
 8659SOL    HW126876   4.166   0.976   3.399
 8659SOL    HW226877   4.057   1.042   3.502
 8660SOL     OW26878   5.230   3.505   0.590
 8660SOL    HW126879   5.310   3.513   0.531
 8660SOL    HW226880   5.253   3.449   0.670
 8661SOL     OW26881   5.994   4.219   1.224
 8661SOL    HW126882   5.904   4.216   1.181
 8661SOL    HW226883   6.064   4.226   1.154
 8662SOL     OW26884   4.698   5.753   1.497
 8662SOL    HW126885   4.773   5.762   1.562
 8662SOL    HW226886   4.634   5.683   1.529
 8663SOL     OW26887   2.853   6.018   1.276
 8663SOL    HW126888   2.846   5.918   1.275
 8663SOL    HW226889   2.888   6.047   1.365
 8664SOL     OW26890   3.146   5.976   1.606
 8664SOL    HW126891   3.225   6.001   1.551
 8664SOL    HW226892   3.175   5.920   1.683
 8665SOL     OW26893   5.768   5.839   5.139
 8665SOL    HW126894   5.805   5.757   5.184
 8665SOL    HW226895   5.819   5.919   5.171
 8666SOL     OW26896   5.043   1.579   4.930
 8666SOL    HW126897   5.036   1.673   4.898
 8666SOL    HW226898   5.131   1.566   4.976
 8667SOL     OW26899   4.735   2.836   3.192
 8667SOL    HW126900   4.651   2.782   3.197
 8667SOL    HW226901   4.814   2.774   3.187
 8668SOL     OW26902   5.828   3.379   3.236
 8668SOL    HW126903   5.735   3.402   3.208
 8668SOL    HW226904   5.849   3.425   3.322
 8669SOL     OW26905   2.463   6.196   0.009
 8669SOL    HW126906   2.371   6.168   7.014
 8669SOL    HW226907   2.480   6.290   7.008
 8670SOL     OW26908   3.565   4.921   5.572
 8670SOL    HW126909   3.477   4.946   5.613
 8670SOL    HW226910   3.628   4.889   5.643
 8671SOL     OW26911   5.772   1.706   2.787
 8671SOL    HW126912   5.860   1.725   2.831
 8671SOL    HW226913   5.758   1.771   2.712
 8672SOL     OW26914   2.214   5.226   3.488
 8672SOL    HW126915   2.157   5.156   3.531
 8672SOL    HW226916   2.214   5.308   3.544
 8673SOL     OW26917   6.598   2.203   6.683
 8673SOL    HW126918   6.682   2.248   6.654
 8673SOL    HW226919   6.522   2.237   6.627
 8674SOL     OW26920   5.804   5.703   1.938
 8674SOL    HW126921   5.833   5.660   2.024
 8674SOL    HW226922   5.800   5.802   1.950
 8675SOL     OW26923   3.621   1.938   5.000
 8675SOL    HW126924   3.693   1.983   5.053
 8675SOL    HW226925   3.533   1.983   5.018
 8676SOL     OW26926   4.232   7.012   2.827
 8676SOL    HW126927   4.328   0.011   2.823
 8676SOL    HW226928   4.174   0.054   2.791
 8677SOL     OW26929   2.501   6.579   5.421
 8677SOL    HW126930   2.452   6.513   5.478
 8677SOL    HW226931   2.590   6.541   5.395
 8678SOL     OW26932   6.980   0.378   1.002
 8678SOL    HW126933   6.907   0.410   0.943
 8678SOL    HW226934   0.031   0.436   0.990
 8679SOL     OW26935   6.421   2.864   4.488
 8679SOL    HW126936   6.498   2.919   4.521
 8679SOL    HW226937   6.359   2.845   4.564
 8680SOL     OW26938   0.905   4.366   1.687
 8680SOL    HW126939   0.887   4.359   1.589
 8680SOL    HW226940   0.916   4.274   1.726
 8681SOL     OW26941   4.873   5.424   6.645
 8681SOL    HW126942   4.926   5.476   6.712
 8681SOL    HW226943   4.905   5.445   6.553
 8682SOL     OW26944   4.648   6.749   1.573
 8682SOL    HW126945   4.615   6.809   1.646
 8682SOL    HW226946   4.710   6.800   1.514
 8683SOL     OW26947   1.560   2.212   2.654
 8683SOL    HW126948   1.604   2.218   2.564
 8683SOL    HW226949   1.575   2.120   2.693
 8684SOL     OW26950   0.725   2.894   4.658
 8684SOL    HW126951   0.799   2.833   4.628
 8684SOL    HW226952   0.726   2.976   4.601
 8685SOL     OW26953   0.637   2.351   5.350
 8685SOL    HW126954   0.729   2.313   5.341
 8685SOL    HW226955   0.580   2.289   5.404
 8686SOL     OW26956   7.009   1.347   1.268
 8686SOL    HW126957   7.004   1.248   1.270
 8686SOL    HW226958   6.952   1.383   1.194
 8687SOL     OW26959   3.807   5.510   2.768
 8687SOL    HW126960   3.865   5.431   2.789
 8687SOL    HW226961   3.721   5.480   2.728
 8688SOL     OW26962   3.220   6.224   6.891
 8688SOL    HW126963   3.152   6.200   6.960
 8688SOL    HW226964   3.291   6.281   6.933
 8689SOL     OW26965   3.069   4.579   1.217
 8689SOL    HW126966   3.165   4.596   1.240
 8689SOL    HW226967   3.014   4.658   1.244
 8690SOL     OW26968   1.885   2.973   3.190
 8690SOL    HW126969   1.835   2.897   3.147
 8690SOL    HW226970   1.875   3.055   3.134
 8691SOL     OW26971   3.513   2.048   6.978
 8691SOL    HW126972   3.537   2.137   6.940
 8691SOL    HW226973   3.587   2.016   0.007
 8692SOL     OW26974   2.937   1.631   3.676
 8692SOL    HW126975   2.838   1.620   3.683
 8692SOL    HW226976   2.961   1.728   3.672
 8693SOL     OW26977   6.457   1.232   0.378
 8693SOL    HW126978   6.464   1.300   0.306
 8693SOL    HW226979   6.453   1.277   0.467
 8694SOL     OW26980   3.506   1.251   4.972
 8694SOL    HW126981   3.468   1.184   4.909
 8694SOL    HW226982   3.435   1.280   5.036
 8695SOL     OW26983   4.284   2.762   5.820
 8695SOL    HW126984   4.350   2.837   5.824
 8695SOL    HW226985   4.308   2.701   5.744
 8696SOL     OW26986   2.295   5.846   0.332
 8696SOL    HW126987   2.373   5.784   0.328
 8696SOL    HW226988   2.249   5.847   0.243
 8697SOL     OW26989   6.549   2.961   0.040
 8697SOL    HW126990   6.586   2.986   6.980
 8697SOL    HW226991   6.493   2.878   0.031
 8698SOL     OW26992   6.053   5.808   4.356
 8698SOL    HW126993   6.093   5.739   4.416
 8698SOL    HW226994   6.088   5.898   4.380
 8699SOL     OW26995   2.205   2.317   5.234
 8699SOL    HW126996   2.244   2.230   5.264
 8699SOL    HW226997   2.164   2.306   5.143
 8700SOL     OW26998   1.468   0.729   4.056
 8700SOL    HW126999   1.506   0.693   4.141
 8700SOL    HW227000   1.540   0.736   3.987
 8701SOL     OW27001   1.745   0.545   0.320
 8701SOL    HW127002   1.660   0.544   0.373
 8701SOL    HW227003   1.793   0.631   0.335
 8702SOL     OW27004   5.622   4.390   0.439
 8702SOL    HW127005   5.641   4.456   0.366
 8702SOL    HW227006   5.601   4.440   0.523
 8703SOL     OW27007   3.245   5.537   1.236
 8703SOL    HW127008   3.195   5.623   1.224
 8703SOL    HW227009   3.249   5.514   1.333
 8704SOL     OW27010   6.709   3.611   3.253
 8704SOL    HW127011   6.754   3.521   3.258
 8704SOL    HW227012   6.771   3.681   3.288
 8705SOL     OW27013   5.260   0.847   0.405
 8705SOL    HW127014   5.338   0.831   0.465
 8705SOL    HW227015   5.271   0.793   0.321
 8706SOL     OW27016   4.599   1.968   6.059
 8706SOL    HW127017   4.660   2.023   6.002
 8706SOL    HW227018   4.579   2.017   6.143
 8707SOL     OW27019   6.422   2.502   6.809
 8707SOL    HW127020   6.483   2.432   6.845
 8707SOL    HW227021   6.353   2.525   6.877
 8708SOL     OW27022   4.077   1.795   2.316
 8708SOL    HW127023   3.984   1.768   2.341
 8708SOL    HW227024   4.135   1.713   2.309
 8709SOL     OW27025   7.005   5.824   6.551
 8709SOL    HW127026   6.951   5.740   6.557
 8709SOL    HW227027   6.972   5.890   6.619
 8710SOL     OW27028   2.149   3.027   3.518
 8710SOL    HW127029   2.161   3.126   3.508
 8710SOL    HW227030   2.149   3.003   3.615
 8711SOL     OW27031   0.947   5.817   2.830
 8711SOL    HW127032   1.002   5.825   2.914
 8711SOL    HW227033   0.993   5.757   2.765
 8712SOL     OW27034   4.206   2.262   4.885
 8712SOL    HW127035   4.274   2.188   4.886
 8712SOL    HW227036   4.212   2.313   4.971
 8713SOL     OW27037   0.683   3.928   3.498
 8713SOL    HW127038   0.724   3.942   3.588
 8713SOL    HW227039   0.612   3.857   3.504
 8714SOL     OW27040   0.949   0.769   6.214
 8714SOL    HW127041   0.860   0.744   6.254
 8714SOL    HW227042   1.021   0.752   6.281
 8715SOL     OW27043   5.110   0.600   0.557
 8715SOL    HW127044   5.122   0.665   0.482
 8715SOL    HW227045   5.031   0.542   0.538
 8716SOL     OW27046   0.918   7.002   0.992
 8716SOL    HW127047   0.836   7.015   1.047
 8716SOL    HW227048   0.933   0.052   0.933
 8717SOL     OW27049   3.735   3.285   3.670
 8717SOL    HW127050   3.813   3.326   3.623
 8717SOL    HW227051   3.742   3.305   3.768
 8718SOL     OW27052   0.282   3.461   4.207
 8718SOL    HW127053   0.379   3.454   4.227
 8718SOL    HW227054   0.246   3.545   4.248
 8719SOL     OW27055   1.946   0.016   6.410
 8719SOL    HW127056   1.969   0.092   6.470
 8719SOL    HW227057   2.021   7.029   6.346
 8720SOL     OW27058   6.403   5.192   5.389
 8720SOL    HW127059   6.372   5.104   5.425
 8720SOL    HW227060   6.436   5.180   5.295
 8721SOL     OW27061   6.573   2.502   3.181
 8721SOL    HW127062   6.654   2.483   3.236
 8721SOL    HW227063   6.519   2.573   3.226
 8722SOL     OW27064   4.202   1.498   6.561
 8722SOL    HW127065   4.224   1.435   6.635
 8722SOL    HW227066   4.152   1.577   6.598
 8723SOL     OW27067   4.691   5.368   1.447
 8723SOL    HW127068   4.616   5.392   1.386
 8723SOL    HW227069   4.676   5.409   1.537
 8724SOL     OW27070   6.010   0.022   6.012
 8724SOL    HW127071   6.041   0.113   5.986
 8724SOL    HW227072   5.926   7.030   5.964
 8725SOL     OW27073   2.141   0.314   7.017
 8725SOL    HW127074   2.169   0.407   6.996
 8725SOL    HW227075   2.172   0.289   0.078
 8726SOL     OW27076   6.123   0.010   1.723
 8726SOL    HW127077   6.094   0.096   1.766
 8726SOL    HW227078   6.192   0.028   1.653
 8727SOL     OW27079   6.765   6.577   1.930
 8727SOL    HW127080   6.746   6.484   1.959
 8727SOL    HW227081   6.765   6.581   1.830
 8728SOL     OW27082   3.997   0.608   4.568
 8728SOL    HW127083   3.947   0.657   4.640
 8728SOL    HW227084   3.932   0.551   4.517
 8729SOL     OW27085   4.782   6.034   3.800
 8729SOL    HW127086   4.751   6.119   3.758
 8729SOL    HW227087   4.844   6.054   3.876
 8730SOL     OW27088   6.313   4.421   2.283
 8730SOL    HW127089   6.331   4.439   2.379
 8730SOL    HW227090   6.322   4.506   2.231
 8731SOL     OW27091   1.598   2.455   2.799
 8731SOL    HW127092   1.651   2.527   2.755
 8731SOL    HW227093   1.579   2.383   2.732
 8732SOL     OW27094   5.691   4.214   1.885
 8732SOL    HW127095   5.719   4.118   1.886
 8732SOL    HW227096   5.757   4.269   1.937
 8733SOL     OW27097   1.920   5.588   2.206
 8733SOL    HW127098   1.823   5.566   2.215
 8733SOL    HW227099   1.975   5.506   2.224
 8734SOL     OW27100   0.831   4.248   2.004
 8734SOL    HW127101   0.915   4.257   2.058
 8734SOL    HW227102   0.840   4.169   1.943
 8735SOL     OW27103   1.157   1.673   6.958
 8735SOL    HW127104   1.105   1.724   6.888
 8735SOL    HW227105   1.250   1.710   6.963
 8736SOL     OW27106   0.732   6.202   5.683
 8736SOL    HW127107   0.731   6.144   5.602
 8736SOL    HW227108   0.698   6.149   5.762
 8737SOL     OW27109   2.378   6.459   5.958
 8737SOL    HW127110   2.415   6.428   6.045
 8737SOL    HW227111   2.287   6.419   5.944
 8738SOL     OW27112   2.245   5.483   4.512
 8738SOL    HW127113   2.290   5.526   4.590
 8738SOL    HW227114   2.176   5.419   4.545
 8739SOL     OW27115   6.210   5.579   6.372
 8739SOL    HW127116   6.292   5.522   6.365
 8739SOL    HW227117   6.130   5.526   6.344
 8740SOL     OW27118   5.046   0.760   5.054
 8740SOL    HW127119   5.036   0.690   5.125
 8740SOL    HW227120   5.053   0.717   4.964
 8741SOL     OW27121   2.649   1.018   1.849
 8741SOL    HW127122   2.679   0.947   1.785
 8741SOL    HW227123   2.586   1.080   1.802
 8742SOL     OW27124   5.755   6.166   1.507
 8742SOL    HW127125   5.834   6.192   1.452
 8742SOL    HW227126   5.702   6.096   1.458
 8743SOL     OW27127   1.711   0.391   2.285
 8743SOL    HW127128   1.642   0.320   2.304
 8743SOL    HW227129   1.781   0.353   2.225
 8744SOL     OW27130   3.707   2.764   5.955
 8744SOL    HW127131   3.795   2.753   5.907
 8744SOL    HW227132   3.690   2.684   6.012
 8745SOL     OW27133   6.428   2.858   6.182
 8745SOL    HW127134   6.526   2.850   6.203
 8745SOL    HW227135   6.416   2.922   6.105
 8746SOL     OW27136   4.861   3.821   5.258
 8746SOL    HW127137   4.818   3.753   5.199
 8746SOL    HW227138   4.946   3.783   5.295
 8747SOL     OW27139   7.012   2.318   2.738
 8747SOL    HW127140   0.072   2.358   2.756
 8747SOL    HW227141   6.941   2.387   2.752
 8748SOL     OW27142   0.532   1.577   5.770
 8748SOL    HW127143   0.610   1.528   5.731
 8748SOL    HW227144   0.449   1.522   5.758
 8749SOL     OW27145   2.513   0.367   6.431
 8749SOL    HW127146   2.437   0.412   6.477
 8749SOL    HW227147   2.502   0.377   6.332
 8750SOL     OW27148   2.987   3.439   5.661
 8750SOL    HW127149   3.034   3.388   5.589
 8750SOL    HW227150   2.888   3.437   5.643
 8751SOL     OW27151   6.510   0.226   2.710
 8751SOL    HW127152   6.469   0.297   2.767
 8751SOL    HW227153   6.465   0.224   2.621
 8752SOL     OW27154   2.704   4.851   0.097
 8752SOL    HW127155   2.772   4.857   0.171
 8752SOL    HW227156   2.717   4.927   0.033
 8753SOL     OW27157   4.924   1.619   5.279
 8753SOL    HW127158   5.016   1.648   5.255
 8753SOL    HW227159   4.913   1.522   5.256
 8754SOL     OW27160   1.245   2.501   4.901
 8754SOL    HW127161   1.199   2.584   4.869
 8754SOL    HW227162   1.344   2.514   4.895
 8755SOL     OW27163   2.461   0.884   6.842
 8755SOL    HW127164   2.421   0.874   6.751
 8755SOL    HW227165   2.503   0.975   6.850
 8756SOL     OW27166   2.149   3.133   3.221
 8756SOL    HW127167   2.173   3.195   3.295
 8756SOL    HW227168   2.165   3.039   3.251
 8757SOL     OW27169   5.222   6.579   5.771
 8757SOL    HW127170   5.151   6.529   5.722
 8757SOL    HW227171   5.218   6.557   5.868
 8758SOL     OW27172   4.699   6.589   1.873
 8758SOL    HW127173   4.751   6.669   1.843
 8758SOL    HW227174   4.601   6.605   1.859
 8759SOL     OW27175   3.821   2.254   0.562
 8759SOL    HW127176   3.799   2.219   0.653
 8759SOL    HW227177   3.790   2.349   0.554
 8760SOL     OW27178   1.523   1.813   5.262
 8760SOL    HW127179   1.458   1.870   5.213
 8760SOL    HW227180   1.535   1.726   5.213
 8761SOL     OW27181   4.608   1.553   1.842
 8761SOL    HW127182   4.618   1.497   1.924
 8761SOL    HW227183   4.548   1.507   1.777
 8762SOL     OW27184   0.679   4.365   2.210
 8762SOL    HW127185   0.670   4.310   2.293
 8762SOL    HW227186   0.714   4.308   2.135
 8763SOL     OW27187   5.889   6.004   5.720
 8763SOL    HW127188   5.943   5.919   5.723
 8763SOL    HW227189   5.897   6.051   5.808
 8764SOL     OW27190   5.131   0.839   4.446
 8764SOL    HW127191   5.138   0.919   4.505
 8764SOL    HW227192   5.174   0.857   4.358
 8765SOL     OW27193   6.492   6.346   5.196
 8765SOL    HW127194   6.482   6.345   5.096
 8765SOL    HW227195   6.558   6.276   5.223
 8766SOL     OW27196   4.199   4.747   3.005
 8766SOL    HW127197   4.183   4.720   3.100
 8766SOL    HW227198   4.212   4.846   3.000
 8767SOL     OW27199   4.117   6.910   3.253
 8767SOL    HW127200   4.193   6.890   3.314
 8767SOL    HW227201   4.101   7.009   3.250
 8768SOL     OW27202   0.890   3.161   0.817
 8768SOL    HW127203   0.951   3.240   0.823
 8768SOL    HW227204   0.910   3.098   0.893
 8769SOL     OW27205   1.834   6.814   4.373
 8769SOL    HW127206   1.837   6.723   4.331
 8769SOL    HW227207   1.792   6.878   4.310
 8770SOL     OW27208   5.655   3.901   1.960
 8770SOL    HW127209   5.646   3.920   2.058
 8770SOL    HW227210   5.752   3.893   1.936
 8771SOL     OW27211   0.650   0.162   5.777
 8771SOL    HW127212   0.553   0.164   5.749
 8771SOL    HW227213   0.656   0.160   5.876
 8772SOL     OW27214   5.626   6.829   6.594
 8772SOL    HW127215   5.590   6.914   6.555
 8772SOL    HW227216   5.711   6.849   6.643
 8773SOL     OW27217   4.549   2.394   4.065
 8773SOL    HW127218   4.485   2.394   3.988
 8773SOL    HW227219   4.502   2.425   4.148
 8774SOL     OW27220   2.207   1.966   0.261
 8774SOL    HW127221   2.285   1.907   0.241
 8774SOL    HW227222   2.138   1.913   0.311
 8775SOL     OW27223   6.566   6.944   5.182
 8775SOL    HW127224   6.486   6.978   5.132
 8775SOL    HW227225   6.649   6.968   5.132
 8776SOL     OW27226   3.524   3.887   4.385
 8776SOL    HW127227   3.445   3.848   4.338
 8776SOL    HW227228   3.606   3.838   4.358
 8777SOL     OW27229   0.389   4.116   1.309
 8777SOL    HW127230   0.372   4.214   1.323
 8777SOL    HW227231   0.372   4.067   1.393
 8778SOL     OW27232   5.907   2.090   4.808
 8778SOL    HW127233   5.934   1.994   4.817
 8778SOL    HW227234   5.941   2.126   4.721
 8779SOL     OW27235   3.007   5.166   2.069
 8779SOL    HW127236   3.002   5.120   1.980
 8779SOL    HW227237   3.040   5.260   2.055
 8780SOL     OW27238   1.186   5.043   3.133
 8780SOL    HW127239   1.153   4.953   3.163
 8780SOL    HW227240   1.112   5.110   3.142
 8781SOL     OW27241   6.429   1.727   3.940
 8781SOL    HW127242   6.507   1.783   3.969
 8781SOL    HW227243   6.358   1.731   4.010
 8782SOL     OW27244   5.129   0.041   2.056
 8782SOL    HW127245   5.078   0.124   2.080
 8782SOL    HW227246   5.071   6.991   2.070
 8783SOL     OW27247   6.590   4.062   3.514
 8783SOL    HW127248   6.674   4.017   3.486
 8783SOL    HW227249   6.519   3.994   3.532
 8784SOL     OW27250   5.932   4.126   6.509
 8784SOL    HW127251   5.952   4.221   6.486
 8784SOL    HW227252   5.870   4.087   6.440
 8785SOL     OW27253   6.922   3.669   6.509
 8785SOL    HW127254   7.008   3.647   6.556
 8785SOL    HW227255   6.854   3.598   6.529
 8786SOL     OW27256   2.460   6.645   0.724
 8786SOL    HW127257   2.543   6.681   0.765
 8786SOL    HW227258   2.412   6.588   0.791
 8787SOL     OW27259   2.142   2.941   2.064
 8787SOL    HW127260   2.073   2.978   2.002
 8787SOL    HW227261   2.159   3.008   2.137
 8788SOL     OW27262   7.026   2.244   5.865
 8788SOL    HW127263   0.083   2.205   5.896
 8788SOL    HW227264   0.014   2.329   5.815
 8789SOL     OW27265   6.259   6.910   5.425
 8789SOL    HW127266   6.209   6.971   5.364
 8789SOL    HW227267   6.204   6.827   5.442
 8790SOL     OW27268   0.026   1.118   6.742
 8790SOL    HW127269   6.991   1.186   6.777
 8790SOL    HW227270   0.118   1.156   6.742
 8791SOL     OW27271   5.607   6.836   4.926
 8791SOL    HW127272   5.582   6.741   4.942
 8791SOL    HW227273   5.702   6.841   4.894
 8792SOL     OW27274   3.498   6.221   3.330
 8792SOL    HW127275   3.454   6.131   3.340
 8792SOL    HW227276   3.429   6.293   3.338
 8793SOL     OW27277   0.866   6.027   3.748
 8793SOL    HW127278   0.835   6.043   3.842
 8793SOL    HW227279   0.890   5.931   3.737
 8794SOL     OW27280   4.527   6.926   1.725
 8794SOL    HW127281   4.442   6.906   1.774
 8794SOL    HW227282   4.597   6.957   1.790
 8795SOL     OW27283   1.197   6.884   4.864
 8795SOL    HW127284   1.146   6.869   4.949
 8795SOL    HW227285   1.293   6.863   4.879
 8796SOL     OW27286   4.405   1.213   4.754
 8796SOL    HW127287   4.401   1.225   4.655
 8796SOL    HW227288   4.500   1.199   4.782
 8797SOL     OW27289   1.178   0.250   5.091
 8797SOL    HW127290   1.120   0.304   5.152
 8797SOL    HW227291   1.266   0.232   5.136
 8798SOL     OW27292   5.019   5.133   5.382
 8798SOL    HW127293   5.037   5.113   5.478
 8798SOL    HW227294   5.056   5.060   5.325
 8799SOL     OW27295   1.854   4.190   3.798
 8799SOL    HW127296   1.833   4.162   3.892
 8799SOL    HW227297   1.876   4.108   3.744
 8800SOL     OW27298   6.213   4.233   5.417
 8800SOL    HW127299   6.201   4.151   5.474
 8800SOL    HW227300   6.202   4.315   5.473
 8801SOL     OW27301   0.935   1.533   4.500
 8801SOL    HW127302   0.933   1.540   4.599
 8801SOL    HW227303   0.973   1.617   4.461
 8802SOL     OW27304   1.640   0.282   0.697
 8802SOL    HW127305   1.562   0.303   0.638
 8802SOL    HW227306   1.722   0.271   0.641
 8803SOL     OW27307   0.240   5.120   5.916
 8803SOL    HW127308   0.166   5.109   5.982
 8803SOL    HW227309   0.242   5.041   5.855
 8804SOL     OW27310   3.706   0.249   1.872
 8804SOL    HW127311   3.759   0.167   1.851
 8804SOL    HW227312   3.633   0.226   1.936
 8805SOL     OW27313   2.537   0.369   4.449
 8805SOL    HW127314   2.514   0.315   4.529
 8805SOL    HW227315   2.531   0.312   4.367
 8806SOL     OW27316   2.503   5.137   1.921
 8806SOL    HW127317   2.418   5.189   1.932
 8806SOL    HW227318   2.530   5.098   2.010
 8807SOL     OW27319   5.943   6.946   6.306
 8807SOL    HW127320   6.005   6.959   6.228
 8807SOL    HW227321   5.861   6.898   6.276
 8808SOL     OW27322   5.487   2.330   0.527
 8808SOL    HW127323   5.404   2.351   0.577
 8808SOL    HW227324   5.479   2.241   0.483
 8809SOL     OW27325   4.709   4.872   3.311
 8809SOL    HW127326   4.711   4.958   3.261
 8809SOL    HW227327   4.693   4.796   3.248
 8810SOL     OW27328   5.654   1.066   6.332
 8810SOL    HW127329   5.578   1.060   6.397
 8810SOL    HW227330   5.738   1.089   6.382
 8811SOL     OW27331   2.740   1.681   4.011
 8811SOL    HW127332   2.725   1.780   4.013
 8811SOL    HW227333   2.798   1.654   4.088
 8812SOL     OW27334   1.919   0.286   1.454
 8812SOL    HW127335   1.905   0.201   1.505
 8812SOL    HW227336   1.843   0.349   1.474
 8813SOL     OW27337   1.507   4.665   1.642
 8813SOL    HW127338   1.438   4.634   1.707
 8813SOL    HW227339   1.507   4.604   1.562
 8814SOL     OW27340   5.865   0.652   0.730
 8814SOL    HW127341   5.824   0.641   0.640
 8814SOL    HW227342   5.800   0.625   0.800
 8815SOL     OW27343   6.580   5.933   0.960
 8815SOL    HW127344   6.593   5.834   0.953
 8815SOL    HW227345   6.482   5.954   0.964
 8816SOL     OW27346   1.679   0.883   0.490
 8816SOL    HW127347   1.661   0.961   0.431
 8816SOL    HW227348   1.758   0.833   0.455
 8817SOL     OW27349   0.910   5.871   5.257
 8817SOL    HW127350   0.854   5.806   5.309
 8817SOL    HW227351   0.856   5.953   5.236
 8818SOL     OW27352   0.508   3.202   4.036
 8818SOL    HW127353   0.505   3.269   4.111
 8818SOL    HW227354   0.557   3.120   4.067
 8819SOL     OW27355   4.811   5.164   4.680
 8819SOL    HW127356   4.772   5.210   4.759
 8819SOL    HW227357   4.901   5.127   4.704
 8820SOL     OW27358   2.314   1.396   5.066
 8820SOL    HW127359   2.260   1.478   5.050
 8820SOL    HW227360   2.257   1.326   5.110
 8821SOL     OW27361   2.890   6.413   0.035
 8821SOL    HW127362   2.926   6.320   0.027
 8821SOL    HW227363   2.941   6.463   0.105
 8822SOL     OW27364   0.678   6.985   4.477
 8822SOL    HW127365   0.721   6.900   4.506
 8822SOL    HW227366   0.747   0.027   4.472
 8823SOL     OW27367   2.362   0.822   0.958
 8823SOL    HW127368   2.317   0.905   0.925
 8823SOL    HW227369   2.387   0.764   0.880
 8824SOL     OW27370   0.870   3.233   1.312
 8824SOL    HW127371   0.881   3.192   1.222
 8824SOL    HW227372   0.953   3.220   1.366
 8825SOL     OW27373   2.042   0.261   3.144
 8825SOL    HW127374   2.100   0.278   3.224
 8825SOL    HW227375   1.975   0.335   3.135
 8826SOL     OW27376   6.662   2.951   0.690
 8826SOL    HW127377   6.703   2.977   0.777
 8826SOL    HW227378   6.709   2.998   0.615
 8827SOL     OW27379   3.527   1.139   2.779
 8827SOL    HW127380   3.431   1.131   2.752
 8827SOL    HW227381   3.535   1.121   2.877
 8828SOL     OW27382   4.653   5.452   5.081
 8828SOL    HW127383   4.654   5.357   5.112
 8828SOL    HW227384   4.562   5.491   5.098
 8829SOL     OW27385   6.955   2.089   0.791
 8829SOL    HW127386   6.913   2.043   0.713
 8829SOL    HW227387   6.924   2.184   0.795
 8830SOL     OW27388   0.057   1.910   1.707
 8830SOL    HW127389   6.992   1.894   1.735
 8830SOL    HW227390   0.061   1.990   1.647
 8831SOL     OW27391   5.555   1.028   3.884
 8831SOL    HW127392   5.487   0.959   3.907
 8831SOL    HW227393   5.607   1.052   3.966
 8832SOL     OW27394   6.956   5.987   2.759
 8832SOL    HW127395   6.876   6.009   2.815
 8832SOL    HW227396   6.929   5.931   2.681
 8833SOL     OW27397   2.367   6.416   5.627
 8833SOL    HW127398   2.408   6.337   5.674
 8833SOL    HW227399   2.307   6.383   5.554
 8834SOL     OW27400   5.291   3.335   4.550
 8834SOL    HW127401   5.325   3.295   4.465
 8834SOL    HW227402   5.279   3.263   4.619
 8835SOL     OW27403   6.027   1.165   5.836
 8835SOL    HW127404   6.035   1.165   5.736
 8835SOL    HW227405   5.990   1.254   5.866
 8836SOL     OW27406   4.326   2.056   6.712
 8836SOL    HW127407   4.382   2.112   6.772
 8836SOL    HW227408   4.250   2.016   6.764
 8837SOL     OW27409   6.942   6.541   3.153
 8837SOL    HW127410   6.933   6.482   3.233
 8837SOL    HW227411   0.001   6.526   3.110
 8838SOL     OW27412   2.688   4.909   2.686
 8838SOL    HW127413   2.741   4.831   2.719
 8838SOL    HW227414   2.612   4.925   2.749
 8839SOL     OW27415   5.548   5.153   2.482
 8839SOL    HW127416   5.611   5.152   2.560
 8839SOL    HW227417   5.600   5.140   2.397
 8840SOL     OW27418   6.801   1.897   1.737
 8840SOL    HW127419   6.797   1.921   1.834
 8840SOL    HW227420   6.709   1.899   1.699
 8841SOL     OW27421   0.872   0.147   5.128
 8841SOL    HW127422   0.952   0.204   5.146
 8841SOL    HW227423   0.791   0.206   5.116
 8842SOL     OW27424   3.133   2.908   1.938
 8842SOL    HW127425   3.173   2.876   1.853
 8842SOL    HW227426   3.063   2.844   1.969
 8843SOL     OW27427   1.861   3.349   5.296
 8843SOL    HW127428   1.832   3.444   5.284
 8843SOL    HW227429   1.791   3.288   5.258
 8844SOL     OW27430   6.017   2.115   6.787
 8844SOL    HW127431   5.942   2.099   6.723
 8844SOL    HW227432   6.104   2.091   6.743
 8845SOL     OW27433   4.689   3.964   6.961
 8845SOL    HW127434   4.598   3.939   6.995
 8845SOL    HW227435   4.741   3.881   6.939
 8846SOL     OW27436   3.336   5.518   3.492
 8846SOL    HW127437   3.304   5.494   3.583
 8846SOL    HW227438   3.262   5.563   3.441
 8847SOL     OW27439   2.840   1.673   2.859
 8847SOL    HW127440   2.826   1.604   2.931
 8847SOL    HW227441   2.932   1.663   2.821
 8848SOL     OW27442   2.460   0.197   1.991
 8848SOL    HW127443   2.520   0.119   2.009
 8848SOL    HW227444   2.367   0.165   1.976
 8849SOL     OW27445   3.688   5.739   2.850
 8849SOL    HW127446   3.716   5.764   2.942
 8849SOL    HW227447   3.723   5.648   2.828
 8850SOL     OW27448   1.313   2.386   0.572
 8850SOL    HW127449   1.360   2.438   0.501
 8850SOL    HW227450   1.242   2.443   0.613
 8851SOL     OW27451   1.520   3.759   2.702
 8851SOL    HW127452   1.498   3.856   2.701
 8851SOL    HW227453   1.563   3.733   2.616
 8852SOL     OW27454   0.605   2.127   4.829
 8852SOL    HW127455   0.690   2.075   4.837
 8852SOL    HW227456   0.601   2.171   4.739
 8853SOL     OW27457   2.817   0.614   1.647
 8853SOL    HW127458   2.823   0.540   1.580
 8853SOL    HW227459   2.909   0.637   1.679
 8854SOL     OW27460   1.885   3.030   5.151
 8854SOL    HW127461   1.984   3.025   5.141
 8854SOL    HW227462   1.842   3.041   5.062
 8855SOL     OW27463   6.753   4.947   1.266
 8855SOL    HW127464   6.824   4.913   1.327
 8855SOL    HW227465   6.728   5.040   1.292
 8856SOL     OW27466   0.819   6.531   6.085
 8856SOL    HW127467   0.866   6.447   6.057
 8856SOL    HW227468   0.799   6.526   6.183
 8857SOL     OW27469   6.586   1.636   4.391
 8857SOL    HW127470   6.518   1.708   4.384
 8857SOL    HW227471   6.649   1.642   4.313
 8858SOL     OW27472   0.122   4.204   4.399
 8858SOL    HW127473   0.097   4.228   4.305
 8858SOL    HW227474   0.117   4.105   4.411
 8859SOL     OW27475   1.202   1.262   3.992
 8859SOL    HW127476   1.118   1.247   4.045
 8859SOL    HW227477   1.245   1.174   3.972
 8860SOL     OW27478   6.810   2.172   1.609
 8860SOL    HW127479   6.837   2.218   1.694
 8860SOL    HW227480   6.716   2.200   1.586
 8861SOL     OW27481   3.886   1.379   6.150
 8861SOL    HW127482   3.926   1.469   6.166
 8861SOL    HW227483   3.935   1.310   6.203
 8862SOL     OW27484   5.705   6.958   3.902
 8862SOL    HW127485   5.756   6.878   3.873
 8862SOL    HW227486   5.703   6.962   4.002
 8863SOL     OW27487   2.493   4.819   3.679
 8863SOL    HW127488   2.495   4.721   3.698
 8863SOL    HW227489   2.550   4.839   3.599
 8864SOL     OW27490   3.486   4.412   6.238
 8864SOL    HW127491   3.434   4.340   6.191
 8864SOL    HW227492   3.518   4.479   6.170
 8865SOL     OW27493   3.327   0.809   4.341
 8865SOL    HW127494   3.340   0.775   4.247
 8865SOL    HW227495   3.229   0.810   4.362
 8866SOL     OW27496   5.801   6.602   2.955
 8866SOL    HW127497   5.824   6.568   2.864
 8866SOL    HW227498   5.873   6.577   3.019
 8867SOL     OW27499   5.743   4.508   3.496
 8867SOL    HW127500   5.782   4.456   3.573
 8867SOL    HW227501   5.804   4.583   3.472
 8868SOL     OW27502   6.657   3.119   2.612
 8868SOL    HW127503   6.694   3.143   2.522
 8868SOL    HW227504   6.719   3.152   2.683
 8869SOL     OW27505   4.286   6.074   5.639
 8869SOL    HW127506   4.208   6.013   5.624
 8869SOL    HW227507   4.348   6.069   5.561
 8870SOL     OW27508   2.274   6.779   2.128
 8870SOL    HW127509   2.249   6.851   2.064
 8870SOL    HW227510   2.281   6.817   2.220
 8871SOL     OW27511   2.249   0.366   3.293
 8871SOL    HW127512   2.330   0.312   3.313
 8871SOL    HW227513   2.265   0.461   3.318
 8872SOL     OW27514   1.136   4.929   5.852
 8872SOL    HW127515   1.059   4.965   5.903
 8872SOL    HW227516   1.216   4.988   5.865
 8873SOL     OW27517   1.988   0.145   2.327
 8873SOL    HW127518   1.944   0.219   2.276
 8873SOL    HW227519   1.932   0.122   2.407
 8874SOL     OW27520   1.689   5.993   2.414
 8874SOL    HW127521   1.668   5.909   2.463
 8874SOL    HW227522   1.630   6.001   2.334
 8875SOL     OW27523   6.855   3.532   4.422
 8875SOL    HW127524   6.911   3.602   4.466
 8875SOL    HW227525   6.763   3.569   4.404
 8876SOL     OW27526   2.640   1.007   6.481
 8876SOL    HW127527   2.725   1.055   6.457
 8876SOL    HW227528   2.651   0.961   6.569
 8877SOL     OW27529   2.132   2.626   3.643
 8877SOL    HW127530   2.033   2.637   3.632
 8877SOL    HW227531   2.180   2.685   3.578
 8878SOL     OW27532   3.270   5.197   1.687
 8878SOL    HW127533   3.254   5.174   1.591
 8878SOL    HW227534   3.363   5.232   1.697
 8879SOL     OW27535   4.909   4.803   2.284
 8879SOL    HW127536   4.886   4.752   2.367
 8879SOL    HW227537   4.858   4.889   2.283
 8880SOL     OW27538   4.084   6.708   5.118
 8880SOL    HW127539   4.126   6.624   5.083
 8880SOL    HW227540   4.065   6.698   5.216
 8881SOL     OW27541   5.309   5.682   4.347
 8881SOL    HW127542   5.290   5.726   4.259
 8881SOL    HW227543   5.271   5.589   4.347
 8882SOL     OW27544   4.481   1.135   1.232
 8882SOL    HW127545   4.574   1.142   1.198
 8882SOL    HW227546   4.449   1.225   1.261
 8883SOL     OW27547   1.684   6.717   6.025
 8883SOL    HW127548   1.623   6.656   5.975
 8883SOL    HW227549   1.645   6.809   6.026
 8884SOL     OW27550   6.209   3.890   5.990
 8884SOL    HW127551   6.224   3.800   5.949
 8884SOL    HW227552   6.297   3.937   5.999
 8885SOL     OW27553   4.688   4.842   1.084
 8885SOL    HW127554   4.619   4.812   1.017
 8885SOL    HW227555   4.776   4.799   1.063
 8886SOL     OW27556   3.444   5.838   6.188
 8886SOL    HW127557   3.417   5.761   6.129
 8886SOL    HW227558   3.537   5.822   6.222
 8887SOL     OW27559   4.207   0.520   0.779
 8887SOL    HW127560   4.215   0.592   0.848
 8887SOL    HW227561   4.148   0.447   0.813
 8888SOL     OW27562   2.055   1.844   4.753
 8888SOL    HW127563   2.045   1.873   4.848
 8888SOL    HW227564   2.144   1.871   4.718
 8889SOL     OW27565   0.050   6.662   6.863
 8889SOL    HW127566   7.020   6.742   6.858
 8889SOL    HW227567   0.081   6.649   6.957
 8890SOL     OW27568   0.794   5.948   6.023
 8890SOL    HW127569   0.862   5.979   6.089
 8890SOL    HW227570   0.729   5.887   6.068
 8891SOL     OW27571   4.018   4.475   0.619
 8891SOL    HW127572   4.038   4.505   0.713
 8891SOL    HW227573   3.960   4.543   0.574
 8892SOL     OW27574   3.432   4.977   3.511
 8892SOL    HW127575   3.496   4.952   3.583
 8892SOL    HW227576   3.344   5.002   3.551
 8893SOL     OW27577   1.242   5.117   4.762
 8893SOL    HW127578   1.272   5.197   4.709
 8893SOL    HW227579   1.146   5.129   4.788
 8894SOL     OW27580   3.214   1.810   6.540
 8894SOL    HW127581   3.230   1.902   6.503
 8894SOL    HW227582   3.164   1.818   6.626
 8895SOL     OW27583   0.022   2.283   1.333
 8895SOL    HW127584   6.974   2.221   1.319
 8895SOL    HW227585   0.102   2.247   1.286
 8896SOL     OW27586   1.863   3.507   4.504
 8896SOL    HW127587   1.913   3.593   4.495
 8896SOL    HW227588   1.924   3.435   4.537
 8897SOL     OW27589   2.130   2.572   3.975
 8897SOL    HW127590   2.138   2.564   3.876
 8897SOL    HW227591   2.220   2.555   4.016
 8898SOL     OW27592   5.432   3.494   2.063
 8898SOL    HW127593   5.505   3.540   2.012
 8898SOL    HW227594   5.413   3.406   2.020
 8899SOL     OW27595   1.504   4.691   0.113
 8899SOL    HW127596   1.560   4.756   0.164
 8899SOL    HW227597   1.564   4.627   0.065
 8900SOL     OW27598   5.112   2.994   3.109
 8900SOL    HW127599   5.028   3.021   3.063
 8900SOL    HW227600   5.099   2.996   3.208
 8901SOL     OW27601   0.533   1.163   4.097
 8901SOL    HW127602   0.574   1.096   4.035
 8901SOL    HW227603   0.602   1.197   4.160
 8902SOL     OW27604   1.320   5.659   0.025
 8902SOL    HW127605   1.407   5.622   0.058
 8902SOL    HW227606   1.312   5.755   0.051
 8903SOL     OW27607   0.698   2.121   4.552
 8903SOL    HW127608   0.689   2.210   4.507
 8903SOL    HW227609   0.795   2.098   4.562
 8904SOL     OW27610   0.659   1.533   4.484
 8904SOL    HW127611   0.589   1.522   4.413
 8904SOL    HW227612   0.749   1.538   4.441
 8905SOL     OW27613   1.966   3.012   2.615
 8905SOL    HW127614   2.060   2.990   2.589
 8905SOL    HW227615   1.954   2.998   2.714
 8906SOL     OW27616   1.346   6.196   1.250
 8906SOL    HW127617   1.444   6.179   1.238
 8906SOL    HW227618   1.299   6.185   1.163
 8907SOL     OW27619   3.323   2.671   5.637
 8907SOL    HW127620   3.381   2.699   5.560
 8907SOL    HW227621   3.244   2.621   5.601
 8908SOL     OW27622   2.012   5.612   0.249
 8908SOL    HW127623   2.049   5.698   0.283
 8908SOL    HW227624   1.935   5.584   0.307
 8909SOL     OW27625   2.870   1.134   6.022
 8909SOL    HW127626   2.787   1.078   6.014
 8909SOL    HW227627   2.949   1.079   5.994
 8910SOL     OW27628   0.498   2.805   5.033
 8910SOL    HW127629   0.591   2.806   4.996
 8910SOL    HW227630   0.434   2.785   4.959
 8911SOL     OW27631   5.103   3.651   5.089
 8911SOL    HW127632   5.012   3.677   5.122
 8911SOL    HW227633   5.113   3.551   5.093
 8912SOL     OW27634   2.285   3.330   6.083
 8912SOL    HW127635   2.192   3.311   6.049
 8912SOL    HW227636   2.285   3.327   6.183
 8913SOL     OW27637   4.245   5.435   6.603
 8913SOL    HW127638   4.345   5.433   6.600
 8913SOL    HW227639   4.214   5.383   6.683
 8914SOL     OW27640   4.840   0.018   4.272
 8914SOL    HW127641   4.881   6.976   4.327
 8914SOL    HW227642   4.742   0.020   4.288
 8915SOL     OW27643   1.255   2.072   4.167
 8915SOL    HW127644   1.256   1.972   4.165
 8915SOL    HW227645   1.349   2.106   4.164
 8916SOL     OW27646   6.903   2.696   0.025
 8916SOL    HW127647   6.876   2.791   0.009
 8916SOL    HW227648   6.927   2.652   6.968
 8917SOL     OW27649   5.394   2.700   1.249
 8917SOL    HW127650   5.331   2.650   1.308
 8917SOL    HW227651   5.371   2.683   1.153
 8918SOL     OW27652   1.095   5.063   0.498
 8918SOL    HW127653   1.082   5.159   0.474
 8918SOL    HW227654   1.007   5.017   0.501
 8919SOL     OW27655   5.077   4.400   6.733
 8919SOL    HW127656   5.153   4.347   6.770
 8919SOL    HW227657   5.000   4.397   6.797
 8920SOL     OW27658   0.237   2.232   0.320
 8920SOL    HW127659   0.154   2.224   0.265
 8920SOL    HW227660   0.296   2.303   0.281
 8921SOL     OW27661   1.556   2.798   2.523
 8921SOL    HW127662   1.610   2.879   2.500
 8921SOL    HW227663   1.614   2.731   2.568
 8922SOL     OW27664   3.856   5.752   2.356
 8922SOL    HW127665   3.883   5.836   2.310
 8922SOL    HW227666   3.937   5.700   2.382
 8923SOL     OW27667   1.716   1.095   6.827
 8923SOL    HW127668   1.750   1.053   6.911
 8923SOL    HW227669   1.712   1.026   6.755
 8924SOL     OW27670   4.062   5.498   5.309
 8924SOL    HW127671   4.084   5.476   5.214
 8924SOL    HW227672   3.975   5.455   5.334
 8925SOL     OW27673   0.371   0.998   2.595
 8925SOL    HW127674   0.431   1.072   2.564
 8925SOL    HW227675   0.390   0.915   2.542
 8926SOL     OW27676   0.023   3.158   5.138
 8926SOL    HW127677   0.024   3.080   5.201
 8926SOL    HW227678   0.097   3.221   5.162
 8927SOL     OW27679   6.361   1.438   4.396
 8927SOL    HW127680   6.451   1.473   4.421
 8927SOL    HW227681   6.362   1.338   4.401
 8928SOL     OW27682   1.456   0.336   6.184
 8928SOL    HW127683   1.422   0.406   6.246
 8928SOL    HW227684   1.547   0.306   6.214
 8929SOL     OW27685   5.848   2.034   5.537
 8929SOL    HW127686   5.925   2.056   5.478
 8929SOL    HW227687   5.853   2.089   5.620
 8930SOL     OW27688   0.806   2.666   3.248
 8930SOL    HW127689   0.804   2.592   3.181
 8930SOL    HW227690   0.870   2.644   3.322
 8931SOL     OW27691   3.059   3.909   1.444
 8931SOL    HW127692   3.048   3.817   1.484
 8931SOL    HW227693   3.012   3.912   1.356
 8932SOL     OW27694   6.198   2.130   2.286
 8932SOL    HW127695   6.256   2.134   2.367
 8932SOL    HW227696   6.255   2.119   2.205
 8933SOL     OW27697   2.621   2.588   6.372
 8933SOL    HW127698   2.579   2.632   6.292
 8933SOL    HW227699   2.649   2.495   6.347
 8934SOL     OW27700   2.801   5.176   4.852
 8934SOL    HW127701   2.843   5.113   4.917
 8934SOL    HW227702   2.791   5.130   4.763
 8935SOL     OW27703   0.355   4.327   0.307
 8935SOL    HW127704   0.285   4.297   0.373
 8935SOL    HW227705   0.319   4.318   0.214
 8936SOL     OW27706   1.866   4.140   1.662
 8936SOL    HW127707   1.857   4.067   1.594
 8936SOL    HW227708   1.815   4.115   1.745
 8937SOL     OW27709   0.253   0.457   5.636
 8937SOL    HW127710   0.171   0.435   5.583
 8937SOL    HW227711   0.270   0.384   5.703
 8938SOL     OW27712   0.250   5.652   1.010
 8938SOL    HW127713   0.312   5.589   1.055
 8938SOL    HW227714   0.155   5.624   1.028
 8939SOL     OW27715   4.731   2.902   4.085
 8939SOL    HW127716   4.741   2.841   4.164
 8939SOL    HW227717   4.665   2.863   4.021
 8940SOL     OW27718   0.105   1.131   2.997
 8940SOL    HW127719   0.200   1.151   2.972
 8940SOL    HW227720   0.057   1.092   2.919
 8941SOL     OW27721   6.193   2.670   5.491
 8941SOL    HW127722   6.214   2.696   5.585
 8941SOL    HW227723   6.096   2.682   5.473
 8942SOL     OW27724   6.699   4.575   5.138
 8942SOL    HW127725   6.679   4.605   5.231
 8942SOL    HW227726   6.783   4.620   5.106
 8943SOL     OW27727   3.838   4.588   6.361
 8943SOL    HW127728   3.742   4.603   6.384
 8943SOL    HW227729   3.896   4.631   6.431
 8944SOL     OW27730   5.536   4.741   5.371
 8944SOL    HW127731   5.553   4.756   5.468
 8944SOL    HW227732   5.439   4.718   5.357
 8945SOL     OW27733   1.122   0.614   3.285
 8945SOL    HW127734   1.060   0.646   3.214
 8945SOL    HW227735   1.078   0.621   3.374
 8946SOL     OW27736   3.011   0.975   5.325
 8946SOL    HW127737   2.988   0.951   5.231
 8946SOL    HW227738   3.016   1.075   5.334
 8947SOL     OW27739   2.127   3.544   4.668
 8947SOL    HW127740   2.154   3.638   4.646
 8947SOL    HW227741   2.125   3.532   4.768
 8948SOL     OW27742   6.668   6.724   4.190
 8948SOL    HW127743   6.644   6.689   4.280
 8948SOL    HW227744   6.741   6.792   4.198
 8949SOL     OW27745   2.641   6.922   1.168
 8949SOL    HW127746   2.563   6.965   1.124
 8949SOL    HW227747   2.625   6.824   1.178
 8950SOL     OW27748   4.751   3.792   6.316
 8950SOL    HW127749   4.724   3.835   6.402
 8950SOL    HW227750   4.773   3.863   6.249
 8951SOL     OW27751   0.427   1.971   5.260
 8951SOL    HW127752   0.335   1.957   5.224
 8951SOL    HW227753   0.494   1.928   5.198
 8952SOL     OW27754   1.461   6.820   2.501
 8952SOL    HW127755   1.460   6.731   2.545
 8952SOL    HW227756   1.422   6.889   2.563
 8953SOL     OW27757   1.222   4.172   6.559
 8953SOL    HW127758   1.158   4.096   6.570
 8953SOL    HW227759   1.294   4.165   6.628
 8954SOL     OW27760   1.348   0.008   5.954
 8954SOL    HW127761   1.367   6.951   5.908
 8954SOL    HW227762   1.249   0.017   5.968
 8955SOL     OW27763   0.586   5.168   2.462
 8955SOL    HW127764   0.650   5.179   2.538
 8955SOL    HW227765   0.537   5.081   2.473
 8956SOL     OW27766   0.771   1.639   6.746
 8956SOL    HW127767   0.799   1.724   6.701
 8956SOL    HW227768   0.737   1.659   6.838
 8957SOL     OW27769   2.893   4.244   1.709
 8957SOL    HW127770   2.855   4.313   1.771
 8957SOL    HW227771   2.955   4.288   1.643
 8958SOL     OW27772   0.340   0.298   4.750
 8958SOL    HW127773   0.362   0.223   4.688
 8958SOL    HW227774   0.294   0.371   4.699
 8959SOL     OW27775   1.293   4.584   1.810
 8959SOL    HW127776   1.285   4.510   1.877
 8959SOL    HW227777   1.275   4.671   1.855
 8960SOL     OW27778   4.671   5.579   2.864
 8960SOL    HW127779   4.594   5.635   2.894
 8960SOL    HW227780   4.639   5.486   2.844
 8961SOL     OW27781   2.792   2.077   4.454
 8961SOL    HW127782   2.815   2.008   4.386
 8961SOL    HW227783   2.773   2.034   4.542
 8962SOL     OW27784   6.657   6.656   2.186
 8962SOL    HW127785   6.589   6.584   2.170
 8962SOL    HW227786   6.688   6.693   2.098
 8963SOL     OW27787   5.051   6.732   4.004
 8963SOL    HW127788   4.980   6.737   3.934
 8963SOL    HW227789   5.141   6.740   3.960
 8964SOL     OW27790   5.132   3.455   3.392
 8964SOL    HW127791   5.049   3.407   3.422
 8964SOL    HW227792   5.144   3.537   3.448
 8965SOL     OW27793   2.392   4.771   0.574
 8965SOL    HW127794   2.488   4.745   0.562
 8965SOL    HW227795   2.363   4.828   0.497
 8966SOL     OW27796   0.261   4.230   5.795
 8966SOL    HW127797   0.203   4.260   5.719
 8966SOL    HW227798   0.205   4.191   5.867
 8967SOL     OW27799   3.510   6.807   2.111
 8967SOL    HW127800   3.451   6.887   2.102
 8967SOL    HW227801   3.537   6.797   2.207
 8968SOL     OW27802   5.245   4.967   3.034
 8968SOL    HW127803   5.178   5.013   3.093
 8968SOL    HW227804   5.246   4.869   3.054
 8969SOL     OW27805   6.969   0.926   4.273
 8969SOL    HW127806   6.949   0.991   4.200
 8969SOL    HW227807   0.038   0.914   4.280
 8970SOL     OW27808   2.499   3.099   0.034
 8970SOL    HW127809   2.468   3.176   7.007
 8970SOL    HW227810   2.422   3.063   0.086
 8971SOL     OW27811   5.061   5.126   2.540
 8971SOL    HW127812   5.098   5.107   2.449
 8971SOL    HW227813   4.981   5.187   2.531
 8972SOL     OW27814   4.846   4.446   6.882
 8972SOL    HW127815   4.767   4.453   6.821
 8972SOL    HW227816   4.844   4.521   6.948
 8973SOL     OW27817   1.086   3.421   2.214
 8973SOL    HW127818   1.182   3.447   2.212
 8973SOL    HW227819   1.075   3.337   2.268
 8974SOL     OW27820   1.519   4.742   5.555
 8974SOL    HW127821   1.576   4.684   5.497
 8974SOL    HW227822   1.554   4.741   5.648
 8975SOL     OW27823   2.280   0.406   6.585
 8975SOL    HW127824   2.249   0.311   6.577
 8975SOL    HW227825   2.215   0.457   6.642
 8976SOL     OW27826   0.102   4.793   4.955
 8976SOL    HW127827   0.144   4.816   5.043
 8976SOL    HW227828   0.020   4.738   4.970
 8977SOL     OW27829   5.420   2.004   6.983
 8977SOL    HW127830   5.391   2.041   6.895
 8977SOL    HW227831   5.339   1.977   0.006
 8978SOL     OW27832   5.696   0.043   5.948
 8978SOL    HW127833   5.650   6.986   5.968
 8978SOL    HW227834   5.710   0.051   5.849
 8979SOL     OW27835   1.199   3.018   4.681
 8979SOL    HW127836   1.254   2.946   4.637
 8979SOL    HW227837   1.136   3.057   4.614
 8980SOL     OW27838   2.357   2.915   5.395
 8980SOL    HW127839   2.363   2.815   5.408
 8980SOL    HW227840   2.400   2.939   5.308
 8981SOL     OW27841   4.523   2.097   5.370
 8981SOL    HW127842   4.519   2.086   5.469
 8981SOL    HW227843   4.604   2.051   5.334
 8982SOL     OW27844   1.476   2.085   0.691
 8982SOL    HW127845   1.541   2.158   0.670
 8982SOL    HW227846   1.392   2.126   0.728
 8983SOL     OW27847   1.875   6.133   7.021
 8983SOL    HW127848   1.791   6.079   7.027
 8983SOL    HW227849   1.933   6.112   0.069
 8984SOL     OW27850   0.529   0.366   4.357
 8984SOL    HW127851   0.599   0.348   4.288
 8984SOL    HW227852   0.453   0.417   4.317
 8985SOL     OW27853   2.614   3.512   0.881
 8985SOL    HW127854   2.692   3.571   0.902
 8985SOL    HW227855   2.607   3.440   0.950
 8986SOL     OW27856   4.759   5.339   2.425
 8986SOL    HW127857   4.771   5.241   2.410
 8986SOL    HW227858   4.663   5.359   2.443
 8987SOL     OW27859   4.599   0.180   1.240
 8987SOL    HW127860   4.550   0.149   1.158
 8987SOL    HW227861   4.581   0.118   1.315
 8988SOL     OW27862   1.333   3.878   4.984
 8988SOL    HW127863   1.385   3.960   5.011
 8988SOL    HW227864   1.344   3.862   4.886
 8989SOL     OW27865   4.849   3.791   0.542
 8989SOL    HW127866   4.866   3.830   0.452
 8989SOL    HW227867   4.927   3.736   0.570
 8990SOL     OW27868   1.703   5.903   4.226
 8990SOL    HW127869   1.779   5.904   4.161
 8990SOL    HW227870   1.623   5.861   4.184
 8991SOL     OW27871   1.753   2.504   5.382
 8991SOL    HW127872   1.749   2.406   5.363
 8991SOL    HW227873   1.661   2.544   5.375
 8992SOL     OW27874   5.378   1.379   0.151
 8992SOL    HW127875   5.377   1.285   0.185
 8992SOL    HW227876   5.467   1.421   0.172
 8993SOL     OW27877   5.577   2.130   1.700
 8993SOL    HW127878   5.599   2.134   1.797
 8993SOL    HW227879   5.552   2.036   1.676
 8994SOL     OW27880   0.944   4.088   4.606
 8994SOL    HW127881   0.945   4.188   4.602
 8994SOL    HW227882   0.850   4.055   4.597
 8995SOL     OW27883   1.376   2.461   0.099
 8995SOL    HW127884   1.444   2.535   0.096
 8995SOL    HW227885   1.288   2.496   0.067
 8996SOL     OW27886   5.496   5.142   0.385
 8996SOL    HW127887   5.523   5.187   0.470
 8996SOL    HW227888   5.444   5.206   0.329
 8997SOL     OW27889   5.246   1.572   6.197
 8997SOL    HW127890   5.318   1.542   6.135
 8997SOL    HW227891   5.248   1.516   6.280
 8998SOL     OW27892   5.942   3.282   3.819
 8998SOL    HW127893   6.015   3.229   3.862
 8998SOL    HW227894   5.869   3.222   3.790
 8999SOL     OW27895   4.446   5.976   6.461
 8999SOL    HW127896   4.350   5.993   6.483
 8999SOL    HW227897   4.474   6.033   6.384
 9000SOL     OW27898   1.474   3.625   1.330
 9000SOL    HW127899   1.413   3.652   1.256
 9000SOL    HW227900   1.438   3.657   1.418
 9001SOL     OW27901   1.193   5.600   2.313
 9001SOL    HW127902   1.103   5.579   2.352
 9001SOL    HW227903   1.234   5.515   2.279
 9002SOL     OW27904   1.056   5.108   5.071
 9002SOL    HW127905   1.095   5.200   5.076
 9002SOL    HW227906   1.125   5.041   5.099
 9003SOL     OW27907   5.803   3.326   2.067
 9003SOL    HW127908   5.893   3.334   2.026
 9003SOL    HW227909   5.805   3.257   2.139
 9004SOL     OW27910   4.279   6.142   1.718
 9004SOL    HW127911   4.243   6.234   1.735
 9004SOL    HW227912   4.347   6.146   1.645
 9005SOL     OW27913   5.651   2.399   4.677
 9005SOL    HW127914   5.750   2.397   4.668
 9005SOL    HW227915   5.625   2.475   4.736
 9006SOL     OW27916   2.483   5.575   1.267
 9006SOL    HW127917   2.477   5.476   1.280
 9006SOL    HW227918   2.474   5.596   1.170
 9007SOL     OW27919   3.293   0.783   3.813
 9007SOL    HW127920   3.251   0.862   3.858
 9007SOL    HW227921   3.253   0.773   3.722
 9008SOL     OW27922   1.391   5.771   3.835
 9008SOL    HW127923   1.411   5.755   3.738
 9008SOL    HW227924   1.352   5.688   3.875
 9009SOL     OW27925   2.995   6.755   0.588
 9009SOL    HW127926   2.915   6.781   0.642
 9009SOL    HW227927   2.979   6.667   0.544
 9010SOL     OW27928   1.572   6.568   4.098
 9010SOL    HW127929   1.582   6.469   4.094
 9010SOL    HW227930   1.639   6.607   4.161
 9011SOL     OW27931   4.989   1.652   1.841
 9011SOL    HW127932   4.949   1.575   1.791
 9011SOL    HW227933   4.917   1.700   1.891
 9012SOL     OW27934   1.988   4.094   0.478
 9012SOL    HW127935   1.926   4.151   0.425
 9012SOL    HW227936   2.042   4.037   0.416
 9013SOL     OW27937   0.468   6.697   5.569
 9013SOL    HW127938   0.528   6.758   5.517
 9013SOL    HW227939   0.373   6.723   5.552
 9014SOL     OW27940   6.637   2.089   0.408
 9014SOL    HW127941   6.698   2.147   0.353
 9014SOL    HW227942   6.544   2.126   0.403
 9015SOL     OW27943   4.234   1.946   1.747
 9015SOL    HW127944   4.305   2.011   1.721
 9015SOL    HW227945   4.219   1.949   1.845
 9016SOL     OW27946   0.287   6.931   6.471
 9016SOL    HW127947   0.371   6.899   6.427
 9016SOL    HW227948   0.226   6.853   6.486
 9017SOL     OW27949   4.324   2.128   3.792
 9017SOL    HW127950   4.308   2.034   3.763
 9017SOL    HW227951   4.418   2.137   3.825
 9018SOL     OW27952   3.424   2.994   6.886
 9018SOL    HW127953   3.391   2.923   6.947
 9018SOL    HW227954   3.358   3.069   6.884
 9019SOL     OW27955   1.422   5.791   2.285
 9019SOL    HW127956   1.326   5.767   2.295
 9019SOL    HW227957   1.432   5.872   2.228
 9020SOL     OW27958   7.000   3.650   0.498
 9020SOL    HW127959   0.025   3.634   0.580
 9020SOL    HW227960   6.923   3.586   0.497
 9021SOL     OW27961   0.220   0.268   3.803
 9021SOL    HW127962   0.210   0.324   3.721
 9021SOL    HW227963   0.130   0.240   3.836
 9022SOL     OW27964   3.657   1.561   6.739
 9022SOL    HW127965   3.604   1.574   6.656
 9022SOL    HW227966   3.629   1.629   6.807
 9023SOL     OW27967   3.416   2.870   2.385
 9023SOL    HW127968   3.356   2.950   2.381
 9023SOL    HW227969   3.361   2.787   2.378
 9024SOL     OW27970   0.859   4.059   4.966
 9024SOL    HW127971   0.874   4.153   4.998
 9024SOL    HW227972   0.767   4.052   4.926
 9025SOL     OW27973   1.001   5.388   0.899
 9025SOL    HW127974   0.924   5.443   0.929
 9025SOL    HW227975   1.085   5.424   0.937
 9026SOL     OW27976   4.010   2.662   0.598
 9026SOL    HW127977   3.922   2.678   0.643
 9026SOL    HW227978   4.067   2.606   0.657
 9027SOL     OW27979   1.649   2.172   3.412
 9027SOL    HW127980   1.639   2.239   3.338
 9027SOL    HW227981   1.588   2.094   3.395
 9028SOL     OW27982   2.830   3.580   5.305
 9028SOL    HW127983   2.791   3.525   5.379
 9028SOL    HW227984   2.821   3.677   5.328
 9029SOL     OW27985   4.071   0.095   4.905
 9029SOL    HW127986   4.107   0.043   4.982
 9029SOL    HW227987   4.137   0.092   4.829
 9030SOL     OW27988   2.927   1.465   3.885
 9030SOL    HW127989   2.956   1.521   3.807
 9030SOL    HW227990   2.843   1.503   3.924
 9031SOL     OW27991   4.475   6.494   4.388
 9031SOL    HW127992   4.465   6.395   4.377
 9031SOL    HW227993   4.386   6.538   4.380
 9032SOL     OW27994   3.769   3.423   0.946
 9032SOL    HW127995   3.682   3.372   0.945
 9032SOL    HW227996   3.792   3.448   1.040
 9033SOL     OW27997   0.098   4.175   2.963
 9033SOL    HW127998   0.141   4.137   2.881
 9033SOL    HW227999   0.048   4.258   2.939
 9034SOL     OW28000   2.864   6.621   4.899
 9034SOL    HW128001   2.789   6.592   4.958
 9034SOL    HW228002   2.886   6.546   4.836
 9035SOL     OW28003   2.420   4.732   0.045
 9035SOL    HW128004   2.400   4.763   0.138
 9035SOL    HW228005   2.513   4.760   0.020
 9036SOL     OW28006   1.943   2.051   5.439
 9036SOL    HW128007   1.893   2.138   5.438
 9036SOL    HW228008   2.018   2.057   5.505
 9037SOL     OW28009   1.154   3.903   4.728
 9037SOL    HW128010   1.094   3.840   4.776
 9037SOL    HW228011   1.099   3.961   4.667
 9038SOL     OW28012   3.955   0.787   6.031
 9038SOL    HW128013   3.948   0.811   5.934
 9038SOL    HW228014   3.924   0.864   6.087
 9039SOL     OW28015   2.303   5.929   5.690
 9039SOL    HW128016   2.329   5.905   5.784
 9039SOL    HW228017   2.213   5.890   5.669
 9040SOL     OW28018   3.629   2.080   2.795
 9040SOL    HW128019   3.550   2.085   2.734
 9040SOL    HW228020   3.711   2.112   2.747
 9041SOL     OW28021   1.278   2.013   1.683
 9041SOL    HW128022   1.264   2.106   1.648
 9041SOL    HW228023   1.329   1.960   1.616
 9042SOL     OW28024   3.976   6.709   5.383
 9042SOL    HW128025   4.067   6.717   5.422
 9042SOL    HW228026   3.921   6.647   5.438
 9043SOL     OW28027   1.080   0.136   7.022
 9043SOL    HW128028   1.100   0.075   0.068
 9043SOL    HW228029   1.066   0.082   6.939
 9044SOL     OW28030   6.099   0.137   0.298
 9044SOL    HW128031   6.129   0.233   0.296
 9044SOL    HW228032   6.057   0.117   0.387
 9045SOL     OW28033   2.593   1.658   2.752
 9045SOL    HW128034   2.689   1.669   2.778
 9045SOL    HW228035   2.536   1.712   2.814
 9046SOL     OW28036   3.350   3.792   2.865
 9046SOL    HW128037   3.324   3.703   2.903
 9046SOL    HW228038   3.446   3.811   2.886
 9047SOL     OW28039   2.034   4.122   5.081
 9047SOL    HW128040   1.996   4.150   4.993
 9047SOL    HW228041   2.129   4.095   5.069
 9048SOL     OW28042   5.887   3.528   5.802
 9048SOL    HW128043   5.812   3.574   5.756
 9048SOL    HW228044   5.910   3.444   5.752
 9049SOL     OW28045   3.555   6.542   5.891
 9049SOL    HW128046   3.525   6.446   5.895
 9049SOL    HW228047   3.475   6.601   5.884
 9050SOL     OW28048   0.660   2.936   0.988
 9050SOL    HW128049   0.593   2.888   0.931
 9050SOL    HW228050   0.613   3.007   1.041
 9051SOL     OW28051   4.164   6.907   1.280
 9051SOL    HW128052   4.143   6.965   1.358
 9051SOL    HW228053   4.081   6.891   1.227
 9052SOL     OW28054   2.559   2.282   3.954
 9052SOL    HW128055   2.547   2.215   3.881
 9052SOL    HW228056   2.605   2.239   4.032
 9053SOL     OW28057   1.792   0.941   2.842
 9053SOL    HW128058   1.746   0.940   2.753
 9053SOL    HW228059   1.884   0.978   2.832
 9054SOL     OW28060   2.952   5.939   3.691
 9054SOL    HW128061   2.883   5.966   3.623
 9054SOL    HW228062   3.040   5.980   3.666
 9055SOL     OW28063   6.165   2.793   4.677
 9055SOL    HW128064   6.088   2.838   4.630
 9055SOL    HW228065   6.153   2.803   4.776
 9056SOL     OW28066   0.652   2.331   1.775
 9056SOL    HW128067   0.713   2.378   1.711
 9056SOL    HW228068   0.558   2.361   1.759
 9057SOL     OW28069   4.783   3.357   6.214
 9057SOL    HW128070   4.812   3.452   6.224
 9057SOL    HW228071   4.833   3.300   6.279
 9058SOL     OW28072   2.121   1.084   1.766
 9058SOL    HW128073   2.025   1.060   1.782
 9058SOL    HW228074   2.162   1.118   1.851
 9059SOL     OW28075   1.360   1.501   3.416
 9059SOL    HW128076   1.336   1.561   3.339
 9059SOL    HW228077   1.325   1.540   3.501
 9060SOL     OW28078   6.433   2.826   4.142
 9060SOL    HW128079   6.378   2.810   4.224
 9060SOL    HW228080   6.428   2.747   4.081
 9061SOL     OW28081   2.002   5.546   1.907
 9061SOL    HW128082   2.051   5.478   1.962
 9061SOL    HW228083   1.994   5.631   1.957
 9062SOL     OW28084   1.620   6.451   2.049
 9062SOL    HW128085   1.597   6.465   2.146
 9062SOL    HW228086   1.647   6.538   2.008
 9063SOL     OW28087   3.493   0.496   3.951
 9063SOL    HW128088   3.485   0.504   3.852
 9063SOL    HW228089   3.552   0.418   3.973
 9064SOL     OW28090   6.183   2.545   5.947
 9064SOL    HW128091   6.096   2.594   5.946
 9064SOL    HW228092   6.250   2.595   5.893
 9065SOL     OW28093   4.148   0.678   6.341
 9065SOL    HW128094   4.082   0.603   6.332
 9065SOL    HW228095   4.101   0.766   6.330
 9066SOL     OW28096   5.278   6.529   0.678
 9066SOL    HW128097   5.263   6.567   0.586
 9066SOL    HW228098   5.368   6.485   0.681
 9067SOL     OW28099   1.052   0.544   4.452
 9067SOL    HW128100   0.966   0.518   4.497
 9067SOL    HW228101   1.096   0.463   4.415
 9068SOL     OW28102   2.408   6.082   4.414
 9068SOL    HW128103   2.490   6.140   4.413
 9068SOL    HW228104   2.415   6.015   4.488
 9069SOL     OW28105   1.439   3.080   1.457
 9069SOL    HW128106   1.429   3.179   1.442
 9069SOL    HW228107   1.494   3.064   1.538
 9070SOL     OW28108   1.417   3.140   4.818
 9070SOL    HW128109   1.476   3.212   4.782
 9070SOL    HW228110   1.343   3.122   4.753
 9071SOL     OW28111   6.320   6.793   1.517
 9071SOL    HW128112   6.228   6.785   1.554
 9071SOL    HW228113   6.348   6.889   1.517
 9072SOL     OW28114   0.207   2.210   1.118
 9072SOL    HW128115   0.139   2.138   1.106
 9072SOL    HW228116   0.298   2.172   1.102
 9073SOL     OW28117   2.767   6.919   2.685
 9073SOL    HW128118   2.696   6.860   2.646
 9073SOL    HW228119   2.857   6.879   2.669
 9074SOL     OW28120   1.297   1.223   1.566
 9074SOL    HW128121   1.284   1.216   1.467
 9074SOL    HW228122   1.270   1.314   1.597
 9075SOL     OW28123   7.017   0.900   2.169
 9075SOL    HW128124   6.997   0.955   2.088
 9075SOL    HW228125   6.991   0.951   2.251
 9076SOL     OW28126   0.037   2.505   5.732
 9076SOL    HW128127   6.994   2.557   5.777
 9076SOL    HW228128   0.090   2.567   5.673
 9077SOL     OW28129   4.971   0.324   0.216
 9077SOL    HW128130   5.036   0.392   0.250
 9077SOL    HW228131   4.894   0.371   0.173
 9078SOL     OW28132   3.625   3.427   5.084
 9078SOL    HW128133   3.691   3.362   5.047
 9078SOL    HW228134   3.610   3.500   5.017
 9079SOL     OW28135   2.562   0.698   4.102
 9079SOL    HW128136   2.547   0.713   4.199
 9079SOL    HW228137   2.557   0.786   4.054
 9080SOL     OW28138   4.934   2.819   6.147
 9080SOL    HW128139   4.871   2.879   6.097
 9080SOL    HW228140   4.895   2.797   6.236
 9081SOL     OW28141   3.879   0.359   2.364
 9081SOL    HW128142   3.836   0.370   2.274
 9081SOL    HW228143   3.964   0.306   2.354
 9082SOL     OW28144   2.205   0.161   5.541
 9082SOL    HW128145   2.167   0.236   5.595
 9082SOL    HW228146   2.150   0.148   5.459
 9083SOL     OW28147   3.570   5.287   6.062
 9083SOL    HW128148   3.648   5.330   6.108
 9083SOL    HW228149   3.511   5.244   6.130
 9084SOL     OW28150   3.502   3.638   3.138
 9084SOL    HW128151   3.524   3.719   3.084
 9084SOL    HW228152   3.411   3.649   3.179
 9085SOL     OW28153   2.494   0.250   1.501
 9085SOL    HW128154   2.533   0.222   1.588
 9085SOL    HW228155   2.528   0.341   1.477
 9086SOL     OW28156   0.606   4.364   0.162
 9086SOL    HW128157   0.524   4.356   0.220
 9086SOL    HW228158   0.672   4.425   0.206
 9087SOL     OW28159   4.951   2.226   1.601
 9087SOL    HW128160   4.904   2.299   1.651
 9087SOL    HW228161   4.887   2.151   1.584
 9088SOL     OW28162   6.909   0.026   1.364
 9088SOL    HW128163   6.908   0.111   1.311
 9088SOL    HW228164   6.981   6.996   1.330
 9089SOL     OW28165   5.488   5.829   5.564
 9089SOL    HW128166   5.407   5.872   5.605
 9089SOL    HW228167   5.511   5.746   5.615
 9090SOL     OW28168   6.052   0.752   4.802
 9090SOL    HW128169   6.035   0.798   4.889
 9090SOL    HW228170   6.129   0.795   4.756
 9091SOL     OW28171   2.808   4.093   0.226
 9091SOL    HW128172   2.838   4.185   0.249
 9091SOL    HW228173   2.874   4.026   0.261
 9092SOL     OW28174   6.351   0.996   6.951
 9092SOL    HW128175   6.402   1.036   7.027
 9092SOL    HW228176   6.403   1.006   6.867
 9093SOL     OW28177   1.447   5.845   5.461
 9093SOL    HW128178   1.525   5.802   5.414
 9093SOL    HW228179   1.420   5.927   5.412
 9094SOL     OW28180   5.930   4.502   2.897
 9094SOL    HW128181   6.000   4.486   2.828
 9094SOL    HW228182   5.941   4.437   2.972
 9095SOL     OW28183   4.938   4.993   6.430
 9095SOL    HW128184   5.000   4.916   6.443
 9095SOL    HW228185   4.844   4.959   6.418
 9096SOL     OW28186   6.694   5.025   2.872
 9096SOL    HW128187   6.735   5.104   2.918
 9096SOL    HW228188   6.751   4.945   2.888
 9097SOL     OW28189   2.101   2.068   0.655
 9097SOL    HW128190   2.006   2.078   0.628
 9097SOL    HW228191   2.117   1.975   0.688
 9098SOL     OW28192   3.051   1.946   4.915
 9098SOL    HW128193   3.065   1.943   5.014
 9098SOL    HW228194   3.045   2.042   4.886
 9099SOL     OW28195   2.622   3.007   5.792
 9099SOL    HW128196   2.581   3.068   5.861
 9099SOL    HW228197   2.672   3.062   5.725
 9100SOL     OW28198   0.690   3.288   3.029
 9100SOL    HW128199   0.787   3.306   3.014
 9100SOL    HW228200   0.680   3.220   3.101
 9101SOL     OW28201   2.635   2.021   2.117
 9101SOL    HW128202   2.574   2.079   2.171
 9101SOL    HW228203   2.640   2.057   2.023
 9102SOL     OW28204   3.328   6.595   1.898
 9102SOL    HW128205   3.317   6.525   1.826
 9102SOL    HW228206   3.413   6.578   1.947
 9103SOL     OW28207   5.719   2.102   0.253
 9103SOL    HW128208   5.693   2.070   0.344
 9103SOL    HW228209   5.654   2.171   0.223
 9104SOL     OW28210   6.962   6.639   1.425
 9104SOL    HW128211   0.007   6.629   1.490
 9104SOL    HW228212   6.941   6.550   1.384
 9105SOL     OW28213   1.240   0.315   5.464
 9105SOL    HW128214   1.158   0.338   5.411
 9105SOL    HW228215   1.314   0.288   5.402
 9106SOL     OW28216   6.504   2.739   0.838
 9106SOL    HW128217   6.522   2.830   0.801
 9106SOL    HW228218   6.496   2.744   0.937
 9107SOL     OW28219   2.083   0.806   0.142
 9107SOL    HW128220   2.157   0.841   0.199
 9107SOL    HW228221   2.059   0.874   0.073
 9108SOL     OW28222   4.874   4.041   5.695
 9108SOL    HW128223   4.958   4.012   5.650
 9108SOL    HW228224   4.872   4.141   5.702
 9109SOL     OW28225   4.936   3.438   3.127
 9109SOL    HW128226   4.952   3.535   3.145
 9109SOL    HW228227   4.895   3.427   3.036
 9110SOL     OW28228   1.419   5.283   4.212
 9110SOL    HW128229   1.499   5.222   4.213
 9110SOL    HW228230   1.450   5.378   4.212
 9111SOL     OW28231   4.395   2.939   6.656
 9111SOL    HW128232   4.304   2.927   6.695
 9111SOL    HW228233   4.458   2.874   6.699
 9112SOL     OW28234   1.469   5.066   2.649
 9112SOL    HW128235   1.516   5.097   2.731
 9112SOL    HW228236   1.467   4.966   2.647
 9113SOL     OW28237   5.078   2.259   2.952
 9113SOL    HW128238   5.163   2.212   2.974
 9113SOL    HW228239   5.089   2.309   2.866
 9114SOL     OW28240   0.957   5.732   3.757
 9114SOL    HW128241   0.938   5.676   3.676
 9114SOL    HW228242   1.030   5.690   3.810
 9115SOL     OW28243   5.696   5.449   4.945
 9115SOL    HW128244   5.753   5.367   4.953
 9115SOL    HW228245   5.697   5.499   5.031
 9116SOL     OW28246   0.106   6.986   2.865
 9116SOL    HW128247   0.143   6.945   2.782
 9116SOL    HW228248   0.020   0.004   2.842
 9117SOL     OW28249   4.061   2.717   6.719
 9117SOL    HW128250   4.106   2.720   6.630
 9117SOL    HW228251   4.012   2.630   6.728
 9118SOL     OW28252   6.457   3.346   0.023
 9118SOL    HW128253   6.486   3.425   7.000
 9118SOL    HW228254   6.359   3.354   0.043
 9119SOL     OW28255   4.291   1.152   1.711
 9119SOL    HW128256   4.317   1.069   1.762
 9119SOL    HW228257   4.275   1.128   1.615
 9120SOL     OW28258   6.690   3.036   5.344
 9120SOL    HW128259   6.685   2.967   5.415
 9120SOL    HW228260   6.718   2.993   5.258
 9121SOL     OW28261   4.139   6.976   5.670
 9121SOL    HW128262   4.050   6.966   5.624
 9121SOL    HW228263   4.202   7.023   5.608
 9122SOL     OW28264   2.136   4.129   2.286
 9122SOL    HW128265   2.229   4.164   2.278
 9122SOL    HW228266   2.072   4.195   2.245
 9123SOL     OW28267   1.880   0.311   4.375
 9123SOL    HW128268   1.952   0.252   4.412
 9123SOL    HW228269   1.794   0.292   4.423
 9124SOL     OW28270   3.747   5.486   2.095
 9124SOL    HW128271   3.705   5.413   2.041
 9124SOL    HW228272   3.817   5.447   2.155
 9125SOL     OW28273   3.583   4.242   0.822
 9125SOL    HW128274   3.501   4.187   0.833
 9125SOL    HW228275   3.578   4.323   0.880
 9126SOL     OW28276   4.830   3.937   0.790
 9126SOL    HW128277   4.860   3.890   0.707
 9126SOL    HW228278   4.907   3.987   0.830
 9127SOL     OW28279   6.387   2.741   5.309
 9127SOL    HW128280   6.335   2.721   5.226
 9127SOL    HW228281   6.328   2.731   5.389
 9128SOL     OW28282   5.922   2.369   4.632
 9128SOL    HW128283   6.009   2.417   4.643
 9128SOL    HW228284   5.938   2.273   4.609
 9129SOL     OW28285   0.720   2.135   0.682
 9129SOL    HW128286   0.738   2.231   0.659
 9129SOL    HW228287   0.705   2.083   0.598
 9130SOL     OW28288   0.521   3.981   5.989
 9130SOL    HW128289   0.488   4.055   6.048
 9130SOL    HW228290   0.568   3.913   6.044
 9131SOL     OW28291   5.455   3.197   0.150
 9131SOL    HW128292   5.463   3.104   0.113
 9131SOL    HW228293   5.515   3.206   0.229
 9132SOL     OW28294   0.786   4.625   4.074
 9132SOL    HW128295   0.792   4.633   4.173
 9132SOL    HW228296   0.820   4.709   4.031
 9133SOL     OW28297   3.483   1.018   1.243
 9133SOL    HW128298   3.543   1.077   1.189
 9133SOL    HW228299   3.461   1.063   1.330
 9134SOL     OW28300   3.901   5.424   0.884
 9134SOL    HW128301   3.825   5.410   0.821
 9134SOL    HW228302   3.873   5.486   0.957
 9135SOL     OW28303   1.642   6.698   1.895
 9135SOL    HW128304   1.599   6.647   1.821
 9135SOL    HW228305   1.736   6.722   1.869
 9136SOL     OW28306   4.502   5.840   5.736
 9136SOL    HW128307   4.562   5.767   5.769
 9136SOL    HW228308   4.557   5.917   5.705
 9137SOL     OW28309   4.483   6.883   5.739
 9137SOL    HW128310   4.537   6.842   5.665
 9137SOL    HW228311   4.457   6.812   5.805
 9138SOL     OW28312   1.924   3.395   0.282
 9138SOL    HW128313   1.841   3.439   0.247
 9138SOL    HW228314   1.961   3.334   0.212
 9139SOL     OW28315   0.985   1.371   1.585
 9139SOL    HW128316   1.054   1.431   1.624
 9139SOL    HW228317   0.967   1.295   1.648
 9140SOL     OW28318   0.785   5.108   2.260
 9140SOL    HW128319   0.871   5.153   2.286
 9140SOL    HW228320   0.716   5.124   2.331
 9141SOL     OW28321   0.137   5.997   6.454
 9141SOL    HW128322   0.071   5.926   6.479
 9141SOL    HW228323   0.134   6.070   6.522
 9142SOL     OW28324   6.868   2.773   2.860
 9142SOL    HW128325   6.911   2.858   2.831
 9142SOL    HW228326   6.796   2.793   2.926
 9143SOL     OW28327   0.517   4.097   1.052
 9143SOL    HW128328   0.493   4.119   1.147
 9143SOL    HW228329   0.435   4.103   0.995
 9144SOL     OW28330   2.919   4.814   4.771
 9144SOL    HW128331   2.911   4.795   4.869
 9144SOL    HW228332   2.897   4.731   4.720
 9145SOL     OW28333   1.308   0.033   6.708
 9145SOL    HW128334   1.320   0.064   6.613
 9145SOL    HW228335   1.364   6.981   6.724
 9146SOL     OW28336   5.202   2.652   3.253
 9146SOL    HW128337   5.253   2.598   3.187
 9146SOL    HW228338   5.239   2.745   3.257
 9147SOL     OW28339   6.187   0.623   5.113
 9147SOL    HW128340   6.227   0.586   5.197
 9147SOL    HW228341   6.120   0.693   5.136
 9148SOL     OW28342   5.829   6.934   1.794
 9148SOL    HW128343   5.914   6.968   1.834
 9148SOL    HW228344   5.758   7.003   1.801
 9149SOL     OW28345   5.650   2.880   2.061
 9149SOL    HW128346   5.671   2.787   2.094
 9149SOL    HW228347   5.575   2.876   1.995
 9150SOL     OW28348   2.927   4.571   0.389
 9150SOL    HW128349   2.892   4.641   0.451
 9150SOL    HW228350   3.027   4.577   0.386
 9151SOL     OW28351   2.368   4.228   3.888
 9151SOL    HW128352   2.436   4.221   3.815
 9151SOL    HW228353   2.320   4.141   3.897
 9152SOL     OW28354   1.852   4.345   4.398
 9152SOL    HW128355   1.826   4.284   4.473
 9152SOL    HW228356   1.888   4.291   4.322
 9153SOL     OW28357   0.711   3.034   6.526
 9153SOL    HW128358   0.806   3.025   6.554
 9153SOL    HW228359   0.701   3.010   6.430
 9154SOL     OW28360   4.661   5.128   3.136
 9154SOL    HW128361   4.745   5.133   3.082
 9154SOL    HW228362   4.666   5.193   3.212
 9155SOL     OW28363   1.462   4.492   2.816
 9155SOL    HW128364   1.536   4.483   2.882
 9155SOL    HW228365   1.459   4.410   2.758
 9156SOL     OW28366   6.903   2.868   1.213
 9156SOL    HW128367   6.827   2.888   1.275
 9156SOL    HW228368   6.960   2.796   1.251
 9157SOL     OW28369   3.083   3.891   6.190
 9157SOL    HW128370   3.077   3.978   6.142
 9157SOL    HW228371   3.013   3.828   6.156
 9158SOL     OW28372   6.371   4.454   4.360
 9158SOL    HW128373   6.361   4.409   4.271
 9158SOL    HW228374   6.283   4.451   4.409
 9159SOL     OW28375   2.351   0.002   3.139
 9159SOL    HW128376   2.263   0.003   3.186
 9159SOL    HW228377   2.389   6.939   3.142
 9160SOL     OW28378   0.410   5.278   6.616
 9160SOL    HW128379   0.375   5.193   6.653
 9160SOL    HW228380   0.410   5.348   6.688
 9161SOL     OW28381   5.932   4.733   2.735
 9161SOL    HW128382   5.971   4.817   2.773
 9161SOL    HW228383   5.920   4.666   2.809
 9162SOL     OW28384   3.846   1.158   3.095
 9162SOL    HW128385   3.762   1.118   3.132
 9162SOL    HW228386   3.897   1.088   3.044
 9163SOL     OW28387   6.926   2.363   1.815
 9163SOL    HW128388   7.007   2.346   1.870
 9163SOL    HW228389   6.848   2.314   1.855
 9164SOL     OW28390   2.112   0.457   0.244
 9164SOL    HW128391   2.025   0.410   0.228
 9164SOL    HW228392   2.127   0.525   0.173
 9165SOL     OW28393   4.977   2.554   6.075
 9165SOL    HW128394   4.970   2.654   6.085
 9165SOL    HW228395   4.900   2.510   6.121
 9166SOL     OW28396   4.048   5.714   1.175
 9166SOL    HW128397   4.102   5.639   1.138
 9166SOL    HW228398   4.106   5.795   1.187
 9167SOL     OW28399   0.992   1.845   6.829
 9167SOL    HW128400   0.955   1.867   6.919
 9167SOL    HW228401   1.047   1.922   6.796
 9168SOL     OW28402   6.681   5.196   5.985
 9168SOL    HW128403   6.717   5.110   6.021
 9168SOL    HW228404   6.731   5.273   6.026
 9169SOL     OW28405   0.114   6.436   6.396
 9169SOL    HW128406   0.016   6.447   6.381
 9169SOL    HW228407   0.154   6.386   6.319
 9170SOL     OW28408   1.784   1.953   6.187
 9170SOL    HW128409   1.765   2.026   6.122
 9170SOL    HW228410   1.874   1.913   6.168
 9171SOL     OW28411   2.712   5.332   1.266
 9171SOL    HW128412   2.749   5.361   1.178
 9171SOL    HW228413   2.757   5.383   1.339
 9172SOL     OW28414   4.977   1.379   5.120
 9172SOL    HW128415   4.997   1.445   5.048
 9172SOL    HW228416   5.031   1.296   5.105
 9173SOL     OW28417   7.008   3.025   4.231
 9173SOL    HW128418   0.026   3.109   4.257
 9173SOL    HW228419   7.011   3.014   4.132
 9174SOL     OW28420   0.805   5.775   6.952
 9174SOL    HW128421   0.848   5.758   0.011
 9174SOL    HW228422   0.724   5.831   6.964
 9175SOL     OW28423   1.599   6.152   0.516
 9175SOL    HW128424   1.586   6.220   0.588
 9175SOL    HW228425   1.568   6.063   0.548
 9176SOL     OW28426   2.135   0.680   2.790
 9176SOL    HW128427   2.196   0.716   2.720
 9176SOL    HW228428   2.050   0.648   2.747
 9177SOL     OW28429   1.288   2.999   3.399
 9177SOL    HW128430   1.312   2.969   3.307
 9177SOL    HW228431   1.344   3.078   3.424
 9178SOL     OW28432   2.335   5.802   6.573
 9178SOL    HW128433   2.241   5.798   6.607
 9178SOL    HW228434   2.398   5.795   6.649
 9179SOL     OW28435   3.743   5.964   4.972
 9179SOL    HW128436   3.684   5.957   4.891
 9179SOL    HW228437   3.714   6.041   5.028
 9180SOL     OW28438   6.432   1.846   4.365
 9180SOL    HW128439   6.466   1.908   4.436
 9180SOL    HW228440   6.382   1.898   4.296
 9181SOL     OW28441   4.892   2.544   3.810
 9181SOL    HW128442   4.866   2.452   3.840
 9181SOL    HW228443   4.897   2.605   3.889
 9182SOL     OW28444   2.376   1.106   2.760
 9182SOL    HW128445   2.428   1.170   2.703
 9182SOL    HW228446   2.427   1.021   2.769
 9183SOL     OW28447   4.842   3.108   6.798
 9183SOL    HW128448   4.899   3.174   6.847
 9183SOL    HW228449   4.901   3.041   6.753
 9184SOL     OW28450   3.077   2.194   0.950
 9184SOL    HW128451   3.123   2.257   1.012
 9184SOL    HW228452   3.056   2.109   0.997
 9185SOL     OW28453   6.978   6.852   6.243
 9185SOL    HW128454   6.942   6.842   6.150
 9185SOL    HW228455   7.027   6.939   6.250
 9186SOL     OW28456   4.650   0.791   5.871
 9186SOL    HW128457   4.555   0.778   5.897
 9186SOL    HW228458   4.706   0.806   5.952
 9187SOL     OW28459   4.846   2.234   6.599
 9187SOL    HW128460   4.815   2.158   6.657
 9187SOL    HW228461   4.861   2.315   6.656
 9188SOL     OW28462   1.635   0.762   1.365
 9188SOL    HW128463   1.543   0.739   1.333
 9188SOL    HW228464   1.698   0.761   1.287
 9189SOL     OW28465   3.157   1.057   3.330
 9189SOL    HW128466   3.204   0.989   3.274
 9189SOL    HW228467   3.078   1.015   3.374
 9190SOL     OW28468   5.931   3.837   5.637
 9190SOL    HW128469   5.926   3.745   5.597
 9190SOL    HW228470   5.918   3.905   5.565
 9191SOL     OW28471   5.115   6.420   0.036
 9191SOL    HW128472   5.112   6.417   6.966
 9191SOL    HW228473   5.155   6.335   0.071
 9192SOL     OW28474   6.240   4.033   5.639
 9192SOL    HW128475   6.161   4.067   5.689
 9192SOL    HW228476   6.254   3.937   5.660
 9193SOL     OW28477   2.979   3.173   4.023
 9193SOL    HW128478   2.891   3.131   4.044
 9193SOL    HW228479   2.980   3.267   4.056
 9194SOL     OW28480   3.628   6.194   2.260
 9194SOL    HW128481   3.644   6.147   2.173
 9194SOL    HW228482   3.545   6.249   2.253
 9195SOL     OW28483   0.972   2.966   3.481
 9195SOL    HW128484   1.070   2.979   3.501
 9195SOL    HW228485   0.930   3.054   3.461
 9196SOL     OW28486   3.942   0.112   4.224
 9196SOL    HW128487   3.963   0.111   4.321
 9196SOL    HW228488   3.843   0.114   4.210
 9197SOL     OW28489   2.978   3.483   0.694
 9197SOL    HW128490   2.915   3.560   0.692
 9197SOL    HW228491   3.067   3.512   0.660
 9198SOL     OW28492   5.737   4.534   6.220
 9198SOL    HW128493   5.786   4.497   6.299
 9198SOL    HW228494   5.697   4.623   6.244
 9199SOL     OW28495   0.907   3.552   6.156
 9199SOL    HW128496   0.912   3.638   6.105
 9199SOL    HW228497   0.884   3.478   6.092
 9200SOL     OW28498   0.575   6.061   0.744
 9200SOL    HW128499   0.519   6.140   0.720
 9200SOL    HW228500   0.521   5.997   0.799
 9201SOL     OW28501   0.615   4.374   1.757
 9201SOL    HW128502   0.700   4.425   1.746
 9201SOL    HW228503   0.621   4.288   1.707
 9202SOL     OW28504   2.290   5.442   4.854
 9202SOL    HW128505   2.265   5.345   4.850
 9202SOL    HW228506   2.316   5.465   4.948
 9203SOL     OW28507   5.259   1.390   6.395
 9203SOL    HW128508   5.358   1.376   6.387
 9203SOL    HW228509   5.220   1.319   6.454
 9204SOL     OW28510   5.729   3.932   3.280
 9204SOL    HW128511   5.656   3.944   3.347
 9204SOL    HW228512   5.805   3.882   3.322
 9205SOL     OW28513   5.176   3.504   2.668
 9205SOL    HW128514   5.108   3.487   2.597
 9205SOL    HW228515   5.166   3.434   2.740
 9206SOL     OW28516   2.991   6.736   4.362
 9206SOL    HW128517   2.907   6.789   4.347
 9206SOL    HW228518   2.990   6.697   4.454
 9207SOL     OW28519   3.647   6.303   6.200
 9207SOL    HW128520   3.562   6.284   6.151
 9207SOL    HW228521   3.702   6.368   6.148
 9208SOL     OW28522   5.067   3.351   2.362
 9208SOL    HW128523   5.014   3.278   2.319
 9208SOL    HW228524   5.060   3.434   2.307
 9209SOL     OW28525   4.121   1.060   2.059
 9209SOL    HW128526   4.074   1.098   1.980
 9209SOL    HW228527   4.193   0.997   2.028
 9210SOL     OW28528   2.426   6.998   1.762
 9210SOL    HW128529   2.469   6.980   1.674
 9210SOL    HW228530   2.495   7.002   1.834
 9211SOL     OW28531   6.026   1.650   6.081
 9211SOL    HW128532   6.074   1.615   6.161
 9211SOL    HW228533   5.943   1.698   6.110
 9212SOL     OW28534   4.550   4.449   4.870
 9212SOL    HW128535   4.509   4.399   4.793
 9212SOL    HW228536   4.489   4.445   4.948
 9213SOL     OW28537   5.589   0.122   4.683
 9213SOL    HW128538   5.571   0.199   4.744
 9213SOL    HW228539   5.554   0.143   4.592
 9214SOL     OW28540   1.491   1.991   5.006
 9214SOL    HW128541   1.557   2.063   5.029
 9214SOL    HW228542   1.417   2.031   4.952
 9215SOL     OW28543   0.034   4.328   2.240
 9215SOL    HW128544   0.012   4.412   2.192
 9215SOL    HW228545   7.014   4.252   2.199
 9216SOL     OW28546   2.752   6.073   4.448
 9216SOL    HW128547   2.815   5.997   4.460
 9216SOL    HW228548   2.771   6.144   4.516
 9217SOL     OW28549   5.049   1.091   6.476
 9217SOL    HW128550   5.042   1.015   6.541
 9217SOL    HW228551   5.145   1.102   6.449
 9218SOL     OW28552   4.718   7.022   6.383
 9218SOL    HW128553   4.641   0.055   6.392
 9218SOL    HW228554   4.734   7.001   6.287
 9219SOL     OW28555   3.777   3.098   5.379
 9219SOL    HW128556   3.859   3.152   5.356
 9219SOL    HW228557   3.794   3.048   5.464
 9220SOL     OW28558   2.464   6.106   2.897
 9220SOL    HW128559   2.406   6.086   2.818
 9220SOL    HW228560   2.429   6.057   2.977
 9221SOL     OW28561   2.208   0.781   5.918
 9221SOL    HW128562   2.239   0.816   5.829
 9221SOL    HW228563   2.286   0.742   5.967
 9222SOL     OW28564   2.550   4.598   4.291
 9222SOL    HW128565   2.549   4.553   4.202
 9222SOL    HW228566   2.539   4.530   4.363
 9223SOL     OW28567   1.050   3.598   4.048
 9223SOL    HW128568   1.009   3.532   3.985
 9223SOL    HW228569   1.068   3.683   3.999
 9224SOL     OW28570   0.740   3.631   3.738
 9224SOL    HW128571   0.773   3.652   3.646
 9224SOL    HW228572   0.813   3.587   3.790
 9225SOL     OW28573   3.694   6.811   5.991
 9225SOL    HW128574   3.673   6.855   6.078
 9225SOL    HW228575   3.644   6.725   5.984
 9226SOL     OW28576   1.089   0.178   1.254
 9226SOL    HW128577   1.151   0.114   1.299
 9226SOL    HW228578   1.110   0.181   1.156
 9227SOL     OW28579   1.464   5.730   1.463
 9227SOL    HW128580   1.390   5.750   1.527
 9227SOL    HW228581   1.473   5.631   1.452
 9228SOL     OW28582   2.035   2.648   5.892
 9228SOL    HW128583   2.051   2.582   5.965
 9228SOL    HW228584   2.122   2.671   5.848
 9229SOL     OW28585   1.075   4.907   6.750
 9229SOL    HW128586   1.032   4.888   6.662
 9229SOL    HW228587   1.063   5.003   6.774
 9230SOL     OW28588   4.880   1.999   4.583
 9230SOL    HW128589   4.877   1.899   4.581
 9230SOL    HW228590   4.970   2.030   4.552
 9231SOL     OW28591   0.375   5.039   5.477
 9231SOL    HW128592   0.379   5.027   5.377
 9231SOL    HW228593   0.338   5.129   5.498
 9232SOL     OW28594   1.967   5.167   1.708
 9232SOL    HW128595   1.989   5.104   1.782
 9232SOL    HW228596   2.035   5.159   1.635
 9233SOL     OW28597   0.914   6.116   0.587
 9233SOL    HW128598   0.903   6.141   0.683
 9233SOL    HW228599   0.826   6.084   0.550
 9234SOL     OW28600   2.449   5.296   1.311
 9234SOL    HW128601   2.549   5.294   1.310
 9234SOL    HW228602   2.415   5.202   1.315
 9235SOL     OW28603   2.219   2.662   3.089
 9235SOL    HW128604   2.155   2.599   3.045
 9235SOL    HW228605   2.298   2.610   3.123
 9236SOL     OW28606   1.968   3.750   0.285
 9236SOL    HW128607   1.879   3.716   0.315
 9236SOL    HW228608   2.040   3.707   0.340
 9237SOL     OW28609   6.717   5.983   2.913
 9237SOL    HW128610   6.646   5.964   2.844
 9237SOL    HW228611   6.696   6.069   2.959
 9238SOL     OW28612   2.049   2.938   5.644
 9238SOL    HW128613   2.114   2.957   5.571
 9238SOL    HW228614   2.075   2.853   5.691
 9239SOL     OW28615   6.995   4.529   6.864
 9239SOL    HW128616   6.966   4.609   6.918
 9239SOL    HW228617   6.953   4.534   6.774
 9240SOL     OW28618   5.232   3.449   3.150
 9240SOL    HW128619   5.183   3.365   3.127
 9240SOL    HW228620   5.206   3.479   3.242
 9241SOL     OW28621   0.315   5.735   7.005
 9241SOL    HW128622   0.337   5.710   0.069
 9241SOL    HW228623   0.225   5.698   6.980
 9242SOL     OW28624   1.650   2.377   2.147
 9242SOL    HW128625   1.724   2.441   2.167
 9242SOL    HW228626   1.669   2.329   2.061
 9243SOL     OW28627   0.959   6.711   1.802
 9243SOL    HW128628   1.020   6.788   1.818
 9243SOL    HW228629   0.984   6.635   1.862
 9244SOL     OW28630   2.979   6.491   5.518
 9244SOL    HW128631   2.960   6.487   5.616
 9244SOL    HW228632   3.029   6.575   5.498
 9245SOL     OW28633   1.033   3.876   3.336
 9245SOL    HW128634   1.113   3.828   3.298
 9245SOL    HW228635   0.952   3.853   3.282
 9246SOL     OW28636   6.099   0.093   4.255
 9246SOL    HW128637   6.151   0.049   4.328
 9246SOL    HW228638   6.152   0.089   4.170
 9247SOL     OW28639   3.916   5.249   2.737
 9247SOL    HW128640   3.842   5.205   2.788
 9247SOL    HW228641   3.994   5.188   2.731
 9248SOL     OW28642   2.769   1.014   4.906
 9248SOL    HW128643   2.686   1.070   4.910
 9248SOL    HW228644   2.760   0.947   4.832
 9249SOL     OW28645   3.709   4.610   1.579
 9249SOL    HW128646   3.649   4.597   1.500
 9249SOL    HW228647   3.654   4.613   1.663
 9250SOL     OW28648   6.397   4.314   3.490
 9250SOL    HW128649   6.458   4.236   3.481
 9250SOL    HW228650   6.326   4.293   3.557
 9251SOL     OW28651   3.578   2.726   1.536
 9251SOL    HW128652   3.530   2.812   1.552
 9251SOL    HW228653   3.591   2.678   1.622
 9252SOL     OW28654   4.112   0.655   5.171
 9252SOL    HW128655   4.105   0.594   5.092
 9252SOL    HW228656   4.124   0.600   5.254
 9253SOL     OW28657   5.941   5.256   5.887
 9253SOL    HW128658   6.007   5.183   5.868
 9253SOL    HW228659   5.860   5.217   5.931
 9254SOL     OW28660   5.569   4.342   2.506
 9254SOL    HW128661   5.491   4.310   2.560
 9254SOL    HW228662   5.539   4.367   2.414
 9255SOL     OW28663   5.990   3.621   6.622
 9255SOL    HW128664   5.970   3.685   6.695
 9255SOL    HW228665   5.966   3.528   6.651
 9256SOL     OW28666   2.176   0.207   1.929
 9256SOL    HW128667   2.177   0.247   1.837
 9256SOL    HW228668   2.167   0.280   1.997
 9257SOL     OW28669   5.974   5.675   3.540
 9257SOL    HW128670   5.955   5.662   3.442
 9257SOL    HW228671   5.919   5.751   3.574
 9258SOL     OW28672   3.559   3.548   0.489
 9258SOL    HW128673   3.634   3.526   0.428
 9258SOL    HW228674   3.543   3.472   0.552
 9259SOL     OW28675   2.017   1.719   0.289
 9259SOL    HW128676   2.054   1.663   0.214
 9259SOL    HW228677   1.980   1.659   0.360
 9260SOL     OW28678   6.755   2.900   5.883
 9260SOL    HW128679   6.809   2.980   5.857
 9260SOL    HW228680   6.664   2.906   5.842
 9261SOL     OW28681   4.589   1.491   0.444
 9261SOL    HW128682   4.600   1.590   0.458
 9261SOL    HW228683   4.514   1.474   0.380
 9262SOL     OW28684   0.516   6.665   4.842
 9262SOL    HW128685   0.481   6.730   4.909
 9262SOL    HW228686   0.484   6.573   4.864
 9263SOL     OW28687   3.224   5.502   2.930
 9263SOL    HW128688   3.203   5.474   2.837
 9263SOL    HW228689   3.298   5.569   2.929
 9264SOL     OW28690   5.522   3.489   6.748
 9264SOL    HW128691   5.424   3.486   6.767
 9264SOL    HW228692   5.570   3.535   6.823
 9265SOL     OW28693   3.618   2.270   6.786
 9265SOL    HW128694   3.597   2.330   6.863
 9265SOL    HW228695   3.717   2.260   6.778
 9266SOL     OW28696   0.451   5.478   1.117
 9266SOL    HW128697   0.528   5.418   1.098
 9266SOL    HW228698   0.393   5.437   1.188
 9267SOL     OW28699   0.684   1.594   4.057
 9267SOL    HW128700   0.696   1.554   3.965
 9267SOL    HW228701   0.661   1.690   4.048
 9268SOL     OW28702   0.724   6.555   2.277
 9268SOL    HW128703   0.751   6.652   2.276
 9268SOL    HW228704   0.770   6.508   2.201
 9269SOL     OW28705   4.686   0.705   6.302
 9269SOL    HW128706   4.712   0.630   6.363
 9269SOL    HW228707   4.595   0.737   6.325
 9270SOL     OW28708   3.560   1.191   5.668
 9270SOL    HW128709   3.519   1.135   5.596
 9270SOL    HW228710   3.551   1.287   5.645
 9271SOL     OW28711   0.839   6.800   0.471
 9271SOL    HW128712   0.780   6.720   0.458
 9271SOL    HW228713   0.821   6.841   0.560
 9272SOL     OW28714   0.825   6.965   5.949
 9272SOL    HW128715   0.791   6.872   5.959
 9272SOL    HW228716   0.750   0.000   5.965
 9273SOL     OW28717   5.207   6.199   4.023
 9273SOL    HW128718   5.204   6.244   3.934
 9273SOL    HW228719   5.144   6.121   4.023
 9274SOL     OW28720   0.170   3.263   0.462
 9274SOL    HW128721   0.130   3.348   0.429
 9274SOL    HW228722   0.269   3.266   0.450
 9275SOL     OW28723   1.011   6.561   1.176
 9275SOL    HW128724   0.979   6.539   1.084
 9275SOL    HW228725   1.020   6.661   1.185
 9276SOL     OW28726   3.036   4.731   6.910
 9276SOL    HW128727   3.101   4.801   6.941
 9276SOL    HW228728   3.083   4.665   6.852
 9277SOL     OW28729   4.223   4.724   2.721
 9277SOL    HW128730   4.290   4.797   2.708
 9277SOL    HW228731   4.204   4.714   2.819
 9278SOL     OW28732   0.144   0.468   4.957
 9278SOL    HW128733   0.176   0.418   5.038
 9278SOL    HW228734   0.212   0.536   4.931
 9279SOL     OW28735   3.458   6.077   1.979
 9279SOL    HW128736   3.415   6.051   2.065
 9279SOL    HW228737   3.548   6.119   1.998
 9280SOL     OW28738   2.366   1.704   2.396
 9280SOL    HW128739   2.394   1.793   2.432
 9280SOL    HW228740   2.425   1.633   2.434
 9281SOL     OW28741   3.479   3.878   5.904
 9281SOL    HW128742   3.526   3.844   5.822
 9281SOL    HW228743   3.422   3.805   5.942
 9282SOL     OW28744   4.275   0.795   4.896
 9282SOL    HW128745   4.235   0.708   4.868
 9282SOL    HW228746   4.232   0.870   4.846
 9283SOL     OW28747   5.790   0.124   6.415
 9283SOL    HW128748   5.830   0.118   6.507
 9283SOL    HW228749   5.838   0.062   6.354
 9284SOL     OW28750   3.277   3.753   5.171
 9284SOL    HW128751   3.185   3.717   5.161
 9284SOL    HW228752   3.317   3.722   5.257
 9285SOL     OW28753   5.343   3.227   1.995
 9285SOL    HW128754   5.411   3.155   1.978
 9285SOL    HW228755   5.283   3.236   1.915
 9286SOL     OW28756   5.103   5.900   0.526
 9286SOL    HW128757   5.089   5.859   0.617
 9286SOL    HW228758   5.036   5.973   0.511
 9287SOL     OW28759   1.813   4.023   5.485
 9287SOL    HW128760   1.734   4.080   5.509
 9287SOL    HW228761   1.877   4.019   5.562
 9288SOL     OW28762   4.444   2.451   3.651
 9288SOL    HW128763   4.407   2.464   3.560
 9288SOL    HW228764   4.497   2.366   3.654
 9289SOL     OW28765   4.580   0.563   6.107
 9289SOL    HW128766   4.616   0.610   6.187
 9289SOL    HW228767   4.655   0.538   6.046
 9290SOL     OW28768   5.837   0.713   4.246
 9290SOL    HW128769   5.833   0.683   4.151
 9290SOL    HW228770   5.890   0.647   4.300
 9291SOL     OW28771   1.211   6.363   5.560
 9291SOL    HW128772   1.232   6.328   5.651
 9291SOL    HW228773   1.113   6.377   5.551
 9292SOL     OW28774   1.814   1.172   6.362
 9292SOL    HW128775   1.789   1.100   6.426
 9292SOL    HW228776   1.896   1.146   6.311
 9293SOL     OW28777   4.875   2.829   6.416
 9293SOL    HW128778   4.822   2.776   6.482
 9293SOL    HW228779   4.969   2.838   6.448
 9294SOL     OW28780   5.010   1.302   0.584
 9294SOL    HW128781   5.036   1.358   0.505
 9294SOL    HW228782   5.050   1.211   0.574
 9295SOL     OW28783   0.383   0.616   4.963
 9295SOL    HW128784   0.387   0.685   4.890
 9295SOL    HW228785   0.469   0.565   4.965
 9296SOL     OW28786   2.625   3.904   0.861
 9296SOL    HW128787   2.625   3.934   0.957
 9296SOL    HW228788   2.538   3.861   0.840
 9297SOL     OW28789   0.719   5.702   2.960
 9297SOL    HW128790   0.812   5.740   2.967
 9297SOL    HW228791   0.718   5.609   2.995
 9298SOL     OW28792   1.090   6.597   5.775
 9298SOL    HW128793   1.120   6.504   5.752
 9298SOL    HW228794   1.087   6.608   5.874
 9299SOL     OW28795   2.134   1.141   4.142
 9299SOL    HW128796   2.152   1.194   4.225
 9299SOL    HW228797   2.086   1.199   4.076
 9300SOL     OW28798   0.703   6.183   5.088
 9300SOL    HW128799   0.792   6.229   5.088
 9300SOL    HW228800   0.717   6.085   5.100
 9301SOL     OW28801   0.212   4.859   4.317
 9301SOL    HW128802   0.132   4.800   4.308
 9301SOL    HW228803   0.294   4.802   4.326
 9302SOL     OW28804   2.338   2.663   4.708
 9302SOL    HW128805   2.331   2.571   4.670
 9302SOL    HW228806   2.390   2.659   4.794
 9303SOL     OW28807   3.151   4.457   6.855
 9303SOL    HW128808   3.099   4.474   6.771
 9303SOL    HW228809   3.087   4.446   6.931
 9304SOL     OW28810   4.644   5.141   0.692
 9304SOL    HW128811   4.668   5.119   0.786
 9304SOL    HW228812   4.564   5.088   0.664
 9305SOL     OW28813   3.336   1.366   0.584
 9305SOL    HW128814   3.392   1.313   0.647
 9305SOL    HW228815   3.316   1.456   0.623
 9306SOL     OW28816   6.836   3.937   4.386
 9306SOL    HW128817   6.839   3.910   4.290
 9306SOL    HW228818   6.753   3.990   4.403
 9307SOL     OW28819   1.873   3.885   0.634
 9307SOL    HW128820   1.873   3.965   0.574
 9307SOL    HW228821   1.782   3.844   0.635
 9308SOL     OW28822   1.267   4.850   1.819
 9308SOL    HW128823   1.322   4.845   1.735
 9308SOL    HW228824   1.225   4.940   1.825
 9309SOL     OW28825   5.301   6.707   6.291
 9309SOL    HW128826   5.371   6.636   6.282
 9309SOL    HW228827   5.272   6.713   6.387
 9310SOL     OW28828   4.672   5.615   5.739
 9310SOL    HW128829   4.620   5.537   5.705
 9310SOL    HW228830   4.770   5.599   5.726
 9311SOL     OW28831   4.847   3.777   1.474
 9311SOL    HW128832   4.817   3.870   1.449
 9311SOL    HW228833   4.771   3.728   1.517
 9312SOL     OW28834   1.500   2.454   0.976
 9312SOL    HW128835   1.532   2.475   1.068
 9312SOL    HW228836   1.447   2.530   0.941
 9313SOL     OW28837   1.493   0.794   1.782
 9313SOL    HW128838   1.475   0.881   1.735
 9313SOL    HW228839   1.429   0.725   1.750
 9314SOL     OW28840   5.223   3.350   0.817
 9314SOL    HW128841   5.201   3.256   0.794
 9314SOL    HW228842   5.149   3.391   0.871
 9315SOL     OW28843   5.794   0.888   6.738
 9315SOL    HW128844   5.850   0.894   6.655
 9315SOL    HW228845   5.847   0.842   6.810
 9316SOL     OW28846   5.914   0.148   5.004
 9316SOL    HW128847   5.942   0.233   5.049
 9316SOL    HW228848   5.902   0.165   4.906
 9317SOL     OW28849   3.217   5.199   3.361
 9317SOL    HW128850   3.188   5.104   3.352
 9317SOL    HW228851   3.290   5.218   3.295
 9318SOL     OW28852   5.123   5.636   0.437
 9318SOL    HW128853   5.123   5.713   0.500
 9318SOL    HW228854   5.131   5.670   0.343
 9319SOL     OW28855   2.693   3.591   1.231
 9319SOL    HW128856   2.619   3.620   1.291
 9319SOL    HW228857   2.669   3.502   1.190
 9320SOL     OW28858   5.312   0.234   5.925
 9320SOL    HW128859   5.262   0.204   6.007
 9320SOL    HW228860   5.290   0.329   5.906
 9321SOL     OW28861   1.062   1.960   5.162
 9321SOL    HW128862   0.987   1.960   5.228
 9321SOL    HW228863   1.039   2.021   5.086
 9322SOL     OW28864   6.261   4.654   6.127
 9322SOL    HW128865   6.307   4.718   6.065
 9322SOL    HW228866   6.270   4.686   6.221
 9323SOL     OW28867   2.109   2.809   4.098
 9323SOL    HW128868   2.120   2.711   4.082
 9323SOL    HW228869   2.178   2.840   4.163
 9324SOL     OW28870   1.459   3.965   0.768
 9324SOL    HW128871   1.528   3.900   0.738
 9324SOL    HW228872   1.389   3.976   0.697
 9325SOL     OW28873   2.043   6.194   1.583
 9325SOL    HW128874   2.003   6.229   1.667
 9325SOL    HW228875   2.052   6.094   1.590
 9326SOL     OW28876   3.663   5.137   0.621
 9326SOL    HW128877   3.597   5.195   0.668
 9326SOL    HW228878   3.619   5.051   0.595
 9327SOL     OW28879   4.272   0.459   3.001
 9327SOL    HW128880   4.266   0.531   2.932
 9327SOL    HW228881   4.364   0.421   3.002
 9328SOL     OW28882   2.286   6.852   5.236
 9328SOL    HW128883   2.187   6.848   5.244
 9328SOL    HW228884   2.321   6.925   5.295
 9329SOL     OW28885   0.292   5.950   6.833
 9329SOL    HW128886   0.209   6.004   6.849
 9329SOL    HW228887   0.302   5.882   6.905
 9330SOL     OW28888   0.319   0.133   6.564
 9330SOL    HW128889   0.410   0.117   6.603
 9330SOL    HW228890   0.289   0.052   6.515
 9331SOL     OW28891   2.032   2.636   4.901
 9331SOL    HW128892   2.063   2.684   4.983
 9331SOL    HW228893   2.106   2.634   4.834
 9332SOL     OW28894   4.087   5.584   0.471
 9332SOL    HW128895   4.145   5.660   0.442
 9332SOL    HW228896   4.020   5.617   0.538
 9333SOL     OW28897   3.326   5.916   0.940
 9333SOL    HW128898   3.335   5.898   0.842
 9333SOL    HW228899   3.300   6.012   0.954
 9334SOL     OW28900   4.961   0.259   4.299
 9334SOL    HW128901   4.922   0.350   4.287
 9334SOL    HW228902   4.893   0.190   4.275
 9335SOL     OW28903   1.902   2.462   0.753
 9335SOL    HW128904   1.947   2.546   0.722
 9335SOL    HW228905   1.804   2.477   0.760
 9336SOL     OW28906   5.873   0.047   4.416
 9336SOL    HW128907   5.957   0.068   4.366
 9336SOL    HW228908   5.848   6.982   4.399
 9337SOL     OW28909   5.049   0.287   6.927
 9337SOL    HW128910   4.985   0.273   7.003
 9337SOL    HW228911   5.018   0.364   6.871
 9338SOL     OW28912   0.280   6.264   7.000
 9338SOL    HW128913   0.267   6.216   0.057
 9338SOL    HW228914   0.378   6.272   6.981
 9339SOL     OW28915   5.533   5.434   7.027
 9339SOL    HW128916   5.467   5.471   6.962
 9339SOL    HW228917   5.520   5.479   0.086
 9340SOL     OW28918   3.854   5.309   2.495
 9340SOL    HW128919   3.755   5.325   2.500
 9340SOL    HW228920   3.888   5.283   2.586
 9341SOL     OW28921   6.292   4.675   6.393
 9341SOL    HW128922   6.272   4.577   6.405
 9341SOL    HW228923   6.387   4.693   6.418
 9342SOL     OW28924   3.229   0.277   4.560
 9342SOL    HW128925   3.204   0.282   4.656
 9342SOL    HW228926   3.196   0.359   4.513
 9343SOL     OW28927   4.862   3.850   2.099
 9343SOL    HW128928   4.875   3.789   2.021
 9343SOL    HW228929   4.773   3.895   2.091
 9344SOL     OW28930   5.581   5.180   6.713
 9344SOL    HW128931   5.522   5.239   6.657
 9344SOL    HW228932   5.676   5.208   6.702
 9345SOL     OW28933   6.623   6.056   6.808
 9345SOL    HW128934   6.601   6.083   6.714
 9345SOL    HW228935   6.722   6.055   6.819
 9346SOL     OW28936   4.972   5.834   2.563
 9346SOL    HW128937   4.967   5.735   2.570
 9346SOL    HW228938   4.879   5.872   2.562
 9347SOL     OW28939   3.294   5.575   0.904
 9347SOL    HW128940   3.392   5.589   0.913
 9347SOL    HW228941   3.249   5.597   0.991
 9348SOL     OW28942   2.775   5.564   3.254
 9348SOL    HW128943   2.816   5.624   3.187
 9348SOL    HW228944   2.819   5.474   3.250
 9349SOL     OW28945   6.667   5.760   2.088
 9349SOL    HW128946   6.731   5.836   2.096
 9349SOL    HW228947   6.716   5.677   2.063
 9350SOL     OW28948   6.977   1.418   4.035
 9350SOL    HW128949   0.029   1.402   4.091
 9350SOL    HW228950   7.002   1.414   3.938
 9351SOL     OW28951   2.034   1.258   5.756
 9351SOL    HW128952   1.972   1.206   5.814
 9351SOL    HW228953   2.010   1.245   5.660
 9352SOL     OW28954   1.320   2.663   5.343
 9352SOL    HW128955   1.246   2.642   5.407
 9352SOL    HW228956   1.408   2.661   5.391
 9353SOL     OW28957   1.412   4.161   1.833
 9353SOL    HW128958   1.395   4.170   1.735
 9353SOL    HW228959   1.506   4.129   1.848
 9354SOL     OW28960   6.616   1.972   1.002
 9354SOL    HW128961   6.645   2.049   0.945
 9354SOL    HW228962   6.689   1.904   1.007
 9355SOL     OW28963   6.156   1.313   3.945
 9355SOL    HW128964   6.202   1.225   3.946
 9355SOL    HW228965   6.161   1.352   3.853
 9356SOL     OW28966   4.746   4.943   2.064
 9356SOL    HW128967   4.666   4.923   2.007
 9356SOL    HW228968   4.719   4.944   2.160
 9357SOL     OW28969   2.314   4.141   0.396
 9357SOL    HW128970   2.234   4.084   0.379
 9357SOL    HW228971   2.338   4.191   0.313
 9358SOL     OW28972   5.716   3.600   2.027
 9358SOL    HW128973   5.785   3.533   2.055
 9358SOL    HW228974   5.719   3.678   2.089
 9359SOL     OW28975   0.257   3.527   5.683
 9359SOL    HW128976   0.218   3.564   5.767
 9359SOL    HW228977   0.331   3.587   5.651
 9360SOL     OW28978   1.571   0.176   5.942
 9360SOL    HW128979   1.502   0.104   5.951
 9360SOL    HW228980   1.526   0.265   5.944
 9361SOL     OW28981   2.767   6.941   3.333
 9361SOL    HW128982   2.800   6.993   3.412
 9361SOL    HW228983   2.815   6.973   3.251
 9362SOL     OW28984   1.694   1.132   1.634
 9362SOL    HW128985   1.604   1.096   1.609
 9362SOL    HW228986   1.695   1.231   1.623
 9363SOL     OW28987   3.912   5.679   1.865
 9363SOL    HW128988   3.946   5.743   1.796
 9363SOL    HW228989   3.832   5.631   1.830
 9364SOL     OW28990   3.393   3.189   6.190
 9364SOL    HW128991   3.432   3.258   6.251
 9364SOL    HW228992   3.461   3.162   6.123
 9365SOL     OW28993   2.404   2.161   4.592
 9365SOL    HW128994   2.473   2.199   4.530
 9365SOL    HW228995   2.416   2.062   4.598
 9366SOL     OW28996   3.092   1.871   6.758
 9366SOL    HW128997   3.089   1.970   6.771
 9366SOL    HW228998   3.003   1.838   6.729
 9367SOL     OW28999   0.019   6.040   3.561
 9367SOL    HW129000   0.086   6.036   3.487
 9367SOL    HW229001   6.966   5.992   3.533
 9368SOL     OW29002   3.371   1.751   2.794
 9368SOL    HW129003   3.380   1.748   2.893
 9368SOL    HW229004   3.370   1.659   2.757
 9369SOL     OW29005   0.191   0.721   6.024
 9369SOL    HW129006   0.183   0.815   5.990
 9369SOL    HW229007   0.284   0.705   6.055
 9370SOL     OW29008   5.722   0.253   2.219
 9370SOL    HW129009   5.633   0.298   2.211
 9370SOL    HW229010   5.709   0.153   2.218
 9371SOL     OW29011   2.377   5.064   0.439
 9371SOL    HW129012   2.301   5.107   0.391
 9371SOL    HW229013   2.386   5.102   0.531
 9372SOL     OW29014   5.837   5.869   2.681
 9372SOL    HW129015   5.861   5.810   2.758
 9372SOL    HW229016   5.781   5.817   2.616
 9373SOL     OW29017   4.696   1.937   3.070
 9373SOL    HW129018   4.756   1.895   3.002
 9373SOL    HW229019   4.709   1.892   3.159
 9374SOL     OW29020   6.008   3.285   6.815
 9374SOL    HW129021   5.964   3.309   6.729
 9374SOL    HW229022   6.002   3.186   6.828
 9375SOL     OW29023   6.816   1.630   3.435
 9375SOL    HW129024   6.744   1.587   3.382
 9375SOL    HW229025   6.797   1.727   3.445
 9376SOL     OW29026   3.053   3.750   1.065
 9376SOL    HW129027   3.035   3.665   1.114
 9376SOL    HW229028   3.022   3.828   1.120
 9377SOL     OW29029   1.280   5.588   3.990
 9377SOL    HW129030   1.192   5.608   4.033
 9377SOL    HW229031   1.334   5.528   4.049
 9378SOL     OW29032   1.310   0.558   5.559
 9378SOL    HW129033   1.245   0.632   5.576
 9378SOL    HW229034   1.261   0.471   5.555
 9379SOL     OW29035   4.732   4.913   5.263
 9379SOL    HW129036   4.765   5.007   5.265
 9379SOL    HW229037   4.633   4.912   5.282
 9380SOL     OW29038   5.985   5.153   4.594
 9380SOL    HW129039   5.984   5.136   4.693
 9380SOL    HW229040   5.943   5.242   4.576
 9381SOL     OW29041   2.255   3.137   5.835
 9381SOL    HW129042   2.340   3.086   5.848
 9381SOL    HW229043   2.237   3.149   5.738
 9382SOL     OW29044   3.431   1.406   2.813
 9382SOL    HW129045   3.477   1.316   2.817
 9382SOL    HW229046   3.479   1.470   2.873
 9383SOL     OW29047   3.134   6.023   4.869
 9383SOL    HW129048   3.216   6.019   4.927
 9383SOL    HW229049   3.091   5.933   4.866
 9384SOL     OW29050   4.234   6.775   1.554
 9384SOL    HW129051   4.265   6.820   1.471
 9384SOL    HW229052   4.158   6.713   1.531
 9385SOL     OW29053   4.246   1.599   2.251
 9385SOL    HW129054   4.311   1.641   2.187
 9385SOL    HW229055   4.295   1.562   2.329
 9386SOL     OW29056   2.344   6.185   4.947
 9386SOL    HW129057   2.322   6.242   5.026
 9386SOL    HW229058   2.363   6.092   4.977
 9387SOL     OW29059   4.201   7.021   6.922
 9387SOL    HW129060   4.254   6.953   6.973
 9387SOL    HW229061   4.112   0.001   6.965
 9388SOL     OW29062   1.815   5.650   2.705
 9388SOL    HW129063   1.774   5.628   2.794
 9388SOL    HW229064   1.748   5.698   2.648
 9389SOL     OW29065   2.043   0.321   5.671
 9389SOL    HW129066   2.060   0.410   5.713
 9389SOL    HW229067   1.971   0.273   5.721
 9390SOL     OW29068   4.274   6.194   4.620
 9390SOL    HW129069   4.362   6.222   4.582
 9390SOL    HW229070   4.280   6.099   4.651
 9391SOL     OW29071   2.123   0.992   5.544
 9391SOL    HW129072   2.196   0.992   5.613
 9391SOL    HW229073   2.094   1.087   5.527
 9392SOL     OW29074   0.022   0.268   4.798
 9392SOL    HW129075   0.092   0.313   4.854
 9392SOL    HW229076   0.037   0.169   4.799
 9393SOL     OW29077   3.354   0.819   5.067
 9393SOL    HW129078   3.413   0.738   5.059
 9393SOL    HW229079   3.287   0.804   5.140
 9394SOL     OW29080   6.292   1.525   2.543
 9394SOL    HW129081   6.211   1.466   2.544
 9394SOL    HW229082   6.320   1.541   2.448
 9395SOL     OW29083   2.612   2.885   0.322
 9395SOL    HW129084   2.570   2.803   0.361
 9395SOL    HW229085   2.665   2.861   0.241
 9396SOL     OW29086   0.473   5.835   3.922
 9396SOL    HW129087   0.543   5.825   3.993
 9396SOL    HW229088   0.494   5.917   3.867
 9397SOL     OW29089   2.872   7.017   0.003
 9397SOL    HW129090   2.923   6.979   0.080
 9397SOL    HW229091   2.776   6.991   0.010
 9398SOL     OW29092   1.724   0.455   5.738
 9398SOL    HW129093   1.725   0.359   5.709
 9398SOL    HW229094   1.691   0.461   5.832
 9399SOL     OW29095   0.557   1.294   6.946
 9399SOL    HW129096   0.514   1.230   6.882
 9399SOL    HW229097   0.626   1.347   6.898
 9400SOL     OW29098   5.486   2.989   1.648
 9400SOL    HW129099   5.437   2.957   1.567
 9400SOL    HW229100   5.515   3.084   1.633
 9401SOL     OW29101   4.022   6.641   3.286
 9401SOL    HW129102   4.007   6.619   3.382
 9401SOL    HW229103   4.019   6.740   3.273
 9402SOL     OW29104   1.141   5.291   4.246
 9402SOL    HW129105   1.239   5.277   4.231
 9402SOL    HW229106   1.101   5.207   4.282
 9403SOL     OW29107   5.532   1.568   2.745
 9403SOL    HW129108   5.505   1.528   2.833
 9403SOL    HW229109   5.627   1.596   2.750
 9404SOL     OW29110   0.740   3.779   5.946
 9404SOL    HW129111   0.747   3.746   5.852
 9404SOL    HW229112   0.832   3.799   5.981
 9405SOL     OW29113   0.180   6.904   2.279
 9405SOL    HW129114   0.224   6.816   2.291
 9405SOL    HW229115   0.080   6.892   2.276
 9406SOL     OW29116   6.911   2.681   5.899
 9406SOL    HW129117   6.839   2.749   5.892
 9406SOL    HW229118   6.974   2.706   5.973
 9407SOL     OW29119   2.470   5.358   3.560
 9407SOL    HW129120   2.400   5.327   3.495
 9407SOL    HW229121   2.482   5.289   3.631
 9408SOL     OW29122   3.840   2.166   6.651
 9408SOL    HW129123   3.840   2.151   6.552
 9408SOL    HW229124   3.824   2.079   6.698
 9409SOL     OW29125   5.953   4.809   6.298
 9409SOL    HW129126   5.982   4.776   6.388
 9409SOL    HW229127   5.854   4.802   6.290
 9410SOL     OW29128   4.096   5.848   2.069
 9410SOL    HW129129   4.029   5.776   2.054
 9410SOL    HW229130   4.171   5.839   2.003
 9411SOL     OW29131   3.771   4.041   1.296
 9411SOL    HW129132   3.735   4.116   1.241
 9411SOL    HW229133   3.697   3.979   1.321
 9412SOL     OW29134   7.030   3.437   1.652
 9412SOL    HW129135   6.961   3.491   1.700
 9412SOL    HW229136   0.037   3.489   1.575
 9413SOL     OW29137   4.185   6.266   4.897
 9413SOL    HW129138   4.209   6.201   4.969
 9413SOL    HW229139   4.227   6.237   4.811
 9414SOL     OW29140   3.485   0.957   3.713
 9414SOL    HW129141   3.461   0.877   3.768
 9414SOL    HW229142   3.568   1.000   3.750
 9415SOL     OW29143   2.570   0.053   2.661
 9415SOL    HW129144   2.493   7.028   2.693
 9415SOL    HW229145   2.655   0.001   2.672
 9416SOL     OW29146   0.567   1.589   1.356
 9416SOL    HW129147   0.632   1.576   1.430
 9416SOL    HW229148   0.596   1.536   1.276
 9417SOL     OW29149   4.170   6.937   5.946
 9417SOL    HW129150   4.158   6.955   5.848
 9417SOL    HW229151   4.182   6.839   5.960
 9418SOL     OW29152   3.246   6.747   0.838
 9418SOL    HW129153   3.230   6.657   0.796
 9418SOL    HW229154   3.204   6.749   0.929
 9419SOL     OW29155   3.127   5.335   5.822
 9419SOL    HW129156   3.083   5.295   5.742
 9419SOL    HW229157   3.058   5.382   5.878
 9420SOL     OW29158   6.779   2.099   4.663
 9420SOL    HW129159   6.857   2.042   4.635
 9420SOL    HW229160   6.805   2.196   4.655
 9421SOL     OW29161   2.319   6.340   5.178
 9421SOL    HW129162   2.388   6.283   5.222
 9421SOL    HW229163   2.347   6.436   5.183
 9422SOL     OW29164   4.467   6.245   2.750
 9422SOL    HW129165   4.549   6.300   2.767
 9422SOL    HW229166   4.455   6.179   2.825
 9423SOL     OW29167   4.082   0.753   3.496
 9423SOL    HW129168   4.004   0.719   3.548
 9423SOL    HW229169   4.143   0.805   3.557
 9424SOL     OW29170   4.596   0.696   5.320
 9424SOL    HW129171   4.662   0.704   5.395
 9424SOL    HW229172   4.645   0.693   5.233
 9425SOL     OW29173   0.052   3.860   6.113
 9425SOL    HW129174   0.120   3.819   6.174
 9425SOL    HW229175   6.996   3.872   6.163
 9426SOL     OW29176   2.547   2.213   0.211
 9426SOL    HW129177   2.489   2.287   0.178
 9426SOL    HW229178   2.641   2.246   0.219
 9427SOL     OW29179   3.335   5.251   4.740
 9427SOL    HW129180   3.249   5.205   4.718
 9427SOL    HW229181   3.402   5.184   4.771
 9428SOL     OW29182   5.401   1.095   0.613
 9428SOL    HW129183   5.302   1.083   0.609
 9428SOL    HW229184   5.430   1.102   0.709
 9429SOL     OW29185   1.882   4.741   2.418
 9429SOL    HW129186   1.978   4.724   2.440
 9429SOL    HW229187   1.854   4.829   2.455
 9430SOL     OW29188   0.689   5.382   1.584
 9430SOL    HW129189   0.674   5.476   1.615
 9430SOL    HW229190   0.718   5.326   1.662
 9431SOL     OW29191   5.418   4.614   0.922
 9431SOL    HW129192   5.497   4.582   0.868
 9431SOL    HW229193   5.420   4.569   1.012
 9432SOL     OW29194   5.718   0.755   2.834
 9432SOL    HW129195   5.619   0.770   2.825
 9432SOL    HW229196   5.734   0.659   2.860
 9433SOL     OW29197   3.157   4.876   3.402
 9433SOL    HW129198   3.117   4.903   3.490
 9433SOL    HW229199   3.228   4.808   3.417
 9434SOL     OW29200   5.672   4.860   2.717
 9434SOL    HW129201   5.748   4.814   2.762
 9434SOL    HW229202   5.664   4.826   2.623
 9435SOL     OW29203   0.939   1.482   4.085
 9435SOL    HW129204   0.960   1.442   4.174
 9435SOL    HW229205   0.843   1.512   4.084
 9436SOL     OW29206   0.957   3.991   2.578
 9436SOL    HW129207   0.900   4.003   2.497
 9436SOL    HW229208   1.005   3.903   2.572
 9437SOL     OW29209   1.631   6.317   4.023
 9437SOL    HW129210   1.727   6.290   4.014
 9437SOL    HW229211   1.578   6.241   4.061
 9438SOL     OW29212   1.419   6.646   1.244
 9438SOL    HW129213   1.387   6.734   1.210
 9438SOL    HW229214   1.340   6.591   1.273
 9439SOL     OW29215   6.952   2.989   2.267
 9439SOL    HW129216   6.864   2.942   2.259
 9439SOL    HW229217   7.009   2.968   2.187
 9440SOL     OW29218   4.139   5.784   4.209
 9440SOL    HW129219   4.069   5.853   4.226
 9440SOL    HW229220   4.194   5.811   4.130
 9441SOL     OW29221   1.375   3.545   4.874
 9441SOL    HW129222   1.285   3.569   4.912
 9441SOL    HW229223   1.436   3.516   4.947
 9442SOL     OW29224   5.276   3.392   0.242
 9442SOL    HW129225   5.294   3.300   0.205
 9442SOL    HW229226   5.184   3.395   0.280
 9443SOL     OW29227   2.715   5.640   1.658
 9443SOL    HW129228   2.650   5.564   1.660
 9443SOL    HW229229   2.798   5.614   1.706
 9444SOL     OW29230   1.289   3.819   6.453
 9444SOL    HW129231   1.304   3.731   6.409
 9444SOL    HW229232   1.371   3.876   6.442
 9445SOL     OW29233   5.580   3.462   2.502
 9445SOL    HW129234   5.656   3.400   2.483
 9445SOL    HW229235   5.502   3.437   2.444
 9446SOL     OW29236   6.363   6.613   4.176
 9446SOL    HW129237   6.354   6.705   4.214
 9446SOL    HW229238   6.456   6.580   4.189
 9447SOL     OW29239   5.962   3.006   3.346
 9447SOL    HW129240   5.891   3.040   3.408
 9447SOL    HW229241   5.931   3.014   3.252
 9448SOL     OW29242   6.752   6.645   5.964
 9448SOL    HW129243   6.808   6.568   5.934
 9448SOL    HW229244   6.655   6.620   5.962
 9449SOL     OW29245   0.396   5.825   6.602
 9449SOL    HW129246   0.340   5.839   6.684
 9449SOL    HW229247   0.481   5.779   6.627
 9450SOL     OW29248   3.503   4.982   4.565
 9450SOL    HW129249   3.416   4.934   4.572
 9450SOL    HW229250   3.547   4.985   4.654
 9451SOL     OW29251   3.930   6.101   6.131
 9451SOL    HW129252   3.947   6.170   6.060
 9451SOL    HW229253   3.857   6.133   6.191
 9452SOL     OW29254   0.750   3.623   0.885
 9452SOL    HW129255   0.676   3.560   0.861
 9452SOL    HW229256   0.796   3.653   0.801
 9453SOL     OW29257   1.436   4.821   3.392
 9453SOL    HW129258   1.380   4.738   3.395
 9453SOL    HW229259   1.463   4.839   3.298
 9454SOL     OW29260   1.542   3.523   5.399
 9454SOL    HW129261   1.472   3.452   5.387
 9454SOL    HW229262   1.503   3.600   5.449
 9455SOL     OW29263   3.626   1.574   2.939
 9455SOL    HW129264   3.688   1.630   2.885
 9455SOL    HW229265   3.574   1.631   3.002
 9456SOL     OW29266   0.997   3.515   6.974
 9456SOL    HW129267   1.015   3.430   7.024
 9456SOL    HW229268   0.988   3.495   6.877
 9457SOL     OW29269   2.066   4.059   5.646
 9457SOL    HW129270   2.078   4.092   5.553
 9457SOL    HW229271   2.124   4.112   5.708
 9458SOL     OW29272   0.924   3.329   5.985
 9458SOL    HW129273   1.014   3.316   5.944
 9458SOL    HW229274   0.853   3.303   5.920
 9459SOL     OW29275   5.850   4.328   2.550
 9459SOL    HW129276   5.885   4.235   2.539
 9459SOL    HW229277   5.751   4.325   2.564
 9460SOL     OW29278   0.052   1.617   4.700
 9460SOL    HW129279   6.998   1.562   4.697
 9460SOL    HW229280   0.079   1.643   4.608
 9461SOL     OW29281   6.204   1.535   2.977
 9461SOL    HW129282   6.242   1.528   3.069
 9461SOL    HW229283   6.272   1.504   2.910
 9462SOL     OW29284   2.087   3.450   3.654
 9462SOL    HW129285   2.108   3.391   3.732
 9462SOL    HW229286   2.096   3.546   3.682
 9463SOL     OW29287   6.993   0.981   1.503
 9463SOL    HW129288   6.897   0.964   1.525
 9463SOL    HW229289   7.001   1.006   1.407
 9464SOL     OW29290   5.744   6.355   0.592
 9464SOL    HW129291   5.760   6.384   0.686
 9464SOL    HW229292   5.721   6.258   0.590
 9465SOL     OW29293   0.442   6.583   3.523
 9465SOL    HW129294   0.513   6.564   3.591
 9465SOL    HW229295   0.360   6.530   3.544
 9466SOL     OW29296   3.807   4.222   5.058
 9466SOL    HW129297   3.890   4.256   5.103
 9466SOL    HW229298   3.824   4.130   5.023
 9467SOL     OW29299   1.121   2.579   1.746
 9467SOL    HW129300   1.177   2.511   1.795
 9467SOL    HW229301   1.180   2.636   1.690
 9468SOL     OW29302   5.882   2.655   5.906
 9468SOL    HW129303   5.791   2.680   5.939
 9468SOL    HW229304   5.873   2.585   5.836
 9469SOL     OW29305   5.800   6.028   1.174
 9469SOL    HW129306   5.798   6.074   1.086
 9469SOL    HW229307   5.878   5.966   1.178
 9470SOL     OW29308   4.688   3.541   5.879
 9470SOL    HW129309   4.685   3.597   5.962
 9470SOL    HW229310   4.632   3.583   5.808
 9471SOL     OW29311   6.020   1.854   4.818
 9471SOL    HW129312   6.055   1.811   4.734
 9471SOL    HW229313   6.095   1.904   4.863
 9472SOL     OW29314   6.024   2.976   4.459
 9472SOL    HW129315   5.976   2.949   4.375
 9472SOL    HW229316   6.114   3.012   4.435
 9473SOL     OW29317   2.477   4.970   5.821
 9473SOL    HW129318   2.454   4.874   5.803
 9473SOL    HW229319   2.538   4.974   5.901
 9474SOL     OW29320   6.253   2.928   0.104
 9474SOL    HW129321   6.261   2.927   0.204
 9474SOL    HW229322   6.244   3.022   0.072
 9475SOL     OW29323   2.919   3.845   0.481
 9475SOL    HW129324   3.016   3.856   0.462
 9475SOL    HW229325   2.876   3.934   0.494
 9476SOL     OW29326   2.946   3.183   4.891
 9476SOL    HW129327   2.890   3.106   4.921
 9476SOL    HW229328   2.930   3.262   4.950
 9477SOL     OW29329   0.194   3.461   2.529
 9477SOL    HW129330   0.164   3.556   2.538
 9477SOL    HW229331   0.222   3.444   2.435
 9478SOL     OW29332   4.513   3.420   6.193
 9478SOL    HW129333   4.611   3.404   6.205
 9478SOL    HW229334   4.494   3.517   6.206
 9479SOL     OW29335   5.519   6.454   6.757
 9479SOL    HW129336   5.601   6.420   6.803
 9479SOL    HW229337   5.484   6.535   6.804
 9480SOL     OW29338   4.947   4.320   0.203
 9480SOL    HW129339   4.878   4.307   0.132
 9480SOL    HW229340   4.920   4.270   0.285
 9481SOL     OW29341   5.702   3.286   1.244
 9481SOL    HW129342   5.777   3.227   1.213
 9481SOL    HW229343   5.650   3.238   1.315
 9482SOL     OW29344   6.356   1.056   2.887
 9482SOL    HW129345   6.397   0.965   2.891
 9482SOL    HW229346   6.319   1.080   2.977
 9483SOL     OW29347   1.662   1.946   1.104
 9483SOL    HW129348   1.623   2.038   1.103
 9483SOL    HW229349   1.591   1.879   1.082
 9484SOL     OW29350   4.391   1.552   3.126
 9484SOL    HW129351   4.358   1.518   3.214
 9484SOL    HW229352   4.408   1.650   3.133
 9485SOL     OW29353   0.884   0.154   2.466
 9485SOL    HW129354   0.961   0.090   2.463
 9485SOL    HW229355   0.915   0.241   2.506
 9486SOL     OW29356   2.302   4.760   1.457
 9486SOL    HW129357   2.226   4.822   1.437
 9486SOL    HW229358   2.351   4.794   1.537
 9487SOL     OW29359   3.009   3.548   2.688
 9487SOL    HW129360   3.097   3.578   2.651
 9487SOL    HW229361   2.935   3.590   2.634
 9488SOL     OW29362   2.544   6.257   0.908
 9488SOL    HW129363   2.476   6.328   0.926
 9488SOL    HW229364   2.517   6.173   0.956
 9489SOL     OW29365   4.019   4.027   1.454
 9489SOL    HW129366   3.925   4.000   1.434
 9489SOL    HW229367   4.061   4.067   1.373
 9490SOL     OW29368   6.411   6.311   0.966
 9490SOL    HW129369   6.372   6.240   0.907
 9490SOL    HW229370   6.357   6.395   0.958
 9491SOL     OW29371   6.965   4.179   3.720
 9491SOL    HW129372   6.975   4.144   3.627
 9491SOL    HW229373   0.016   4.234   3.743
 9492SOL     OW29374   3.641   3.451   2.727
 9492SOL    HW129375   3.706   3.449   2.652
 9492SOL    HW229376   3.637   3.361   2.771
 9493SOL     OW29377   3.925   5.110   4.033
 9493SOL    HW129378   4.022   5.129   4.050
 9493SOL    HW229379   3.900   5.023   4.077
 9494SOL     OW29380   4.587   4.226   1.575
 9494SOL    HW129381   4.524   4.215   1.652
 9494SOL    HW229382   4.672   4.177   1.595
 9495SOL     OW29383   5.511   1.725   4.771
 9495SOL    HW129384   5.509   1.646   4.710
 9495SOL    HW229385   5.565   1.799   4.729
 9496SOL     OW29386   5.251   4.977   0.479
 9496SOL    HW129387   5.278   5.059   0.529
 9496SOL    HW229388   5.249   4.996   0.381
 9497SOL     OW29389   5.797   4.714   0.474
 9497SOL    HW129390   5.789   4.691   0.571
 9497SOL    HW229391   5.863   4.788   0.463
 9498SOL     OW29392   5.195   0.544   5.900
 9498SOL    HW129393   5.252   0.529   5.981
 9498SOL    HW229394   5.176   0.641   5.890
 9499SOL     OW29395   2.191   4.201   5.838
 9499SOL    HW129396   2.155   4.291   5.861
 9499SOL    HW229397   2.274   4.184   5.890
 9500SOL     OW29398   4.140   0.083   1.464
 9500SOL    HW129399   4.113   0.106   1.558
 9500SOL    HW229400   4.110   0.156   1.402
 9501SOL     OW29401   2.863   1.245   4.817
 9501SOL    HW129402   2.959   1.247   4.846
 9501SOL    HW229403   2.822   1.158   4.843
 9502SOL     OW29404   0.254   1.822   4.264
 9502SOL    HW129405   0.214   1.902   4.219
 9502SOL    HW229406   0.353   1.825   4.255
 9503SOL     OW29407   0.731   1.642   1.588
 9503SOL    HW129408   0.814   1.697   1.580
 9503SOL    HW229409   0.688   1.660   1.676
 9504SOL     OW29410   0.047   1.515   0.679
 9504SOL    HW129411   0.066   1.611   0.700
 9504SOL    HW229412   0.064   1.498   0.582
 9505SOL     OW29413   5.722   4.117   3.970
 9505SOL    HW129414   5.805   4.114   4.025
 9505SOL    HW229415   5.644   4.141   4.028
 9506SOL     OW29416   0.104   3.318   6.525
 9506SOL    HW129417   0.089   3.276   6.615
 9506SOL    HW229418   0.046   3.271   6.458
 9507SOL     OW29419   1.223   1.194   3.569
 9507SOL    HW129420   1.195   1.285   3.536
 9507SOL    HW229421   1.311   1.202   3.617
 9508SOL     OW29422   5.723   3.134   0.947
 9508SOL    HW129423   5.641   3.189   0.957
 9508SOL    HW229424   5.771   3.160   0.863
 9509SOL     OW29425   1.231   0.226   5.710
 9509SOL    HW129426   1.146   0.187   5.746
 9509SOL    HW229427   1.219   0.246   5.612
 9510SOL     OW29428   0.929   4.559   1.927
 9510SOL    HW129429   0.895   4.505   2.004
 9510SOL    HW229430   0.916   4.506   1.842
 9511SOL     OW29431   0.960   1.190   0.054
 9511SOL    HW129432   0.917   1.255   7.021
 9511SOL    HW229433   0.922   1.099   0.038
 9512SOL     OW29434   5.675   0.944   2.036
 9512SOL    HW129435   5.594   0.889   2.018
 9512SOL    HW229436   5.707   0.927   2.129
 9513SOL     OW29437   1.374   3.435   4.620
 9513SOL    HW129438   1.421   3.425   4.707
 9513SOL    HW229439   1.437   3.473   4.552
 9514SOL     OW29440   2.414   4.350   0.248
 9514SOL    HW129441   2.340   4.405   0.210
 9514SOL    HW229442   2.493   4.408   0.266
 9515SOL     OW29443   1.293   5.494   0.478
 9515SOL    HW129444   1.265   5.502   0.573
 9515SOL    HW229445   1.392   5.507   0.471
 9516SOL     OW29446   5.310   3.812   5.011
 9516SOL    HW129447   5.284   3.906   4.988
 9516SOL    HW229448   5.230   3.760   5.038
 9517SOL     OW29449   1.650   4.838   0.284
 9517SOL    HW129450   1.625   4.786   0.366
 9517SOL    HW229451   1.734   4.889   0.302
 9518SOL     OW29452   0.582   2.358   6.781
 9518SOL    HW129453   0.490   2.337   6.813
 9518SOL    HW229454   0.593   2.457   6.777
 9519SOL     OW29455   4.032   3.279   3.890
 9519SOL    HW129456   3.997   3.191   3.856
 9519SOL    HW229457   4.046   3.273   3.989
 9520SOL     OW29458   0.172   0.664   3.184
 9520SOL    HW129459   0.132   0.734   3.125
 9520SOL    HW229460   0.271   0.677   3.189
 9521SOL     OW29461   3.425   4.242   1.142
 9521SOL    HW129462   3.374   4.263   1.058
 9521SOL    HW229463   3.424   4.143   1.158
 9522SOL     OW29464   4.223   6.145   2.652
 9522SOL    HW129465   4.234   6.048   2.671
 9522SOL    HW229466   4.292   6.197   2.702
 9523SOL     OW29467   2.650   4.895   5.023
 9523SOL    HW129468   2.604   4.830   4.962
 9523SOL    HW229469   2.743   4.863   5.041
 9524SOL     OW29470   1.945   2.424   0.458
 9524SOL    HW129471   1.988   2.367   0.388
 9524SOL    HW229472   1.922   2.367   0.537
 9525SOL     OW29473   1.980   1.993   5.145
 9525SOL    HW129474   1.973   2.005   5.244
 9525SOL    HW229475   2.020   2.075   5.104
 9526SOL     OW29476   6.387   4.205   1.331
 9526SOL    HW129477   6.486   4.217   1.322
 9526SOL    HW229478   6.344   4.295   1.346
 9527SOL     OW29479   2.612   0.664   5.640
 9527SOL    HW129480   2.595   0.760   5.663
 9527SOL    HW229481   2.706   0.655   5.605
 9528SOL     OW29482   6.893   1.545   7.023
 9528SOL    HW129483   6.951   1.607   6.970
 9528SOL    HW229484   6.915   1.555   0.090
 9529SOL     OW29485   6.478   3.602   6.544
 9529SOL    HW129486   6.540   3.535   6.504
 9529SOL    HW229487   6.393   3.556   6.572
 9530SOL     OW29488   1.267   3.333   3.402
 9530SOL    HW129489   1.340   3.274   3.434
 9530SOL    HW229490   1.257   3.410   3.466
 9531SOL     OW29491   5.029   4.103   2.059
 9531SOL    HW129492   5.055   4.025   2.115
 9531SOL    HW229493   4.945   4.082   2.008
 9532SOL     OW29494   0.373   5.471   0.794
 9532SOL    HW129495   0.342   5.560   0.828
 9532SOL    HW229496   0.472   5.472   0.785
 9533SOL     OW29497   1.110   5.973   4.215
 9533SOL    HW129498   1.124   6.062   4.172
 9533SOL    HW229499   1.047   5.919   4.160
 9534SOL     OW29500   5.989   4.066   4.949
 9534SOL    HW129501   6.027   3.985   4.994
 9534SOL    HW229502   6.047   4.145   4.968
 9535SOL     OW29503   2.121   0.571   5.718
 9535SOL    HW129504   2.032   0.604   5.685
 9535SOL    HW229505   2.146   0.619   5.802
 9536SOL     OW29506   2.970   3.797   5.146
 9536SOL    HW129507   2.906   3.798   5.223
 9536SOL    HW229508   2.999   3.890   5.125
 9537SOL     OW29509   2.288   0.675   4.701
 9537SOL    HW129510   2.305   0.678   4.603
 9537SOL    HW229511   2.359   0.727   4.749
 9538SOL     OW29512   5.278   0.870   4.212
 9538SOL    HW129513   5.376   0.857   4.195
 9538SOL    HW229514   5.229   0.785   4.192
 9539SOL     OW29515   3.260   4.080   4.515
 9539SOL    HW129516   3.288   4.007   4.577
 9539SOL    HW229517   3.170   4.058   4.478
 9540SOL     OW29518   5.724   4.924   4.452
 9540SOL    HW129519   5.671   4.978   4.517
 9540SOL    HW229520   5.821   4.926   4.477
 9541SOL     OW29521   2.866   0.486   6.012
 9541SOL    HW129522   2.938   0.417   6.004
 9541SOL    HW229523   2.777   0.441   6.012
 9542SOL     OW29524   5.329   4.989   5.337
 9542SOL    HW129525   5.305   4.897   5.305
 9542SOL    HW229526   5.299   5.057   5.271
 9543SOL     OW29527   3.544   0.924   6.358
 9543SOL    HW129528   3.535   0.843   6.415
 9543SOL    HW229529   3.459   0.940   6.307
 9544SOL     OW29530   5.752   3.091   3.776
 9544SOL    HW129531   5.742   3.076   3.677
 9544SOL    HW229532   5.766   3.003   3.821
 9545SOL     OW29533   5.577   5.534   3.142
 9545SOL    HW129534   5.515   5.603   3.104
 9545SOL    HW229535   5.609   5.475   3.068
 9546SOL     OW29536   3.729   2.143   6.369
 9546SOL    HW129537   3.662   2.195   6.317
 9546SOL    HW229538   3.808   2.124   6.312
 9547SOL     OW29539   2.565   5.504   4.244
 9547SOL    HW129540   2.471   5.535   4.256
 9547SOL    HW229541   2.611   5.562   4.177
 9548SOL     OW29542   6.893   4.662   4.962
 9548SOL    HW129543   6.918   4.577   4.916
 9548SOL    HW229544   6.812   4.702   4.918
 9549SOL     OW29545   3.385   2.084   1.333
 9549SOL    HW129546   3.303   2.106   1.387
 9549SOL    HW229547   3.449   2.032   1.389
 9550SOL     OW29548   0.191   0.791   0.287
 9550SOL    HW129549   0.288   0.805   0.267
 9550SOL    HW229550   0.180   0.709   0.343
 9551SOL     OW29551   6.092   3.137   5.908
 9551SOL    HW129552   6.182   3.099   5.889
 9551SOL    HW229553   6.100   3.211   5.975
 9552SOL     OW29554   2.343   5.870   4.946
 9552SOL    HW129555   2.399   5.800   4.990
 9552SOL    HW229556   2.246   5.844   4.954
 9553SOL     OW29557   5.865   2.387   7.003
 9553SOL    HW129558   5.917   2.406   6.920
 9553SOL    HW229559   5.786   2.447   7.007
 9554SOL     OW29560   2.467   6.529   2.672
 9554SOL    HW129561   2.388   6.474   2.644
 9554SOL    HW229562   2.530   6.472   2.725
 9555SOL     OW29563   0.894   1.392   2.293
 9555SOL    HW129564   0.911   1.302   2.334
 9555SOL    HW229565   0.958   1.459   2.331
 9556SOL     OW29566   1.867   4.343   2.423
 9556SOL    HW129567   1.791   4.403   2.447
 9556SOL    HW229568   1.917   4.318   2.506
 9557SOL     OW29569   6.447   6.312   1.456
 9557SOL    HW129570   6.415   6.388   1.513
 9557SOL    HW229571   6.382   6.296   1.382
 9558SOL     OW29572   6.056   5.785   5.753
 9558SOL    HW129573   6.054   5.716   5.825
 9558SOL    HW229574   6.141   5.837   5.758
 9559SOL     OW29575   0.623   4.759   0.623
 9559SOL    HW129576   0.552   4.829   0.622
 9559SOL    HW229577   0.629   4.718   0.714
 9560SOL     OW29578   2.840   1.535   3.137
 9560SOL    HW129579   2.743   1.516   3.127
 9560SOL    HW229580   2.856   1.589   3.220
 9561SOL     OW29581   1.555   0.701   1.017
 9561SOL    HW129582   1.641   0.686   0.969
 9561SOL    HW229583   1.523   0.616   1.057
 9562SOL     OW29584   2.879   0.520   5.645
 9562SOL    HW129585   2.891   0.595   5.710
 9562SOL    HW229586   2.886   0.433   5.692
 9563SOL     OW29587   0.453   6.687   0.360
 9563SOL    HW129588   0.486   6.685   0.265
 9563SOL    HW229589   0.412   6.777   0.379
 9564SOL     OW29590   2.981   1.364   0.568
 9564SOL    HW129591   2.945   1.303   0.498
 9564SOL    HW229592   3.048   1.426   0.527
 9565SOL     OW29593   4.524   0.915   4.918
 9565SOL    HW129594   4.425   0.903   4.907
 9565SOL    HW229595   4.547   1.012   4.911
 9566SOL     OW29596   3.129   5.524   6.608
 9566SOL    HW129597   3.208   5.584   6.591
 9566SOL    HW229598   3.066   5.570   6.671
 9567SOL     OW29599   4.768   5.111   0.437
 9567SOL    HW129600   4.798   5.204   0.414
 9567SOL    HW229601   4.709   5.115   0.518
 9568SOL     OW29602   4.292   2.579   6.046
 9568SOL    HW129603   4.276   2.636   5.966
 9568SOL    HW229604   4.385   2.593   6.079
 9569SOL     OW29605   6.341   0.698   2.514
 9569SOL    HW129606   6.347   0.690   2.414
 9569SOL    HW229607   6.290   0.620   2.550
 9570SOL     OW29608   0.386   3.308   1.813
 9570SOL    HW129609   0.373   3.386   1.753
 9570SOL    HW229610   0.483   3.295   1.830
 9571SOL     OW29611   3.610   3.836   6.611
 9571SOL    HW129612   3.518   3.844   6.652
 9571SOL    HW229613   3.634   3.924   6.569
 9572SOL     OW29614   2.240   4.922   2.132
 9572SOL    HW129615   2.310   4.903   2.063
 9572SOL    HW229616   2.179   4.994   2.098
 9573SOL     OW29617   0.849   2.319   6.523
 9573SOL    HW129618   0.759   2.355   6.498
 9573SOL    HW229619   0.920   2.386   6.498
 9574SOL     OW29620   4.145   3.527   3.161
 9574SOL    HW129621   4.240   3.528   3.192
 9574SOL    HW229622   4.096   3.451   3.204
 9575SOL     OW29623   0.690   0.786   1.299
 9575SOL    HW129624   0.748   0.722   1.249
 9575SOL    HW229625   0.679   0.754   1.394
 9576SOL     OW29626   2.169   1.745   1.104
 9576SOL    HW129627   2.115   1.708   1.180
 9576SOL    HW229628   2.127   1.829   1.071
 9577SOL     OW29629   1.092   0.086   6.029
 9577SOL    HW129630   1.007   0.081   6.083
 9577SOL    HW229631   1.139   0.171   6.052
 9578SOL     OW29632   0.791   4.053   2.813
 9578SOL    HW129633   0.869   4.012   2.767
 9578SOL    HW229634   0.818   4.084   2.904
 9579SOL     OW29635   0.946   4.433   3.460
 9579SOL    HW129636   0.956   4.444   3.361
 9579SOL    HW229637   0.943   4.523   3.503
 9580SOL     OW29638   4.496   3.341   0.511
 9580SOL    HW129639   4.588   3.355   0.547
 9580SOL    HW229640   4.439   3.297   0.582
 9581SOL     OW29641   0.657   6.651   5.794
 9581SOL    HW129642   0.742   6.696   5.768
 9581SOL    HW229643   0.596   6.646   5.715
 9582SOL     OW29644   4.150   5.027   5.640
 9582SOL    HW129645   4.246   5.039   5.616
 9582SOL    HW229646   4.094   5.083   5.579
 9583SOL     OW29647   3.622   4.299   1.489
 9583SOL    HW129648   3.610   4.338   1.581
 9583SOL    HW229649   3.597   4.202   1.491
 9584SOL     OW29650   0.223   5.169   6.372
 9584SOL    HW129651   0.276   5.210   6.447
 9584SOL    HW229652   0.260   5.200   6.285
 9585SOL     OW29653   6.564   6.915   4.627
 9585SOL    HW129654   6.466   6.901   4.644
 9585SOL    HW229655   6.586   7.012   4.636
 9586SOL     OW29656   5.146   4.760   2.127
 9586SOL    HW129657   5.155   4.678   2.072
 9586SOL    HW229658   5.054   4.763   2.167
 9587SOL     OW29659   0.799   0.593   1.155
 9587SOL    HW129660   0.812   0.559   1.061
 9587SOL    HW229661   0.863   0.547   1.216
 9588SOL     OW29662   6.909   0.788   1.203
 9588SOL    HW129663   6.959   0.782   1.117
 9588SOL    HW229664   6.821   0.740   1.194
 9589SOL     OW29665   2.292   4.960   6.768
 9589SOL    HW129666   2.279   4.868   6.805
 9589SOL    HW229667   2.378   4.963   6.716
 9590SOL     OW29668   6.333   2.766   2.008
 9590SOL    HW129669   6.273   2.800   2.080
 9590SOL    HW229670   6.424   2.808   2.018
 9591SOL     OW29671   3.201   5.702   5.594
 9591SOL    HW129672   3.270   5.660   5.654
 9591SOL    HW229673   3.143   5.630   5.555
 9592SOL     OW29674   3.267   4.478   0.626
 9592SOL    HW129675   3.245   4.539   0.549
 9592SOL    HW229676   3.223   4.513   0.709
 9593SOL     OW29677   0.352   0.737   5.692
 9593SOL    HW129678   0.287   0.813   5.701
 9593SOL    HW229679   0.302   0.651   5.682
 9594SOL     OW29680   1.178   5.133   2.835
 9594SOL    HW129681   1.117   5.109   2.910
 9594SOL    HW229682   1.242   5.204   2.865
 9595SOL     OW29683   0.555   3.254   4.579
 9595SOL    HW129684   0.606   3.324   4.529
 9595SOL    HW229685   0.477   3.295   4.625
 9596SOL     OW29686   0.256   5.390   5.969
 9596SOL    HW129687   0.262   5.458   5.896
 9596SOL    HW229688   0.272   5.299   5.931
 9597SOL     OW29689   1.242   4.421   1.167
 9597SOL    HW129690   1.229   4.520   1.164
 9597SOL    HW229691   1.163   4.375   1.127
 9598SOL     OW29692   1.262   4.051   3.670
 9598SOL    HW129693   1.186   4.115   3.680
 9598SOL    HW229694   1.304   4.035   3.760
 9599SOL     OW29695   3.209   0.035   4.477
 9599SOL    HW129696   3.218   7.010   4.561
 9599SOL    HW229697   3.218   0.132   4.499
 9600SOL     OW29698   2.378   6.402   6.846
 9600SOL    HW129699   2.394   6.349   6.762
 9600SOL    HW229700   2.280   6.414   6.860
 9601SOL     OW29701   4.613   3.931   0.606
 9601SOL    HW129702   4.525   3.888   0.587
 9601SOL    HW229703   4.685   3.862   0.609
 9602SOL     OW29704   6.389   4.822   5.906
 9602SOL    HW129705   6.427   4.873   5.829
 9602SOL    HW229706   6.309   4.771   5.876
 9603SOL     OW29707   3.950   1.855   4.231
 9603SOL    HW129708   3.889   1.931   4.254
 9603SOL    HW229709   4.008   1.881   4.154
 9604SOL     OW29710   4.877   0.231   6.387
 9604SOL    HW129711   4.793   0.215   6.335
 9604SOL    HW229712   4.897   0.151   6.443
 9605SOL     OW29713   0.616   5.781   3.631
 9605SOL    HW129714   0.592   5.696   3.678
 9605SOL    HW229715   0.665   5.759   3.547
 9606SOL     OW29716   1.699   6.531   6.625
 9606SOL    HW129717   1.701   6.618   6.576
 9606SOL    HW229718   1.765   6.468   6.583
 9607SOL     OW29719   1.808   1.882   0.214
 9607SOL    HW129720   1.823   1.907   0.310
 9607SOL    HW229721   1.878   1.817   0.185
 9608SOL     OW29722   6.791   5.392   2.710
 9608SOL    HW129723   6.698   5.429   2.715
 9608SOL    HW229724   6.846   5.431   2.784
 9609SOL     OW29725   2.574   4.340   6.961
 9609SOL    HW129726   2.600   4.396   0.010
 9609SOL    HW229727   2.528   4.398   6.893
 9610SOL     OW29728   1.111   4.302   3.980
 9610SOL    HW129729   1.022   4.347   3.970
 9610SOL    HW229730   1.183   4.371   3.976
 9611SOL     OW29731   0.855   6.139   6.844
 9611SOL    HW129732   0.892   6.095   6.926
 9611SOL    HW229733   0.931   6.175   6.789
 9612SOL     OW29734   0.592   4.237   1.492
 9612SOL    HW129735   0.664   4.172   1.516
 9612SOL    HW229736   0.529   4.195   1.426
 9613SOL     OW29737   5.244   6.840   3.437
 9613SOL    HW129738   5.257   6.920   3.496
 9613SOL    HW229739   5.167   6.786   3.471
 9614SOL     OW29740   3.207   2.511   0.710
 9614SOL    HW129741   3.272   2.539   0.781
 9614SOL    HW229742   3.256   2.461   0.638
 9615SOL     OW29743   1.929   6.893   7.000
 9615SOL    HW129744   1.876   6.814   6.970
 9615SOL    HW229745   1.867   6.962   0.009
 9616SOL     OW29746   4.353   3.580   1.297
 9616SOL    HW129747   4.444   3.619   1.288
 9616SOL    HW229748   4.303   3.629   1.368
 9617SOL     OW29749   1.782   2.751   3.076
 9617SOL    HW129750   1.692   2.755   3.033
 9617SOL    HW229751   1.775   2.701   3.163
 9618SOL     OW29752   4.430   0.142   5.628
 9618SOL    HW129753   4.422   0.053   5.674
 9618SOL    HW229754   4.426   0.215   5.697
 9619SOL     OW29755   1.325   6.677   0.425
 9619SOL    HW129756   1.237   6.657   0.467
 9619SOL    HW229757   1.398   6.633   0.478
 9620SOL     OW29758   4.845   1.862   6.320
 9620SOL    HW129759   4.842   1.770   6.361
 9620SOL    HW229760   4.775   1.919   6.363
 9621SOL     OW29761   1.029   1.132   1.753
 9621SOL    HW129762   0.984   1.083   1.677
 9621SOL    HW229763   1.107   1.078   1.785
 9622SOL     OW29764   6.452   1.064   0.159
 9622SOL    HW129765   6.426   1.117   0.240
 9622SOL    HW229766   6.534   1.010   0.179
 9623SOL     OW29767   2.678   4.505   6.260
 9623SOL    HW129768   2.627   4.457   6.189
 9623SOL    HW229769   2.774   4.479   6.257
 9624SOL     OW29770   6.830   4.647   2.378
 9624SOL    HW129771   6.743   4.634   2.330
 9624SOL    HW229772   6.830   4.736   2.424
 9625SOL     OW29773   5.228   5.462   0.012
 9625SOL    HW129774   5.255   5.393   0.079
 9625SOL    HW229775   5.268   5.440   6.953
 9626SOL     OW29776   3.026   5.739   0.043
 9626SOL    HW129777   3.072   5.678   0.107
 9626SOL    HW229778   3.079   5.744   6.988
 9627SOL     OW29779   6.349   6.188   3.287
 9627SOL    HW129780   6.426   6.125   3.279
 9627SOL    HW229781   6.370   6.258   3.356
 9628SOL     OW29782   5.303   4.753   0.240
 9628SOL    HW129783   5.276   4.846   0.266
 9628SOL    HW229784   5.282   4.739   0.144
 9629SOL     OW29785   0.554   6.882   2.258
 9629SOL    HW129786   0.549   6.980   2.242
 9629SOL    HW229787   0.644   6.859   2.297
 9630SOL     OW29788   6.549   6.094   5.539
 9630SOL    HW129789   6.633   6.136   5.504
 9630SOL    HW229790   6.515   6.027   5.472
 9631SOL     OW29791   6.556   0.004   6.932
 9631SOL    HW129792   6.648   7.021   6.968
 9631SOL    HW229793   6.560   0.009   6.832
 9632SOL     OW29794   2.073   5.735   2.735
 9632SOL    HW129795   1.994   5.673   2.739
 9632SOL    HW229796   2.049   5.823   2.777
 9633SOL     OW29797   5.357   5.393   6.797
 9633SOL    HW129798   5.270   5.344   6.803
 9633SOL    HW229799   5.389   5.394   6.703
 9634SOL     OW29800   1.463   6.591   3.771
 9634SOL    HW129801   1.377   6.621   3.813
 9634SOL    HW229802   1.531   6.575   3.842
 9635SOL     OW29803   1.564   5.110   5.513
 9635SOL    HW129804   1.590   5.088   5.607
 9635SOL    HW229805   1.512   5.034   5.474
 9636SOL     OW29806   3.704   1.924   6.547
 9636SOL    HW129807   3.688   1.918   6.646
 9636SOL    HW229808   3.684   2.017   6.516
 9637SOL     OW29809   3.031   2.026   6.272
 9637SOL    HW129810   3.075   2.107   6.311
 9637SOL    HW229811   3.101   1.959   6.247
 9638SOL     OW29812   6.846   3.418   6.666
 9638SOL    HW129813   6.924   3.379   6.715
 9638SOL    HW229814   6.821   3.359   6.590
 9639SOL     OW29815   3.813   1.730   2.374
 9639SOL    HW129816   3.847   1.640   2.401
 9639SOL    HW229817   3.747   1.719   2.299
 9640SOL     OW29818   2.651   1.824   2.998
 9640SOL    HW129819   2.691   1.867   3.079
 9640SOL    HW229820   2.723   1.778   2.946
 9641SOL     OW29821   4.793   6.215   0.900
 9641SOL    HW129822   4.773   6.217   0.998
 9641SOL    HW229823   4.840   6.299   0.874
 9642SOL     OW29824   3.200   6.206   5.476
 9642SOL    HW129825   3.116   6.233   5.429
 9642SOL    HW229826   3.189   6.115   5.514
 9643SOL     OW29827   5.803   5.307   4.191
 9643SOL    HW129828   5.777   5.271   4.102
 9643SOL    HW229829   5.882   5.257   4.226
 9644SOL     OW29830   0.930   4.631   5.590
 9644SOL    HW129831   0.984   4.632   5.673
 9644SOL    HW229832   0.984   4.592   5.515
 9645SOL     OW29833   4.112   4.900   3.507
 9645SOL    HW129834   4.211   4.900   3.524
 9645SOL    HW229835   4.063   4.884   3.592
 9646SOL     OW29836   2.711   4.823   2.213
 9646SOL    HW129837   2.683   4.757   2.142
 9646SOL    HW229838   2.641   4.894   2.223
 9647SOL     OW29839   6.109   5.199   1.335
 9647SOL    HW129840   6.033   5.264   1.332
 9647SOL    HW229841   6.185   5.235   1.282
 9648SOL     OW29842   3.799   2.380   6.984
 9648SOL    HW129843   3.855   2.300   7.004
 9648SOL    HW229844   3.777   2.428   0.039
 9649SOL     OW29845   2.743   5.609   6.946
 9649SOL    HW129846   2.707   5.547   6.876
 9649SOL    HW229847   2.699   5.589   0.004
 9650SOL     OW29848   5.371   4.969   2.537
 9650SOL    HW129849   5.434   5.045   2.520
 9650SOL    HW229850   5.381   4.938   2.632
 9651SOL     OW29851   0.124   0.690   6.601
 9651SOL    HW129852   0.166   0.690   6.511
 9651SOL    HW229853   0.055   0.618   6.606
 9652SOL     OW29854   2.306   4.866   0.837
 9652SOL    HW129855   2.317   4.856   0.738
 9652SOL    HW229856   2.211   4.849   0.861
 9653SOL     OW29857   4.136   5.295   4.809
 9653SOL    HW129858   4.201   5.251   4.747
 9653SOL    HW229859   4.044   5.263   4.788
 9654SOL     OW29860   3.685   3.201   1.382
 9654SOL    HW129861   3.656   3.138   1.310
 9654SOL    HW229862   3.608   3.260   1.408
 9655SOL     OW29863   0.220   1.473   6.793
 9655SOL    HW129864   0.163   1.393   6.774
 9655SOL    HW229865   0.236   1.479   6.892
 9656SOL     OW29866   2.946   2.644   1.402
 9656SOL    HW129867   2.998   2.647   1.317
 9656SOL    HW229868   2.906   2.734   1.420
 9657SOL     OW29869   6.808   1.717   3.881
 9657SOL    HW129870   6.795   1.657   3.803
 9657SOL    HW229871   6.730   1.778   3.891
 9658SOL     OW29872   5.869   1.460   2.857
 9658SOL    HW129873   5.926   1.494   2.932
 9658SOL    HW229874   5.816   1.535   2.818
 9659SOL     OW29875   6.812   4.309   0.294
 9659SOL    HW129876   6.830   4.356   0.207
 9659SOL    HW229877   6.722   4.265   0.291
 9660SOL     OW29878   0.238   5.752   1.323
 9660SOL    HW129879   0.314   5.776   1.384
 9660SOL    HW229880   0.226   5.653   1.322
 9661SOL     OW29881   3.723   6.145   1.998
 9661SOL    HW129882   3.744   6.133   1.901
 9661SOL    HW229883   3.806   6.127   2.051
 9662SOL     OW29884   5.117   2.938   5.303
 9662SOL    HW129885   5.111   2.953   5.204
 9662SOL    HW229886   5.191   2.874   5.322
 9663SOL     OW29887   1.073   6.124   4.431
 9663SOL    HW129888   1.095   6.074   4.347
 9663SOL    HW229889   1.057   6.220   4.410
 9664SOL     OW29890   6.048   6.579   3.618
 9664SOL    HW129891   6.114   6.555   3.547
 9664SOL    HW229892   6.084   6.552   3.707
 9665SOL     OW29893   5.464   6.288   6.490
 9665SOL    HW129894   5.522   6.347   6.545
 9665SOL    HW229895   5.505   6.197   6.483
 9666SOL     OW29896   5.893   4.331   1.460
 9666SOL    HW129897   5.929   4.277   1.384
 9666SOL    HW229898   5.948   4.315   1.542
 9667SOL     OW29899   3.335   3.798   4.093
 9667SOL    HW129900   3.388   3.718   4.123
 9667SOL    HW229901   3.394   3.857   4.038
 9668SOL     OW29902   5.640   1.760   6.986
 9668SOL    HW129903   5.719   1.796   0.005
 9668SOL    HW229904   5.580   1.835   6.958
 9669SOL     OW29905   1.035   7.009   1.870
 9669SOL    HW129906   1.116   6.988   1.814
 9669SOL    HW229907   0.962   0.014   1.812
 9670SOL     OW29908   5.409   4.876   6.477
 9670SOL    HW129909   5.330   4.832   6.434
 9670SOL    HW229910   5.403   4.975   6.463
 9671SOL     OW29911   6.322   5.148   6.497
 9671SOL    HW129912   6.400   5.181   6.550
 9671SOL    HW229913   6.334   5.170   6.401
 9672SOL     OW29914   1.358   5.968   4.595
 9672SOL    HW129915   1.302   5.886   4.604
 9672SOL    HW229916   1.305   6.048   4.621
 9673SOL     OW29917   5.828   3.765   0.329
 9673SOL    HW129918   5.846   3.773   0.427
 9673SOL    HW229919   5.908   3.724   0.284
 9674SOL     OW29920   2.422   5.739   3.248
 9674SOL    HW129921   2.471   5.668   3.297
 9674SOL    HW229922   2.434   5.727   3.150
 9675SOL     OW29923   6.137   1.831   0.807
 9675SOL    HW129924   6.094   1.796   0.724
 9675SOL    HW229925   6.229   1.863   0.786
 9676SOL     OW29926   1.146   3.880   5.360
 9676SOL    HW129927   1.120   3.915   5.271
 9676SOL    HW229928   1.100   3.793   5.376
 9677SOL     OW29929   1.732   5.593   5.652
 9677SOL    HW129930   1.800   5.520   5.660
 9677SOL    HW229931   1.765   5.675   5.699
 9678SOL     OW29932   3.372   3.448   2.688
 9678SOL    HW129933   3.360   3.350   2.708
 9678SOL    HW229934   3.468   3.466   2.668
 9679SOL     OW29935   1.981   1.220   2.624
 9679SOL    HW129936   2.017   1.127   2.625
 9679SOL    HW229937   2.044   1.280   2.574
 9680SOL     OW29938   6.097   0.296   3.850
 9680SOL    HW129939   6.058   0.320   3.939
 9680SOL    HW229940   6.158   0.369   3.819
 9681SOL     OW29941   3.733   1.046   0.524
 9681SOL    HW129942   3.682   1.036   0.609
 9681SOL    HW229943   3.688   1.115   0.466
 9682SOL     OW29944   5.043   5.163   3.833
 9682SOL    HW129945   5.088   5.252   3.832
 9682SOL    HW229946   4.946   5.174   3.808
 9683SOL     OW29947   2.774   5.438   1.023
 9683SOL    HW129948   2.724   5.525   1.021
 9683SOL    HW229949   2.855   5.448   1.082
 9684SOL     OW29950   0.269   2.065   4.679
 9684SOL    HW129951   0.233   2.158   4.669
 9684SOL    HW229952   0.297   2.051   4.774
 9685SOL     OW29953   1.835   3.676   0.820
 9685SOL    HW129954   1.799   3.726   0.898
 9685SOL    HW229955   1.845   3.738   0.742
 9686SOL     OW29956   6.776   1.973   0.624
 9686SOL    HW129957   6.733   1.999   0.538
 9686SOL    HW229958   6.739   1.886   0.656
 9687SOL     OW29959   1.906   1.257   3.620
 9687SOL    HW129960   1.856   1.311   3.553
 9687SOL    HW229961   1.866   1.166   3.626
 9688SOL     OW29962   6.468   2.112   3.080
 9688SOL    HW129963   6.413   2.155   3.152
 9688SOL    HW229964   6.523   2.181   3.034
 9689SOL     OW29965   1.543   5.892   0.517
 9689SOL    HW129966   1.579   5.834   0.444
 9689SOL    HW229967   1.503   5.835   0.588
 9690SOL     OW29968   5.776   5.897   6.403
 9690SOL    HW129969   5.719   5.955   6.461
 9690SOL    HW229970   5.863   5.878   6.449
 9691SOL     OW29971   3.082   5.021   1.805
 9691SOL    HW129972   3.146   5.089   1.769
 9691SOL    HW229973   3.128   4.964   1.872
 9692SOL     OW29974   2.680   5.558   2.823
 9692SOL    HW129975   2.708   5.580   2.729
 9692SOL    HW229976   2.725   5.473   2.851
 9693SOL     OW29977   6.360   5.722   1.070
 9693SOL    HW129978   6.315   5.811   1.082
 9693SOL    HW229979   6.441   5.718   1.128
 9694SOL     OW29980   2.321   0.876   6.603
 9694SOL    HW129981   2.338   0.809   6.531
 9694SOL    HW229982   2.331   0.968   6.566
 9695SOL     OW29983   6.775   4.083   1.668
 9695SOL    HW129984   6.681   4.113   1.683
 9695SOL    HW229985   6.796   4.006   1.729
 9696SOL     OW29986   5.103   2.635   1.010
 9696SOL    HW129987   5.019   2.586   0.989
 9696SOL    HW229988   5.171   2.571   1.046
 9697SOL     OW29989   0.169   6.392   6.802
 9697SOL    HW129990   0.218   6.329   6.862
 9697SOL    HW229991   0.198   6.485   6.820
 9698SOL     OW29992   4.955   2.164   6.021
 9698SOL    HW129993   4.980   2.071   6.047
 9698SOL    HW229994   5.021   2.199   5.954
 9699SOL     OW29995   0.302   4.553   6.603
 9699SOL    HW129996   0.328   4.538   6.698
 9699SOL    HW229997   0.373   4.607   6.557
 9700SOL     OW29998   4.512   5.219   5.153
 9700SOL    HW129999   4.536   5.142   5.211
 9700SOL    HW230000   4.426   5.200   5.105
 9701SOL     OW30001   3.871   5.005   4.949
 9701SOL    HW130002   3.854   5.095   4.908
 9701SOL    HW230003   3.955   4.966   4.910
 9702SOL     OW30004   4.953   0.793   6.896
 9702SOL    HW130005   4.987   0.804   6.803
 9702SOL    HW230006   4.906   0.877   6.925
 9703SOL     OW30007   4.092   5.144   4.537
 9703SOL    HW130008   4.089   5.059   4.485
 9703SOL    HW230009   3.999   5.167   4.568
 9704SOL     OW30010   2.981   1.313   2.897
 9704SOL    HW130011   3.055   1.247   2.905
 9704SOL    HW230012   3.006   1.398   2.943
 9705SOL     OW30013   4.877   5.821   6.499
 9705SOL    HW130014   4.868   5.791   6.594
 9705SOL    HW230015   4.786   5.826   6.457
 9706SOL     OW30016   0.496   2.421   0.919
 9706SOL    HW130017   0.402   2.389   0.931
 9706SOL    HW230018   0.506   2.512   0.959
 9707SOL     OW30019   6.229   4.450   1.286
 9707SOL    HW130020   6.182   4.414   1.205
 9707SOL    HW230021   6.165   4.506   1.339
 9708SOL     OW30022   0.940   2.342   2.569
 9708SOL    HW130023   1.009   2.374   2.504
 9708SOL    HW230024   0.907   2.420   2.623
 9709SOL     OW30025   6.056   5.885   2.266
 9709SOL    HW130026   6.050   5.891   2.366
 9709SOL    HW230027   6.015   5.799   2.236
 9710SOL     OW30028   0.665   1.427   2.074
 9710SOL    HW130029   0.576   1.466   2.095
 9710SOL    HW230030   0.715   1.407   2.159
 9711SOL     OW30031   1.685   4.262   6.088
 9711SOL    HW130032   1.760   4.286   6.151
 9711SOL    HW230033   1.712   4.183   6.033
 9712SOL     OW30034   6.147   4.452   5.611
 9712SOL    HW130035   6.174   4.541   5.573
 9712SOL    HW230036   6.212   4.425   5.682
 9713SOL     OW30037   1.298   5.203   3.710
 9713SOL    HW130038   1.342   5.120   3.675
 9713SOL    HW230039   1.225   5.177   3.774
 9714SOL     OW30040   2.888   1.177   1.914
 9714SOL    HW130041   2.857   1.272   1.915
 9714SOL    HW230042   2.809   1.116   1.922
 9715SOL     OW30043   5.617   4.393   6.639
 9715SOL    HW130044   5.602   4.477   6.586
 9715SOL    HW230045   5.663   4.326   6.581
 9716SOL     OW30046   4.163   2.732   6.458
 9716SOL    HW130047   4.159   2.641   6.417
 9716SOL    HW230048   4.230   2.788   6.409
 9717SOL     OW30049   5.986   5.285   5.565
 9717SOL    HW130050   6.039   5.260   5.646
 9717SOL    HW230051   5.985   5.385   5.557
 9718SOL     OW30052   4.995   2.743   1.764
 9718SOL    HW130053   5.048   2.798   1.827
 9718SOL    HW230054   5.033   2.752   1.672
 9719SOL     OW30055   0.352   1.803   6.733
 9719SOL    HW130056   0.383   1.771   6.822
 9719SOL    HW230057   0.377   1.736   6.662
 9720SOL     OW30058   0.062   5.823   2.032
 9720SOL    HW130059   7.018   5.859   2.089
 9720SOL    HW230060   0.066   5.723   2.043
 9721SOL     OW30061   0.578   3.316   1.006
 9721SOL    HW130062   0.565   3.228   1.053
 9721SOL    HW230063   0.669   3.352   1.027
 9722SOL     OW30064   0.499   0.355   3.842
 9722SOL    HW130065   0.456   0.292   3.907
 9722SOL    HW230066   0.521   0.306   3.757
 9723SOL     OW30067   2.109   6.056   3.681
 9723SOL    HW130068   2.164   6.120   3.627
 9723SOL    HW230069   2.104   6.088   3.776
 9724SOL     OW30070   2.346   3.628   0.431
 9724SOL    HW130071   2.250   3.604   0.447
 9724SOL    HW230072   2.405   3.564   0.479
 9725SOL     OW30073   4.113   4.552   6.720
 9725SOL    HW130074   4.143   4.514   6.632
 9725SOL    HW230075   4.143   4.491   6.794
 9726SOL     OW30076   4.845   0.368   3.980
 9726SOL    HW130077   4.926   0.310   3.978
 9726SOL    HW230078   4.837   0.412   4.069
 9727SOL     OW30079   0.635   3.424   5.144
 9727SOL    HW130080   0.644   3.475   5.058
 9727SOL    HW230081   0.611   3.329   5.123
 9728SOL     OW30082   0.115   0.134   5.590
 9728SOL    HW130083   0.099   0.217   5.536
 9728SOL    HW230084   0.034   0.076   5.587
 9729SOL     OW30085   1.124   4.313   2.945
 9729SOL    HW130086   1.150   4.221   2.914
 9729SOL    HW230087   1.031   4.310   2.982
 9730SOL     OW30088   0.088   3.284   2.704
 9730SOL    HW130089   0.122   3.344   2.632
 9730SOL    HW230090   0.108   3.325   2.793
 9731SOL     OW30091   4.465   3.843   0.878
 9731SOL    HW130092   4.367   3.865   0.883
 9731SOL    HW230093   4.477   3.744   0.888
 9732SOL     OW30094   5.588   5.913   3.429
 9732SOL    HW130095   5.597   5.839   3.496
 9732SOL    HW230096   5.505   5.898   3.375
 9733SOL     OW30097   5.261   5.054   0.164
 9733SOL    HW130098   5.328   5.033   0.093
 9733SOL    HW230099   5.258   5.153   0.178
 9734SOL     OW30100   5.746   1.633   3.107
 9734SOL    HW130101   5.802   1.640   3.024
 9734SOL    HW230102   5.668   1.695   3.100
 9735SOL     OW30103   1.811   4.703   3.064
 9735SOL    HW130104   1.875   4.675   3.136
 9735SOL    HW230105   1.809   4.635   2.992
 9736SOL     OW30106   6.023   2.115   6.085
 9736SOL    HW130107   5.932   2.117   6.043
 9736SOL    HW230108   6.028   2.184   6.157
 9737SOL     OW30109   6.704   3.180   4.778
 9737SOL    HW130110   6.664   3.094   4.810
 9737SOL    HW230111   6.754   3.223   4.853
 9738SOL     OW30112   1.999   6.997   2.737
 9738SOL    HW130113   1.970   0.054   2.777
 9738SOL    HW230114   1.921   6.953   2.692
 9739SOL     OW30115   6.471   5.442   2.128
 9739SOL    HW130116   6.557   5.448   2.078
 9739SOL    HW230117   6.488   5.450   2.226
 9740SOL     OW30118   6.267   2.411   3.943
 9740SOL    HW130119   6.300   2.368   4.026
 9740SOL    HW230120   6.262   2.344   3.869
 9741SOL     OW30121   4.900   1.995   2.704
 9741SOL    HW130122   4.853   2.079   2.733
 9741SOL    HW230123   4.917   1.999   2.606
 9742SOL     OW30124   3.867   0.019   1.877
 9742SOL    HW130125   3.832   6.966   1.834
 9742SOL    HW230126   3.835   0.024   1.971
 9743SOL     OW30127   1.507   1.238   4.443
 9743SOL    HW130128   1.582   1.294   4.410
 9743SOL    HW230129   1.508   1.235   4.543
 9744SOL     OW30130   0.618   0.314   3.098
 9744SOL    HW130131   0.581   0.272   3.015
 9744SOL    HW230132   0.718   0.320   3.091
 9745SOL     OW30133   6.578   3.230   6.163
 9745SOL    HW130134   6.670   3.198   6.141
 9745SOL    HW230135   6.563   3.320   6.122
 9746SOL     OW30136   6.442   1.118   6.145
 9746SOL    HW130137   6.373   1.191   6.149
 9746SOL    HW230138   6.403   1.037   6.101
 9747SOL     OW30139   1.768   0.534   1.977
 9747SOL    HW130140   1.851   0.585   1.999
 9747SOL    HW230141   1.764   0.451   2.032
 9748SOL     OW30142   0.951   1.091   3.435
 9748SOL    HW130143   0.993   1.154   3.501
 9748SOL    HW230144   1.012   1.081   3.356
 9749SOL     OW30145   2.158   1.624   5.013
 9749SOL    HW130146   2.239   1.680   4.991
 9749SOL    HW230147   2.134   1.638   5.109
 9750SOL     OW30148   5.454   4.718   3.360
 9750SOL    HW130149   5.468   4.621   3.378
 9750SOL    HW230150   5.388   4.755   3.425
 9751SOL     OW30151   1.697   1.294   0.558
 9751SOL    HW130152   1.643   1.241   0.493
 9751SOL    HW230153   1.644   1.373   0.589
 9752SOL     OW30154   5.135   1.651   6.984
 9752SOL    HW130155   5.178   1.732   7.024
 9752SOL    HW230156   5.079   1.606   0.024
 9753SOL     OW30157   5.976   4.893   5.170
 9753SOL    HW130158   5.986   4.956   5.247
 9753SOL    HW230159   5.888   4.847   5.177
 9754SOL     OW30160   0.740   1.515   6.517
 9754SOL    HW130161   0.758   1.544   6.610
 9754SOL    HW230162   0.770   1.420   6.505
 9755SOL     OW30163   3.913   3.667   5.080
 9755SOL    HW130164   3.916   3.626   5.171
 9755SOL    HW230165   3.834   3.633   5.030
 9756SOL     OW30166   6.045   3.271   0.410
 9756SOL    HW130167   6.084   3.204   0.473
 9756SOL    HW230168   5.988   3.225   0.342
 9757SOL     OW30169   5.498   3.700   3.324
 9757SOL    HW130170   5.598   3.709   3.329
 9757SOL    HW230171   5.459   3.712   3.415
 9758SOL     OW30172   2.517   0.030   0.022
 9758SOL    HW130173   2.477   0.070   6.970
 9758SOL    HW230174   2.483   6.968   0.036
 9759SOL     OW30175   2.300   6.946   6.743
 9759SOL    HW130176   2.302   6.893   6.828
 9759SOL    HW230177   2.383   6.928   6.691
 9760SOL     OW30178   4.377   3.494   5.253
 9760SOL    HW130179   4.468   3.534   5.237
 9760SOL    HW230180   4.387   3.397   5.275
 9761SOL     OW30181   6.051   6.765   1.570
 9761SOL    HW130182   5.982   6.695   1.553
 9761SOL    HW230183   6.035   6.808   1.659
 9762SOL     OW30184   2.694   2.421   4.281
 9762SOL    HW130185   2.765   2.382   4.223
 9762SOL    HW230186   2.688   2.519   4.263
 9763SOL     OW30187   4.325   2.275   1.782
 9763SOL    HW130188   4.314   2.246   1.877
 9763SOL    HW230189   4.388   2.213   1.735
 9764SOL     OW30190   0.827   2.482   3.023
 9764SOL    HW130191   0.868   2.392   3.014
 9764SOL    HW230192   0.816   2.523   2.932
 9765SOL     OW30193   6.297   2.050   2.880
 9765SOL    HW130194   6.357   2.056   2.959
 9765SOL    HW230195   6.272   2.142   2.849
 9766SOL     OW30196   2.728   0.509   3.273
 9766SOL    HW130197   2.753   0.425   3.225
 9766SOL    HW230198   2.796   0.580   3.256
 9767SOL     OW30199   5.167   2.019   4.967
 9767SOL    HW130200   5.264   2.044   4.974
 9767SOL    HW230201   5.135   1.986   5.056
 9768SOL     OW30202   4.415   1.709   2.085
 9768SOL    HW130203   4.476   1.644   2.040
 9768SOL    HW230204   4.463   1.796   2.100
 9769SOL     OW30205   1.821   1.234   2.093
 9769SOL    HW130206   1.894   1.166   2.091
 9769SOL    HW230207   1.804   1.262   2.188
 9770SOL     OW30208   5.439   0.343   6.831
 9770SOL    HW130209   5.527   0.297   6.841
 9770SOL    HW230210   5.444   0.409   6.756
 9771SOL     OW30211   3.682   4.993   1.584
 9771SOL    HW130212   3.613   4.928   1.616
 9771SOL    HW230213   3.690   5.068   1.649
 9772SOL     OW30214   1.173   6.232   2.505
 9772SOL    HW130215   1.187   6.309   2.443
 9772SOL    HW230216   1.106   6.258   2.575
 9773SOL     OW30217   5.732   6.865   4.307
 9773SOL    HW130218   5.651   6.806   4.314
 9773SOL    HW230219   5.811   6.810   4.278
 9774SOL     OW30220   6.363   4.942   2.074
 9774SOL    HW130221   6.282   4.971   2.124
 9774SOL    HW230222   6.357   4.972   1.979
 9775SOL     OW30223   2.905   1.377   3.565
 9775SOL    HW130224   2.978   1.386   3.497
 9775SOL    HW230225   2.886   1.466   3.606
 9776SOL     OW30226   6.986   5.714   4.430
 9776SOL    HW130227   0.053   5.726   4.455
 9776SOL    HW230228   6.980   5.672   4.340
 9777SOL     OW30229   5.821   5.191   6.609
 9777SOL    HW130230   5.809   5.092   6.606
 9777SOL    HW230231   5.919   5.213   6.608
 9778SOL     OW30232   0.105   0.857   3.653
 9778SOL    HW130233   0.160   0.940   3.645
 9778SOL    HW230234   0.165   0.778   3.665
 9779SOL     OW30235   2.109   1.453   4.689
 9779SOL    HW130236   2.087   1.533   4.632
 9779SOL    HW230237   2.192   1.471   4.741
 9780SOL     OW30238   2.464   2.411   1.218
 9780SOL    HW130239   2.385   2.378   1.269
 9780SOL    HW230240   2.518   2.333   1.186
 9781SOL     OW30241   1.118   3.836   3.590
 9781SOL    HW130242   1.168   3.896   3.652
 9781SOL    HW230243   1.094   3.886   3.507
 9782SOL     OW30244   6.938   0.687   1.469
 9782SOL    HW130245   6.922   0.719   1.376
 9782SOL    HW230246   6.876   0.735   1.532
 9783SOL     OW30247   5.059   2.031   2.073
 9783SOL    HW130248   5.094   1.977   1.996
 9783SOL    HW230249   4.964   2.057   2.055
 9784SOL     OW30250   4.160   1.421   3.731
 9784SOL    HW130251   4.081   1.361   3.742
 9784SOL    HW230252   4.141   1.488   3.660
 9785SOL     OW30253   6.978   4.192   4.922
 9785SOL    HW130254   0.027   4.139   4.893
 9785SOL    HW230255   6.945   4.157   5.010
 9786SOL     OW30256   2.308   4.975   6.385
 9786SOL    HW130257   2.402   5.011   6.386
 9786SOL    HW230258   2.296   4.917   6.304
 9787SOL     OW30259   5.024   3.578   1.531
 9787SOL    HW130260   4.972   3.520   1.593
 9787SOL    HW230261   4.979   3.667   1.521
 9788SOL     OW30262   0.768   0.525   3.594
 9788SOL    HW130263   0.810   0.486   3.512
 9788SOL    HW230264   0.682   0.569   3.569
 9789SOL     OW30265   1.439   5.876   6.840
 9789SOL    HW130266   1.358   5.885   6.898
 9789SOL    HW230267   1.443   5.952   6.776
 9790SOL     OW30268   5.813   3.999   5.829
 9790SOL    HW130269   5.724   4.038   5.806
 9790SOL    HW230270   5.841   3.935   5.757
 9791SOL     OW30271   0.433   1.215   3.340
 9791SOL    HW130272   0.411   1.282   3.410
 9791SOL    HW230273   0.494   1.145   3.379
 9792SOL     OW30274   5.194   5.679   1.478
 9792SOL    HW130275   5.237   5.660   1.567
 9792SOL    HW230276   5.095   5.667   1.486
 9793SOL     OW30277   5.325   5.127   3.474
 9793SOL    HW130278   5.327   5.132   3.374
 9793SOL    HW230279   5.397   5.186   3.511
 9794SOL     OW30280   6.389   4.093   6.404
 9794SOL    HW130281   6.300   4.081   6.360
 9794SOL    HW230282   6.376   4.128   6.497
 9795SOL     OW30283   1.246   1.794   4.142
 9795SOL    HW130284   1.260   1.703   4.182
 9795SOL    HW230285   1.295   1.800   4.055
 9796SOL     OW30286   3.944   3.164   0.896
 9796SOL    HW130287   4.001   3.151   0.977
 9796SOL    HW230288   3.907   3.257   0.897
 9797SOL     OW30289   3.310   4.626   6.477
 9797SOL    HW130290   3.333   4.688   6.402
 9797SOL    HW230291   3.262   4.676   6.549
 9798SOL     OW30292   2.250   1.067   0.855
 9798SOL    HW130293   2.159   1.100   0.830
 9798SOL    HW230294   2.315   1.090   0.783
 9799SOL     OW30295   3.515   3.368   3.154
 9799SOL    HW130296   3.425   3.352   3.113
 9799SOL    HW230297   3.533   3.466   3.158
 9800SOL     OW30298   3.010   6.328   5.302
 9800SOL    HW130299   2.930   6.320   5.243
 9800SOL    HW230300   2.990   6.390   5.377
 9801SOL     OW30301   4.255   4.819   0.685
 9801SOL    HW130302   4.280   4.909   0.651
 9801SOL    HW230303   4.295   4.749   0.627
 9802SOL     OW30304   0.291   2.836   2.244
 9802SOL    HW130305   0.363   2.786   2.196
 9802SOL    HW230306   0.293   2.932   2.217
 9803SOL     OW30307   6.044   1.496   6.935
 9803SOL    HW130308   5.982   1.422   6.959
 9803SOL    HW230309   6.138   1.470   6.960
 9804SOL     OW30310   0.544   5.878   3.295
 9804SOL    HW130311   0.629   5.847   3.338
 9804SOL    HW230312   0.510   5.807   3.233
 9805SOL     OW30313   1.168   5.682   5.978
 9805SOL    HW130314   1.178   5.614   5.906
 9805SOL    HW230315   1.223   5.655   6.057
 9806SOL     OW30316   1.260   1.840   0.352
 9806SOL    HW130317   1.220   1.919   0.400
 9806SOL    HW230318   1.352   1.823   0.387
 9807SOL     OW30319   2.053   2.520   6.914
 9807SOL    HW130320   2.028   2.425   6.896
 9807SOL    HW230321   2.037   2.540   7.011
 9808SOL     OW30322   5.471   0.916   5.722
 9808SOL    HW130323   5.516   0.943   5.637
 9808SOL    HW230324   5.541   0.901   5.793
 9809SOL     OW30325   0.868   1.652   5.982
 9809SOL    HW130326   0.949   1.656   6.042
 9809SOL    HW230327   0.791   1.615   6.033
 9810SOL     OW30328   2.663   2.398   3.504
 9810SOL    HW130329   2.568   2.420   3.523
 9810SOL    HW230330   2.716   2.401   3.589
 9811SOL     OW30331   6.046   5.696   3.930
 9811SOL    HW130332   6.012   5.615   3.978
 9811SOL    HW230333   6.098   5.666   3.849
 9812SOL     OW30334   3.173   2.625   6.077
 9812SOL    HW130335   3.264   2.663   6.059
 9812SOL    HW230336   3.159   2.545   6.018
 9813SOL     OW30337   5.793   6.301   6.759
 9813SOL    HW130338   5.767   6.332   6.668
 9813SOL    HW230339   5.888   6.325   6.777
 9814SOL     OW30340   0.659   1.155   6.304
 9814SOL    HW130341   0.654   1.107   6.216
 9814SOL    HW230342   0.606   1.239   6.299
 9815SOL     OW30343   6.736   2.239   1.962
 9815SOL    HW130344   6.705   2.157   1.914
 9815SOL    HW230345   6.750   2.217   2.059
 9816SOL     OW30346   6.328   1.487   6.876
 9816SOL    HW130347   6.415   1.460   6.836
 9816SOL    HW230348   6.302   1.578   6.843
 9817SOL     OW30349   2.947   5.762   1.889
 9817SOL    HW130350   2.874   5.812   1.843
 9817SOL    HW230351   2.932   5.766   1.988
 9818SOL     OW30352   1.477   1.181   3.630
 9818SOL    HW130353   1.477   1.096   3.684
 9818SOL    HW230354   1.543   1.245   3.669
 9819SOL     OW30355   4.869   3.378   5.200
 9819SOL    HW130356   4.927   3.404   5.278
 9819SOL    HW230357   4.858   3.457   5.139
 9820SOL     OW30358   3.393   3.030   6.536
 9820SOL    HW130359   3.473   3.048   6.479
 9820SOL    HW230360   3.397   3.085   6.619
 9821SOL     OW30361   4.181   1.913   0.972
 9821SOL    HW130362   4.112   1.917   1.044
 9821SOL    HW230363   4.136   1.913   0.883
 9822SOL     OW30364   3.639   5.391   4.050
 9822SOL    HW130365   3.591   5.466   4.004
 9822SOL    HW230366   3.729   5.422   4.079
 9823SOL     OW30367   1.395   0.241   2.097
 9823SOL    HW130368   1.457   0.171   2.062
 9823SOL    HW230369   1.442   0.329   2.102
 9824SOL     OW30370   2.074   5.830   5.552
 9824SOL    HW130371   2.068   5.907   5.489
 9824SOL    HW230372   2.104   5.749   5.503
 9825SOL     OW30373   5.967   5.880   4.846
 9825SOL    HW130374   6.042   5.830   4.887
 9825SOL    HW230375   5.883   5.825   4.851
 9826SOL     OW30376   3.373   6.092   5.233
 9826SOL    HW130377   3.406   6.055   5.146
 9826SOL    HW230378   3.331   6.181   5.217
 9827SOL     OW30379   2.050   4.577   3.171
 9827SOL    HW130380   2.046   4.647   3.242
 9827SOL    HW230381   2.058   4.487   3.214
 9828SOL     OW30382   3.376   2.084   5.059
 9828SOL    HW130383   3.302   2.146   5.033
 9828SOL    HW230384   3.341   1.991   5.066
 9829SOL     OW30385   4.681   5.812   6.187
 9829SOL    HW130386   4.612   5.783   6.252
 9829SOL    HW230387   4.726   5.732   6.147
 9830SOL     OW30388   5.278   1.510   1.765
 9830SOL    HW130389   5.374   1.529   1.786
 9830SOL    HW230390   5.220   1.576   1.811
 9831SOL     OW30391   0.794   4.586   1.490
 9831SOL    HW130392   0.794   4.615   1.585
 9831SOL    HW230393   0.858   4.510   1.478
 9832SOL     OW30394   4.589   5.310   3.882
 9832SOL    HW130395   4.618   5.405   3.869
 9832SOL    HW230396   4.490   5.305   3.880
 9833SOL     OW30397   3.500   3.245   3.548
 9833SOL    HW130398   3.443   3.255   3.630
 9833SOL    HW230399   3.588   3.290   3.563
 9834SOL     OW30400   2.161   4.727   5.743
 9834SOL    HW130401   2.085   4.739   5.808
 9834SOL    HW230402   2.124   4.719   5.650
 9835SOL     OW30403   3.620   3.040   4.266
 9835SOL    HW130404   3.583   3.127   4.298
 9835SOL    HW230405   3.545   2.980   4.237
 9836SOL     OW30406   0.478   4.234   4.727
 9836SOL    HW130407   0.444   4.298   4.796
 9836SOL    HW230408   0.541   4.281   4.666
 9837SOL     OW30409   5.539   1.599   2.461
 9837SOL    HW130410   5.514   1.611   2.557
 9837SOL    HW230411   5.609   1.528   2.454
 9838SOL     OW30412   1.537   6.894   1.017
 9838SOL    HW130413   1.446   6.875   0.980
 9838SOL    HW230414   1.598   6.918   0.941
 9839SOL     OW30415   4.465   0.440   3.324
 9839SOL    HW130416   4.484   0.431   3.422
 9839SOL    HW230417   4.395   0.510   3.310
 9840SOL     OW30418   4.664   2.042   0.157
 9840SOL    HW130419   4.598   2.116   0.174
 9840SOL    HW230420   4.734   2.075   0.093
 9841SOL     OW30421   1.008   5.170   3.499
 9841SOL    HW130422   1.092   5.196   3.452
 9841SOL    HW230423   1.013   5.198   3.594
 9842SOL     OW30424   3.787   3.437   0.370
 9842SOL    HW130425   3.770   3.372   0.297
 9842SOL    HW230426   3.876   3.481   0.355
 9843SOL     OW30427   6.808   0.302   2.125
 9843SOL    HW130428   6.862   0.218   2.119
 9843SOL    HW230429   6.785   0.320   2.220
 9844SOL     OW30430   6.278   0.847   4.018
 9844SOL    HW130431   6.364   0.877   3.976
 9844SOL    HW230432   6.260   0.902   4.100
 9845SOL     OW30433   0.507   2.645   2.982
 9845SOL    HW130434   0.501   2.576   2.910
 9845SOL    HW230435   0.545   2.730   2.944
 9846SOL     OW30436   4.994   1.215   0.296
 9846SOL    HW130437   4.923   1.273   0.254
 9846SOL    HW230438   4.975   1.119   0.274
 9847SOL     OW30439   4.149   3.182   2.073
 9847SOL    HW130440   4.245   3.182   2.102
 9847SOL    HW230441   4.094   3.231   2.141
 9848SOL     OW30442   3.449   4.524   5.320
 9848SOL    HW130443   3.510   4.460   5.273
 9848SOL    HW230444   3.365   4.476   5.347
 9849SOL     OW30445   0.811   6.864   6.542
 9849SOL    HW130446   0.778   6.957   6.559
 9849SOL    HW230447   0.849   6.827   6.627
 9850SOL     OW30448   6.946   0.360   3.800
 9850SOL    HW130449   6.959   0.396   3.892
 9850SOL    HW230450   7.019   0.393   3.741
 9851SOL     OW30451   3.170   6.045   4.582
 9851SOL    HW130452   3.184   6.047   4.681
 9851SOL    HW230453   3.077   6.014   4.563
 9852SOL     OW30454   1.265   1.723   5.349
 9852SOL    HW130455   1.238   1.772   5.432
 9852SOL    HW230456   1.359   1.747   5.324
 9853SOL     OW30457   6.943   3.499   4.890
 9853SOL    HW130458   6.902   3.566   4.953
 9853SOL    HW230459   6.910   3.408   4.914
 9854SOL     OW30460   0.966   5.235   4.819
 9854SOL    HW130461   0.905   5.180   4.762
 9854SOL    HW230462   0.988   5.185   4.903
 9855SOL     OW30463   1.027   3.486   1.004
 9855SOL    HW130464   0.992   3.456   0.915
 9855SOL    HW230465   0.962   3.549   1.045
 9856SOL     OW30466   5.926   4.545   4.243
 9856SOL    HW130467   6.023   4.545   4.220
 9856SOL    HW230468   5.912   4.596   4.328
 9857SOL     OW30469   5.548   2.918   3.085
 9857SOL    HW130470   5.507   2.851   3.147
 9857SOL    HW230471   5.477   2.978   3.049
 9858SOL     OW30472   1.197   6.956   1.628
 9858SOL    HW130473   1.279   6.931   1.680
 9858SOL    HW230474   1.156   6.873   1.589
 9859SOL     OW30475   6.533   5.079   4.836
 9859SOL    HW130476   6.625   5.041   4.822
 9859SOL    HW230477   6.520   5.157   4.775
 9860SOL     OW30478   1.788   1.912   4.986
 9860SOL    HW130479   1.692   1.930   5.006
 9860SOL    HW230480   1.845   1.974   5.038
 9861SOL     OW30481   3.203   1.060   4.002
 9861SOL    HW130482   3.171   1.145   3.961
 9861SOL    HW230483   3.225   1.076   4.099
 9862SOL     OW30484   3.067   4.112   0.790
 9862SOL    HW130485   2.990   4.049   0.797
 9862SOL    HW230486   3.079   4.138   0.694
 9863SOL     OW30487   3.348   5.914   1.379
 9863SOL    HW130488   3.398   5.829   1.397
 9863SOL    HW230489   3.264   5.895   1.329
 9864SOL     OW30490   2.985   6.785   5.710
 9864SOL    HW130491   3.023   6.772   5.802
 9864SOL    HW230492   3.056   6.819   5.649
 9865SOL     OW30493   0.518   6.552   5.189
 9865SOL    HW130494   0.609   6.539   5.151
 9865SOL    HW230495   0.451   6.507   5.130
 9866SOL     OW30496   6.268   4.391   4.950
 9866SOL    HW130497   6.238   4.322   5.016
 9866SOL    HW230498   6.277   4.349   4.859
 9867SOL     OW30499   5.614   2.295   2.908
 9867SOL    HW130500   5.577   2.381   2.874
 9867SOL    HW230501   5.555   2.220   2.878
 9868SOL     OW30502   0.454   3.723   3.820
 9868SOL    HW130503   0.547   3.686   3.829
 9868SOL    HW230504   0.435   3.785   3.896
 9869SOL     OW30505   0.247   2.678   1.119
 9869SOL    HW130506   0.341   2.672   1.153
 9869SOL    HW230507   0.233   2.611   1.046
 9870SOL     OW30508   4.384   0.950   2.545
 9870SOL    HW130509   4.325   0.923   2.621
 9870SOL    HW230510   4.478   0.959   2.577
 9871SOL     OW30511   6.976   2.957   6.291
 9871SOL    HW130512   7.000   2.896   6.367
 9871SOL    HW230513   6.961   3.049   6.326
 9872SOL     OW30514   2.187   5.342   5.275
 9872SOL    HW130515   2.203   5.244   5.278
 9872SOL    HW230516   2.116   5.362   5.207
 9873SOL     OW30517   2.087   2.445   6.125
 9873SOL    HW130518   2.054   2.370   6.069
 9873SOL    HW230519   2.187   2.446   6.124
 9874SOL     OW30520   0.593   3.026   4.452
 9874SOL    HW130521   0.532   2.956   4.488
 9874SOL    HW230522   0.570   3.115   4.491
 9875SOL     OW30523   6.950   5.985   1.516
 9875SOL    HW130524   6.971   5.948   1.425
 9875SOL    HW230525   0.005   6.011   1.561
 9876SOL     OW30526   4.504   0.142   3.885
 9876SOL    HW130527   4.588   0.099   3.852
 9876SOL    HW230528   4.433   0.072   3.898
 9877SOL     OW30529   7.028   4.253   4.180
 9877SOL    HW130530   6.931   4.262   4.162
 9877SOL    HW230531   0.040   4.344   4.183
 9878SOL     OW30532   1.835   3.522   6.680
 9878SOL    HW130533   1.924   3.480   6.663
 9878SOL    HW230534   1.780   3.519   6.596
 9879SOL     OW30535   0.688   4.677   5.972
 9879SOL    HW130536   0.767   4.623   6.000
 9879SOL    HW230537   0.683   4.680   5.872
 9880SOL     OW30538   2.547   1.079   0.183
 9880SOL    HW130539   2.634   1.068   0.135
 9880SOL    HW230540   2.530   1.176   0.201
 9881SOL     OW30541   5.542   0.541   4.569
 9881SOL    HW130542   5.507   0.459   4.524
 9881SOL    HW230543   5.473   0.613   4.566
 9882SOL     OW30544   3.540   3.533   4.501
 9882SOL    HW130545   3.574   3.471   4.571
 9882SOL    HW230546   3.480   3.601   4.543
 9883SOL     OW30547   1.916   6.270   1.798
 9883SOL    HW130548   1.834   6.213   1.803
 9883SOL    HW230549   1.949   6.289   1.890
 9884SOL     OW30550   2.684   2.972   6.866
 9884SOL    HW130551   2.672   3.024   6.781
 9884SOL    HW230552   2.609   2.992   6.929
 9885SOL     OW30553   0.927   3.124   3.853
 9885SOL    HW130554   0.848   3.090   3.803
 9885SOL    HW230555   1.008   3.070   3.828
 9886SOL     OW30556   6.155   6.809   1.869
 9886SOL    HW130557   6.150   6.897   1.821
 9886SOL    HW230558   6.129   6.822   1.964
 9887SOL     OW30559   3.765   0.067   0.359
 9887SOL    HW130560   3.692   0.134   0.369
 9887SOL    HW230561   3.817   0.087   0.276
 9888SOL     OW30562   6.125   5.854   3.216
 9888SOL    HW130563   6.052   5.919   3.193
 9888SOL    HW230564   6.086   5.763   3.228
 9889SOL     OW30565   0.414   4.857   2.918
 9889SOL    HW130566   0.459   4.938   2.882
 9889SOL    HW230567   0.466   4.822   2.996
 9890SOL     OW30568   6.300   2.982   0.395
 9890SOL    HW130569   6.390   2.938   0.396
 9890SOL    HW230570   6.301   3.060   0.333
 9891SOL     OW30571   5.401   5.155   1.392
 9891SOL    HW130572   5.485   5.196   1.355
 9891SOL    HW230573   5.410   5.143   1.490
 9892SOL     OW30574   2.109   5.036   3.635
 9892SOL    HW130575   2.083   5.022   3.731
 9892SOL    HW230576   2.144   4.951   3.597
 9893SOL     OW30577   6.701   5.498   2.994
 9893SOL    HW130578   6.758   5.577   3.011
 9893SOL    HW230579   6.621   5.501   3.054
 9894SOL     OW30580   2.788   1.916   6.216
 9894SOL    HW130581   2.730   1.959   6.285
 9894SOL    HW230582   2.876   1.963   6.211
 9895SOL     OW30583   6.065   2.302   6.263
 9895SOL    HW130584   6.013   2.371   6.313
 9895SOL    HW230585   6.159   2.334   6.252
 9896SOL     OW30586   4.062   2.890   0.857
 9896SOL    HW130587   4.008   2.974   0.860
 9896SOL    HW230588   4.002   2.812   0.842
 9897SOL     OW30589   5.441   1.043   2.748
 9897SOL    HW130590   5.364   1.064   2.688
 9897SOL    HW230591   5.426   0.954   2.791
 9898SOL     OW30592   0.903   4.871   5.442
 9898SOL    HW130593   0.914   4.780   5.483
 9898SOL    HW230594   0.815   4.910   5.470
 9899SOL     OW30595   5.928   4.283   2.049
 9899SOL    HW130596   5.984   4.364   2.034
 9899SOL    HW230597   5.987   4.204   2.062
 9900SOL     OW30598   1.595   1.966   2.933
 9900SOL    HW130599   1.629   1.872   2.928
 9900SOL    HW230600   1.638   2.013   3.010
 9901SOL     OW30601   1.434   1.884   6.712
 9901SOL    HW130602   1.362   1.887   6.644
 9901SOL    HW230603   1.452   1.789   6.738
 9902SOL     OW30604   3.711   3.130   0.479
 9902SOL    HW130605   3.633   3.103   0.536
 9902SOL    HW230606   3.756   3.210   0.519
 9903SOL     OW30607   4.799   0.005   2.364
 9903SOL    HW130608   4.711   0.017   2.318
 9903SOL    HW230609   4.849   0.092   2.364
 9904SOL     OW30610   0.441   3.859   6.758
 9904SOL    HW130611   0.357   3.912   6.763
 9904SOL    HW230612   0.460   3.836   6.662
 9905SOL     OW30613   1.514   6.473   0.488
 9905SOL    HW130614   1.459   6.390   0.490
 9905SOL    HW230615   1.527   6.502   0.394
 9906SOL     OW30616   1.303   3.161   6.525
 9906SOL    HW130617   1.250   3.080   6.503
 9906SOL    HW230618   1.241   3.235   6.552
 9907SOL     OW30619   2.808   6.226   3.299
 9907SOL    HW130620   2.717   6.266   3.290
 9907SOL    HW230621   2.800   6.133   3.336
 9908SOL     OW30622   0.670   3.035   6.241
 9908SOL    HW130623   0.589   3.037   6.183
 9908SOL    HW230624   0.713   3.125   6.242
 9909SOL     OW30625   3.414   1.202   3.044
 9909SOL    HW130626   3.410   1.137   3.120
 9909SOL    HW230627   3.438   1.292   3.079
 9910SOL     OW30628   0.188   4.810   1.671
 9910SOL    HW130629   0.133   4.731   1.645
 9910SOL    HW230630   0.236   4.845   1.590
 9911SOL     OW30631   5.041   5.276   3.005
 9911SOL    HW130632   5.056   5.372   3.029
 9911SOL    HW230633   5.120   5.243   2.952
 9912SOL     OW30634   3.959   0.592   2.723
 9912SOL    HW130635   3.934   0.579   2.627
 9912SOL    HW230636   3.897   0.538   2.781
 9913SOL     OW30637   5.835   2.892   2.416
 9913SOL    HW130638   5.812   2.962   2.349
 9913SOL    HW230639   5.787   2.807   2.394
 9914SOL     OW30640   1.114   0.730   5.675
 9914SOL    HW130641   1.039   0.693   5.730
 9914SOL    HW230642   1.118   0.829   5.685
 9915SOL     OW30643   5.597   3.553   4.290
 9915SOL    HW130644   5.641   3.619   4.230
 9915SOL    HW230645   5.604   3.462   4.250
 9916SOL     OW30646   2.642   2.389   3.080
 9916SOL    HW130647   2.689   2.360   3.163
 9916SOL    HW230648   2.693   2.359   2.999
 9917SOL     OW30649   3.525   3.872   5.083
 9917SOL    HW130650   3.486   3.957   5.047
 9917SOL    HW230651   3.466   3.835   5.154
 9918SOL     OW30652   1.876   1.214   0.118
 9918SOL    HW130653   1.913   1.274   0.047
 9918SOL    HW230654   1.863   1.122   0.081
 9919SOL     OW30655   2.367   5.098   2.395
 9919SOL    HW130656   2.275   5.136   2.385
 9919SOL    HW230657   2.367   5.029   2.468
 9920SOL     OW30658   3.670   0.355   2.618
 9920SOL    HW130659   3.713   0.310   2.696
 9920SOL    HW230660   3.716   0.328   2.533
 9921SOL     OW30661   6.671   6.082   3.699
 9921SOL    HW130662   6.683   6.128   3.612
 9921SOL    HW230663   6.573   6.069   3.717
 9922SOL     OW30664   4.606   4.057   1.175
 9922SOL    HW130665   4.529   4.121   1.172
 9922SOL    HW230666   4.676   4.092   1.239
 9923SOL     OW30667   6.804   2.410   6.901
 9923SOL    HW130668   6.835   2.327   6.854
 9923SOL    HW230669   6.708   2.400   6.926
 9924SOL     OW30670   5.703   1.374   1.741
 9924SOL    HW130671   5.753   1.333   1.817
 9924SOL    HW230672   5.762   1.380   1.661
 9925SOL     OW30673   2.050   3.702   5.184
 9925SOL    HW130674   2.020   3.787   5.227
 9925SOL    HW230675   1.992   3.626   5.214
 9926SOL     OW30676   2.875   2.204   1.299
 9926SOL    HW130677   2.912   2.114   1.323
 9926SOL    HW230678   2.858   2.208   1.201
 9927SOL     OW30679   0.858   2.091   1.746
 9927SOL    HW130680   0.769   2.136   1.743
 9927SOL    HW230681   0.923   2.143   1.691
 9928SOL     OW30682   6.194   4.081   2.137
 9928SOL    HW130683   6.256   4.033   2.074
 9928SOL    HW230684   6.190   4.032   2.224
 9929SOL     OW30685   3.035   4.196   5.523
 9929SOL    HW130686   2.986   4.148   5.596
 9929SOL    HW230687   2.981   4.193   5.439
 9930SOL     OW30688   6.789   0.631   5.841
 9930SOL    HW130689   6.860   0.628   5.912
 9930SOL    HW230690   6.828   0.670   5.758
 9931SOL     OW30691   0.252   6.016   4.844
 9931SOL    HW130692   0.324   6.073   4.883
 9931SOL    HW230693   0.253   5.927   4.890
 9932SOL     OW30694   1.586   2.240   0.462
 9932SOL    HW130695   1.571   2.338   0.446
 9932SOL    HW230696   1.533   2.187   0.397
 9933SOL     OW30697   2.942   0.934   3.486
 9933SOL    HW130698   2.977   1.021   3.521
 9933SOL    HW230699   2.846   0.923   3.515
 9934SOL     OW30700   5.968   1.971   0.472
 9934SOL    HW130701   5.989   2.027   0.391
 9934SOL    HW230702   5.886   2.006   0.516
 9935SOL     OW30703   2.956   2.407   0.801
 9935SOL    HW130704   3.033   2.459   0.764
 9935SOL    HW230705   2.989   2.322   0.840
 9936SOL     OW30706   5.480   4.548   6.388
 9936SOL    HW130707   5.464   4.642   6.358
 9936SOL    HW230708   5.468   4.486   6.310
 9937SOL     OW30709   0.697   1.022   2.925
 9937SOL    HW130710   0.646   1.074   2.993
 9937SOL    HW230711   0.634   0.976   2.863
 9938SOL     OW30712   5.761   0.575   4.000
 9938SOL    HW130713   5.754   0.638   3.924
 9938SOL    HW230714   5.766   0.481   3.965
 9939SOL     OW30715   1.391   3.578   1.051
 9939SOL    HW130716   1.400   3.480   1.039
 9939SOL    HW230717   1.298   3.599   1.083
 9940SOL     OW30718   0.564   0.228   3.588
 9940SOL    HW130719   0.612   0.196   3.507
 9940SOL    HW230720   0.484   0.283   3.561
 9941SOL     OW30721   3.806   5.401   5.368
 9941SOL    HW130722   3.759   5.312   5.363
 9941SOL    HW230723   3.783   5.445   5.455
 9942SOL     OW30724   4.644   4.594   2.446
 9942SOL    HW130725   4.695   4.550   2.372
 9942SOL    HW230726   4.575   4.530   2.480
 9943SOL     OW30727   1.079   4.474   6.273
 9943SOL    HW130728   1.039   4.383   6.278
 9943SOL    HW230729   1.018   4.535   6.222
 9944SOL     OW30730   0.416   5.255   6.195
 9944SOL    HW130731   0.366   5.312   6.130
 9944SOL    HW230732   0.503   5.299   6.219
 9945SOL     OW30733   6.238   4.023   6.866
 9945SOL    HW130734   6.215   4.009   6.770
 9945SOL    HW230735   6.181   4.096   6.904
 9946SOL     OW30736   5.833   6.782   3.156
 9946SOL    HW130737   5.807   6.878   3.145
 9946SOL    HW230738   5.807   6.731   3.074
 9947SOL     OW30739   1.338   1.450   3.857
 9947SOL    HW130740   1.436   1.432   3.866
 9947SOL    HW230741   1.288   1.392   3.922
 9948SOL     OW30742   6.893   5.795   5.071
 9948SOL    HW130743   6.934   5.718   5.119
 9948SOL    HW230744   6.956   5.873   5.072
 9949SOL     OW30745   0.154   4.959   4.050
 9949SOL    HW130746   0.224   4.971   3.979
 9949SOL    HW230747   0.198   4.945   4.138
 9950SOL     OW30748   6.779   4.942   6.083
 9950SOL    HW130749   6.877   4.930   6.100
 9950SOL    HW230750   6.728   4.885   6.147
 9951SOL     OW30751   1.302   2.659   2.614
 9951SOL    HW130752   1.366   2.735   2.625
 9951SOL    HW230753   1.338   2.594   2.547
 9952SOL     OW30754   0.571   3.882   2.028
 9952SOL    HW130755   0.666   3.874   2.057
 9952SOL    HW230756   0.538   3.793   1.996
 9953SOL     OW30757   6.436   2.640   3.920
 9953SOL    HW130758   6.378   2.571   3.964
 9953SOL    HW230759   6.425   2.635   3.821
 9954SOL     OW30760   2.501   1.624   5.185
 9954SOL    HW130761   2.482   1.546   5.126
 9954SOL    HW230762   2.506   1.708   5.130
 9955SOL     OW30763   4.781   3.440   6.937
 9955SOL    HW130764   4.861   3.380   6.930
 9955SOL    HW230765   4.726   3.412   7.015
 9956SOL     OW30766   0.489   4.529   2.117
 9956SOL    HW130767   0.427   4.537   2.195
 9956SOL    HW230768   0.573   4.483   2.146
 9957SOL     OW30769   5.350   0.007   1.219
 9957SOL    HW130770   5.260   0.030   1.255
 9957SOL    HW230771   5.411   0.086   1.231
 9958SOL     OW30772   3.455   5.571   6.523
 9958SOL    HW130773   3.530   5.624   6.483
 9958SOL    HW230774   3.482   5.540   6.614
 9959SOL     OW30775   4.419   3.564   1.676
 9959SOL    HW130776   4.408   3.630   1.602
 9959SOL    HW230777   4.329   3.535   1.708
 9960SOL     OW30778   6.850   6.230   1.560
 9960SOL    HW130779   6.861   6.134   1.535
 9960SOL    HW230780   6.774   6.239   1.625
 9961SOL     OW30781   1.696   4.548   2.520
 9961SOL    HW130782   1.615   4.566   2.464
 9961SOL    HW230783   1.771   4.607   2.490
 9962SOL     OW30784   3.801   0.497   1.973
 9962SOL    HW130785   3.773   0.407   1.939
 9962SOL    HW230786   3.752   0.568   1.922
 9963SOL     OW30787   2.611   2.565   0.605
 9963SOL    HW130788   2.538   2.579   0.538
 9963SOL    HW230789   2.630   2.651   0.653
 9964SOL     OW30790   4.155   5.256   6.053
 9964SOL    HW130791   4.087   5.228   6.120
 9964SOL    HW230792   4.237   5.199   6.064
 9965SOL     OW30793   4.078   5.451   5.043
 9965SOL    HW130794   4.117   5.395   4.970
 9965SOL    HW230795   3.982   5.471   5.021
 9966SOL     OW30796   2.971   4.904   2.176
 9966SOL    HW130797   2.876   4.876   2.190
 9966SOL    HW230798   2.974   4.998   2.144
 9967SOL     OW30799   6.350   5.669   2.852
 9967SOL    HW130800   6.261   5.705   2.882
 9967SOL    HW230801   6.397   5.738   2.797
 9968SOL     OW30802   4.625   5.742   6.954
 9968SOL    HW130803   4.540   5.704   6.992
 9968SOL    HW230804   4.635   5.837   6.985
 9969SOL     OW30805   1.162   3.734   4.299
 9969SOL    HW130806   1.259   3.725   4.325
 9969SOL    HW230807   1.153   3.721   4.201
 9970SOL     OW30808   5.870   4.765   1.790
 9970SOL    HW130809   5.861   4.668   1.767
 9970SOL    HW230810   5.963   4.783   1.823
 9971SOL     OW30811   1.168   2.572   1.357
 9971SOL    HW130812   1.196   2.596   1.264
 9971SOL    HW230813   1.136   2.477   1.358
 9972SOL     OW30814   2.949   3.976   1.199
 9972SOL    HW130815   3.007   4.057   1.204
 9972SOL    HW230816   2.855   4.002   1.177
 9973SOL     OW30817   4.732   2.924   4.881
 9973SOL    HW130818   4.727   2.966   4.790
 9973SOL    HW230819   4.672   2.844   4.884
 9974SOL     OW30820   6.827   1.929   3.119
 9974SOL    HW130821   6.733   1.917   3.152
 9974SOL    HW230822   6.871   1.840   3.108
 9975SOL     OW30823   0.936   5.108   6.486
 9975SOL    HW130824   0.897   5.183   6.433
 9975SOL    HW230825   1.036   5.114   6.484
 9976SOL     OW30826   0.525   5.118   5.789
 9976SOL    HW130827   0.616   5.134   5.752
 9976SOL    HW230828   0.527   5.127   5.888
 9977SOL     OW30829   5.301   4.491   5.917
 9977SOL    HW130830   5.283   4.401   5.957
 9977SOL    HW230831   5.240   4.506   5.840
 9978SOL     OW30832   6.967   2.041   5.586
 9978SOL    HW130833   6.947   2.135   5.616
 9978SOL    HW230834   6.986   2.041   5.488
 9979SOL     OW30835   5.813   4.201   6.119
 9979SOL    HW130836   5.751   4.279   6.133
 9979SOL    HW230837   5.833   4.191   6.022
 9980SOL     OW30838   2.399   0.473   1.010
 9980SOL    HW130839   2.337   0.515   1.076
 9980SOL    HW230840   2.491   0.511   1.021
 9981SOL     OW30841   1.558   2.192   1.105
 9981SOL    HW130842   1.465   2.202   1.141
 9981SOL    HW230843   1.569   2.252   1.026
 9982SOL     OW30844   1.992   1.212   4.540
 9982SOL    HW130845   2.027   1.296   4.582
 9982SOL    HW230846   1.992   1.139   4.609
 9983SOL     OW30847   6.668   1.834   2.444
 9983SOL    HW130848   6.574   1.848   2.476
 9983SOL    HW230849   6.728   1.903   2.484
 9984SOL     OW30850   0.375   6.166   0.533
 9984SOL    HW130851   0.358   6.068   0.543
 9984SOL    HW230852   0.302   6.218   0.577
 9985SOL     OW30853   3.044   5.221   0.976
 9985SOL    HW130854   3.053   5.282   1.054
 9985SOL    HW230855   3.040   5.275   0.892
 9986SOL     OW30856   6.114   4.856   0.674
 9986SOL    HW130857   6.090   4.863   0.577
 9986SOL    HW230858   6.070   4.775   0.713
 9987SOL     OW30859   5.191   2.502   1.683
 9987SOL    HW130860   5.231   2.482   1.773
 9987SOL    HW230861   5.100   2.462   1.677
 9988SOL     OW30862   6.977   5.155   4.099
 9988SOL    HW130863   0.016   5.086   4.075
 9988SOL    HW230864   6.945   5.200   4.016
 9989SOL     OW30865   5.920   3.881   1.894
 9989SOL    HW130866   5.976   3.826   1.956
 9989SOL    HW230867   5.969   3.895   1.808
 9990SOL     OW30868   2.053   6.287   3.517
 9990SOL    HW130869   1.976   6.331   3.471
 9990SOL    HW230870   2.118   6.356   3.548
 9991SOL     OW30871   2.105   3.267   3.882
 9991SOL    HW130872   2.125   3.183   3.833
 9991SOL    HW230873   2.114   3.252   3.980
 9992SOL     OW30874   3.298   3.424   0.820
 9992SOL    HW130875   3.207   3.448   0.855
 9992SOL    HW230876   3.352   3.382   0.892
 9993SOL     OW30877   3.529   6.310   3.932
 9993SOL    HW130878   3.470   6.266   3.864
 9993SOL    HW230879   3.557   6.400   3.898
 9994SOL     OW30880   0.024   4.126   3.209
 9994SOL    HW130881   0.048   4.126   3.112
 9994SOL    HW230882   6.955   4.113   3.219
 9995SOL     OW30883   3.478   1.455   3.130
 9995SOL    HW130884   3.388   1.498   3.134
 9995SOL    HW230885   3.547   1.521   3.160
 9996SOL     OW30886   3.282   3.802   0.912
 9996SOL    HW130887   3.189   3.797   0.947
 9996SOL    HW230888   3.344   3.830   0.985
 9997SOL     OW30889   5.570   0.841   3.126
 9997SOL    HW130890   5.543   0.899   3.203
 9997SOL    HW230891   5.566   0.745   3.152
 9998SOL     OW30892   5.180   3.751   2.008
 9998SOL    HW130893   5.131   3.693   2.072
 9998SOL    HW230894   5.222   3.828   2.058
 9999SOL     OW30895   0.324   6.041   4.578
 9999SOL    HW130896   0.282   6.019   4.666
 9999SOL    HW230897   0.268   6.004   4.504
10000SOL     OW30898   5.646   1.968   0.768
10000SOL    HW130899   5.650   2.011   0.858
10000SOL    HW230900   5.607   1.877   0.775
10001SOL     OW30901   3.296   0.107   1.988
10001SOL    HW130902   3.226   0.163   2.031
10001SOL    HW230903   3.293   0.015   2.026
10002SOL     OW30904   2.965   1.353   0.869
10002SOL    HW130905   2.881   1.400   0.895
10002SOL    HW230906   2.965   1.336   0.771
10003SOL     OW30907   3.264   2.005   2.772
10003SOL    HW130908   3.320   2.058   2.709
10003SOL    HW230909   3.306   1.915   2.785
10004SOL     OW30910   5.059   3.684   5.414
10004SOL    HW130911   5.078   3.702   5.510
10004SOL    HW230912   5.033   3.588   5.403
10005SOL     OW30913   3.677   5.268   2.963
10005SOL    HW130914   3.635   5.308   2.881
10005SOL    HW230915   3.653   5.323   3.043
10006SOL     OW30916   5.441   6.741   5.204
10006SOL    HW130917   5.478   6.692   5.125
10006SOL    HW230918   5.509   6.805   5.239
10007SOL     OW30919   1.010   3.651   4.508
10007SOL    HW130920   1.055   3.579   4.560
10007SOL    HW230921   1.049   3.654   4.415
10008SOL     OW30922   5.100   1.760   3.362
10008SOL    HW130923   5.081   1.784   3.267
10008SOL    HW230924   5.088   1.661   3.375
10009SOL     OW30925   2.049   4.282   2.047
10009SOL    HW130926   2.058   4.346   2.124
10009SOL    HW230927   2.138   4.272   2.002
10010SOL     OW30928   2.728   5.973   0.297
10010SOL    HW130929   2.768   5.944   0.211
10010SOL    HW230930   2.673   6.056   0.282
10011SOL     OW30931   0.278   4.094   6.899
10011SOL    HW130932   0.241   4.187   6.896
10011SOL    HW230933   0.372   4.096   6.933
10012SOL     OW30934   5.144   6.799   2.384
10012SOL    HW130935   5.133   6.700   2.397
10012SOL    HW230936   5.211   6.833   2.450
10013SOL     OW30937   1.287   3.127   3.955
10013SOL    HW130938   1.364   3.124   4.019
10013SOL    HW230939   1.272   3.221   3.925
10014SOL     OW30940   0.848   6.955   2.068
10014SOL    HW130941   0.780   6.988   2.002
10014SOL    HW230942   0.938   6.954   2.025
10015SOL     OW30943   4.165   5.272   0.480
10015SOL    HW130944   4.173   5.319   0.392
10015SOL    HW230945   4.069   5.267   0.507
10016SOL     OW30946   2.544   1.157   4.897
10016SOL    HW130947   2.560   1.253   4.921
10016SOL    HW230948   2.452   1.131   4.926
10017SOL     OW30949   1.322   1.724   2.895
10017SOL    HW130950   1.225   1.744   2.891
10017SOL    HW230951   1.335   1.625   2.905
10018SOL     OW30952   6.732   4.476   5.664
10018SOL    HW130953   6.769   4.424   5.587
10018SOL    HW230954   6.635   4.494   5.649
10019SOL     OW30955   6.933   1.680   3.056
10019SOL    HW130956   6.897   1.663   2.965
10019SOL    HW230957   6.954   1.593   3.101
10020SOL     OW30958   0.485   0.957   1.895
10020SOL    HW130959   0.395   0.970   1.854
10020SOL    HW230960   0.508   1.037   1.950
10021SOL     OW30961   0.512   3.131   2.524
10021SOL    HW130962   0.526   3.127   2.623
10021SOL    HW230963   0.554   3.050   2.482
10022SOL     OW30964   3.357   6.125   0.624
10022SOL    HW130965   3.366   6.027   0.637
10022SOL    HW230966   3.447   6.165   0.606
10023SOL     OW30967   1.868   5.282   4.813
10023SOL    HW130968   1.817   5.210   4.860
10023SOL    HW230969   1.966   5.265   4.821
10024SOL     OW30970   1.122   5.340   2.638
10024SOL    HW130971   1.193   5.411   2.639
10024SOL    HW230972   1.142   5.272   2.709
10025SOL     OW30973   1.271   3.021   2.046
10025SOL    HW130974   1.184   3.032   1.999
10025SOL    HW230975   1.308   3.111   2.069
10026SOL     OW30976   5.308   0.099   3.351
10026SOL    HW130977   5.359   0.075   3.434
10026SOL    HW230978   5.368   0.144   3.285
10027SOL     OW30979   0.491   2.360   4.939
10027SOL    HW130980   0.419   2.360   5.008
10027SOL    HW230981   0.552   2.282   4.954
10028SOL     OW30982   1.834   1.436   1.874
10028SOL    HW130983   1.870   1.529   1.871
10028SOL    HW230984   1.870   1.389   1.955
10029SOL     OW30985   1.866   2.784   3.644
10029SOL    HW130986   1.864   2.862   3.582
10029SOL    HW230987   1.773   2.756   3.666
10030SOL     OW30988   3.592   0.215   5.250
10030SOL    HW130989   3.523   0.272   5.206
10030SOL    HW230990   3.548   0.147   5.308
10031SOL     OW30991   5.120   5.120   4.497
10031SOL    HW130992   5.190   5.054   4.523
10031SOL    HW230993   5.091   5.172   4.577
10032SOL     OW30994   4.664   0.514   5.748
10032SOL    HW130995   4.680   0.596   5.803
10032SOL    HW230996   4.687   0.533   5.652
10033SOL     OW30997   4.482   2.501   4.355
10033SOL    HW130998   4.500   2.565   4.429
10033SOL    HW230999   4.418   2.431   4.386
10034SOL     OW31000   2.923   0.227   3.777
10034SOL    HW131001   2.862   0.303   3.755
10034SOL    HW231002   2.938   0.224   3.876
10035SOL     OW31003   6.623   4.442   0.779
10035SOL    HW131004   6.708   4.413   0.735
10035SOL    HW231005   6.550   4.446   0.710
10036SOL     OW31006   6.853   0.726   0.677
10036SOL    HW131007   6.935   0.753   0.627
10036SOL    HW231008   6.792   0.804   0.686
10037SOL     OW31009   6.476   0.418   0.210
10037SOL    HW131010   6.495   0.327   0.171
10037SOL    HW231011   6.470   0.484   0.136
10038SOL     OW31012   4.289   7.018   6.555
10038SOL    HW131013   4.317   6.923   6.572
10038SOL    HW231014   4.202   7.019   6.506
10039SOL     OW31015   5.176   6.423   5.502
10039SOL    HW131016   5.241   6.486   5.461
10039SOL    HW231017   5.092   6.420   5.447
10040SOL     OW31018   4.368   5.665   5.995
10040SOL    HW131019   4.374   5.738   5.927
10040SOL    HW231020   4.272   5.650   6.020
10041SOL     OW31021   5.363   5.815   6.286
10041SOL    HW131022   5.312   5.879   6.344
10041SOL    HW231023   5.305   5.736   6.265
10042SOL     OW31024   0.749   1.467   5.183
10042SOL    HW131025   0.788   1.390   5.232
10042SOL    HW231026   0.787   1.553   5.219
10043SOL     OW31027   0.227   1.515   4.090
10043SOL    HW131028   0.307   1.483   4.039
10043SOL    HW231029   0.256   1.564   4.172
10044SOL     OW31030   2.735   2.258   3.292
10044SOL    HW131031   2.702   2.321   3.363
10044SOL    HW231032   2.813   2.206   3.327
10045SOL     OW31033   4.936   0.035   3.603
10045SOL    HW131034   5.005   0.009   3.670
10045SOL    HW231035   4.910   0.131   3.617
10046SOL     OW31036   1.405   3.341   1.376
10046SOL    HW131037   1.326   3.340   1.315
10046SOL    HW231038   1.446   3.432   1.377
10047SOL     OW31039   5.510   3.532   5.096
10047SOL    HW131040   5.471   3.579   5.175
10047SOL    HW231041   5.436   3.500   5.037
10048SOL     OW31042   4.077   2.066   2.440
10048SOL    HW131043   4.069   2.137   2.371
10048SOL    HW231044   4.083   1.976   2.396
10049SOL     OW31045   0.311   0.392   6.259
10049SOL    HW131046   0.402   0.434   6.262
10049SOL    HW231047   0.278   0.388   6.165
10050SOL     OW31048   6.277   2.419   5.404
10050SOL    HW131049   6.292   2.516   5.426
10050SOL    HW231050   6.363   2.377   5.378
10051SOL     OW31051   6.303   2.027   5.641
10051SOL    HW131052   6.269   1.995   5.730
10051SOL    HW231053   6.235   2.088   5.600
10052SOL     OW31054   2.800   2.307   2.854
10052SOL    HW131055   2.899   2.313   2.848
10052SOL    HW231056   2.759   2.340   2.769
10053SOL     OW31057   3.579   5.716   2.004
10053SOL    HW131058   3.668   5.690   2.040
10053SOL    HW231059   3.513   5.643   2.023
10054SOL     OW31060   4.506   5.438   6.285
10054SOL    HW131061   4.538   5.467   6.195
10054SOL    HW231062   4.444   5.507   6.323
10055SOL     OW31063   5.926   2.266   5.686
10055SOL    HW131064   5.992   2.267   5.761
10055SOL    HW231065   5.857   2.338   5.701
10056SOL     OW31066   6.133   4.654   1.432
10056SOL    HW131067   6.154   4.752   1.428
10056SOL    HW231068   6.034   4.642   1.427
10057SOL     OW31069   3.821   1.969   4.747
10057SOL    HW131070   3.875   2.052   4.765
10057SOL    HW231071   3.760   1.952   4.825
10058SOL     OW31072   0.695   3.932   4.589
10058SOL    HW131073   0.682   3.947   4.491
10058SOL    HW231074   0.608   3.905   4.630
10059SOL     OW31075   5.040   6.409   0.836
10059SOL    HW131076   5.050   6.310   0.842
10059SOL    HW231077   5.126   6.450   0.805
10060SOL     OW31078   2.088   1.533   2.086
10060SOL    HW131079   2.144   1.453   2.107
10060SOL    HW231080   2.079   1.590   2.168
10061SOL     OW31081   5.567   1.318   4.729
10061SOL    HW131082   5.490   1.342   4.789
10061SOL    HW231083   5.600   1.226   4.753
10062SOL     OW31084   6.416   0.174   4.515
10062SOL    HW131085   6.499   0.169   4.571
10062SOL    HW231086   6.375   0.265   4.525
10063SOL     OW31087   1.615   1.328   3.863
10063SOL    HW131088   1.612   1.236   3.902
10063SOL    HW231089   1.699   1.374   3.892
10064SOL     OW31090   5.306   6.242   6.898
10064SOL    HW131091   5.292   6.316   6.832
10064SOL    HW231092   5.402   6.239   6.926
10065SOL     OW31093   2.256   6.993   2.655
10065SOL    HW131094   2.164   6.971   2.685
10065SOL    HW231095   2.264   0.062   2.640
10066SOL     OW31096   0.810   0.899   3.559
10066SOL    HW131097   0.873   0.837   3.607
10066SOL    HW231098   0.862   0.973   3.518
10067SOL     OW31099   6.199   4.205   5.143
10067SOL    HW131100   6.195   4.105   5.141
10067SOL    HW231101   6.206   4.237   5.237
10068SOL     OW31102   6.237   3.206   3.185
10068SOL    HW131103   6.212   3.139   3.115
10068SOL    HW231104   6.176   3.284   3.180
10069SOL     OW31105   2.107   5.409   3.654
10069SOL    HW131106   2.157   5.446   3.733
10069SOL    HW231107   2.041   5.341   3.685
10070SOL     OW31108   6.706   0.133   4.658
10070SOL    HW131109   6.715   0.212   4.719
10070SOL    HW231110   6.796   0.108   4.622
10071SOL     OW31111   5.912   5.406   3.675
10071SOL    HW131112   5.901   5.346   3.596
10071SOL    HW231113   5.874   5.496   3.654
10072SOL     OW31114   0.595   6.261   3.875
10072SOL    HW131115   0.550   6.181   3.836
10072SOL    HW231116   0.682   6.234   3.917
10073SOL     OW31117   6.069   4.601   4.939
10073SOL    HW131118   6.131   4.670   4.978
10073SOL    HW231119   6.121   4.519   4.916
10074SOL     OW31120   1.197   0.975   5.378
10074SOL    HW131121   1.234   1.055   5.423
10074SOL    HW231122   1.225   0.892   5.427
10075SOL     OW31123   1.123   2.841   3.017
10075SOL    HW131124   1.100   2.913   3.082
10075SOL    HW231125   1.103   2.752   3.056
10076SOL     OW31126   6.819   0.482   3.273
10076SOL    HW131127   6.775   0.395   3.249
10076SOL    HW231128   6.753   0.543   3.317
10077SOL     OW31129   3.734   3.318   5.859
10077SOL    HW131130   3.747   3.258   5.938
10077SOL    HW231131   3.680   3.397   5.886
10078SOL     OW31132   0.265   5.768   3.737
10078SOL    HW131133   0.203   5.842   3.761
10078SOL    HW231134   0.335   5.759   3.808
10079SOL     OW31135   0.370   4.087   2.040
10079SOL    HW131136   0.438   4.017   2.021
10079SOL    HW231137   0.394   4.172   1.992
10080SOL     OW31138   3.517   1.319   5.346
10080SOL    HW131139   3.507   1.222   5.368
10080SOL    HW231140   3.429   1.354   5.312
10081SOL     OW31141   0.222   6.865   0.633
10081SOL    HW131142   0.191   6.771   0.652
10081SOL    HW231143   0.307   6.883   0.683
10082SOL     OW31144   0.188   4.826   2.051
10082SOL    HW131145   0.208   4.850   1.957
10082SOL    HW231146   0.272   4.828   2.105
10083SOL     OW31147   4.843   0.509   3.146
10083SOL    HW131148   4.849   0.418   3.106
10083SOL    HW231149   4.846   0.577   3.073
10084SOL     OW31150   3.147   1.186   5.722
10084SOL    HW131151   3.204   1.268   5.728
10084SOL    HW231152   3.051   1.212   5.716
10085SOL     OW31153   1.197   6.629   1.960
10085SOL    HW131154   1.232   6.537   1.978
10085SOL    HW231155   1.271   6.695   1.969
10086SOL     OW31156   5.643   5.503   2.198
10086SOL    HW131157   5.646   5.422   2.139
10086SOL    HW231158   5.724   5.504   2.257
10087SOL     OW31159   0.219   6.783   3.734
10087SOL    HW131160   0.312   6.778   3.697
10087SOL    HW231161   0.192   6.693   3.769
10088SOL     OW31162   6.790   0.453   0.154
10088SOL    HW131163   6.779   0.436   0.056
10088SOL    HW231164   6.738   0.535   0.179
10089SOL     OW31165   2.986   2.191   2.490
10089SOL    HW131166   2.942   2.127   2.427
10089SOL    HW231167   3.085   2.186   2.478
10090SOL     OW31168   1.046   4.799   0.747
10090SOL    HW131169   0.988   4.802   0.666
10090SOL    HW231170   1.034   4.711   0.793
10091SOL     OW31171   1.289   3.921   5.654
10091SOL    HW131172   1.365   3.856   5.659
10091SOL    HW231173   1.288   3.965   5.564
10092SOL     OW31174   1.658   2.935   4.752
10092SOL    HW131175   1.631   2.998   4.824
10092SOL    HW231176   1.691   2.987   4.673
10093SOL     OW31177   6.973   3.821   4.606
10093SOL    HW131178   6.944   3.850   4.514
10093SOL    HW231179   6.937   3.884   4.674
10094SOL     OW31180   1.953   5.860   2.187
10094SOL    HW131181   2.029   5.884   2.248
10094SOL    HW231182   1.925   5.766   2.205
10095SOL     OW31183   5.990   2.130   5.274
10095SOL    HW131184   5.960   2.035   5.283
10095SOL    HW231185   6.041   2.158   5.355
10096SOL     OW31186   5.236   5.035   2.305
10096SOL    HW131187   5.218   4.960   2.241
10096SOL    HW231188   5.280   4.999   2.387
10097SOL     OW31189   0.855   0.912   0.583
10097SOL    HW131190   0.901   0.866   0.659
10097SOL    HW231191   0.774   0.860   0.555
10098SOL     OW31192   2.526   0.552   5.284
10098SOL    HW131193   2.600   0.508   5.335
10098SOL    HW231194   2.438   0.530   5.328
10099SOL     OW31195   6.909   4.952   1.036
10099SOL    HW131196   6.844   4.962   1.111
10099SOL    HW231197   6.864   4.906   0.959
10100SOL     OW31198   4.910   0.142   4.609
10100SOL    HW131199   4.978   0.072   4.631
10100SOL    HW231200   4.932   0.184   4.521
10101SOL     OW31201   5.740   4.009   1.363
10101SOL    HW131202   5.769   3.915   1.352
10101SOL    HW231203   5.720   4.026   1.460
10102SOL     OW31204   1.180   0.915   1.932
10102SOL    HW131205   1.229   0.852   1.992
10102SOL    HW231206   1.240   0.992   1.910
10103SOL     OW31207   2.576   1.565   6.414
10103SOL    HW131208   2.565   1.589   6.318
10103SOL    HW231209   2.545   1.641   6.471
10104SOL     OW31210   1.538   2.353   4.102
10104SOL    HW131211   1.576   2.377   4.013
10104SOL    HW231212   1.550   2.255   4.118
10105SOL     OW31213   1.002   0.633   0.529
10105SOL    HW131214   1.082   0.574   0.532
10105SOL    HW231215   0.994   0.682   0.616
10106SOL     OW31216   4.366   6.878   0.658
10106SOL    HW131217   4.279   6.846   0.621
10106SOL    HW231218   4.441   6.827   0.616
10107SOL     OW31219   0.223   1.142   6.571
10107SOL    HW131220   0.167   1.225   6.561
10107SOL    HW231221   0.202   1.080   6.496
10108SOL     OW31222   6.703   6.402   0.097
10108SOL    HW131223   6.740   6.309   0.099
10108SOL    HW231224   6.614   6.404   0.143
10109SOL     OW31225   4.897   0.416   0.525
10109SOL    HW131226   4.882   0.381   0.433
10109SOL    HW231227   4.809   0.442   0.565
10110SOL     OW31228   4.532   5.912   4.975
10110SOL    HW131229   4.624   5.899   4.938
10110SOL    HW231230   4.470   5.843   4.937
10111SOL     OW31231   5.139   3.790   3.912
10111SOL    HW131232   5.159   3.864   3.848
10111SOL    HW231233   5.041   3.768   3.908
10112SOL     OW31234   5.805   3.735   3.866
10112SOL    HW131235   5.854   3.666   3.920
10112SOL    HW231236   5.856   3.754   3.782
10113SOL     OW31237   4.503   0.317   5.811
10113SOL    HW131238   4.439   0.375   5.861
10113SOL    HW231239   4.575   0.374   5.771
10114SOL     OW31240   6.109   1.286   0.922
10114SOL    HW131241   6.037   1.347   0.887
10114SOL    HW231242   6.097   1.195   0.884
10115SOL     OW31243   3.938   1.271   4.347
10115SOL    HW131244   3.901   1.214   4.274
10115SOL    HW231245   4.000   1.338   4.308
10116SOL     OW31246   0.206   5.963   0.644
10116SOL    HW131247   0.172   5.986   0.735
10116SOL    HW231248   0.141   5.993   0.575
10117SOL     OW31249   6.762   5.868   5.408
10117SOL    HW131250   6.678   5.843   5.458
10117SOL    HW231251   6.737   5.923   5.329
10118SOL     OW31252   1.857   5.209   2.770
10118SOL    HW131253   1.891   5.262   2.692
10118SOL    HW231254   1.767   5.245   2.797
10119SOL     OW31255   0.980   5.761   4.419
10119SOL    HW131256   1.032   5.759   4.505
10119SOL    HW231257   0.927   5.845   4.414
10120SOL     OW31258   1.771   3.955   4.884
10120SOL    HW131259   1.694   3.958   4.819
10120SOL    HW231260   1.834   4.030   4.863
10121SOL     OW31261   6.486   4.382   6.458
10121SOL    HW131262   6.572   4.373   6.508
10121SOL    HW231263   6.497   4.342   6.367
10122SOL     OW31264   6.265   3.017   1.330
10122SOL    HW131265   6.274   2.963   1.414
10122SOL    HW231266   6.272   3.114   1.352
10123SOL     OW31267   5.862   6.937   7.011
10123SOL    HW131268   5.882   0.004   7.020
10123SOL    HW231269   5.779   6.915   0.033
10124SOL     OW31270   1.534   3.961   0.385
10124SOL    HW131271   1.562   4.057   0.395
10124SOL    HW231272   1.469   3.953   0.309
10125SOL     OW31273   1.832   1.278   2.369
10125SOL    HW131274   1.765   1.268   2.443
10125SOL    HW231275   1.880   1.191   2.356
10126SOL     OW31276   0.397   6.891   5.819
10126SOL    HW131277   0.299   6.899   5.799
10126SOL    HW231278   0.437   6.819   5.763
10127SOL     OW31279   2.779   4.660   6.631
10127SOL    HW131280   2.793   4.748   6.676
10127SOL    HW231281   2.858   4.602   6.646
10128SOL     OW31282   2.240   1.585   1.470
10128SOL    HW131283   2.206   1.511   1.528
10128SOL    HW231284   2.320   1.555   1.420
10129SOL     OW31285   5.693   1.852   2.561
10129SOL    HW131286   5.652   1.939   2.588
10129SOL    HW231287   5.625   1.796   2.515
10130SOL     OW31288   1.286   3.693   1.878
10130SOL    HW131289   1.278   3.758   1.803
10130SOL    HW231290   1.268   3.600   1.844
10131SOL     OW31291   1.275   6.969   4.222
10131SOL    HW131292   1.312   7.020   4.144
10131SOL    HW231293   1.230   0.002   4.285
10132SOL     OW31294   3.290   7.007   5.144
10132SOL    HW131295   3.274   0.065   5.099
10132SOL    HW231296   3.388   6.994   5.157
10133SOL     OW31297   4.157   6.426   1.412
10133SOL    HW131298   4.146   6.327   1.418
10133SOL    HW231299   4.074   6.472   1.443
10134SOL     OW31300   0.206   6.495   3.764
10134SOL    HW131301   0.221   6.450   3.675
10134SOL    HW231302   0.145   6.438   3.820
10135SOL     OW31303   4.940   3.295   3.537
10135SOL    HW131304   4.912   3.221   3.599
10135SOL    HW231305   4.901   3.278   3.447
10136SOL     OW31306   5.160   0.385   2.971
10136SOL    HW131307   5.187   0.328   2.893
10136SOL    HW231308   5.220   0.365   3.048
10137SOL     OW31309   5.962   4.092   4.088
10137SOL    HW131310   6.008   4.029   4.025
10137SOL    HW231311   5.976   4.186   4.058
10138SOL     OW31312   5.063   3.391   0.419
10138SOL    HW131313   4.976   3.354   0.450
10138SOL    HW231314   5.126   3.401   0.496
10139SOL     OW31315   3.508   4.165   3.267
10139SOL    HW131316   3.484   4.219   3.347
10139SOL    HW231317   3.587   4.107   3.287
10140SOL     OW31318   5.986   6.556   6.993
10140SOL    HW131319   6.066   6.606   7.026
10140SOL    HW231320   5.994   6.541   6.895
10141SOL     OW31321   3.416   1.546   5.004
10141SOL    HW131322   3.425   1.486   4.925
10141SOL    HW231323   3.506   1.579   5.033
10142SOL     OW31324   6.131   6.380   4.983
10142SOL    HW131325   6.113   6.321   4.904
10142SOL    HW231326   6.226   6.368   5.011
10143SOL     OW31327   4.635   1.449   6.319
10143SOL    HW131328   4.601   1.543   6.329
10143SOL    HW231329   4.620   1.399   6.405
10144SOL     OW31330   3.606   0.480   6.451
10144SOL    HW131331   3.509   0.459   6.467
10144SOL    HW231332   3.662   0.405   6.486
10145SOL     OW31333   2.811   5.588   4.748
10145SOL    HW131334   2.770   5.547   4.830
10145SOL    HW231335   2.883   5.651   4.774
10146SOL     OW31336   4.479   4.998   4.823
10146SOL    HW131337   4.553   5.045   4.872
10146SOL    HW231338   4.437   5.061   4.758
10147SOL     OW31339   5.136   4.009   5.603
10147SOL    HW131340   5.166   3.914   5.599
10147SOL    HW231341   5.204   4.063   5.652
10148SOL     OW31342   5.008   5.533   6.850
10148SOL    HW131343   5.066   5.610   6.822
10148SOL    HW231344   5.043   5.493   6.935
10149SOL     OW31345   5.880   3.181   0.733
10149SOL    HW131346   5.931   3.141   0.657
10149SOL    HW231347   5.891   3.280   0.733
10150SOL     OW31348   4.064   4.074   0.448
10150SOL    HW131349   4.012   4.130   0.384
10150SOL    HW231350   4.032   3.979   0.443
10151SOL     OW31351   0.953   6.805   6.827
10151SOL    HW131352   0.942   6.791   6.926
10151SOL    HW231353   1.031   6.752   6.795
10152SOL     OW31354   6.715   5.995   4.388
10152SOL    HW131355   6.784   6.051   4.342
10152SOL    HW231356   6.760   5.933   4.452
10153SOL     OW31357   4.906   6.405   4.012
10153SOL    HW131358   4.879   6.497   3.983
10153SOL    HW231359   4.827   6.359   4.053
10154SOL     OW31360   5.000   6.924   5.872
10154SOL    HW131361   4.911   6.963   5.846
10154SOL    HW231362   5.029   6.858   5.802
10155SOL     OW31363   3.944   2.322   5.566
10155SOL    HW131364   3.862   2.275   5.598
10155SOL    HW231365   3.958   2.406   5.620
10156SOL     OW31366   6.031   0.748   2.605
10156SOL    HW131367   6.011   0.782   2.697
10156SOL    HW231368   6.082   0.662   2.613
10157SOL     OW31369   0.026   2.031   1.040
10157SOL    HW131370   0.019   2.036   0.941
10157SOL    HW231371   6.966   2.045   1.081
10158SOL     OW31372   5.656   4.874   0.698
10158SOL    HW131373   5.700   4.862   0.787
10158SOL    HW231374   5.557   4.868   0.709
10159SOL     OW31375   2.486   3.451   0.051
10159SOL    HW131376   2.424   3.435   0.127
10159SOL    HW231377   2.535   3.538   0.065
10160SOL     OW31378   1.756   2.964   2.427
10160SOL    HW131379   1.771   2.995   2.333
10160SOL    HW231380   1.845   2.946   2.469
10161SOL     OW31381   2.768   2.740   0.165
10161SOL    HW131382   2.862   2.772   0.157
10161SOL    HW231383   2.736   2.706   0.077
10162SOL     OW31384   3.506   4.656   0.856
10162SOL    HW131385   3.500   4.716   0.777
10162SOL    HW231386   3.453   4.695   0.932
10163SOL     OW31387   6.225   4.420   6.328
10163SOL    HW131388   6.208   4.369   6.244
10163SOL    HW231389   6.304   4.380   6.375
10164SOL     OW31390   5.918   3.909   4.696
10164SOL    HW131391   5.928   3.998   4.742
10164SOL    HW231392   5.844   3.914   4.629
10165SOL     OW31393   6.808   1.916   2.790
10165SOL    HW131394   6.831   1.829   2.747
10165SOL    HW231395   6.817   1.909   2.889
10166SOL     OW31396   3.285   2.052   2.031
10166SOL    HW131397   3.188   2.073   2.015
10166SOL    HW231398   3.341   2.095   1.960
10167SOL     OW31399   2.331   3.661   0.153
10167SOL    HW131400   2.334   3.642   0.251
10167SOL    HW231401   2.343   3.759   0.138
10168SOL     OW31402   5.854   3.290   6.219
10168SOL    HW131403   5.797   3.344   6.157
10168SOL    HW231404   5.948   3.290   6.186
10169SOL     OW31405   6.623   4.238   3.733
10169SOL    HW131406   6.689   4.190   3.791
10169SOL    HW231407   6.618   4.191   3.644
10170SOL     OW31408   0.291   5.534   5.742
10170SOL    HW131409   0.197   5.517   5.713
10170SOL    HW231410   0.326   5.615   5.696
10171SOL     OW31411   6.885   2.442   5.039
10171SOL    HW131412   6.861   2.472   5.132
10171SOL    HW231413   6.802   2.418   4.989
10172SOL     OW31414   0.070   5.609   4.681
10172SOL    HW131415   0.071   5.532   4.617
10172SOL    HW231416   7.006   5.632   4.704
10173SOL     OW31417   1.334   3.245   0.511
10173SOL    HW131418   1.379   3.248   0.422
10173SOL    HW231419   1.304   3.151   0.530
10174SOL     OW31420   5.053   5.073   3.222
10174SOL    HW131421   5.042   5.162   3.265
10174SOL    HW231422   5.010   5.002   3.278
10175SOL     OW31423   5.698   1.623   3.766
10175SOL    HW131424   5.659   1.604   3.676
10175SOL    HW231425   5.629   1.607   3.837
10176SOL     OW31426   0.479   3.840   4.713
10176SOL    HW131427   0.492   3.752   4.758
10176SOL    HW231428   0.387   3.842   4.672
10177SOL     OW31429   2.573   0.693   1.324
10177SOL    HW131430   2.525   0.690   1.411
10177SOL    HW231431   2.581   0.600   1.287
10178SOL     OW31432   0.758   0.389   6.041
10178SOL    HW131433   0.810   0.382   6.126
10178SOL    HW231434   0.786   0.316   5.979
10179SOL     OW31435   0.570   2.095   6.689
10179SOL    HW131436   0.606   2.027   6.753
10179SOL    HW231437   0.588   2.186   6.724
10180SOL     OW31438   4.338   0.945   5.681
10180SOL    HW131439   4.283   0.897   5.613
10180SOL    HW231440   4.395   1.013   5.636
10181SOL     OW31441   6.615   3.586   1.131
10181SOL    HW131442   6.542   3.574   1.199
10181SOL    HW231443   6.680   3.654   1.164
10182SOL     OW31444   4.772   0.991   1.774
10182SOL    HW131445   4.713   1.064   1.809
10182SOL    HW231446   4.739   0.903   1.806
10183SOL     OW31447   0.166   2.468   6.362
10183SOL    HW131448   0.070   2.449   6.383
10183SOL    HW231449   0.224   2.436   6.438
10184SOL     OW31450   4.254   1.383   5.852
10184SOL    HW131451   4.269   1.450   5.924
10184SOL    HW231452   4.341   1.364   5.805
10185SOL     OW31453   6.411   6.111   2.519
10185SOL    HW131454   6.463   6.190   2.486
10185SOL    HW231455   6.362   6.069   2.442
10186SOL     OW31456   5.599   3.290   3.937
10186SOL    HW131457   5.629   3.219   3.873
10186SOL    HW231458   5.649   3.281   4.023
10187SOL     OW31459   1.081   3.349   0.742
10187SOL    HW131460   1.108   3.327   0.648
10187SOL    HW231461   1.128   3.431   0.773
10188SOL     OW31462   3.942   5.663   0.727
10188SOL    HW131463   3.923   5.574   0.768
10188SOL    HW231464   3.966   5.728   0.798
10189SOL     OW31465   0.961   1.104   6.208
10189SOL    HW131466   1.043   1.109   6.265
10189SOL    HW231467   0.933   1.009   6.199
10190SOL     OW31468   4.976   3.454   1.935
10190SOL    HW131469   4.927   3.542   1.937
10190SOL    HW231470   4.994   3.424   2.028
10191SOL     OW31471   5.216   6.131   6.181
10191SOL    HW131472   5.137   6.161   6.235
10191SOL    HW231473   5.193   6.046   6.133
10192SOL     OW31474   4.442   1.433   5.169
10192SOL    HW131475   4.492   1.347   5.160
10192SOL    HW231476   4.361   1.419   5.226
10193SOL     OW31477   4.146   3.526   1.771
10193SOL    HW131478   4.134   3.431   1.799
10193SOL    HW231479   4.074   3.551   1.705
10194SOL     OW31480   5.926   5.975   5.320
10194SOL    HW131481   6.006   5.923   5.351
10194SOL    HW231482   5.855   5.971   5.390
10195SOL     OW31483   6.064   6.020   0.701
10195SOL    HW131484   6.014   6.082   0.640
10195SOL    HW231485   6.023   5.929   0.696
10196SOL     OW31486   4.869   1.412   3.862
10196SOL    HW131487   4.956   1.410   3.813
10196SOL    HW231488   4.848   1.321   3.899
10197SOL     OW31489   5.971   1.408   5.186
10197SOL    HW131490   5.877   1.436   5.167
10197SOL    HW231491   6.034   1.472   5.142
10198SOL     OW31492   2.855   6.599   2.539
10198SOL    HW131493   2.839   6.614   2.636
10198SOL    HW231494   2.904   6.513   2.526
10199SOL     OW31495   2.085   3.543   0.449
10199SOL    HW131496   2.079   3.503   0.541
10199SOL    HW231497   2.031   3.488   0.386
10200SOL     OW31498   5.081   2.401   6.500
10200SOL    HW131499   5.088   2.480   6.440
10200SOL    HW231500   5.151   2.334   6.475
10201SOL     OW31501   1.737   5.099   0.931
10201SOL    HW131502   1.750   5.137   1.023
10201SOL    HW231503   1.703   5.005   0.939
10202SOL     OW31504   3.346   4.653   1.267
10202SOL    HW131505   3.433   4.604   1.263
10202SOL    HW231506   3.341   4.704   1.352
10203SOL     OW31507   6.120   2.668   3.299
10203SOL    HW131508   6.061   2.739   3.337
10203SOL    HW231509   6.138   2.687   3.202
10204SOL     OW31510   4.937   6.185   0.454
10204SOL    HW131511   4.870   6.171   0.380
10204SOL    HW231512   5.021   6.223   0.415
10205SOL     OW31513   1.929   0.034   1.978
10205SOL    HW131514   1.932   6.995   1.906
10205SOL    HW231515   2.017   0.081   1.981
10206SOL     OW31516   6.478   0.550   6.998
10206SOL    HW131517   6.483   0.620   6.927
10206SOL    HW231518   6.420   0.476   6.967
10207SOL     OW31519   1.032   1.818   0.189
10207SOL    HW131520   1.126   1.822   0.222
10207SOL    HW231521   0.972   1.787   0.263
10208SOL     OW31522   6.058   4.760   3.681
10208SOL    HW131523   6.125   4.831   3.661
10208SOL    HW231524   6.011   4.781   3.767
10209SOL     OW31525   0.416   6.867   0.849
10209SOL    HW131526   0.484   6.940   0.853
10209SOL    HW231527   0.447   6.795   0.787
10210SOL     OW31528   4.672   6.989   1.964
10210SOL    HW131529   4.582   6.952   1.987
10210SOL    HW231530   4.733   6.914   1.938
10211SOL     OW31531   4.183   6.465   5.083
10211SOL    HW131532   4.145   6.413   5.159
10211SOL    HW231533   4.194   6.406   5.003
10212SOL     OW31534   0.226   0.749   5.122
10212SOL    HW131535   0.281   0.686   5.067
10212SOL    HW231536   0.193   0.702   5.204
10213SOL     OW31537   5.782   2.542   1.484
10213SOL    HW131538   5.841   2.604   1.535
10213SOL    HW231539   5.704   2.515   1.541
10214SOL     OW31540   0.859   1.590   1.931
10214SOL    HW131541   0.826   1.672   1.885
10214SOL    HW231542   0.782   1.535   1.963
10215SOL     OW31543   3.803   3.053   3.558
10215SOL    HW131544   3.874   3.014   3.616
10215SOL    HW231545   3.755   3.126   3.608
10216SOL     OW31546   0.315   1.358   1.570
10216SOL    HW131547   0.392   1.301   1.542
10216SOL    HW231548   0.347   1.450   1.590
10217SOL     OW31549   3.105   1.371   3.163
10217SOL    HW131550   3.018   1.408   3.129
10217SOL    HW231551   3.103   1.368   3.263
10218SOL     OW31552   1.975   1.723   1.682
10218SOL    HW131553   2.015   1.801   1.633
10218SOL    HW231554   2.047   1.675   1.732
10219SOL     OW31555   0.549   1.849   3.509
10219SOL    HW131556   0.569   1.824   3.414
10219SOL    HW231557   0.451   1.867   3.518
10220SOL     OW31558   5.014   2.020   0.773
10220SOL    HW131559   5.063   2.009   0.859
10220SOL    HW231560   5.079   2.012   0.697
10221SOL     OW31561   0.913   4.466   3.897
10221SOL    HW131562   0.879   4.451   3.805
10221SOL    HW231563   0.849   4.524   3.948
10222SOL     OW31564   3.142   3.919   5.693
10222SOL    HW131565   3.058   3.973   5.692
10222SOL    HW231566   3.136   3.846   5.626
10223SOL     OW31567   1.775   4.756   1.626
10223SOL    HW131568   1.846   4.686   1.633
10223SOL    HW231569   1.686   4.715   1.644
10224SOL     OW31570   6.375   3.047   5.422
10224SOL    HW131571   6.375   2.968   5.484
10224SOL    HW231572   6.438   3.031   5.346
10225SOL     OW31573   0.989   5.218   5.626
10225SOL    HW131574   0.912   5.223   5.563
10225SOL    HW231575   1.075   5.214   5.575
10226SOL     OW31576   2.509   0.752   6.120
10226SOL    HW131577   2.473   0.673   6.070
10226SOL    HW231578   2.604   0.734   6.147
10227SOL     OW31579   5.483   4.946   1.247
10227SOL    HW131580   5.447   5.021   1.303
10227SOL    HW231581   5.489   4.976   1.151
10228SOL     OW31582   0.218   6.454   1.886
10228SOL    HW131583   0.145   6.402   1.842
10228SOL    HW231584   0.183   6.544   1.914
10229SOL     OW31585   1.617   3.117   4.490
10229SOL    HW131586   1.557   3.170   4.550
10229SOL    HW231587   1.639   3.170   4.408
10230SOL     OW31588   5.981   6.208   2.931
10230SOL    HW131589   6.067   6.201   2.881
10230SOL    HW231590   5.904   6.204   2.867
10231SOL     OW31591   6.530   4.937   5.255
10231SOL    HW131592   6.588   4.882   5.315
10231SOL    HW231593   6.462   4.879   5.212
10232SOL     OW31594   3.326   1.431   3.595
10232SOL    HW131595   3.403   1.493   3.606
10232SOL    HW231596   3.359   1.336   3.596
10233SOL     OW31597   3.882   4.009   4.897
10233SOL    HW131598   3.817   3.937   4.872
10233SOL    HW231599   3.892   4.073   4.821
10234SOL     OW31600   6.255   0.836   0.815
10234SOL    HW131601   6.316   0.774   0.766
10234SOL    HW231602   6.167   0.842   0.767
10235SOL     OW31603   2.383   2.653   1.461
10235SOL    HW131604   2.437   2.578   1.424
10235SOL    HW231605   2.327   2.693   1.388
10236SOL     OW31606   2.450   0.989   0.582
10236SOL    HW131607   2.462   0.903   0.533
10236SOL    HW231608   2.391   1.050   0.529
10237SOL     OW31609   0.986   3.957   6.672
10237SOL    HW131610   0.939   3.953   6.760
10237SOL    HW231611   1.048   3.879   6.664
10238SOL     OW31612   3.872   4.274   1.715
10238SOL    HW131613   3.801   4.345   1.720
10238SOL    HW231614   3.844   4.196   1.770
10239SOL     OW31615   1.607   3.334   4.842
10239SOL    HW131616   1.582   3.372   4.931
10239SOL    HW231617   1.678   3.391   4.801
10240SOL     OW31618   2.065   5.304   2.133
10240SOL    HW131619   1.972   5.268   2.131
10240SOL    HW231620   2.118   5.255   2.203
10241SOL     OW31621   6.489   6.755   3.374
10241SOL    HW131622   6.478   6.741   3.276
10241SOL    HW231623   6.587   6.756   3.397
10242SOL     OW31624   0.168   1.376   0.886
10242SOL    HW131625   0.178   1.370   0.787
10242SOL    HW231626   0.229   1.446   0.922
10243SOL     OW31627   1.973   4.294   2.709
10243SOL    HW131628   1.903   4.233   2.746
10243SOL    HW231629   2.026   4.334   2.784
10244SOL     OW31630   1.684   4.304   0.662
10244SOL    HW131631   1.768   4.337   0.617
10244SOL    HW231632   1.697   4.305   0.761
10245SOL     OW31633   3.512   4.045   1.440
10245SOL    HW131634   3.537   3.979   1.511
10245SOL    HW231635   3.412   4.054   1.437
10246SOL     OW31636   3.648   3.418   4.187
10246SOL    HW131637   3.733   3.465   4.210
10246SOL    HW231638   3.654   3.381   4.094
10247SOL     OW31639   6.590   3.940   5.372
10247SOL    HW131640   6.588   4.019   5.432
10247SOL    HW231641   6.522   3.873   5.403
10248SOL     OW31642   1.787   6.271   2.432
10248SOL    HW131643   1.768   6.176   2.408
10248SOL    HW231644   1.796   6.326   2.349
10249SOL     OW31645   4.490   6.184   6.763
10249SOL    HW131646   4.556   6.118   6.727
10249SOL    HW231647   4.474   6.256   6.695
10250SOL     OW31648   6.735   3.361   2.040
10250SOL    HW131649   6.784   3.366   2.128
10250SOL    HW231650   6.799   3.379   1.965
10251SOL     OW31651   1.855   1.790   5.425
10251SOL    HW131652   1.869   1.775   5.327
10251SOL    HW231653   1.903   1.874   5.452
10252SOL     OW31654   4.204   4.482   6.464
10252SOL    HW131655   4.154   4.405   6.423
10252SOL    HW231656   4.302   4.471   6.446
10253SOL     OW31657   2.809   5.876   0.577
10253SOL    HW131658   2.761   5.921   0.502
10253SOL    HW231659   2.871   5.940   0.621
10254SOL     OW31660   4.767   0.992   5.456
10254SOL    HW131661   4.830   1.066   5.432
10254SOL    HW231662   4.728   1.009   5.547
10255SOL     OW31663   2.634   6.189   1.365
10255SOL    HW131664   2.708   6.133   1.329
10255SOL    HW231665   2.546   6.152   1.335
10256SOL     OW31666   4.513   2.183   2.279
10256SOL    HW131667   4.486   2.274   2.247
10256SOL    HW231668   4.552   2.190   2.371
10257SOL     OW31669   1.788   5.273   4.091
10257SOL    HW131670   1.798   5.321   4.004
10257SOL    HW231671   1.868   5.215   4.107
10258SOL     OW31672   3.646   2.086   3.496
10258SOL    HW131673   3.559   2.046   3.467
10258SOL    HW231674   3.696   2.120   3.417
10259SOL     OW31675   0.730   4.296   2.622
10259SOL    HW131676   0.635   4.292   2.590
10259SOL    HW231677   0.747   4.220   2.684
10260SOL     OW31678   1.137   1.464   3.185
10260SOL    HW131679   1.206   1.401   3.149
10260SOL    HW231680   1.047   1.439   3.151
10261SOL     OW31681   6.433   4.897   1.531
10261SOL    HW131682   6.506   4.961   1.507
10261SOL    HW231683   6.461   4.804   1.506
10262SOL     OW31684   2.245   0.106   5.889
10262SOL    HW131685   2.325   0.078   5.941
10262SOL    HW231686   2.270   0.122   5.794
10263SOL     OW31687   5.435   0.414   0.444
10263SOL    HW131688   5.472   0.442   0.355
10263SOL    HW231689   5.386   0.327   0.434
10264SOL     OW31690   6.472   6.773   6.650
10264SOL    HW131691   6.543   6.825   6.602
10264SOL    HW231692   6.514   6.697   6.699
10265SOL     OW31693   2.995   2.694   1.687
10265SOL    HW131694   3.021   2.658   1.597
10265SOL    HW231695   3.004   2.622   1.756
10266SOL     OW31696   3.389   2.956   4.103
10266SOL    HW131697   3.375   2.975   4.005
10266SOL    HW231698   3.304   2.973   4.153
10267SOL     OW31699   5.405   2.782   0.297
10267SOL    HW131700   5.470   2.776   0.373
10267SOL    HW231701   5.452   2.821   0.217
10268SOL     OW31702   6.654   6.157   2.246
10268SOL    HW131703   6.582   6.126   2.184
10268SOL    HW231704   6.704   6.232   2.203
10269SOL     OW31705   0.638   3.760   6.567
10269SOL    HW131706   0.622   3.720   6.477
10269SOL    HW231707   0.672   3.854   6.556
10270SOL     OW31708   3.180   4.945   2.352
10270SOL    HW131709   3.115   4.891   2.297
10270SOL    HW231710   3.130   4.990   2.426
10271SOL     OW31711   3.643   3.121   6.461
10271SOL    HW131712   3.650   3.220   6.463
10271SOL    HW231713   3.723   3.083   6.414
10272SOL     OW31714   1.142   1.012   5.718
10272SOL    HW131715   1.227   1.021   5.666
10272SOL    HW231716   1.116   1.102   5.754
10273SOL     OW31717   3.313   5.883   3.025
10273SOL    HW131718   3.329   5.947   3.100
10273SOL    HW231719   3.269   5.930   2.950
10274SOL     OW31720   0.404   4.732   6.003
10274SOL    HW131721   0.488   4.679   6.010
10274SOL    HW231722   0.424   4.828   6.022
10275SOL     OW31723   0.981   6.218   2.162
10275SOL    HW131724   1.055   6.164   2.121
10275SOL    HW231725   0.896   6.165   2.162
10276SOL     OW31726   5.410   5.740   5.305
10276SOL    HW131727   5.439   5.782   5.391
10276SOL    HW231728   5.312   5.720   5.310
10277SOL     OW31729   1.889   6.194   5.077
10277SOL    HW131730   1.882   6.107   5.027
10277SOL    HW231731   1.813   6.253   5.051
10278SOL     OW31732   1.561   1.699   3.503
10278SOL    HW131733   1.628   1.737   3.439
10278SOL    HW231734   1.512   1.624   3.460
10279SOL     OW31735   1.465   4.623   4.106
10279SOL    HW131736   1.555   4.603   4.145
10279SOL    HW231737   1.448   4.563   4.028
10280SOL     OW31738   0.119   2.273   6.849
10280SOL    HW131739   0.106   2.343   6.919
10280SOL    HW231740   0.211   2.234   6.856
10281SOL     OW31741   5.561   0.989   3.368
10281SOL    HW131742   5.470   1.020   3.394
10281SOL    HW231743   5.612   0.963   3.450
10282SOL     OW31744   5.267   3.574   4.387
10282SOL    HW131745   5.342   3.629   4.349
10282SOL    HW231746   5.305   3.497   4.438
10283SOL     OW31747   2.010   3.342   1.244
10283SOL    HW131748   1.957   3.320   1.326
10283SOL    HW231749   1.950   3.388   1.178
10284SOL     OW31750   4.844   2.665   5.235
10284SOL    HW131751   4.834   2.590   5.171
10284SOL    HW231752   4.800   2.747   5.198
10285SOL     OW31753   5.548   6.582   2.796
10285SOL    HW131754   5.601   6.648   2.848
10285SOL    HW231755   5.462   6.562   2.844
10286SOL     OW31756   3.291   2.156   3.904
10286SOL    HW131757   3.376   2.157   3.852
10286SOL    HW231758   3.258   2.063   3.914
10287SOL     OW31759   2.889   6.104   1.969
10287SOL    HW131760   2.852   6.011   1.965
10287SOL    HW231761   2.979   6.106   1.925
10288SOL     OW31762   4.963   5.821   3.230
10288SOL    HW131763   4.964   5.905   3.174
10288SOL    HW231764   4.881   5.820   3.287
10289SOL     OW31765   2.754   6.237   6.747
10289SOL    HW131766   2.843   6.230   6.792
10289SOL    HW231767   2.767   6.256   6.650
10290SOL     OW31768   2.969   3.834   3.152
10290SOL    HW131769   2.961   3.747   3.201
10290SOL    HW231770   2.983   3.908   3.218
10291SOL     OW31771   3.989   1.493   2.481
10291SOL    HW131772   4.051   1.421   2.510
10291SOL    HW231773   3.957   1.544   2.560
10292SOL     OW31774   1.744   2.225   5.347
10292SOL    HW131775   1.750   2.241   5.249
10292SOL    HW231776   1.692   2.141   5.365
10293SOL     OW31777   1.696   3.419   2.302
10293SOL    HW131778   1.652   3.388   2.386
10293SOL    HW231779   1.792   3.391   2.303
10294SOL     OW31780   4.849   2.567   3.541
10294SOL    HW131781   4.872   2.549   3.636
10294SOL    HW231782   4.751   2.554   3.527
10295SOL     OW31783   0.601   3.342   6.076
10295SOL    HW131784   0.612   3.312   6.171
10295SOL    HW231785   0.515   3.392   6.066
10296SOL     OW31786   5.140   1.552   6.728
10296SOL    HW131787   5.138   1.582   6.823
10296SOL    HW231788   5.046   1.542   6.694
10297SOL     OW31789   2.016   0.871   6.669
10297SOL    HW131790   2.115   0.876   6.659
10297SOL    HW231791   1.979   0.806   6.602
10298SOL     OW31792   2.689   4.498   0.878
10298SOL    HW131793   2.634   4.569   0.922
10298SOL    HW231794   2.680   4.506   0.779
10299SOL     OW31795   4.521   4.794   2.951
10299SOL    HW131796   4.432   4.799   2.996
10299SOL    HW231797   4.517   4.842   2.863
10300SOL     OW31798   1.212   4.079   2.633
10300SOL    HW131799   1.219   4.064   2.732
10300SOL    HW231800   1.120   4.055   2.602
10301SOL     OW31801   5.074   1.904   4.275
10301SOL    HW131802   5.088   1.973   4.345
10301SOL    HW231803   5.030   1.945   4.196
10302SOL     OW31804   2.119   6.304   4.847
10302SOL    HW131805   2.129   6.403   4.836
10302SOL    HW231806   2.208   6.264   4.871
10303SOL     OW31807   1.534   5.736   2.886
10303SOL    HW131808   1.556   5.824   2.928
10303SOL    HW231809   1.575   5.662   2.939
10304SOL     OW31810   5.380   0.013   1.563
10304SOL    HW131811   5.413   0.095   1.610
10304SOL    HW231812   5.453   6.975   1.560
10305SOL     OW31813   1.313   4.138   6.298
10305SOL    HW131814   1.331   4.197   6.377
10305SOL    HW231815   1.216   4.143   6.274
10306SOL     OW31816   5.147   5.670   0.178
10306SOL    HW131817   5.086   5.746   0.155
10306SOL    HW231818   5.171   5.620   0.095
10307SOL     OW31819   2.902   2.218   5.384
10307SOL    HW131820   2.919   2.315   5.368
10307SOL    HW231821   2.908   2.168   5.298
10308SOL     OW31822   1.477   3.770   3.061
10308SOL    HW131823   1.428   3.709   2.998
10308SOL    HW231824   1.575   3.763   3.045
10309SOL     OW31825   6.860   1.957   6.715
10309SOL    HW131826   6.817   1.868   6.700
10309SOL    HW231827   6.958   1.951   6.696
10310SOL     OW31828   3.174   3.892   0.522
10310SOL    HW131829   3.162   3.831   0.601
10310SOL    HW231830   3.225   3.973   0.550
10311SOL     OW31831   6.722   5.932   0.584
10311SOL    HW131832   6.684   6.012   0.632
10311SOL    HW231833   6.702   5.940   0.486
10312SOL     OW31834   3.552   5.372   2.672
10312SOL    HW131835   3.482   5.310   2.705
10312SOL    HW231836   3.536   5.393   2.575
10313SOL     OW31837   4.613   6.325   2.091
10313SOL    HW131838   4.689   6.384   2.115
10313SOL    HW231839   4.534   6.380   2.064
10314SOL     OW31840   6.516   0.620   1.914
10314SOL    HW131841   6.610   0.589   1.924
10314SOL    HW231842   6.476   0.581   1.831
10315SOL     OW31843   5.156   5.439   5.158
10315SOL    HW131844   5.220   5.442   5.235
10315SOL    HW231845   5.136   5.532   5.128
10316SOL     OW31846   5.860   1.063   5.190
10316SOL    HW131847   5.792   1.123   5.232
10316SOL    HW231848   5.868   1.086   5.093
10317SOL     OW31849   4.908   5.816   5.521
10317SOL    HW131850   4.823   5.806   5.469
10317SOL    HW231851   4.928   5.731   5.569
10318SOL     OW31852   5.724   6.778   6.237
10318SOL    HW131853   5.659   6.738   6.174
10318SOL    HW231854   5.750   6.711   6.306
10319SOL     OW31855   1.033   2.647   5.422
10319SOL    HW131856   1.025   2.549   5.443
10319SOL    HW231857   1.013   2.661   5.325
10320SOL     OW31858   0.588   0.354   2.318
10320SOL    HW131859   0.581   0.408   2.234
10320SOL    HW231860   0.669   0.384   2.370
10321SOL     OW31861   3.761   1.893   1.737
10321SOL    HW131862   3.742   1.991   1.742
10321SOL    HW231863   3.779   1.858   1.829
10322SOL     OW31864   6.428   5.442   5.520
10322SOL    HW131865   6.371   5.426   5.601
10322SOL    HW231866   6.416   5.367   5.456
10323SOL     OW31867   5.973   3.492   5.525
10323SOL    HW131868   6.066   3.498   5.563
10323SOL    HW231869   5.922   3.422   5.576
10324SOL     OW31870   3.100   3.175   1.952
10324SOL    HW131871   3.101   3.080   1.921
10324SOL    HW231872   3.140   3.181   2.044
10325SOL     OW31873   6.491   3.948   2.449
10325SOL    HW131874   6.507   3.914   2.542
10325SOL    HW231875   6.497   3.873   2.384
10326SOL     OW31876   3.494   5.310   0.766
10326SOL    HW131877   3.573   5.368   0.744
10326SOL    HW231878   3.496   5.286   0.863
10327SOL     OW31879   2.406   1.651   0.985
10327SOL    HW131880   2.408   1.557   0.951
10327SOL    HW231881   2.316   1.670   1.023
10328SOL     OW31882   6.436   2.148   1.143
10328SOL    HW131883   6.459   2.069   1.086
10328SOL    HW231884   6.439   2.231   1.087
10329SOL     OW31885   3.727   0.724   3.764
10329SOL    HW131886   3.730   0.704   3.862
10329SOL    HW231887   3.649   0.676   3.722
10330SOL     OW31888   4.960   0.772   2.493
10330SOL    HW131889   5.041   0.789   2.437
10330SOL    HW231890   4.879   0.774   2.435
10331SOL     OW31891   6.408   0.694   6.116
10331SOL    HW131892   6.339   0.765   6.101
10331SOL    HW231893   6.386   0.643   6.199
10332SOL     OW31894   6.545   0.279   1.255
10332SOL    HW131895   6.467   0.337   1.233
10332SOL    HW231896   6.518   0.183   1.250
10333SOL     OW31897   6.666   4.706   4.781
10333SOL    HW131898   6.590   4.675   4.839
10333SOL    HW231899   6.661   4.660   4.692
10334SOL     OW31900   3.609   0.307   3.629
10334SOL    HW131901   3.674   0.259   3.687
10334SOL    HW231902   3.633   0.293   3.533
10335SOL     OW31903   2.766   4.225   6.758
10335SOL    HW131904   2.714   4.140   6.771
10335SOL    HW231905   2.716   4.301   6.800
10336SOL     OW31906   6.554   0.078   2.087
10336SOL    HW131907   6.504   0.054   2.004
10336SOL    HW231908   6.551   0.177   2.100
10337SOL     OW31909   0.138   6.606   5.876
10337SOL    HW131910   0.132   6.701   5.846
10337SOL    HW231911   0.161   6.548   5.798
10338SOL     OW31912   2.330   6.645   2.888
10338SOL    HW131913   2.240   6.690   2.884
10338SOL    HW231914   2.352   6.608   2.797
10339SOL     OW31915   3.414   4.397   6.893
10339SOL    HW131916   3.315   4.413   6.900
10339SOL    HW231917   3.434   4.353   6.805
10340SOL     OW31918   1.887   3.994   1.442
10340SOL    HW131919   1.987   3.993   1.436
10340SOL    HW231920   1.848   3.981   1.351
10341SOL     OW31921   2.191   3.128   2.260
10341SOL    HW131922   2.152   3.156   2.348
10341SOL    HW231923   2.289   3.147   2.259
10342SOL     OW31924   0.926   0.377   4.903
10342SOL    HW131925   0.924   0.279   4.926
10342SOL    HW231926   0.921   0.388   4.804
10343SOL     OW31927   3.609   6.069   0.009
10343SOL    HW131928   3.700   6.045   0.042
10343SOL    HW231929   3.594   6.167   0.021
10344SOL     OW31930   4.397   4.027   1.443
10344SOL    HW131931   4.453   4.110   1.441
10344SOL    HW231932   4.361   4.010   1.351
10345SOL     OW31933   1.574   1.308   6.408
10345SOL    HW131934   1.544   1.227   6.458
10345SOL    HW231935   1.672   1.301   6.388
10346SOL     OW31936   6.778   5.754   1.713
10346SOL    HW131937   6.848   5.732   1.646
10346SOL    HW231938   6.722   5.673   1.731
10347SOL     OW31939   4.495   2.035   3.533
10347SOL    HW131940   4.540   1.949   3.559
10347SOL    HW231941   4.546   2.112   3.571
10348SOL     OW31942   6.418   1.721   0.383
10348SOL    HW131943   6.447   1.690   0.292
10348SOL    HW231944   6.452   1.657   0.452
10349SOL     OW31945   0.721   0.617   0.794
10349SOL    HW131946   0.659   0.694   0.813
10349SOL    HW231947   0.815   0.645   0.810
10350SOL     OW31948   2.052   0.087   5.307
10350SOL    HW131949   2.131   0.119   5.255
10350SOL    HW231950   2.015   0.004   5.264
10351SOL     OW31951   4.409   4.808   5.967
10351SOL    HW131952   4.396   4.776   6.061
10351SOL    HW231953   4.340   4.768   5.907
10352SOL     OW31954   3.692   1.684   5.882
10352SOL    HW131955   3.670   1.701   5.786
10352SOL    HW231956   3.773   1.626   5.889
10353SOL     OW31957   6.516   2.532   5.611
10353SOL    HW131958   6.507   2.485   5.698
10353SOL    HW231959   6.545   2.467   5.540
10354SOL     OW31960   5.747   2.617   2.082
10354SOL    HW131961   5.841   2.591   2.061
10354SOL    HW231962   5.691   2.609   1.999
10355SOL     OW31963   1.776   0.084   2.506
10355SOL    HW131964   1.777   0.001   2.562
10355SOL    HW231965   1.720   0.068   2.425
10356SOL     OW31966   0.588   4.333   5.935
10356SOL    HW131967   0.541   4.388   5.866
10356SOL    HW231968   0.526   4.265   5.972
10357SOL     OW31969   1.758   3.309   5.878
10357SOL    HW131970   1.792   3.218   5.858
10357SOL    HW231971   1.726   3.353   5.794
10358SOL     OW31972   5.933   2.448   3.292
10358SOL    HW131973   5.991   2.530   3.298
10358SOL    HW231974   5.919   2.424   3.196
10359SOL     OW31975   0.449   1.682   1.795
10359SOL    HW131976   0.548   1.697   1.804
10359SOL    HW231977   0.421   1.699   1.701
10360SOL     OW31978   5.076   5.576   3.217
10360SOL    HW131979   5.018   5.657   3.230
10360SOL    HW231980   5.071   5.518   3.298
10361SOL     OW31981   3.071   0.258   3.335
10361SOL    HW131982   3.076   0.160   3.353
10361SOL    HW231983   3.081   0.308   3.421
10362SOL     OW31984   0.296   4.871   4.783
10362SOL    HW131985   0.287   4.967   4.758
10362SOL    HW231986   0.231   4.850   4.856
10363SOL     OW31987   5.226   1.391   1.492
10363SOL    HW131988   5.222   1.435   1.582
10363SOL    HW231989   5.292   1.316   1.495
10364SOL     OW31990   2.941   3.223   1.558
10364SOL    HW131991   2.879   3.158   1.602
10364SOL    HW231992   2.979   3.284   1.628
10365SOL     OW31993   4.717   4.653   6.023
10365SOL    HW131994   4.671   4.566   6.042
10365SOL    HW231995   4.741   4.697   6.110
10366SOL     OW31996   3.870   0.387   4.163
10366SOL    HW131997   3.894   0.292   4.187
10366SOL    HW231998   3.834   0.433   4.244
10367SOL     OW31999   6.146   1.862   2.727
10367SOL    HW132000   6.208   1.928   2.770
10367SOL    HW232001   6.126   1.789   2.792
10368SOL     OW32002   1.948   1.168   1.507
10368SOL    HW132003   1.983   1.108   1.436
10368SOL    HW232004   1.859   1.134   1.539
10369SOL     OW32005   3.799   1.294   5.289
10369SOL    HW132006   3.822   1.253   5.201
10369SOL    HW232007   3.702   1.319   5.290
10370SOL     OW32008   5.604   1.343   5.602
10370SOL    HW132009   5.621   1.294   5.688
10370SOL    HW232010   5.522   1.400   5.612
10371SOL     OW32011   2.927   5.890   4.556
10371SOL    HW132012   2.943   5.810   4.498
10371SOL    HW232013   2.923   5.861   4.652
10372SOL     OW32014   1.122   1.482   0.160
10372SOL    HW132015   1.145   1.569   0.117
10372SOL    HW232016   1.075   1.423   0.093
10373SOL     OW32017   2.217   5.986   4.689
10373SOL    HW132018   2.153   6.036   4.630
10373SOL    HW232019   2.247   6.046   4.763
10374SOL     OW32020   3.916   0.963   2.448
10374SOL    HW132021   3.970   0.899   2.393
10374SOL    HW232022   3.866   1.025   2.387
10375SOL     OW32023   2.910   1.704   5.976
10375SOL    HW132024   2.968   1.634   5.933
10375SOL    HW232025   2.881   1.770   5.906
10376SOL     OW32026   1.287   6.527   4.081
10376SOL    HW132027   1.235   6.585   4.144
10376SOL    HW232028   1.382   6.557   4.079
10377SOL     OW32029   0.023   0.501   4.068
10377SOL    HW132030   0.028   0.553   4.153
10377SOL    HW232031   0.102   0.522   4.011
10378SOL     OW32032   6.583   0.074   6.170
10378SOL    HW132033   6.674   0.101   6.140
10378SOL    HW232034   6.546   0.005   6.108
10379SOL     OW32035   3.436   6.522   4.826
10379SOL    HW132036   3.466   6.532   4.731
10379SOL    HW232037   3.370   6.594   4.847
10380SOL     OW32038   0.244   1.277   3.783
10380SOL    HW132039   0.171   1.342   3.762
10380SOL    HW232040   0.323   1.327   3.819
10381SOL     OW32041   4.231   5.771   6.528
10381SOL    HW132042   4.308   5.711   6.552
10381SOL    HW232043   4.192   5.741   6.441
10382SOL     OW32044   2.097   4.764   0.312
10382SOL    HW132045   2.191   4.740   0.289
10382SOL    HW232046   2.066   4.707   0.389
10383SOL     OW32047   0.627   3.935   0.431
10383SOL    HW132048   0.723   3.962   0.422
10383SOL    HW232049   0.602   3.938   0.528
10384SOL     OW32050   0.742   0.270   1.047
10384SOL    HW132051   0.703   0.208   1.115
10384SOL    HW232052   0.670   0.302   0.986
10385SOL     OW32053   3.782   0.262   6.673
10385SOL    HW132054   3.712   0.299   6.734
10385SOL    HW232055   3.810   0.333   6.608
10386SOL     OW32056   5.841   3.208   5.471
10386SOL    HW132057   5.939   3.216   5.453
10386SOL    HW232058   5.803   3.135   5.414
10387SOL     OW32059   4.086   2.206   2.198
10387SOL    HW132060   4.001   2.258   2.189
10387SOL    HW232061   4.084   2.127   2.137
10388SOL     OW32062   1.679   5.956   2.970
10388SOL    HW132063   1.769   5.921   2.996
10388SOL    HW232064   1.689   6.025   2.899
10389SOL     OW32065   0.588   0.014   1.571
10389SOL    HW132066   0.568   0.108   1.598
10389SOL    HW232067   0.538   6.980   1.630
10390SOL     OW32068   1.304   3.415   1.703
10390SOL    HW132069   1.402   3.407   1.720
10390SOL    HW232070   1.289   3.445   1.609
10391SOL     OW32071   1.530   5.898   5.064
10391SOL    HW132072   1.573   5.955   4.994
10391SOL    HW232073   1.507   5.955   5.143
10392SOL     OW32074   6.558   4.199   0.279
10392SOL    HW132075   6.523   4.124   0.224
10392SOL    HW232076   6.522   4.191   0.372
10393SOL     OW32077   2.242   2.354   2.689
10393SOL    HW132078   2.314   2.306   2.741
10393SOL    HW232079   2.171   2.288   2.664
10394SOL     OW32080   2.651   6.523   5.851
10394SOL    HW132081   2.641   6.621   5.838
10394SOL    HW232082   2.570   6.487   5.897
10395SOL     OW32083   6.196   0.568   3.729
10395SOL    HW132084   6.184   0.569   3.828
10395SOL    HW232085   6.119   0.615   3.686
10396SOL     OW32086   2.383   0.085   4.675
10396SOL    HW132087   2.480   0.061   4.677
10396SOL    HW232088   2.341   0.048   4.592
10397SOL     OW32089   3.360   2.032   3.318
10397SOL    HW132090   3.283   1.979   3.282
10397SOL    HW232091   3.399   2.088   3.245
10398SOL     OW32092   5.808   2.611   0.739
10398SOL    HW132093   5.727   2.599   0.681
10398SOL    HW232094   5.781   2.651   0.826
10399SOL     OW32095   4.328   1.591   4.927
10399SOL    HW132096   4.399   1.627   4.867
10399SOL    HW232097   4.371   1.540   5.001
10400SOL     OW32098   3.326   5.834   2.112
10400SOL    HW132099   3.322   5.820   2.211
10400SOL    HW232100   3.418   5.810   2.079
10401SOL     OW32101   6.999   0.315   2.469
10401SOL    HW132102   6.904   0.343   2.454
10401SOL    HW232103   7.001   0.241   2.537
10402SOL     OW32104   0.275   2.642   5.207
10402SOL    HW132105   0.369   2.674   5.196
10402SOL    HW232106   0.273   2.565   5.271
10403SOL     OW32107   4.983   1.585   2.161
10403SOL    HW132108   4.911   1.630   2.108
10403SOL    HW232109   5.048   1.541   2.099
10404SOL     OW32110   0.653   6.587   3.313
10404SOL    HW132111   0.566   6.596   3.362
10404SOL    HW232112   0.718   6.537   3.370
10405SOL     OW32113   1.289   5.374   4.655
10405SOL    HW132114   1.256   5.400   4.565
10405SOL    HW232115   1.250   5.436   4.724
10406SOL     OW32116   2.075   3.825   4.861
10406SOL    HW132117   1.983   3.864   4.866
10406SOL    HW232118   2.106   3.802   4.953
10407SOL     OW32119   1.860   0.602   6.627
10407SOL    HW132120   1.859   0.502   6.623
10407SOL    HW232121   1.768   0.637   6.608
10408SOL     OW32122   4.284   5.811   2.693
10408SOL    HW132123   4.275   5.841   2.598
10408SOL    HW232124   4.194   5.808   2.736
10409SOL     OW32125   0.953   4.422   0.585
10409SOL    HW132126   0.892   4.352   0.624
10409SOL    HW232127   1.047   4.388   0.587
10410SOL     OW32128   5.474   1.715   1.304
10410SOL    HW132129   5.553   1.756   1.259
10410SOL    HW232130   5.430   1.784   1.363
10411SOL     OW32131   3.331   5.341   3.952
10411SOL    HW132132   3.276   5.353   4.034
10411SOL    HW232133   3.411   5.402   3.957
10412SOL     OW32134   0.494   1.308   0.520
10412SOL    HW132135   0.529   1.391   0.562
10412SOL    HW232136   0.476   1.325   0.423
10413SOL     OW32137   0.463   2.114   0.787
10413SOL    HW132138   0.392   2.174   0.749
10413SOL    HW232139   0.544   2.117   0.728
10414SOL     OW32140   4.681   6.190   5.836
10414SOL    HW132141   4.684   6.189   5.736
10414SOL    HW232142   4.768   6.225   5.871
10415SOL     OW32143   2.041   5.155   4.145
10415SOL    HW132144   2.100   5.235   4.134
10415SOL    HW232145   2.040   5.126   4.241
10416SOL     OW32146   0.331   1.380   5.730
10416SOL    HW132147   0.244   1.414   5.766
10416SOL    HW232148   0.315   1.317   5.655
10417SOL     OW32149   4.698   4.393   4.148
10417SOL    HW132150   4.779   4.447   4.171
10417SOL    HW232151   4.721   4.296   4.148
10418SOL     OW32152   6.429   4.410   5.336
10418SOL    HW132153   6.487   4.382   5.260
10418SOL    HW232154   6.353   4.345   5.345
10419SOL     OW32155   3.154   0.721   5.231
10419SOL    HW132156   3.084   0.792   5.222
10419SOL    HW232157   3.151   0.682   5.323
10420SOL     OW32158   0.016   3.530   3.125
10420SOL    HW132159   6.956   3.487   3.135
10420SOL    HW232160   0.073   3.507   3.203
10421SOL     OW32161   1.265   3.380   3.847
10421SOL    HW132162   1.254   3.476   3.874
10421SOL    HW232163   1.215   3.363   3.763
10422SOL     OW32164   6.726   3.924   5.639
10422SOL    HW132165   6.662   4.001   5.645
10422SOL    HW232166   6.790   3.928   5.715
10423SOL     OW32167   4.095   4.892   4.759
10423SOL    HW132168   4.088   4.955   4.682
10423SOL    HW232169   4.081   4.798   4.727
10424SOL     OW32170   4.939   2.140   0.046
10424SOL    HW132171   4.888   2.226   0.051
10424SOL    HW232172   5.015   2.149   7.012
10425SOL     OW32173   0.753   6.535   1.532
10425SOL    HW132174   0.723   6.630   1.546
10425SOL    HW232175   0.676   6.482   1.495
10426SOL     OW32176   4.903   3.433   5.719
10426SOL    HW132177   4.837   3.492   5.766
10426SOL    HW232178   4.907   3.344   5.766
10427SOL     OW32179   5.100   5.527   5.929
10427SOL    HW132180   5.161   5.597   5.890
10427SOL    HW232181   5.033   5.570   5.988
10428SOL     OW32182   1.384   1.869   3.939
10428SOL    HW132183   1.337   1.955   3.957
10428SOL    HW232184   1.433   1.876   3.851
10429SOL     OW32185   1.692   3.630   2.894
10429SOL    HW132186   1.636   3.651   2.814
10429SOL    HW232187   1.777   3.683   2.890
10430SOL     OW32188   3.470   5.794   4.301
10430SOL    HW132189   3.396   5.754   4.354
10430SOL    HW232190   3.441   5.809   4.207
10431SOL     OW32191   2.875   0.729   3.882
10431SOL    HW132192   2.920   0.691   3.963
10431SOL    HW232193   2.902   0.824   3.871
10432SOL     OW32194   0.622   0.957   5.388
10432SOL    HW132195   0.718   0.968   5.415
10432SOL    HW232196   0.615   0.958   5.288
10433SOL     OW32197   0.570   6.319   1.479
10433SOL    HW132198   0.568   6.303   1.578
10433SOL    HW232199   0.612   6.241   1.433
10434SOL     OW32200   4.774   6.457   4.578
10434SOL    HW132201   4.781   6.535   4.516
10434SOL    HW232202   4.806   6.374   4.531
10435SOL     OW32203   1.336   1.981   6.262
10435SOL    HW132204   1.272   2.027   6.323
10435SOL    HW232205   1.353   2.038   6.182
10436SOL     OW32206   6.128   3.518   4.304
10436SOL    HW132207   6.118   3.569   4.219
10436SOL    HW232208   6.172   3.430   4.286
10437SOL     OW32209   5.480   5.324   5.189
10437SOL    HW132210   5.561   5.277   5.223
10437SOL    HW232211   5.430   5.364   5.266
10438SOL     OW32212   0.172   6.413   5.673
10438SOL    HW132213   0.229   6.338   5.705
10438SOL    HW232214   0.207   6.446   5.585
10439SOL     OW32215   6.242   0.407   4.518
10439SOL    HW132216   6.215   0.502   4.531
10439SOL    HW232217   6.183   0.348   4.573
10440SOL     OW32218   0.123   0.626   6.993
10440SOL    HW132219   0.070   0.707   6.965
10440SOL    HW232220   0.112   0.554   6.925
10441SOL     OW32221   3.297   1.622   0.723
10441SOL    HW132222   3.213   1.664   0.687
10441SOL    HW232223   3.358   1.694   0.755
10442SOL     OW32224   3.621   0.882   5.291
10442SOL    HW132225   3.663   0.872   5.201
10442SOL    HW232226   3.540   0.824   5.298
10443SOL     OW32227   6.729   2.168   2.806
10443SOL    HW132228   6.756   2.071   2.802
10443SOL    HW232229   6.760   2.207   2.892
10444SOL     OW32230   3.051   4.929   3.151
10444SOL    HW132231   3.136   4.950   3.103
10444SOL    HW232232   3.072   4.904   3.246
10445SOL     OW32233   0.379   3.690   2.306
10445SOL    HW132234   0.424   3.772   2.271
10445SOL    HW232235   0.301   3.667   2.247
10446SOL     OW32236   1.574   4.511   6.043
10446SOL    HW132237   1.616   4.421   6.050
10446SOL    HW232238   1.492   4.515   6.100
10447SOL     OW32239   6.242   1.132   1.759
10447SOL    HW132240   6.263   1.068   1.685
10447SOL    HW232241   6.279   1.222   1.737
10448SOL     OW32242   3.230   0.813   3.207
10448SOL    HW132243   3.258   0.847   3.118
10448SOL    HW232244   3.256   0.716   3.216
10449SOL     OW32245   3.528   5.529   6.790
10449SOL    HW132246   3.538   5.624   6.819
10449SOL    HW232247   3.616   5.482   6.797
10450SOL     OW32248   6.501   0.759   6.414
10450SOL    HW132249   6.599   0.763   6.434
10450SOL    HW232250   6.453   0.827   6.468
10451SOL     OW32251   3.152   0.477   3.220
10451SOL    HW132252   3.071   0.534   3.230
10451SOL    HW232253   3.125   0.380   3.218
10452SOL     OW32254   6.794   2.508   2.713
10452SOL    HW132255   6.742   2.428   2.683
10452SOL    HW232256   6.730   2.581   2.739
10453SOL     OW32257   4.611   6.144   3.225
10453SOL    HW132258   4.626   6.053   3.186
10453SOL    HW232259   4.602   6.211   3.152
10454SOL     OW32260   6.119   1.120   0.058
10454SOL    HW132261   6.183   1.043   0.054
10454SOL    HW232262   6.160   1.196   0.108
10455SOL     OW32263   6.576   5.917   4.143
10455SOL    HW132264   6.625   5.937   4.227
10455SOL    HW232265   6.479   5.906   4.162
10456SOL     OW32266   0.075   5.790   0.211
10456SOL    HW132267   0.078   5.750   0.120
10456SOL    HW232268   7.015   5.774   0.251
10457SOL     OW32269   4.443   3.706   6.839
10457SOL    HW132270   4.433   3.626   6.780
10457SOL    HW232271   4.513   3.688   6.908
10458SOL     OW32272   6.654   0.590   6.139
10458SOL    HW132273   6.646   0.522   6.067
10458SOL    HW232274   6.584   0.660   6.127
10459SOL     OW32275   5.633   5.135   0.652
10459SOL    HW132276   5.608   5.038   0.651
10459SOL    HW232277   5.726   5.145   0.688
10460SOL     OW32278   6.787   3.858   1.803
10460SOL    HW132279   6.807   3.885   1.897
10460SOL    HW232280   6.723   3.782   1.803
10461SOL     OW32281   6.473   4.555   5.602
10461SOL    HW132282   6.405   4.539   5.531
10461SOL    HW232283   6.427   4.565   5.690
10462SOL     OW32284   4.719   1.750   2.366
10462SOL    HW132285   4.674   1.684   2.426
10462SOL    HW232286   4.817   1.753   2.386
10463SOL     OW32287   4.749   1.484   5.987
10463SOL    HW132288   4.823   1.459   6.050
10463SOL    HW232289   4.672   1.522   6.039
10464SOL     OW32290   5.521   5.671   1.869
10464SOL    HW132291   5.486   5.637   1.957
10464SOL    HW232292   5.616   5.643   1.858
10465SOL     OW32293   5.052   4.484   2.677
10465SOL    HW132294   5.077   4.434   2.594
10465SOL    HW232295   5.125   4.477   2.744
10466SOL     OW32296   4.944   4.386   6.514
10466SOL    HW132297   4.971   4.400   6.610
10466SOL    HW232298   5.023   4.353   6.463
10467SOL     OW32299   1.529   2.574   6.842
10467SOL    HW132300   1.569   2.482   6.837
10467SOL    HW232301   1.524   2.602   6.938
10468SOL     OW32302   3.594   4.991   3.282
10468SOL    HW132303   3.543   5.002   3.368
10468SOL    HW232304   3.691   4.977   3.302
10469SOL     OW32305   4.676   4.394   6.041
10469SOL    HW132306   4.717   4.347   6.119
10469SOL    HW232307   4.591   4.349   6.015
10470SOL     OW32308   2.624   1.807   3.404
10470SOL    HW132309   2.550   1.778   3.466
10470SOL    HW232310   2.588   1.872   3.338
10471SOL     OW32311   2.963   0.539   0.203
10471SOL    HW132312   2.941   0.441   0.195
10471SOL    HW232313   2.879   0.592   0.195
10472SOL     OW32314   2.847   5.391   1.495
10472SOL    HW132315   2.931   5.385   1.549
10472SOL    HW232316   2.777   5.438   1.549
10473SOL     OW32317   6.073   6.223   5.633
10473SOL    HW132318   6.043   6.243   5.540
10473SOL    HW232319   6.165   6.184   5.631
10474SOL     OW32320   4.607   1.228   3.588
10474SOL    HW132321   4.588   1.264   3.680
10474SOL    HW232322   4.520   1.209   3.542
10475SOL     OW32323   2.869   6.648   1.700
10475SOL    HW132324   2.905   6.630   1.609
10475SOL    HW232325   2.853   6.561   1.747
10476SOL     OW32326   4.994   6.414   6.134
10476SOL    HW132327   5.025   6.503   6.100
10476SOL    HW232328   4.962   6.424   6.228
10477SOL     OW32329   0.217   0.426   4.536
10477SOL    HW132330   0.135   0.476   4.564
10477SOL    HW232331   0.195   0.364   4.461
10478SOL     OW32332   0.018   6.746   0.199
10478SOL    HW132333   7.014   6.652   0.196
10478SOL    HW232334   6.995   6.799   0.266
10479SOL     OW32335   6.548   1.819   2.008
10479SOL    HW132336   6.511   1.750   1.945
10479SOL    HW232337   6.485   1.831   2.085
10480SOL     OW32338   1.289   0.189   1.808
10480SOL    HW132339   1.216   0.184   1.740
10480SOL    HW232340   1.310   0.284   1.828
10481SOL     OW32341   1.996   6.108   3.096
10481SOL    HW132342   2.076   6.162   3.123
10481SOL    HW232343   1.913   6.152   3.131
10482SOL     OW32344   6.437   5.134   4.469
10482SOL    HW132345   6.347   5.165   4.441
10482SOL    HW232346   6.449   5.038   4.442
10483SOL     OW32347   5.373   5.950   0.373
10483SOL    HW132348   5.274   5.936   0.361
10483SOL    HW232349   5.413   5.976   0.285
10484SOL     OW32350   4.366   1.691   1.246
10484SOL    HW132351   4.323   1.646   1.167
10484SOL    HW232352   4.295   1.732   1.303
10485SOL     OW32353   3.407   4.689   6.839
10485SOL    HW132354   3.339   4.729   6.900
10485SOL    HW232355   3.414   4.591   6.857
10486SOL     OW32356   7.010   1.191   0.081
10486SOL    HW132357   7.018   1.091   0.082
10486SOL    HW232358   6.952   1.219   0.004
10487SOL     OW32359   5.189   6.608   2.135
10487SOL    HW132360   5.231   6.532   2.085
10487SOL    HW232361   5.149   6.573   2.220
10488SOL     OW32362   2.718   2.315   6.318
10488SOL    HW132363   2.809   2.276   6.305
10488SOL    HW232364   2.670   2.266   6.391
10489SOL     OW32365   0.518   0.008   5.229
10489SOL    HW132366   0.613   0.041   5.221
10489SOL    HW232367   0.476   0.045   5.312
10490SOL     OW32368   6.212   1.473   1.954
10490SOL    HW132369   6.210   1.501   2.050
10490SOL    HW232370   6.167   1.384   1.944
10491SOL     OW32371   1.342   3.246   0.120
10491SOL    HW132372   1.339   3.149   0.098
10491SOL    HW232373   1.249   3.282   0.124
10492SOL     OW32374   5.947   3.886   6.105
10492SOL    HW132375   6.031   3.872   6.053
10492SOL    HW232376   5.870   3.898   6.042
10493SOL     OW32377   3.130   1.293   1.506
10493SOL    HW132378   3.035   1.303   1.539
10493SOL    HW232379   3.136   1.326   1.412
10494SOL     OW32380   4.494   3.318   5.790
10494SOL    HW132381   4.507   3.333   5.888
10494SOL    HW232382   4.536   3.394   5.740
10495SOL     OW32383   2.113   6.726   0.441
10495SOL    HW132384   2.196   6.675   0.422
10495SOL    HW232385   2.104   6.739   0.540
10496SOL     OW32386   0.505   5.702   0.612
10496SOL    HW132387   0.589   5.656   0.582
10496SOL    HW232388   0.429   5.674   0.553
10497SOL     OW32389   2.280   0.075   2.207
10497SOL    HW132390   2.196   0.045   2.251
10497SOL    HW232391   2.358   0.059   2.269
10498SOL     OW32392   3.582   6.461   1.555
10498SOL    HW132393   3.489   6.425   1.565
10498SOL    HW232394   3.636   6.440   1.637
10499SOL     OW32395   3.371   6.498   2.492
10499SOL    HW132396   3.330   6.572   2.439
10499SOL    HW232397   3.363   6.518   2.590
10500SOL     OW32398   0.448   0.787   6.593
10500SOL    HW132399   0.431   0.692   6.566
10500SOL    HW232400   0.375   0.817   6.656
10501SOL     OW32401   1.962   5.299   3.170
10501SOL    HW132402   1.932   5.349   3.089
10501SOL    HW232403   1.915   5.210   3.174
10502SOL     OW32404   3.016   0.774   0.818
10502SOL    HW132405   3.084   0.753   0.889
10502SOL    HW232406   2.938   0.820   0.860
10503SOL     OW32407   4.099   3.138   6.953
10503SOL    HW132408   4.066   3.118   0.015
10503SOL    HW232409   4.062   3.072   6.889
10504SOL     OW32410   2.173   2.100   7.011
10504SOL    HW132411   2.144   2.034   0.050
10504SOL    HW232412   2.259   2.071   6.970
10505SOL     OW32413   5.672   5.740   0.649
10505SOL    HW132414   5.728   5.756   0.731
10505SOL    HW232415   5.582   5.782   0.662
10506SOL     OW32416   7.027   5.181   6.534
10506SOL    HW132417   6.953   5.114   6.520
10506SOL    HW232418   0.071   5.162   6.470
10507SOL     OW32419   2.601   6.786   6.808
10507SOL    HW132420   2.638   6.760   6.897
10507SOL    HW232421   2.587   6.703   6.753
10508SOL     OW32422   6.147   6.072   4.762
10508SOL    HW132423   6.080   6.007   4.796
10508SOL    HW232424   6.105   6.162   4.753
10509SOL     OW32425   1.099   6.151   5.400
10509SOL    HW132426   1.158   6.220   5.442
10509SOL    HW232427   1.072   6.083   5.469
10510SOL     OW32428   5.161   6.003   5.905
10510SOL    HW132429   5.147   6.098   5.878
10510SOL    HW232430   5.087   5.946   5.869
10511SOL     OW32431   4.675   2.233   1.471
10511SOL    HW132432   4.734   2.167   1.425
10511SOL    HW232433   4.662   2.313   1.412
10512SOL     OW32434   4.113   0.288   5.654
10512SOL    HW132435   4.125   0.387   5.644
10512SOL    HW232436   4.178   0.239   5.597
10513SOL     OW32437   6.810   2.430   4.701
10513SOL    HW132438   6.744   2.405   4.773
10513SOL    HW232439   6.772   2.505   4.647
10514SOL     OW32440   0.012   3.702   0.083
10514SOL    HW132441   0.074   3.769   0.123
10514SOL    HW232442   6.954   3.747   0.063
10515SOL     OW32443   6.675   2.836   3.033
10515SOL    HW132444   6.708   2.742   3.035
10515SOL    HW232445   6.704   2.883   3.117
10516SOL     OW32446   4.171   1.350   6.810
10516SOL    HW132447   4.117   1.270   6.836
10516SOL    HW232448   4.194   1.403   6.891
10517SOL     OW32449   0.083   2.048   2.778
10517SOL    HW132450   0.106   2.019   2.686
10517SOL    HW232451   0.033   2.135   2.774
10518SOL     OW32452   0.794   4.875   6.400
10518SOL    HW132453   0.866   4.837   6.343
10518SOL    HW232454   0.827   4.956   6.448
10519SOL     OW32455   2.181   2.364   6.637
10519SOL    HW132456   2.116   2.324   6.702
10519SOL    HW232457   2.150   2.455   6.611
10520SOL     OW32458   1.965   2.731   6.257
10520SOL    HW132459   1.944   2.685   6.343
10520SOL    HW232460   1.916   2.686   6.183
10521SOL     OW32461   5.884   5.623   1.668
10521SOL    HW132462   5.888   5.659   1.761
10521SOL    HW232463   5.977   5.606   1.635
10522SOL     OW32464   6.113   0.653   0.178
10522SOL    HW132465   6.020   0.668   0.145
10522SOL    HW232466   6.178   0.696   0.116
10523SOL     OW32467   0.707   5.467   4.635
10523SOL    HW132468   0.633   5.534   4.638
10523SOL    HW232469   0.758   5.479   4.550
10524SOL     OW32470   2.264   0.980   4.871
10524SOL    HW132471   2.182   0.926   4.892
10524SOL    HW232472   2.345   0.934   4.906
10525SOL     OW32473   3.150   0.173   5.689
10525SOL    HW132474   3.240   0.215   5.675
10525SOL    HW232475   3.141   0.095   5.626
10526SOL     OW32476   0.385   0.011   2.979
10526SOL    HW132477   0.472   7.023   3.023
10526SOL    HW232478   0.327   0.066   3.039
10527SOL     OW32479   6.443   2.497   4.741
10527SOL    HW132480   6.499   2.488   4.659
10527SOL    HW232481   6.482   2.569   4.799
10528SOL     OW32482   0.765   3.058   5.759
10528SOL    HW132483   0.704   3.043   5.681
10528SOL    HW232484   0.756   3.152   5.791
10529SOL     OW32485   2.350   6.232   3.774
10529SOL    HW132486   2.448   6.248   3.783
10529SOL    HW232487   2.307   6.312   3.731
10530SOL     OW32488   2.142   1.419   6.290
10530SOL    HW132489   2.138   1.452   6.196
10530SOL    HW232490   2.098   1.329   6.295
10531SOL     OW32491   1.105   2.477   4.287
10531SOL    HW132492   1.075   2.567   4.318
10531SOL    HW232493   1.179   2.488   4.221
10532SOL     OW32494   2.159   3.946   0.304
10532SOL    HW132495   2.230   3.930   0.236
10532SOL    HW232496   2.081   3.886   0.286
10533SOL     OW32497   3.211   1.791   4.765
10533SOL    HW132498   3.159   1.861   4.814
10533SOL    HW232499   3.305   1.822   4.753
10534SOL     OW32500   5.884   5.423   1.346
10534SOL    HW132501   5.812   5.460   1.288
10534SOL    HW232502   5.949   5.495   1.369
10535SOL     OW32503   0.810   1.562   0.984
10535SOL    HW132504   0.752   1.512   1.048
10535SOL    HW232505   0.766   1.648   0.959
10536SOL     OW32506   3.641   0.882   2.943
10536SOL    HW132507   3.696   0.894   2.860
10536SOL    HW232508   3.660   0.793   2.983
10537SOL     OW32509   3.565   5.160   4.172
10537SOL    HW132510   3.647   5.142   4.227
10537SOL    HW232511   3.581   5.241   4.115
10538SOL     OW32512   4.632   2.821   6.735
10538SOL    HW132513   4.666   2.787   6.823
10538SOL    HW232514   4.657   2.917   6.724
10539SOL     OW32515   0.672   4.422   6.710
10539SOL    HW132516   0.619   4.338   6.702
10539SOL    HW232517   0.735   4.430   6.633
10540SOL     OW32518   1.309   2.049   5.253
10540SOL    HW132519   1.351   2.098   5.176
10540SOL    HW232520   1.232   1.994   5.219
10541SOL     OW32521   3.770   3.633   1.946
10541SOL    HW132522   3.744   3.539   1.927
10541SOL    HW232523   3.692   3.693   1.929
10542SOL     OW32524   6.567   1.908   6.716
10542SOL    HW132525   6.608   1.998   6.700
10542SOL    HW232526   6.502   1.887   6.642
10543SOL     OW32527   6.668   1.310   4.982
10543SOL    HW132528   6.621   1.392   5.015
10543SOL    HW232529   6.738   1.283   5.048
10544SOL     OW32530   1.335   7.029   2.664
10544SOL    HW132531   1.244   0.020   2.699
10544SOL    HW232532   1.396   7.004   2.739
10545SOL     OW32533   5.630   1.246   2.671
10545SOL    HW132534   5.568   1.324   2.661
10545SOL    HW232535   5.588   1.176   2.729
10546SOL     OW32536   0.601   1.000   6.090
10546SOL    HW132537   0.521   0.960   6.135
10546SOL    HW232538   0.573   1.049   6.008
10547SOL     OW32539   4.592   2.377   1.863
10547SOL    HW132540   4.503   2.337   1.844
10547SOL    HW232541   4.614   2.444   1.792
10548SOL     OW32542   5.239   4.074   5.020
10548SOL    HW132543   5.150   4.114   5.041
10548SOL    HW232544   5.303   4.093   5.095
10549SOL     OW32545   6.368   0.209   2.472
10549SOL    HW132546   6.420   0.134   2.432
10549SOL    HW232547   6.331   0.267   2.399
10550SOL     OW32548   4.482   6.468   5.228
10550SOL    HW132549   4.483   6.563   5.197
10550SOL    HW232550   4.455   6.409   5.152
10551SOL     OW32551   1.556   2.678   5.467
10551SOL    HW132552   1.529   2.664   5.562
10551SOL    HW232553   1.632   2.743   5.463
10552SOL     OW32554   3.775   2.320   5.969
10552SOL    HW132555   3.779   2.351   5.874
10552SOL    HW232556   3.799   2.223   5.973
10553SOL     OW32557   1.260   5.119   1.674
10553SOL    HW132558   1.174   5.083   1.711
10553SOL    HW232559   1.301   5.050   1.614
10554SOL     OW32560   5.135   5.246   6.886
10554SOL    HW132561   5.072   5.230   6.962
10554SOL    HW232562   5.156   5.160   6.840
10555SOL     OW32563   2.603   3.355   1.111
10555SOL    HW132564   2.553   3.319   1.190
10555SOL    HW232565   2.679   3.294   1.089
10556SOL     OW32566   2.053   2.218   4.996
10556SOL    HW132567   2.118   2.171   4.936
10556SOL    HW232568   1.993   2.276   4.942
10557SOL     OW32569   1.837   1.999   3.160
10557SOL    HW132570   1.776   2.076   3.141
10557SOL    HW232571   1.887   2.017   3.244
10558SOL     OW32572   4.192   0.667   4.379
10558SOL    HW132573   4.269   0.604   4.388
10558SOL    HW232574   4.115   0.633   4.433
10559SOL     OW32575   4.419   0.824   1.179
10559SOL    HW132576   4.472   0.832   1.094
10559SOL    HW232577   4.326   0.858   1.163
10560SOL     OW32578   2.863   6.840   3.828
10560SOL    HW132579   2.885   6.774   3.756
10560SOL    HW232580   2.948   6.880   3.862
10561SOL     OW32581   2.524   4.697   0.917
10561SOL    HW132582   2.601   4.736   0.867
10561SOL    HW232583   2.441   4.749   0.897
10562SOL     OW32584   5.394   5.868   0.652
10562SOL    HW132585   5.302   5.885   0.688
10562SOL    HW232586   5.394   5.880   0.553
10563SOL     OW32587   1.137   0.548   4.068
10563SOL    HW132588   1.144   0.611   3.990
10563SOL    HW232589   1.163   0.597   4.152
10564SOL     OW32590   5.948   6.737   2.399
10564SOL    HW132591   5.908   6.658   2.352
10564SOL    HW232592   5.905   6.821   2.366
10565SOL     OW32593   0.094   0.822   5.480
10565SOL    HW132594   0.120   0.894   5.415
10565SOL    HW232595   0.098   0.733   5.435
10566SOL     OW32596   4.203   2.845   6.932
10566SOL    HW132597   4.127   2.815   6.873
10566SOL    HW232598   4.170   2.913   6.997
10567SOL     OW32599   2.520   2.245   4.355
10567SOL    HW132600   2.547   2.157   4.317
10567SOL    HW232601   2.594   2.311   4.343
10568SOL     OW32602   5.727   1.834   1.459
10568SOL    HW132603   5.690   1.867   1.372
10568SOL    HW232604   5.759   1.911   1.513
10569SOL     OW32605   6.292   2.507   1.571
10569SOL    HW132606   6.289   2.606   1.587
10569SOL    HW232607   6.226   2.482   1.501
10570SOL     OW32608   1.540   4.837   3.129
10570SOL    HW132609   1.613   4.774   3.099
10570SOL    HW232610   1.565   4.930   3.102
10571SOL     OW32611   0.090   4.576   4.508
10571SOL    HW132612   0.170   4.551   4.562
10571SOL    HW232613   0.043   4.493   4.478
10572SOL     OW32614   6.780   4.068   3.882
10572SOL    HW132615   6.753   3.985   3.833
10572SOL    HW232616   6.846   4.119   3.826
10573SOL     OW32617   4.590   6.378   4.854
10573SOL    HW132618   4.548   6.449   4.798
10573SOL    HW232619   4.576   6.289   4.811
10574SOL     OW32620   1.425   1.454   4.145
10574SOL    HW132621   1.395   1.492   4.232
10574SOL    HW232622   1.370   1.373   4.123
10575SOL     OW32623   0.105   1.094   3.272
10575SOL    HW132624   0.139   1.175   3.320
10575SOL    HW232625   0.094   1.115   3.175
10576SOL     OW32626   0.269   6.462   5.406
10576SOL    HW132627   0.218   6.483   5.324
10576SOL    HW232628   0.361   6.432   5.381
10577SOL     OW32629   1.646   2.296   6.833
10577SOL    HW132630   1.710   2.241   6.886
10577SOL    HW232631   1.580   2.237   6.788
10578SOL     OW32632   6.525   0.504   3.331
10578SOL    HW132633   6.522   0.567   3.409
10578SOL    HW232634   6.516   0.410   3.365
10579SOL     OW32635   3.701   1.475   0.558
10579SOL    HW132636   3.672   1.381   0.539
10579SOL    HW232637   3.728   1.483   0.654
10580SOL     OW32638   0.041   0.466   0.194
10580SOL    HW132639   6.973   0.445   0.196
10580SOL    HW232640   0.060   0.530   0.120
10581SOL     OW32641   6.232   6.575   2.803
10581SOL    HW132642   6.154   6.554   2.861
10581SOL    HW232643   6.203   6.630   2.724
10582SOL     OW32644   4.192   4.762   0.107
10582SOL    HW132645   4.219   4.853   0.139
10582SOL    HW232646   4.122   4.771   0.036
10583SOL     OW32647   3.793   1.055   5.483
10583SOL    HW132648   3.697   1.031   5.466
10583SOL    HW232649   3.815   1.139   5.434
10584SOL     OW32650   6.220   6.578   1.390
10584SOL    HW132651   6.189   6.547   1.479
10584SOL    HW232652   6.292   6.647   1.401
10585SOL     OW32653   1.639   3.208   5.237
10585SOL    HW132654   1.692   3.124   5.240
10585SOL    HW232655   1.581   3.215   5.318
10586SOL     OW32656   1.246   5.953   4.964
10586SOL    HW132657   1.227   5.940   5.061
10586SOL    HW232658   1.261   5.864   4.920
10587SOL     OW32659   6.085   4.659   0.184
10587SOL    HW132660   6.088   4.759   0.178
10587SOL    HW232661   6.025   4.624   0.112
10588SOL     OW32662   0.404   3.978   2.321
10588SOL    HW132663   0.306   3.983   2.342
10588SOL    HW232664   0.427   4.047   2.253
10589SOL     OW32665   5.803   1.682   4.515
10589SOL    HW132666   5.706   1.667   4.536
10589SOL    HW232667   5.819   1.779   4.497
10590SOL     OW32668   0.905   0.312   1.690
10590SOL    HW132669   0.925   0.220   1.656
10590SOL    HW232670   0.809   0.319   1.714
10591SOL     OW32671   1.273   1.368   6.273
10591SOL    HW132672   1.183   1.411   6.281
10591SOL    HW232673   1.331   1.398   6.349
10592SOL     OW32674   6.466   2.609   0.444
10592SOL    HW132675   6.416   2.587   0.528
10592SOL    HW232676   6.507   2.700   0.452
10593SOL     OW32677   2.791   5.342   0.619
10593SOL    HW132678   2.749   5.342   0.529
10593SOL    HW232679   2.720   5.334   0.689
10594SOL     OW32680   5.375   0.559   2.641
10594SOL    HW132681   5.399   0.619   2.565
10594SOL    HW232682   5.352   0.468   2.605
10595SOL     OW32683   3.282   0.175   5.985
10595SOL    HW132684   3.382   0.183   5.989
10595SOL    HW232685   3.249   0.214   5.899
10596SOL     OW32686   5.004   0.241   0.696
10596SOL    HW132687   5.006   0.327   0.645
10596SOL    HW232688   4.945   0.176   0.648
10597SOL     OW32689   2.974   0.902   5.069
10597SOL    HW132690   3.010   0.837   5.002
10597SOL    HW232691   2.889   0.943   5.034
10598SOL     OW32692   2.862   2.779   6.811
10598SOL    HW132693   2.805   2.858   6.834
10598SOL    HW232694   2.870   2.772   6.711
10599SOL     OW32695   5.088   2.305   6.813
10599SOL    HW132696   5.007   2.354   6.843
10599SOL    HW232697   5.126   2.350   6.732
10600SOL     OW32698   1.599   3.029   0.310
10600SOL    HW132699   1.640   3.075   0.388
10600SOL    HW232700   1.641   3.063   0.225
10601SOL     OW32701   1.596   4.772   6.485
10601SOL    HW132702   1.600   4.851   6.545
10601SOL    HW232703   1.648   4.697   6.525
10602SOL     OW32704   5.183   1.531   3.087
10602SOL    HW132705   5.158   1.521   3.184
10602SOL    HW232706   5.158   1.622   3.055
10603SOL     OW32707   2.395   5.678   3.743
10603SOL    HW132708   2.389   5.777   3.761
10603SOL    HW232709   2.489   5.654   3.720
10604SOL     OW32710   5.926   3.929   5.369
10604SOL    HW132711   6.021   3.932   5.337
10604SOL    HW232712   5.876   4.006   5.331
10605SOL     OW32713   1.954   4.963   1.199
10605SOL    HW132714   1.966   4.971   1.100
10605SOL    HW232715   1.878   4.900   1.218
10606SOL     OW32716   6.457   6.990   2.789
10606SOL    HW132717   6.492   0.047   2.755
10606SOL    HW232718   6.520   6.951   2.856
10607SOL     OW32719   4.124   3.921   5.985
10607SOL    HW132720   4.060   3.962   6.049
10607SOL    HW232721   4.074   3.863   5.921
10608SOL     OW32722   5.466   1.839   5.582
10608SOL    HW132723   5.550   1.838   5.527
10608SOL    HW232724   5.490   1.822   5.678
10609SOL     OW32725   3.658   6.900   1.617
10609SOL    HW132726   3.669   6.866   1.711
10609SOL    HW232727   3.585   6.848   1.572
10610SOL     OW32728   0.308   3.455   6.365
10610SOL    HW132729   0.401   3.426   6.390
10610SOL    HW232730   0.242   3.408   6.424
10611SOL     OW32731   4.354   3.807   5.688
10611SOL    HW132732   4.419   3.875   5.652
10611SOL    HW232733   4.376   3.787   5.783
10612SOL     OW32734   2.757   6.863   5.915
10612SOL    HW132735   2.767   6.818   6.004
10612SOL    HW232736   2.812   6.815   5.847
10613SOL     OW32737   6.933   0.523   5.119
10613SOL    HW132738   7.010   0.503   5.059
10613SOL    HW232739   6.860   0.567   5.066
10614SOL     OW32740   6.329   2.341   4.485
10614SOL    HW132741   6.313   2.348   4.583
10614SOL    HW232742   6.427   2.350   4.466
10615SOL     OW32743   3.312   5.980   6.021
10615SOL    HW132744   3.215   5.988   6.043
10615SOL    HW232745   3.357   5.920   6.087
10616SOL     OW32746   2.721   6.457   0.817
10616SOL    HW132747   2.643   6.396   0.829
10616SOL    HW232748   2.790   6.437   0.886
10617SOL     OW32749   2.338   3.027   0.846
10617SOL    HW132750   2.290   3.060   0.927
10617SOL    HW232751   2.282   3.046   0.765
10618SOL     OW32752   5.968   3.636   6.940
10618SOL    HW132753   6.003   3.551   6.979
10618SOL    HW232754   6.009   3.714   6.987
10619SOL     OW32755   0.462   3.973   1.586
10619SOL    HW132756   0.532   4.009   1.648
10619SOL    HW232757   0.422   3.890   1.625
10620SOL     OW32758   1.235   5.550   5.705
10620SOL    HW132759   1.314   5.542   5.644
10620SOL    HW232760   1.152   5.520   5.656
10621SOL     OW32761   1.370   6.469   1.001
10621SOL    HW132762   1.368   6.504   1.094
10621SOL    HW232763   1.414   6.536   0.941
10622SOL     OW32764   5.314   1.269   1.067
10622SOL    HW132765   5.349   1.336   1.133
10622SOL    HW232766   5.239   1.218   1.109
10623SOL     OW32767   6.707   4.562   4.083
10623SOL    HW132768   6.726   4.660   4.077
10623SOL    HW232769   6.730   4.518   3.996
10624SOL     OW32770   0.938   1.500   4.786
10624SOL    HW132771   0.964   1.448   4.867
10624SOL    HW232772   0.840   1.520   4.789
10625SOL     OW32773   0.748   5.002   0.107
10625SOL    HW132774   0.652   4.976   0.096
10625SOL    HW232775   0.805   4.937   0.055
10626SOL     OW32776   0.714   2.878   1.300
10626SOL    HW132777   0.777   2.811   1.259
10626SOL    HW232778   0.665   2.926   1.228
10627SOL     OW32779   5.209   5.868   1.863
10627SOL    HW132780   5.153   5.951   1.866
10627SOL    HW232781   5.188   5.811   1.942
10628SOL     OW32782   5.450   5.188   5.915
10628SOL    HW132783   5.398   5.171   5.998
10628SOL    HW232784   5.397   5.246   5.853
10629SOL     OW32785   2.537   4.621   4.924
10629SOL    HW132786   2.630   4.618   4.959
10629SOL    HW232787   2.472   4.619   5.000
10630SOL     OW32788   6.471   0.973   3.559
10630SOL    HW132789   6.564   1.005   3.538
10630SOL    HW232790   6.471   0.927   3.648
10631SOL     OW32791   1.761   5.053   4.955
10631SOL    HW132792   1.666   5.042   4.925
10631SOL    HW232793   1.783   4.980   5.020
10632SOL     OW32794   5.651   1.878   4.139
10632SOL    HW132795   5.627   1.958   4.085
10632SOL    HW232796   5.612   1.886   4.231
10633SOL     OW32797   2.502   4.075   1.405
10633SOL    HW132798   2.561   4.036   1.475
10633SOL    HW232799   2.438   4.006   1.373
10634SOL     OW32800   3.009   5.400   1.162
10634SOL    HW132801   3.090   5.458   1.174
10634SOL    HW232802   3.005   5.333   1.236
10635SOL     OW32803   3.598   1.549   1.186
10635SOL    HW132804   3.689   1.515   1.164
10635SOL    HW232805   3.530   1.481   1.160
10636SOL     OW32806   1.309   2.263   1.569
10636SOL    HW132807   1.349   2.261   1.477
10636SOL    HW232808   1.344   2.342   1.619
10637SOL     OW32809   3.155   4.863   5.254
10637SOL    HW132810   3.192   4.917   5.329
10637SOL    HW232811   3.190   4.769   5.260
10638SOL     OW32812   7.002   5.465   2.903
10638SOL    HW132813   0.022   5.541   2.861
10638SOL    HW232814   7.023   5.462   3.001
10639SOL     OW32815   0.213   2.414   3.313
10639SOL    HW132816   0.287   2.440   3.375
10639SOL    HW232817   0.132   2.469   3.332
10640SOL     OW32818   4.175   0.358   6.391
10640SOL    HW132819   4.203   0.343   6.486
10640SOL    HW232820   4.253   0.395   6.339
10641SOL     OW32821   3.167   1.912   0.047
10641SOL    HW132822   3.137   1.907   6.982
10641SOL    HW232823   3.249   1.969   0.054
10642SOL     OW32824   0.133   2.286   1.912
10642SOL    HW132825   0.193   2.356   1.951
10642SOL    HW232826   0.178   2.244   1.833
10643SOL     OW32827   1.798   4.863   5.405
10643SOL    HW132828   1.810   4.958   5.377
10643SOL    HW232829   1.759   4.860   5.497
10644SOL     OW32830   5.533   1.818   3.135
10644SOL    HW132831   5.604   1.888   3.139
10644SOL    HW232832   5.472   1.829   3.214
10645SOL     OW32833   0.742   1.185   4.669
10645SOL    HW132834   0.666   1.130   4.635
10645SOL    HW232835   0.828   1.141   4.645
10646SOL     OW32836   0.343   1.628   5.371
10646SOL    HW132837   0.395   1.571   5.308
10646SOL    HW232838   0.260   1.581   5.399
10647SOL     OW32839   4.662   5.990   6.661
10647SOL    HW132840   4.731   5.928   6.697
10647SOL    HW232841   4.592   5.937   6.612
10648SOL     OW32842   4.393   3.666   6.494
10648SOL    HW132843   4.310   3.717   6.516
10648SOL    HW232844   4.463   3.729   6.462
10649SOL     OW32845   0.426   4.533   3.168
10649SOL    HW132846   0.513   4.559   3.128
10649SOL    HW232847   0.435   4.447   3.217
10650SOL     OW32848   1.186   6.095   2.804
10650SOL    HW132849   1.207   5.998   2.820
10650SOL    HW232850   1.220   6.122   2.714
10651SOL     OW32851   5.369   0.031   5.732
10651SOL    HW132852   5.362   6.969   5.772
10651SOL    HW232853   5.322   0.096   5.791
10652SOL     OW32854   3.320   7.029   6.769
10652SOL    HW132855   3.259   6.959   6.804
10652SOL    HW232856   3.323   0.076   6.833
10653SOL     OW32857   5.300   4.733   4.384
10653SOL    HW132858   5.396   4.754   4.368
10653SOL    HW232859   5.243   4.793   4.328
10654SOL     OW32860   4.575   1.322   0.852
10654SOL    HW132861   4.652   1.357   0.798
10654SOL    HW232862   4.494   1.315   0.794
10655SOL     OW32863   3.070   5.382   1.670
10655SOL    HW132864   3.065   5.440   1.751
10655SOL    HW232865   3.145   5.317   1.680
10656SOL     OW32866   6.089   2.191   0.652
10656SOL    HW132867   6.026   2.154   0.720
10656SOL    HW232868   6.037   2.225   0.573
10657SOL     OW32869   6.187   6.569   0.339
10657SOL    HW132870   6.087   6.571   0.348
10657SOL    HW232871   6.226   6.648   0.386
10658SOL     OW32872   6.795   3.941   4.799
10658SOL    HW132873   6.778   4.014   4.733
10658SOL    HW232874   6.749   3.857   4.769
10659SOL     OW32875   6.726   6.369   0.911
10659SOL    HW132876   6.740   6.403   1.004
10659SOL    HW232877   6.635   6.329   0.904
10660SOL     OW32878   5.212   4.756   6.349
10660SOL    HW132879   5.263   4.730   6.268
10660SOL    HW232880   5.133   4.695   6.360
10661SOL     OW32881   0.273   6.648   2.309
10661SOL    HW132882   0.298   6.651   2.212
10661SOL    HW232883   0.206   6.575   2.325
10662SOL     OW32884   5.775   0.725   1.896
10662SOL    HW132885   5.767   0.818   1.931
10662SOL    HW232886   5.866   0.689   1.916
10663SOL     OW32887   0.396   6.536   1.231
10663SOL    HW132888   0.374   6.626   1.193
10663SOL    HW232889   0.361   6.530   1.325
10664SOL     OW32890   1.667   4.351   5.790
10664SOL    HW132891   1.582   4.310   5.823
10664SOL    HW232892   1.647   4.435   5.739
10665SOL     OW32893   1.105   0.456   0.241
10665SOL    HW132894   1.185   0.507   0.273
10665SOL    HW232895   1.118   0.358   0.260
10666SOL     OW32896   3.821   4.493   0.212
10666SOL    HW132897   3.921   4.501   0.217
10666SOL    HW232898   3.789   4.541   0.130
10667SOL     OW32899   3.498   2.363   5.651
10667SOL    HW132900   3.413   2.310   5.652
10667SOL    HW232901   3.513   2.401   5.560
10668SOL     OW32902   1.282   1.478   5.118
10668SOL    HW132903   1.303   1.447   5.211
10668SOL    HW232904   1.340   1.556   5.095
10669SOL     OW32905   6.580   6.472   0.443
10669SOL    HW132906   6.579   6.552   0.503
10669SOL    HW232907   6.665   6.421   0.455
10670SOL     OW32908   5.180   4.439   5.684
10670SOL    HW132909   5.085   4.408   5.691
10670SOL    HW232910   5.183   4.526   5.635
10671SOL     OW32911   2.225   2.949   2.596
10671SOL    HW132912   2.224   2.964   2.695
10671SOL    HW232913   2.291   2.877   2.574
10672SOL     OW32914   6.719   2.714   0.571
10672SOL    HW132915   6.673   2.784   0.626
10672SOL    HW232916   6.711   2.625   0.616
10673SOL     OW32917   2.002   2.347   5.776
10673SOL    HW132918   2.092   2.331   5.736
10673SOL    HW232919   1.946   2.265   5.766
10674SOL     OW32920   4.042   3.564   0.715
10674SOL    HW132921   4.023   3.490   0.651
10674SOL    HW232922   3.956   3.599   0.752
10675SOL     OW32923   2.057   1.123   6.255
10675SOL    HW132924   2.046   1.084   6.164
10675SOL    HW232925   2.126   1.072   6.306
10676SOL     OW32926   6.228   6.924   6.125
10676SOL    HW132927   6.150   6.977   6.094
10676SOL    HW232928   6.312   6.958   6.082
10677SOL     OW32929   0.815   0.871   2.321
10677SOL    HW132930   0.881   0.940   2.291
10677SOL    HW232931   0.723   0.899   2.295
10678SOL     OW32932   3.415   5.197   3.169
10678SOL    HW132933   3.499   5.145   3.180
10678SOL    HW232934   3.437   5.291   3.143
10679SOL     OW32935   5.094   4.763   5.925
10679SOL    HW132936   5.055   4.851   5.951
10679SOL    HW232937   5.046   4.727   5.845
10680SOL     OW32938   2.230   2.293   4.226
10680SOL    HW132939   2.253   2.223   4.293
10680SOL    HW232940   2.150   2.344   4.257
10681SOL     OW32941   6.982   3.923   6.687
10681SOL    HW132942   0.004   3.875   6.616
10681SOL    HW232943   7.007   3.888   6.777
10682SOL     OW32944   1.708   1.777   3.295
10682SOL    HW132945   1.760   1.862   3.297
10682SOL    HW232946   1.629   1.789   3.235
10683SOL     OW32947   3.010   2.223   3.905
10683SOL    HW132948   3.108   2.214   3.889
10683SOL    HW232949   2.974   2.138   3.943
10684SOL     OW32950   4.234   4.119   0.122
10684SOL    HW132951   4.275   4.150   0.208
10684SOL    HW232952   4.135   4.134   0.126
10685SOL     OW32953   6.863   3.979   2.427
10685SOL    HW132954   6.832   3.999   2.335
10685SOL    HW232955   6.799   3.916   2.472
10686SOL     OW32956   4.140   6.002   6.262
10686SOL    HW132957   4.065   6.045   6.211
10686SOL    HW232958   4.151   6.049   6.350
10687SOL     OW32959   6.952   5.290   2.128
10687SOL    HW132960   7.026   5.278   2.062
10687SOL    HW232961   6.990   5.305   2.219
10688SOL     OW32962   5.872   4.079   2.443
10688SOL    HW132963   5.848   3.983   2.458
10688SOL    HW232964   5.967   4.085   2.410
10689SOL     OW32965   0.175   0.174   3.068
10689SOL    HW132966   0.155   0.137   2.977
10689SOL    HW232967   0.123   0.257   3.083
10690SOL     OW32968   5.875   5.284   3.427
10690SOL    HW132969   5.913   5.295   3.335
10690SOL    HW232970   5.798   5.222   3.423
10691SOL     OW32971   0.005   2.112   2.068
10691SOL    HW132972   0.045   2.186   2.015
10691SOL    HW232973   0.047   2.109   2.159
10692SOL     OW32974   3.151   5.230   3.626
10692SOL    HW132975   3.233   5.248   3.680
10692SOL    HW232976   3.169   5.249   3.529
10693SOL     OW32977   2.105   0.751   1.506
10693SOL    HW132978   2.035   0.707   1.449
10693SOL    HW232979   2.143   0.683   1.569
10694SOL     OW32980   3.767   6.375   0.965
10694SOL    HW132981   3.782   6.439   0.889
10694SOL    HW232982   3.693   6.409   1.023
10695SOL     OW32983   6.325   2.052   4.165
10695SOL    HW132984   6.358   2.147   4.172
10695SOL    HW232985   6.307   2.030   4.070
10696SOL     OW32986   6.809   4.762   1.722
10696SOL    HW132987   6.855   4.704   1.654
10696SOL    HW232988   6.829   4.858   1.703
10697SOL     OW32989   0.409   6.473   3.945
10697SOL    HW132990   0.486   6.433   3.895
10697SOL    HW232991   0.326   6.467   3.889
10698SOL     OW32992   3.424   6.623   4.097
10698SOL    HW132993   3.339   6.585   4.060
10698SOL    HW232994   3.500   6.600   4.037
10699SOL     OW32995   4.847   1.781   2.888
10699SOL    HW132996   4.870   1.842   2.812
10699SOL    HW232997   4.803   1.699   2.853
10700SOL     OW32998   1.278   0.189   0.379
10700SOL    HW132999   1.313   0.248   0.306
10700SOL    HW233000   1.354   0.150   0.430
10701SOL     OW33001   4.505   6.243   0.066
10701SOL    HW133002   4.482   6.240   0.164
10701SOL    HW233003   4.467   6.326   0.025
10702SOL     OW33004   5.190   2.135   1.722
10702SOL    HW133005   5.118   2.186   1.676
10702SOL    HW233006   5.149   2.060   1.775
10703SOL     OW33007   3.725   3.301   3.932
10703SOL    HW133008   3.810   3.259   3.963
10703SOL    HW233009   3.647   3.247   3.963
10704SOL     OW33010   4.855   6.470   2.152
10704SOL    HW133011   4.907   6.446   2.070
10704SOL    HW233012   4.908   6.535   2.207
10705SOL     OW33013   1.228   3.787   0.304
10705SOL    HW133014   1.156   3.772   0.236
10705SOL    HW233015   1.237   3.706   0.361
10706SOL     OW33016   4.665   0.491   1.671
10706SOL    HW133017   4.633   0.543   1.592
10706SOL    HW233018   4.592   0.431   1.703
10707SOL     OW33019   0.263   6.855   5.470
10707SOL    HW133020   0.169   6.879   5.445
10707SOL    HW233021   0.325   6.892   5.401
10708SOL     OW33022   5.040   1.052   1.450
10708SOL    HW133023   5.038   1.101   1.537
10708SOL    HW233024   4.952   1.005   1.436
10709SOL     OW33025   6.281   0.595   5.620
10709SOL    HW133026   6.294   0.585   5.719
10709SOL    HW233027   6.184   0.581   5.598
10710SOL     OW33028   0.436   6.392   4.893
10710SOL    HW133029   0.351   6.405   4.944
10710SOL    HW233030   0.472   6.300   4.912
10711SOL     OW33031   2.241   0.144   3.937
10711SOL    HW133032   2.164   0.189   3.983
10711SOL    HW233033   2.326   0.189   3.962
10712SOL     OW33034   3.886   1.149   4.099
10712SOL    HW133035   3.963   1.208   4.075
10712SOL    HW233036   3.918   1.054   4.105
10713SOL     OW33037   1.812   5.386   1.808
10713SOL    HW133038   1.877   5.446   1.853
10713SOL    HW233039   1.859   5.304   1.774
10714SOL     OW33040   0.169   4.059   4.866
10714SOL    HW133041   0.231   4.077   4.789
10714SOL    HW233042   0.150   3.961   4.871
10715SOL     OW33043   5.644   0.425   3.358
10715SOL    HW133044   5.719   0.457   3.300
10715SOL    HW233045   5.681   0.381   3.439
10716SOL     OW33046   6.614   1.479   3.310
10716SOL    HW133047   6.537   1.455   3.368
10716SOL    HW233048   6.583   1.538   3.235
10717SOL     OW33049   0.640   1.423   1.176
10717SOL    HW133050   0.556   1.370   1.168
10717SOL    HW233051   0.706   1.373   1.233
10718SOL     OW33052   6.729   5.249   0.469
10718SOL    HW133053   6.687   5.168   0.512
10718SOL    HW233054   6.820   5.225   0.437
10719SOL     OW33055   4.997   6.826   2.079
10719SOL    HW133056   4.919   6.807   2.138
10719SOL    HW233057   5.081   6.797   2.123
10720SOL     OW33058   6.934   3.127   5.878
10720SOL    HW133059   7.026   3.096   5.857
10720SOL    HW233060   6.913   3.210   5.826
10721SOL     OW33061   5.713   2.144   4.210
10721SOL    HW133062   5.800   2.160   4.164
10721SOL    HW233063   5.644   2.205   4.172
10722SOL     OW33064   0.001   3.517   6.915
10722SOL    HW133065   0.053   3.531   6.832
10722SOL    HW233066   0.010   3.597   6.975
10723SOL     OW33067   5.548   3.863   6.832
10723SOL    HW133068   5.455   3.865   6.868
10723SOL    HW233069   5.595   3.781   6.865
10724SOL     OW33070   4.433   6.875   6.293
10724SOL    HW133071   4.487   6.929   6.229
10724SOL    HW233072   4.411   6.929   6.373
10725SOL     OW33073   7.013   5.328   4.280
10725SOL    HW133074   6.994   5.268   4.202
10725SOL    HW233075   6.938   5.323   4.345
10726SOL     OW33076   5.720   0.391   5.102
10726SOL    HW133077   5.661   0.469   5.080
10726SOL    HW233078   5.716   0.373   5.200
10727SOL     OW33079   1.396   4.579   5.189
10727SOL    HW133080   1.347   4.528   5.119
10727SOL    HW233081   1.430   4.664   5.150
10728SOL     OW33082   5.477   6.778   3.063
10728SOL    HW133083   5.519   6.784   2.972
10728SOL    HW233084   5.385   6.739   3.054
10729SOL     OW33085   6.399   1.896   2.529
10729SOL    HW133086   6.386   1.995   2.533
10729SOL    HW233087   6.343   1.852   2.600
10730SOL     OW33088   2.297   5.761   2.125
10730SOL    HW133089   2.368   5.805   2.180
10730SOL    HW233090   2.260   5.827   2.059
10731SOL     OW33091   2.987   5.666   0.493
10731SOL    HW133092   2.897   5.700   0.519
10731SOL    HW233093   3.044   5.659   0.575
10732SOL     OW33094   6.427   6.694   3.073
10732SOL    HW133095   6.473   6.623   3.020
10732SOL    HW233096   6.338   6.661   3.103
10733SOL     OW33097   6.043   1.931   6.995
10733SOL    HW133098   6.021   2.015   6.946
10733SOL    HW233099   6.002   1.853   6.948
10734SOL     OW33100   0.646   0.127   6.040
10734SOL    HW133101   0.560   0.078   6.057
10734SOL    HW233102   0.659   0.198   6.110
10735SOL     OW33103   1.002   5.227   2.388
10735SOL    HW133104   0.981   5.325   2.390
10735SOL    HW233105   1.011   5.193   2.482
10736SOL     OW33106   0.476   0.634   3.589
10736SOL    HW133107   0.442   0.545   3.561
10736SOL    HW233108   0.528   0.675   3.514
10737SOL     OW33109   0.586   2.206   1.104
10737SOL    HW133110   0.572   2.262   1.023
10737SOL    HW233111   0.682   2.176   1.108
10738SOL     OW33112   2.378   0.709   2.961
10738SOL    HW133113   2.287   0.681   2.931
10738SOL    HW233114   2.427   0.631   2.998
10739SOL     OW33115   5.924   2.013   2.009
10739SOL    HW133116   5.939   1.991   2.106
10739SOL    HW233117   5.992   1.965   1.954
10740SOL     OW33118   1.459   6.563   5.602
10740SOL    HW133119   1.385   6.497   5.589
10740SOL    HW233120   1.536   6.539   5.544
10741SOL     OW33121   1.988   2.120   3.874
10741SOL    HW133122   2.061   2.078   3.928
10741SOL    HW233123   2.013   2.117   3.777
10742SOL     OW33124   5.994   6.069   2.066
10742SOL    HW133125   5.908   6.038   2.027
10742SOL    HW233126   6.025   6.003   2.135
10743SOL     OW33127   3.653   1.648   5.060
10743SOL    HW133128   3.672   1.744   5.079
10743SOL    HW233129   3.738   1.596   5.059
10744SOL     OW33130   2.939   0.988   2.234
10744SOL    HW133131   2.943   1.004   2.332
10744SOL    HW233132   3.007   1.045   2.188
10745SOL     OW33133   2.327   4.539   0.700
10745SOL    HW133134   2.308   4.634   0.676
10745SOL    HW233135   2.324   4.528   0.799
10746SOL     OW33136   2.218   5.776   1.332
10746SOL    HW133137   2.212   5.688   1.286
10746SOL    HW233138   2.230   5.762   1.430
10747SOL     OW33139   5.378   2.055   3.570
10747SOL    HW133140   5.294   2.102   3.597
10747SOL    HW233141   5.453   2.122   3.566
10748SOL     OW33142   4.977   5.647   1.270
10748SOL    HW133143   4.978   5.735   1.318
10748SOL    HW233144   5.070   5.621   1.246
10749SOL     OW33145   6.029   4.742   3.161
10749SOL    HW133146   6.129   4.740   3.163
10749SOL    HW233147   5.995   4.652   3.132
10750SOL     OW33148   4.859   4.240   4.651
10750SOL    HW133149   4.787   4.284   4.598
10750SOL    HW233150   4.835   4.241   4.748
10751SOL     OW33151   1.114   2.850   4.998
10751SOL    HW133152   1.208   2.882   5.000
10751SOL    HW233153   1.052   2.928   5.009
10752SOL     OW33154   5.964   4.847   6.978
10752SOL    HW133155   5.896   4.846   0.022
10752SOL    HW233156   5.983   4.941   6.951
10753SOL     OW33157   4.590   0.270   4.137
10753SOL    HW133158   4.646   0.281   4.055
10753SOL    HW233159   4.571   0.360   4.177
10754SOL     OW33160   0.499   2.698   1.733
10754SOL    HW133161   0.486   2.600   1.720
10754SOL    HW233162   0.559   2.714   1.811
10755SOL     OW33163   0.017   1.709   0.987
10755SOL    HW133164   6.971   1.773   0.980
10755SOL    HW233165   7.013   1.619   1.013
10756SOL     OW33166   6.542   2.343   6.973
10756SOL    HW133167   6.514   2.248   6.958
10756SOL    HW233168   6.550   2.361   0.041
10757SOL     OW33169   0.192   4.225   0.501
10757SOL    HW133170   0.195   4.184   0.593
10757SOL    HW233171   0.103   4.204   0.459
10758SOL     OW33172   0.586   5.625   5.882
10758SOL    HW133173   0.581   5.724   5.872
10758SOL    HW233174   0.504   5.583   5.844
10759SOL     OW33175   1.451   3.046   5.823
10759SOL    HW133176   1.406   2.968   5.866
10759SOL    HW233177   1.550   3.029   5.819
10760SOL     OW33178   1.308   5.679   1.030
10760SOL    HW133179   1.363   5.721   1.102
10760SOL    HW233180   1.214   5.713   1.036
10761SOL     OW33181   0.826   2.582   6.071
10761SOL    HW133182   0.876   2.598   5.986
10761SOL    HW233183   0.850   2.652   6.138
10762SOL     OW33184   4.314   0.855   6.123
10762SOL    HW133185   4.258   0.803   6.188
10762SOL    HW233186   4.384   0.906   6.172
10763SOL     OW33187   5.198   0.511   2.233
10763SOL    HW133188   5.258   0.508   2.153
10763SOL    HW233189   5.196   0.604   2.270
10764SOL     OW33190   4.939   1.221   5.711
10764SOL    HW133191   5.035   1.237   5.734
10764SOL    HW233192   4.886   1.304   5.731
10765SOL     OW33193   5.320   1.168   2.358
10765SOL    HW133194   5.403   1.126   2.394
10765SOL    HW233195   5.244   1.102   2.364
10766SOL     OW33196   1.696   4.601   0.479
10766SOL    HW133197   1.703   4.588   0.380
10766SOL    HW233198   1.760   4.539   0.525
10767SOL     OW33199   1.955   6.064   0.867
10767SOL    HW133200   1.932   6.160   0.848
10767SOL    HW233201   1.896   6.004   0.812
10768SOL     OW33202   4.857   5.374   0.453
10768SOL    HW133203   4.952   5.362   0.423
10768SOL    HW233204   4.855   5.426   0.539
10769SOL     OW33205   2.851   4.436   5.414
10769SOL    HW133206   2.869   4.481   5.326
10769SOL    HW233207   2.904   4.352   5.420
10770SOL     OW33208   5.427   0.336   4.426
10770SOL    HW133209   5.508   0.294   4.386
10770SOL    HW233210   5.346   0.309   4.375
10771SOL     OW33211   4.423   0.132   5.082
10771SOL    HW133212   4.326   0.111   5.088
10771SOL    HW233213   4.468   0.106   5.167
10772SOL     OW33214   6.584   6.766   3.924
10772SOL    HW133215   6.600   6.734   4.017
10772SOL    HW233216   6.504   6.720   3.886
10773SOL     OW33217   0.184   4.355   6.854
10773SOL    HW133218   0.100   4.409   6.841
10773SOL    HW233219   0.263   4.416   6.848
10774SOL     OW33220   1.669   2.593   1.205
10774SOL    HW133221   1.761   2.587   1.168
10774SOL    HW233222   1.635   2.687   1.196
10775SOL     OW33223   1.973   4.377   1.786
10775SOL    HW133224   1.932   4.305   1.729
10775SOL    HW233225   1.996   4.340   1.876
10776SOL     OW33226   0.202   6.940   2.562
10776SOL    HW133227   0.236   7.027   2.599
10776SOL    HW233228   0.218   6.937   2.464
10777SOL     OW33229   4.216   0.458   3.665
10777SOL    HW133230   4.217   0.555   3.692
10777SOL    HW233231   4.122   0.424   3.667
10778SOL     OW33232   6.518   5.906   4.820
10778SOL    HW133233   6.427   5.945   4.835
10778SOL    HW233234   6.549   5.862   4.903
10779SOL     OW33235   6.317   4.740   2.878
10779SOL    HW133236   6.334   4.663   2.817
10779SOL    HW233237   6.286   4.706   2.967
10780SOL     OW33238   6.946   5.559   4.118
10780SOL    HW133239   6.959   5.477   4.173
10780SOL    HW233240   7.016   5.564   4.047
10781SOL     OW33241   5.578   0.863   4.252
10781SOL    HW133242   5.597   0.959   4.234
10781SOL    HW233243   5.661   0.809   4.240
10782SOL     OW33244   6.280   3.202   4.674
10782SOL    HW133245   6.183   3.216   4.694
10782SOL    HW233246   6.330   3.287   4.692
10783SOL     OW33247   1.747   2.661   2.687
10783SOL    HW133248   1.800   2.585   2.649
10783SOL    HW233249   1.807   2.725   2.734
10784SOL     OW33250   2.514   6.013   1.940
10784SOL    HW133251   2.414   6.007   1.946
10784SOL    HW233252   2.545   6.095   1.987
10785SOL     OW33253   1.736   4.996   1.745
10785SOL    HW133254   1.745   4.916   1.685
10785SOL    HW233255   1.816   5.055   1.734
10786SOL     OW33256   4.140   2.166   2.680
10786SOL    HW133257   4.106   2.117   2.599
10786SOL    HW233258   4.219   2.116   2.718
10787SOL     OW33259   3.357   1.323   4.256
10787SOL    HW133260   3.411   1.275   4.187
10787SOL    HW233261   3.405   1.407   4.284
10788SOL     OW33262   1.608   4.242   0.396
10788SOL    HW133263   1.597   4.285   0.485
10788SOL    HW233264   1.561   4.298   0.326
10789SOL     OW33265   6.553   0.992   0.464
10789SOL    HW133266   6.546   1.084   0.426
10789SOL    HW233267   6.480   0.935   0.426
10790SOL     OW33268   6.832   1.277   5.817
10790SOL    HW133269   6.817   1.334   5.898
10790SOL    HW233270   6.747   1.229   5.795
10791SOL     OW33271   2.034   1.954   2.266
10791SOL    HW133272   2.056   1.863   2.302
10791SOL    HW233273   2.067   1.961   2.172
10792SOL     OW33274   3.533   2.769   1.202
10792SOL    HW133275   3.518   2.670   1.190
10792SOL    HW233276   3.469   2.804   1.270
10793SOL     OW33277   4.960   1.726   4.465
10793SOL    HW133278   5.015   1.643   4.461
10793SOL    HW233279   4.965   1.774   4.377
10794SOL     OW33280   3.725   3.484   1.712
10794SOL    HW133281   3.808   3.476   1.657
10794SOL    HW233282   3.676   3.397   1.710
10795SOL     OW33283   6.547   3.568   2.528
10795SOL    HW133284   6.565   3.470   2.516
10795SOL    HW233285   6.454   3.581   2.562
10796SOL     OW33286   5.001   0.019   6.140
10796SOL    HW133287   5.015   7.012   6.049
10796SOL    HW233288   4.918   7.008   6.180
10797SOL     OW33289   3.977   3.024   6.741
10797SOL    HW133290   3.883   3.044   6.714
10797SOL    HW233291   3.996   2.927   6.726
10798SOL     OW33292   2.444   0.093   6.409
10798SOL    HW133293   2.480   0.184   6.430
10798SOL    HW233294   2.445   0.037   6.492
10799SOL     OW33295   3.487   2.071   2.543
10799SOL    HW133296   3.572   2.019   2.531
10799SOL    HW233297   3.442   2.081   2.455
10800SOL     OW33298   2.626   6.593   1.087
10800SOL    HW133299   2.540   6.552   1.057
10800SOL    HW233300   2.622   6.608   1.186
10801SOL     OW33301   1.947   6.519   5.686
10801SOL    HW133302   2.024   6.463   5.654
10801SOL    HW233303   1.981   6.588   5.749
10802SOL     OW33304   1.904   2.872   3.936
10802SOL    HW133305   1.978   2.879   4.003
10802SOL    HW233306   1.931   2.811   3.862
10803SOL     OW33307   5.587   4.636   5.874
10803SOL    HW133308   5.507   4.676   5.921
10803SOL    HW233309   5.671   4.673   5.913
10804SOL     OW33310   6.361   4.027   1.044
10804SOL    HW133311   6.417   3.959   0.996
10804SOL    HW233312   6.415   4.109   1.061
10805SOL     OW33313   3.125   6.659   7.014
10805SOL    HW133314   3.076   6.627   6.934
10805SOL    HW233315   3.095   6.608   0.064
10806SOL     OW33316   6.236   3.934   0.472
10806SOL    HW133317   6.161   3.971   0.417
10806SOL    HW233318   6.209   3.933   0.568
10807SOL     OW33319   3.378   6.220   3.720
10807SOL    HW133320   3.450   6.150   3.719
10807SOL    HW233321   3.299   6.187   3.668
10808SOL     OW33322   0.834   3.965   7.023
10808SOL    HW133323   0.808   4.044   0.050
10808SOL    HW233324   0.756   3.902   7.016
10809SOL     OW33325   2.883   1.053   4.463
10809SOL    HW133326   2.800   1.094   4.501
10809SOL    HW233327   2.958   1.062   4.530
10810SOL     OW33328   0.516   1.283   5.973
10810SOL    HW133329   0.559   1.368   6.005
10810SOL    HW233330   0.447   1.305   5.904
10811SOL     OW33331   3.674   5.007   5.843
10811SOL    HW133332   3.772   5.005   5.861
10811SOL    HW233333   3.646   5.101   5.820
10812SOL     OW33334   0.314   2.726   2.538
10812SOL    HW133335   0.259   2.775   2.470
10812SOL    HW233336   0.324   2.783   2.619
10813SOL     OW33337   3.162   6.367   1.647
10813SOL    HW133338   3.135   6.370   1.550
10813SOL    HW233339   3.261   6.356   1.654
10814SOL     OW33340   1.636   0.476   6.001
10814SOL    HW133341   1.701   0.521   6.062
10814SOL    HW233342   1.546   0.475   6.044
10815SOL     OW33343   4.741   4.498   3.250
10815SOL    HW133344   4.759   4.588   3.210
10815SOL    HW233345   4.683   4.445   3.188
10816SOL     OW33346   1.436   1.224   2.199
10816SOL    HW133347   1.349   1.272   2.183
10816SOL    HW233348   1.441   1.145   2.138
10817SOL     OW33349   5.582   0.216   2.748
10817SOL    HW133350   5.567   0.298   2.803
10817SOL    HW233351   5.632   0.148   2.801
10818SOL     OW33352   5.793   2.899   6.534
10818SOL    HW133353   5.777   2.964   6.608
10818SOL    HW233354   5.866   2.933   6.475
10819SOL     OW33355   0.667   3.663   6.283
10819SOL    HW133356   0.597   3.673   6.211
10819SOL    HW233357   0.754   3.637   6.241
10820SOL     OW33358   0.295   7.030   3.887
10820SOL    HW133359   0.267   6.939   3.856
10820SOL    HW233360   0.258   0.069   3.826
10821SOL     OW33361   0.049   6.295   1.730
10821SOL    HW133362   0.035   6.224   1.799
10821SOL    HW233363   7.013   6.284   1.656
10822SOL     OW33364   1.358   3.477   2.250
10822SOL    HW133365   1.363   3.566   2.205
10822SOL    HW233366   1.425   3.474   2.324
10823SOL     OW33367   2.101   5.935   1.613
10823SOL    HW133368   2.069   5.929   1.707
10823SOL    HW233369   2.182   5.878   1.601
10824SOL     OW33370   5.371   7.006   3.590
10824SOL    HW133371   5.333   0.024   3.670
10824SOL    HW233372   5.456   6.960   3.616
10825SOL     OW33373   2.741   1.492   0.891
10825SOL    HW133374   2.698   1.545   0.964
10825SOL    HW233375   2.753   1.549   0.810
10826SOL     OW33376   6.786   3.933   2.074
10826SOL    HW133377   6.790   3.836   2.096
10826SOL    HW233378   6.691   3.958   2.055
10827SOL     OW33379   6.137   3.124   3.912
10827SOL    HW133380   6.090   3.053   3.860
10827SOL    HW233381   6.217   3.085   3.957
10828SOL     OW33382   0.957   6.206   1.378
10828SOL    HW133383   0.961   6.281   1.444
10828SOL    HW233384   0.879   6.147   1.399
10829SOL     OW33385   2.476   3.679   1.382
10829SOL    HW133386   2.470   3.671   1.482
10829SOL    HW233387   2.428   3.602   1.339
10830SOL     OW33388   5.990   3.186   4.627
10830SOL    HW133389   5.978   3.102   4.575
10830SOL    HW233390   5.976   3.265   4.568
10831SOL     OW33391   4.936   0.237   2.433
10831SOL    HW133392   4.950   0.329   2.470
10831SOL    HW233393   5.014   0.212   2.376
10832SOL     OW33394   0.793   2.414   0.575
10832SOL    HW133395   0.750   2.488   0.625
10832SOL    HW233396   0.812   2.443   0.481
10833SOL     OW33397   2.461   0.191   3.587
10833SOL    HW133398   2.426   0.276   3.626
10833SOL    HW233399   2.471   0.200   3.488
10834SOL     OW33400   0.187   1.892   5.096
10834SOL    HW133401   0.212   1.969   5.037
10834SOL    HW233402   0.189   1.808   5.043
10835SOL     OW33403   6.762   1.751   2.197
10835SOL    HW133404   6.719   1.770   2.285
10835SOL    HW233405   6.693   1.751   2.125
10836SOL     OW33406   0.101   1.486   5.392
10836SOL    HW133407   0.028   1.477   5.460
10836SOL    HW233408   0.126   1.395   5.358
10837SOL     OW33409   6.835   4.756   0.200
10837SOL    HW133410   6.877   4.720   0.283
10837SOL    HW233411   6.736   4.740   0.203
10838SOL     OW33412   5.642   0.477   5.874
10838SOL    HW133413   5.616   0.568   5.907
10838SOL    HW233414   5.567   0.437   5.821
10839SOL     OW33415   2.799   2.397   0.203
10839SOL    HW133416   2.777   2.462   0.130
10839SOL    HW233417   2.778   2.438   0.291
10840SOL     OW33418   3.789   6.105   1.722
10840SOL    HW133419   3.778   6.139   1.628
10840SOL    HW233420   3.834   6.016   1.719
10841SOL     OW33421   3.996   6.269   5.957
10841SOL    HW133422   4.002   6.251   5.859
10841SOL    HW233423   3.911   6.318   5.978
10842SOL     OW33424   6.518   3.196   1.373
10842SOL    HW133425   6.470   3.200   1.286
10842SOL    HW233426   6.617   3.205   1.357
10843SOL     OW33427   1.237   1.913   1.919
10843SOL    HW133428   1.256   1.964   1.835
10843SOL    HW233429   1.208   1.820   1.897
10844SOL     OW33430   6.660   6.313   4.695
10844SOL    HW133431   6.734   6.378   4.710
10844SOL    HW233432   6.691   6.221   4.720
10845SOL     OW33433   1.230   1.490   1.620
10845SOL    HW133434   1.301   1.510   1.552
10845SOL    HW233435   1.228   1.562   1.689
10846SOL     OW33436   4.798   1.688   0.708
10846SOL    HW133437   4.710   1.695   0.755
10846SOL    HW233438   4.798   1.749   0.629
10847SOL     OW33439   2.612   1.521   5.916
10847SOL    HW133440   2.660   1.607   5.895
10847SOL    HW233441   2.532   1.512   5.856
10848SOL     OW33442   2.610   1.640   0.089
10848SOL    HW133443   2.691   1.695   0.070
10848SOL    HW233444   2.555   1.633   0.006
10849SOL     OW33445   3.087   4.971   3.664
10849SOL    HW133446   3.085   5.065   3.630
10849SOL    HW233447   3.098   4.972   3.763
10850SOL     OW33448   4.106   6.838   0.098
10850SOL    HW133449   4.055   6.871   0.019
10850SOL    HW233450   4.143   6.747   0.078
10851SOL     OW33451   3.154   2.882   5.744
10851SOL    HW133452   3.246   2.847   5.727
10851SOL    HW233453   3.101   2.815   5.796
10852SOL     OW33454   0.162   0.707   6.307
10852SOL    HW133455   0.116   0.622   6.281
10852SOL    HW233456   0.214   0.742   6.229
10853SOL     OW33457   3.084   1.718   4.523
10853SOL    HW133458   3.120   1.667   4.445
10853SOL    HW233459   3.152   1.719   4.596
10854SOL     OW33460   5.648   0.571   6.906
10854SOL    HW133461   5.710   0.547   6.981
10854SOL    HW233462   5.563   0.608   6.944
10855SOL     OW33463   2.883   6.018   2.674
10855SOL    HW133464   2.815   5.962   2.721
10855SOL    HW233465   2.838   6.095   2.629
10856SOL     OW33466   6.527   6.809   0.713
10856SOL    HW133467   6.494   6.902   0.727
10856SOL    HW233468   6.573   6.777   0.795
10857SOL     OW33469   6.078   2.439   2.911
10857SOL    HW133470   6.048   2.534   2.896
10857SOL    HW233471   6.005   2.388   2.955
10858SOL     OW33472   1.660   3.740   0.268
10858SOL    HW133473   1.580   3.696   0.227
10858SOL    HW233474   1.635   3.832   0.299
10859SOL     OW33475   1.844   3.745   3.236
10859SOL    HW133476   1.830   3.822   3.298
10859SOL    HW233477   1.927   3.761   3.181
10860SOL     OW33478   6.474   1.410   0.181
10860SOL    HW133479   6.493   1.507   0.166
10860SOL    HW233480   6.519   1.355   0.110
10861SOL     OW33481   3.582   2.829   1.894
10861SOL    HW133482   3.569   2.851   1.991
10861SOL    HW233483   3.657   2.885   1.858
10862SOL     OW33484   2.145   2.265   6.373
10862SOL    HW133485   2.094   2.315   6.303
10862SOL    HW233486   2.171   2.327   6.447
10863SOL     OW33487   2.617   0.322   2.702
10863SOL    HW133488   2.599   0.388   2.629
10863SOL    HW233489   2.591   0.230   2.671
10864SOL     OW33490   2.629   4.286   1.059
10864SOL    HW133491   2.658   4.336   0.978
10864SOL    HW233492   2.540   4.321   1.089
10865SOL     OW33493   5.397   2.942   3.753
10865SOL    HW133494   5.392   2.859   3.808
10865SOL    HW233495   5.311   2.992   3.761
10866SOL     OW33496   6.224   2.853   1.109
10866SOL    HW133497   6.308   2.800   1.102
10866SOL    HW233498   6.238   2.930   1.172
10867SOL     OW33499   2.654   3.194   0.239
10867SOL    HW133500   2.596   3.183   0.159
10867SOL    HW233501   2.698   3.107   0.261
10868SOL     OW33502   1.035   2.201   3.526
10868SOL    HW133503   1.043   2.292   3.565
10868SOL    HW233504   0.952   2.194   3.471
10869NA      NA33505   0.694   1.855   5.841
10870NA      NA33506   4.492   4.343   5.238
10871NA      NA33507   1.808   4.960   2.798
10872NA      NA33508   5.213   4.219   3.929
10873NA      NA33509   4.239   2.396   5.327
10874NA      NA33510   2.839   4.847   1.427
10875NA      NA33511   1.327   4.938   0.550
10876NA      NA33512   4.037   4.246   1.555
10877NA      NA33513   4.614   4.012   0.838
10878NA      NA33514   3.556   1.172   5.910
10879NA      NA33515   4.971   5.646   2.130
10880NA      NA33516   1.534   0.489   5.585
10881NA      NA33517   4.923   5.023   1.720
10882NA      NA33518   2.999   3.411   0.298
   7.02997   7.02997   7.02997
