Generated by trjconv : CNT in water t= 164.00000
33518
    1C        C    1   2.844   2.769   4.748
    1C        C    2   2.900   2.720   4.868
    1C        C    3   2.845   2.772   4.986
    1C        C    4   2.854   2.776   4.263
    1C        C    5   2.903   2.724   4.385
    1C        C    6   2.849   2.771   4.507
    1C        C    7   3.014   2.638   4.629
    1C        C    8   2.897   2.717   4.628
    1C        C    9   3.076   2.598   4.749
    1C        C   10   3.012   2.635   4.870
    1C        C   11   3.185   2.495   4.979
    1C        C   12   3.061   2.561   4.978
    1C        C   13   2.863   2.776   3.774
    1C        C   14   2.910   2.726   3.898
    1C        C   15   2.855   2.777   4.018
    1C        C   16   3.020   2.646   4.140
    1C        C   17   2.906   2.729   4.141
    1C        C   18   3.079   2.610   4.264
    1C        C   19   3.013   2.636   4.386
    1C        C   20   3.207   2.549   4.505
    1C        C   21   3.076   2.600   4.507
    1C        C   22   3.277   2.529   4.626
    1C        C   23   3.208   2.544   4.748
    1C        C   24   3.416   2.486   4.871
    1C        C   25   3.274   2.503   4.867
    1C        C   26   3.490   2.477   4.989
    1C        C   27   2.852   2.766   3.282
    1C        C   28   2.909   2.722   3.404
    1C        C   29   2.859   2.770   3.527
    1C        C   30   3.021   2.638   3.652
    1C        C   31   2.909   2.724   3.651
    1C        C   32   3.082   2.603   3.775
    1C        C   33   3.020   2.637   3.898
    1C        C   34   3.211   2.547   4.020
    1C        C   35   3.080   2.601   4.021
    1C        C   36   3.279   2.531   4.143
    1C        C   37   3.210   2.556   4.264
    1C        C   38   3.419   2.513   4.384
    1C        C   39   3.279   2.533   4.385
    1C        C   40   3.489   2.498   4.506
    1C        C   41   3.416   2.500   4.627
    1C        C   42   3.629   2.489   4.747
    1C        C   43   3.487   2.483   4.747
    1C        C   44   3.706   2.491   4.865
    1C        C   45   3.629   2.480   4.981
    1C        C   46   2.842   2.756   2.796
    1C        C   47   2.898   2.711   2.918
    1C        C   48   2.850   2.767   3.039
    1C        C   49   3.021   2.638   3.163
    1C        C   50   2.904   2.718   3.160
    1C        C   51   3.082   2.599   3.284
    1C        C   52   3.022   2.637   3.406
    1C        C   53   3.210   2.543   3.527
    1C        C   54   3.081   2.602   3.529
    1C        C   55   3.276   2.525   3.650
    1C        C   56   3.212   2.549   3.774
    1C        C   57   3.417   2.506   3.896
    1C        C   58   3.277   2.525   3.897
    1C        C   59   3.487   2.498   4.018
    1C        C   60   3.417   2.502   4.141
    1C        C   61   3.631   2.496   4.262
    1C        C   62   3.490   2.501   4.262
    1C        C   63   3.702   2.508   4.383
    1C        C   64   3.630   2.500   4.505
    1C        C   65   3.835   2.549   4.625
    1C        C   66   3.700   2.508   4.627
    1C        C   67   3.906   2.566   4.746
    1C        C   68   3.844   2.523   4.865
    1C        C   69   4.054   2.585   4.978
    1C        C   70   3.925   2.530   4.979
    1C        C   71   2.829   2.734   2.309
    1C        C   72   2.889   2.694   2.431
    1C        C   73   2.841   2.749   2.551
    1C        C   74   3.010   2.625   2.676
    1C        C   75   2.896   2.708   2.675
    1C        C   76   3.074   2.592   2.797
    1C        C   77   3.008   2.623   2.918
    1C        C   78   3.206   2.542   3.038
    1C        C   79   3.074   2.594   3.040
    1C        C   80   3.278   2.525   3.158
    1C        C   81   3.211   2.543   3.282
    1C        C   82   3.417   2.502   3.404
    1C        C   83   3.277   2.520   3.405
    1C        C   84   3.485   2.497   3.527
    1C        C   85   3.416   2.504   3.650
    1C        C   86   3.627   2.496   3.771
    1C        C   87   3.486   2.498   3.773
    1C        C   88   3.696   2.506   3.894
    1C        C   89   3.628   2.499   4.018
    1C        C   90   3.836   2.548   4.137
    1C        C   91   3.700   2.511   4.139
    1C        C   92   3.905   2.572   4.258
    1C        C   93   3.837   2.549   4.380
    1C        C   94   4.027   2.639   4.502
    1C        C   95   3.902   2.574   4.503
    1C        C   96   4.095   2.671   4.621
    1C        C   97   4.033   2.631   4.741
    1C        C   98   4.193   2.766   4.862
    1C        C   99   4.102   2.656   4.863
    1C        C  100   4.223   2.840   4.978
    1C        C  101   2.825   2.731   2.071
    1C        C  102   2.994   2.590   2.190
    1C        C  103   2.882   2.679   2.188
    1C        C  104   3.067   2.575   2.311
    1C        C  105   3.008   2.618   2.432
    1C        C  106   3.201   2.531   2.552
    1C        C  107   3.073   2.591   2.554
    1C        C  108   3.272   2.511   2.673
    1C        C  109   3.206   2.540   2.795
    1C        C  110   3.413   2.492   2.916
    1C        C  111   3.274   2.519   2.917
    1C        C  112   3.485   2.486   3.037
    1C        C  113   3.415   2.493   3.159
    1C        C  114   3.628   2.498   3.284
    1C        C  115   3.486   2.493   3.281
    1C        C  116   3.697   2.509   3.406
    1C        C  117   3.627   2.500   3.528
    1C        C  118   3.835   2.545   3.648
    1C        C  119   3.699   2.506   3.650
    1C        C  120   3.897   2.578   3.771
    1C        C  121   3.831   2.548   3.892
    1C        C  122   4.024   2.638   4.012
    1C        C  123   3.899   2.573   4.013
    1C        C  124   4.084   2.681   4.133
    1C        C  125   4.029   2.640   4.256
    1C        C  126   4.191   2.773   4.379
    1C        C  127   4.088   2.676   4.380
    1C        C  128   4.243   2.825   4.500
    1C        C  129   4.197   2.769   4.621
    1C        C  130   4.328   2.938   4.741
    1C        C  131   4.247   2.820   4.743
    1C        C  132   4.358   3.002   4.863
    1C        C  133   4.291   2.962   4.979
    1C        C  134   3.178   2.475   2.079
    1C        C  135   3.042   2.509   2.082
    1C        C  136   3.262   2.485   2.190
    1C        C  137   3.196   2.516   2.311
    1C        C  138   3.408   2.481   2.429
    1C        C  139   3.269   2.503   2.432
    1C        C  140   3.482   2.488   2.550
    1C        C  141   3.412   2.498   2.673
    1C        C  142   3.625   2.496   2.793
    1C        C  143   3.484   2.487   2.794
    1C        C  144   3.696   2.508   2.915
    1C        C  145   3.627   2.494   3.037
    1C        C  146   3.833   2.536   3.157
    1C        C  147   3.696   2.503   3.160
    1C        C  148   3.899   2.565   3.278
    1C        C  149   3.834   2.545   3.402
    1C        C  150   4.024   2.634   3.524
    1C        C  151   3.900   2.566   3.525
    1C        C  152   4.086   2.672   3.645
    1C        C  153   4.020   2.646   3.768
    1C        C  154   4.190   2.772   3.891
    1C        C  155   4.080   2.684   3.890
    1C        C  156   4.244   2.819   4.012
    1C        C  157   4.195   2.769   4.135
    1C        C  158   4.335   2.928   4.255
    1C        C  159   4.243   2.821   4.257
    1C        C  160   4.376   2.988   4.376
    1C        C  161   4.333   2.934   4.499
    1C        C  162   4.440   3.119   4.617
    1C        C  163   4.374   2.994   4.621
    1C        C  164   4.468   3.185   4.738
    1C        C  165   4.431   3.123   4.859
    1C        C  166   4.515   3.321   4.976
    1C        C  167   4.481   3.186   4.974
    1C        C  168   3.476   2.440   2.073
    1C        C  169   3.402   2.464   2.189
    1C        C  170   3.620   2.467   2.310
    1C        C  171   3.478   2.464   2.308
    1C        C  172   3.696   2.484   2.429
    1C        C  173   3.623   2.481   2.549
    1C        C  174   3.831   2.535   2.668
    1C        C  175   3.693   2.505   2.670
    1C        C  176   3.898   2.556   2.790
    1C        C  177   3.834   2.537   2.915
    1C        C  178   4.029   2.623   3.033
    1C        C  179   3.902   2.561   3.036
    1C        C  180   4.088   2.663   3.155
    1C        C  181   4.025   2.630   3.277
    1C        C  182   4.192   2.759   3.399
    1C        C  183   4.083   2.669   3.400
    1C        C  184   4.244   2.809   3.521
    1C        C  185   4.196   2.760   3.644
    1C        C  186   4.339   2.918   3.767
    1C        C  187   4.243   2.814   3.766
    1C        C  188   4.381   2.978   3.888
    1C        C  189   4.338   2.924   4.011
    1C        C  190   4.443   3.109   4.129
    1C        C  191   4.378   2.984   4.133
    1C        C  192   4.467   3.176   4.251
    1C        C  193   4.442   3.113   4.375
    1C        C  194   4.516   3.316   4.494
    1C        C  195   4.471   3.183   4.494
    1C        C  196   4.531   3.387   4.615
    1C        C  197   4.515   3.320   4.738
    1C        C  198   4.554   3.536   4.856
    1C        C  199   4.534   3.394   4.858
    1C        C  200   4.582   3.621   4.968
    1C        C  201   3.615   2.419   2.077
    1C        C  202   3.826   2.515   2.185
    1C        C  203   3.694   2.460   2.189
    1C        C  204   3.899   2.547   2.303
    1C        C  205   3.831   2.525   2.425
    1C        C  206   4.024   2.619   2.543
    1C        C  207   3.898   2.556   2.545
    1C        C  208   4.081   2.660   2.666
    1C        C  209   4.021   2.626   2.789
    1C        C  210   4.197   2.748   2.910
    1C        C  211   4.086   2.661   2.909
    1C        C  212   4.251   2.799   3.031
    1C        C  213   4.197   2.753   3.153
    1C        C  214   4.334   2.912   3.276
    1C        C  215   4.243   2.804   3.276
    1C        C  216   4.371   2.974   3.397
    1C        C  217   4.334   2.918   3.521
    1C        C  218   4.442   3.100   3.640
    1C        C  219   4.377   2.975   3.643
    1C        C  220   4.467   3.168   3.761
    1C        C  221   4.442   3.105   3.885
    1C        C  222   4.506   3.310   4.005
    1C        C  223   4.470   3.173   4.006
    1C        C  224   4.519   3.382   4.126
    1C        C  225   4.505   3.312   4.248
    1C        C  226   4.521   3.525   4.367
    1C        C  227   4.517   3.384   4.369
    1C        C  228   4.519   3.596   4.489
    1C        C  229   4.528   3.528   4.613
    1C        C  230   4.504   3.742   4.729
    1C        C  231   4.536   3.603   4.732
    1C        C  232   4.498   3.820   4.846
    1C        C  233   4.549   3.757   4.960
    1C        C  234   4.021   2.612   2.062
    1C        C  235   3.900   2.545   2.070
    1C        C  236   4.087   2.652   2.179
    1C        C  237   4.024   2.615   2.300
    1C        C  238   4.200   2.736   2.422
    1C        C  239   4.090   2.647   2.421
    1C        C  240   4.251   2.788   2.544
    1C        C  241   4.196   2.743   2.666
    1C        C  242   4.335   2.906   2.785
    1C        C  243   4.247   2.795   2.786
    1C        C  244   4.382   2.962   2.906
    1C        C  245   4.341   2.908   3.031
    1C        C  246   4.436   3.097   3.151
    1C        C  247   4.376   2.969   3.153
    1C        C  248   4.460   3.164   3.273
    1C        C  249   4.433   3.101   3.396
    1C        C  250   4.496   3.304   3.515
    1C        C  251   4.464   3.167   3.518
    1C        C  252   4.507   3.374   3.637
    1C        C  253   4.505   3.304   3.760
    1C        C  254   4.526   3.518   3.881
    1C        C  255   4.517   3.377   3.881
    1C        C  256   4.525   3.592   4.001
    1C        C  257   4.526   3.523   4.124
    1C        C  258   4.495   3.735   4.245
    1C        C  259   4.516   3.595   4.245
    1C        C  260   4.472   3.801   4.367
    1C        C  261   4.490   3.734   4.490
    1C        C  262   4.432   3.944   4.607
    1C        C  263   4.476   3.810   4.608
    1C        C  264   4.406   4.013   4.727
    1C        C  265   4.437   3.948   4.848
    1C        C  266   4.321   4.130   4.960
    1C        C  267   4.390   4.009   4.965
    1C        C  268   4.265   2.776   2.061
    1C        C  269   4.202   2.734   2.179
    1C        C  270   4.345   2.893   2.300
    1C        C  271   4.251   2.786   2.301
    1C        C  272   4.384   2.954   2.422
    1C        C  273   4.347   2.891   2.543
    1C        C  274   4.442   3.087   2.664
    1C        C  275   4.378   2.961   2.662
    1C        C  276   4.472   3.153   2.785
    1C        C  277   4.448   3.086   2.907
    1C        C  278   4.507   3.293   3.027
    1C        C  279   4.469   3.157   3.028
    1C        C  280   4.520   3.366   3.147
    1C        C  281   4.497   3.301   3.270
    1C        C  282   4.521   3.513   3.393
    1C        C  283   4.508   3.372   3.391
    1C        C  284   4.518   3.584   3.515
    1C        C  285   4.518   3.515   3.639
    1C        C  286   4.495   3.728   3.756
    1C        C  287   4.520   3.589   3.759
    1C        C  288   4.477   3.798   3.877
    1C        C  289   4.497   3.731   4.000
    1C        C  290   4.425   3.931   4.119
    1C        C  291   4.482   3.802   4.121
    1C        C  292   4.391   3.996   4.240
    1C        C  293   4.417   3.932   4.363
    1C        C  294   4.329   4.127   4.480
    1C        C  295   4.396   4.003   4.483
    1C        C  296   4.286   4.187   4.601
    1C        C  297   4.331   4.134   4.724
    1C        C  298   4.206   4.315   4.838
    1C        C  299   4.290   4.200   4.843
    1C        C  300   4.174   4.403   4.946
    1C        C  301   4.359   2.878   2.062
    1C        C  302   4.473   3.066   2.179
    1C        C  303   4.401   2.942   2.179
    1C        C  304   4.479   3.142   2.299
    1C        C  305   4.449   3.079   2.422
    1C        C  306   4.517   3.284   2.537
    1C        C  307   4.475   3.149   2.541
    1C        C  308   4.518   3.357   2.658
    1C        C  309   4.510   3.289   2.782
    1C        C  310   4.528   3.501   2.901
    1C        C  311   4.521   3.360   2.903
    1C        C  312   4.518   3.575   3.021
    1C        C  313   4.522   3.508   3.145
    1C        C  314   4.487   3.716   3.265
    1C        C  315   4.516   3.578   3.268
    1C        C  316   4.478   3.788   3.387
    1C        C  317   4.494   3.723   3.511
    1C        C  318   4.425   3.925   3.627
    1C        C  319   4.478   3.794   3.632
    1C        C  320   4.395   3.990   3.749
    1C        C  321   4.427   3.930   3.873
    1C        C  322   4.317   4.110   3.991
    1C        C  323   4.395   3.993   3.996
    1C        C  324   4.275   4.167   4.114
    1C        C  325   4.324   4.120   4.238
    1C        C  326   4.190   4.287   4.355
    1C        C  327   4.287   4.185   4.358
    1C        C  328   4.139   4.340   4.476
    1C        C  329   4.192   4.293   4.598
    1C        C  330   4.027   4.436   4.715
    1C        C  331   4.140   4.349   4.717
    1C        C  332   3.972   4.493   4.832
    1C        C  333   4.057   4.480   4.943
    1C        C  334   4.553   3.265   2.067
    1C        C  335   4.537   3.126   2.066
    1C        C  336   4.534   3.349   2.177
    1C        C  337   4.517   3.279   2.298
    1C        C  338   4.524   3.497   2.413
    1C        C  339   4.528   3.356   2.416
    1C        C  340   4.524   3.569   2.535
    1C        C  341   4.530   3.498   2.656
    1C        C  342   4.493   3.708   2.776
    1C        C  343   4.523   3.570   2.777
    1C        C  344   4.475   3.779   2.897
    1C        C  345   4.493   3.714   3.021
    1C        C  346   4.427   3.917   3.140
    1C        C  347   4.475   3.785   3.142
    1C        C  348   4.396   3.982   3.262
    1C        C  349   4.426   3.919   3.385
    1C        C  350   4.321   4.108   3.503
    1C        C  351   4.395   3.988   3.504
    1C        C  352   4.280   4.169   3.624
    1C        C  353   4.325   4.112   3.745
    1C        C  354   4.183   4.271   3.868
    1C        C  355   4.280   4.168   3.867
    1C        C  356   4.126   4.318   3.989
    1C        C  357   4.180   4.271   4.111
    1C        C  358   4.014   4.401   4.232
    1C        C  359   4.136   4.330   4.232
    1C        C  360   3.955   4.448   4.351
    1C        C  361   4.023   4.420   4.472
    1C        C  362   3.832   4.517   4.595
    1C        C  363   3.961   4.461   4.593
    1C        C  364   3.763   4.552   4.714
    1C        C  365   3.842   4.548   4.831
    1C        C  366   3.630   4.592   4.951
    1C        C  367   3.768   4.572   4.947
    1C        C  368   4.509   3.565   2.056
    1C        C  369   4.531   3.490   2.172
    1C        C  370   4.502   3.707   2.288
    1C        C  371   4.525   3.567   2.290
    1C        C  372   4.486   3.778   2.409
    1C        C  373   4.497   3.708   2.531
    1C        C  374   4.428   3.908   2.650
    1C        C  375   4.476   3.775   2.654
    1C        C  376   4.400   3.974   2.772
    1C        C  377   4.431   3.914   2.896
    1C        C  378   4.319   4.096   3.014
    1C        C  379   4.397   3.979   3.016
    1C        C  380   4.276   4.154   3.135
    1C        C  381   4.320   4.101   3.258
    1C        C  382   4.182   4.264   3.377
    1C        C  383   4.277   4.161   3.379
    1C        C  384   4.131   4.313   3.500
    1C        C  385   4.182   4.271   3.625
    1C        C  386   4.009   4.393   3.744
    1C        C  387   4.130   4.319   3.747
    1C        C  388   3.946   4.429   3.865
    1C        C  389   4.008   4.396   3.987
    1C        C  390   3.823   4.495   4.109
    1C        C  391   3.950   4.434   4.110
    1C        C  392   3.755   4.521   4.230
    1C        C  393   3.827   4.507   4.351
    1C        C  394   3.622   4.555   4.474
    1C        C  395   3.762   4.534   4.474
    1C        C  396   3.548   4.564   4.594
    1C        C  397   3.622   4.564   4.714
    1C        C  398   3.415   4.545   4.841
    1C        C  399   3.552   4.577   4.836
    1C        C  400   3.342   4.516   4.958
    1C        C  401   4.506   3.704   2.057
    1C        C  402   4.456   3.921   2.171
    1C        C  403   4.487   3.783   2.170
    1C        C  404   4.415   3.984   2.290
    1C        C  405   4.437   3.910   2.409
    1C        C  406   4.324   4.095   2.526
    1C        C  407   4.399   3.975   2.529
    1C        C  408   4.274   4.146   2.648
    1C        C  409   4.316   4.087   2.770
    1C        C  410   4.178   4.252   2.889
    1C        C  411   4.273   4.147   2.890
    1C        C  412   4.130   4.305   3.011
    1C        C  413   4.180   4.258   3.135
    1C        C  414   4.006   4.384   3.255
    1C        C  415   4.124   4.306   3.255
    1C        C  416   3.947   4.422   3.378
    1C        C  417   4.011   4.387   3.500
    1C        C  418   3.820   4.484   3.620
    1C        C  419   3.948   4.424   3.620
    1C        C  420   3.750   4.509   3.741
    1C        C  421   3.816   4.484   3.863
    1C        C  422   3.613   4.532   3.989
    1C        C  423   3.753   4.511   3.987
    1C        C  424   3.543   4.539   4.112
    1C        C  425   3.615   4.540   4.234
    1C        C  426   3.404   4.537   4.361
    1C        C  427   3.545   4.545   4.356
    1C        C  428   3.331   4.544   4.482
    1C        C  429   3.407   4.556   4.600
    1C        C  430   3.198   4.516   4.724
    1C        C  431   3.339   4.539   4.722
    1C        C  432   3.127   4.493   4.845
    1C        C  433   3.204   4.502   4.962
    1C        C  434   4.389   4.125   2.056
    1C        C  435   4.452   4.000   2.055
    1C        C  436   4.306   4.168   2.164
    1C        C  437   4.338   4.103   2.286
    1C        C  438   4.182   4.253   2.405
    1C        C  439   4.282   4.154   2.405
    1C        C  440   4.126   4.301   2.525
    1C        C  441   4.178   4.250   2.646
    1C        C  442   4.008   4.378   2.767
    1C        C  443   4.125   4.300   2.767
    1C        C  444   3.945   4.411   2.889
    1C        C  445   4.010   4.379   3.011
    1C        C  446   3.818   4.476   3.133
    1C        C  447   3.945   4.414   3.132
    1C        C  448   3.751   4.502   3.254
    1C        C  449   3.817   4.476   3.377
    1C        C  450   3.611   4.531   3.498
    1C        C  451   3.750   4.502   3.499
    1C        C  452   3.543   4.540   3.621
    1C        C  453   3.611   4.534   3.745
    1C        C  454   3.401   4.541   3.867
    1C        C  455   3.542   4.541   3.868
    1C        C  456   3.332   4.532   3.990
    1C        C  457   3.402   4.536   4.113
    1C        C  458   3.197   4.510   4.237
    1C        C  459   3.335   4.536   4.237
    1C        C  460   3.129   4.484   4.358
    1C        C  461   3.194   4.509   4.482
    1C        C  462   2.997   4.437   4.606
    1C        C  463   3.127   4.493   4.605
    1C        C  464   2.932   4.404   4.727
    1C        C  465   2.992   4.444   4.849
    1C        C  466   2.808   4.332   4.965
    1C        C  467   2.909   4.430   4.964
    1C        C  468   4.117   4.282   2.045
    1C        C  469   4.187   4.249   2.161
    1C        C  470   4.010   4.375   2.280
    1C        C  471   4.128   4.296   2.281
    1C        C  472   3.941   4.401   2.400
    1C        C  473   4.008   4.379   2.523
    1C        C  474   3.816   4.466   2.646
    1C        C  475   3.948   4.416   2.645
    1C        C  476   3.749   4.491   2.768
    1C        C  477   3.816   4.468   2.890
    1C        C  478   3.609   4.519   3.013
    1C        C  479   3.749   4.495   3.011
    1C        C  480   3.538   4.535   3.134
    1C        C  481   3.612   4.528   3.254
    1C        C  482   3.399   4.532   3.376
    1C        C  483   3.541   4.532   3.375
    1C        C  484   3.331   4.531   3.499
    1C        C  485   3.402   4.537   3.621
    1C        C  486   3.196   4.493   3.747
    1C        C  487   3.332   4.528   3.744
    1C        C  488   3.130   4.470   3.870
    1C        C  489   3.196   4.495   3.993
    1C        C  490   3.003   4.416   4.118
    1C        C  491   3.130   4.479   4.116
    1C        C  492   2.943   4.382   4.242
    1C        C  493   3.002   4.423   4.364
    1C        C  494   2.832   4.299   4.487
    1C        C  495   2.938   4.392   4.486
    1C        C  496   2.771   4.259   4.608
    1C        C  497   2.819   4.318   4.727
    1C        C  498   2.669   4.167   4.846
    1C        C  499   2.755   4.279   4.847
    1C        C  500   2.601   4.121   4.959
    1C        C  501   3.999   4.357   2.040
    1C        C  502   3.819   4.472   2.157
    1C        C  503   3.945   4.409   2.159
    1C        C  504   3.746   4.482   2.278
    1C        C  505   3.809   4.450   2.400
    1C        C  506   3.610   4.510   2.523
    1C        C  507   3.749   4.485   2.523
    1C        C  508   3.538   4.513   2.645
    1C        C  509   3.609   4.514   2.767
    1C        C  510   3.399   4.524   2.888
    1C        C  511   3.540   4.522   2.890
    1C        C  512   3.327   4.512   3.009
    1C        C  513   3.397   4.526   3.131
    1C        C  514   3.191   4.491   3.258
    1C        C  515   3.328   4.524   3.254
    1C        C  516   3.126   4.465   3.381
    1C        C  517   3.195   4.492   3.501
    1C        C  518   3.004   4.404   3.629
    1C        C  519   3.129   4.470   3.625
    1C        C  520   2.944   4.367   3.752
    1C        C  521   3.005   4.404   3.874
    1C        C  522   2.835   4.283   4.000
    1C        C  523   2.947   4.369   3.998
    1C        C  524   2.786   4.236   4.124
    1C        C  525   2.834   4.293   4.245
    1C        C  526   2.691   4.137   4.367
    1C        C  527   2.781   4.245   4.367
    1C        C  528   2.647   4.080   4.489
    1C        C  529   2.686   4.146   4.607
    1C        C  530   2.587   3.960   4.733
    1C        C  531   2.641   4.092   4.730
    1C        C  532   2.549   3.902   4.857
    1C        C  533   2.533   3.999   4.961
    1C        C  534   3.616   4.551   2.041
    1C        C  535   3.753   4.518   2.043
    1C        C  536   3.535   4.532   2.157
    1C        C  537   3.607   4.512   2.278
    1C        C  538   3.397   4.513   2.402
    1C        C  539   3.538   4.511   2.402
    1C        C  540   3.324   4.508   2.522
    1C        C  541   3.396   4.509   2.644
    1C        C  542   3.189   4.480   2.769
    1C        C  543   3.327   4.509   2.767
    1C        C  544   3.121   4.463   2.892
    1C        C  545   3.189   4.481   3.014
    1C        C  546   2.996   4.402   3.138
    1C        C  547   3.123   4.464   3.137
    1C        C  548   2.939   4.364   3.261
    1C        C  549   3.001   4.399   3.383
    1C        C  550   2.835   4.274   3.510
    1C        C  551   2.944   4.364   3.508
    1C        C  552   2.779   4.231   3.633
    1C        C  553   2.832   4.282   3.754
    1C        C  554   2.694   4.125   3.878
    1C        C  555   2.781   4.237   3.878
    1C        C  556   2.651   4.071   4.001
    1C        C  557   2.690   4.133   4.121
    1C        C  558   2.593   3.948   4.249
    1C        C  559   2.654   4.075   4.245
    1C        C  560   2.565   3.883   4.371
    1C        C  561   2.584   3.953   4.492
    1C        C  562   2.532   3.750   4.619
    1C        C  563   2.560   3.888   4.615
    1C        C  564   2.520   3.681   4.742
    1C        C  565   2.525   3.761   4.859
    1C        C  566   2.529   3.548   4.980
    1C        C  567   2.522   3.686   4.978
    1C        C  568   3.328   4.471   2.043
    1C        C  569   3.394   4.510   2.160
    1C        C  570   3.184   4.470   2.284
    1C        C  571   3.322   4.508   2.282
    1C        C  572   3.115   4.452   2.406
    1C        C  573   3.186   4.481   2.525
    1C        C  574   2.992   4.397   2.652
    1C        C  575   3.119   4.458   2.648
    1C        C  576   2.935   4.355   2.774
    1C        C  577   2.995   4.400   2.894
    1C        C  578   2.826   4.274   3.019
    1C        C  579   2.934   4.364   3.016
    1C        C  580   2.779   4.220   3.141
    1C        C  581   2.831   4.273   3.261
    1C        C  582   2.691   4.121   3.386
    1C        C  583   2.785   4.227   3.387
    1C        C  584   2.653   4.063   3.509
    1C        C  585   2.691   4.121   3.632
    1C        C  586   2.588   3.940   3.760
    1C        C  587   2.655   4.064   3.756
    1C        C  588   2.567   3.876   3.884
    1C        C  589   2.593   3.942   4.006
    1C        C  590   2.537   3.739   4.130
    1C        C  591   2.567   3.877   4.129
    1C        C  592   2.528   3.672   4.254
    1C        C  593   2.538   3.744   4.375
    1C        C  594   2.518   3.536   4.499
    1C        C  595   2.522   3.677   4.498
    1C        C  596   2.526   3.466   4.621
    1C        C  597   2.523   3.538   4.742
    1C        C  598   2.532   3.327   4.864
    1C        C  599   2.526   3.468   4.865
    1C        C  600   2.542   3.251   4.981
    1C        C  601   3.197   4.427   2.046
    1C        C  602   2.982   4.396   2.162
    1C        C  603   3.120   4.435   2.163
    1C        C  604   2.925   4.357   2.286
    1C        C  605   2.989   4.389   2.408
    1C        C  606   2.821   4.267   2.532
    1C        C  607   2.929   4.358   2.532
    1C        C  608   2.771   4.216   2.654
    1C        C  609   2.826   4.266   2.775
    1C        C  610   2.684   4.112   2.897
    1C        C  611   2.776   4.219   2.898
    1C        C  612   2.648   4.053   3.021
    1C        C  613   2.691   4.109   3.143
    1C        C  614   2.582   3.933   3.269
    1C        C  615   2.645   4.060   3.267
    1C        C  616   2.562   3.869   3.393
    1C        C  617   2.590   3.937   3.514
    1C        C  618   2.528   3.737   3.640
    1C        C  619   2.559   3.875   3.638
    1C        C  620   2.520   3.668   3.763
    1C        C  621   2.532   3.739   3.884
    1C        C  622   2.517   3.529   4.010
    1C        C  623   2.523   3.670   4.007
    1C        C  624   2.523   3.458   4.132
    1C        C  625   2.520   3.531   4.252
    1C        C  626   2.543   3.326   4.381
    1C        C  627   2.520   3.465   4.377
    1C        C  628   2.564   3.256   4.502
    1C        C  629   2.543   3.325   4.623
    1C        C  630   2.595   3.118   4.742
    1C        C  631   2.555   3.254   4.744
    1C        C  632   2.615   3.049   4.865
    1C        C  633   2.569   3.114   4.984
    1C        C  634   2.782   4.307   2.056
    1C        C  635   2.887   4.400   2.055
    1C        C  636   2.748   4.232   2.169
    1C        C  637   2.808   4.277   2.289
    1C        C  638   2.668   4.117   2.411
    1C        C  639   2.761   4.223   2.412
    1C        C  640   2.631   4.054   2.532
    1C        C  641   2.678   4.109   2.653
    1C        C  642   2.581   3.925   2.779
    1C        C  643   2.638   4.054   2.777
    1C        C  644   2.560   3.858   2.902
    1C        C  645   2.589   3.925   3.023
    1C        C  646   2.526   3.727   3.152
    1C        C  647   2.562   3.864   3.148
    1C        C  648   2.512   3.659   3.275
    1C        C  649   2.529   3.732   3.395
    1C        C  650   2.519   3.524   3.521
    1C        C  651   2.516   3.665   3.519
    1C        C  652   2.521   3.453   3.643
    1C        C  653   2.514   3.526   3.764
    1C        C  654   2.541   3.319   3.891
    1C        C  655   2.518   3.458   3.888
    1C        C  656   2.561   3.252   4.014
    1C        C  657   2.545   3.318   4.138
    1C        C  658   2.613   3.121   4.259
    1C        C  659   2.558   3.251   4.262
    1C        C  660   2.640   3.056   4.381
    1C        C  661   2.610   3.122   4.502
    1C        C  662   2.712   2.935   4.626
    1C        C  663   2.634   3.053   4.623
    1C        C  664   2.748   2.874   4.748
    1C        C  665   2.699   2.933   4.868
    1C        C  666   2.750   2.873   4.984
    1C        C  667   2.679   4.026   2.055
    1C        C  668   2.687   4.105   2.170
    1C        C  669   2.592   3.914   2.292
    1C        C  670   2.644   4.047   2.292
    1C        C  671   2.559   3.851   2.414
    1C        C  672   2.578   3.923   2.534
    1C        C  673   2.518   3.722   2.659
    1C        C  674   2.554   3.859   2.657
    1C        C  675   2.509   3.652   2.781
    1C        C  676   2.522   3.722   2.904
    1C        C  677   2.509   3.516   3.033
    1C        C  678   2.515   3.657   3.029
    1C        C  679   2.511   3.446   3.156
    1C        C  680   2.504   3.518   3.277
    1C        C  681   2.539   3.312   3.402
    1C        C  682   2.512   3.451   3.401
    1C        C  683   2.559   3.245   3.525
    1C        C  684   2.541   3.313   3.647
    1C        C  685   2.612   3.116   3.770
    1C        C  686   2.558   3.247   3.771
    1C        C  687   2.646   3.056   3.893
    1C        C  688   2.614   3.121   4.015
    1C        C  689   2.717   2.936   4.138
    1C        C  690   2.645   3.058   4.137
    1C        C  691   2.759   2.880   4.261
    1C        C  692   2.714   2.936   4.383
    1C        C  693   2.755   2.877   4.505
    1C        C  694   2.624   3.897   2.059
    1C        C  695   2.536   3.701   2.179
    1C        C  696   2.577   3.836   2.176
    1C        C  697   2.506   3.639   2.302
    1C        C  698   2.523   3.715   2.420
    1C        C  699   2.485   3.505   2.545
    1C        C  700   2.505   3.645   2.542
    1C        C  701   2.502   3.437   2.668
    1C        C  702   2.505   3.511   2.788
    1C        C  703   2.533   3.304   2.913
    1C        C  704   2.510   3.443   2.912
    1C        C  705   2.548   3.235   3.036
    1C        C  706   2.532   3.307   3.157
    1C        C  707   2.608   3.111   3.281
    1C        C  708   2.557   3.242   3.280
    1C        C  709   2.646   3.051   3.403
    1C        C  710   2.614   3.114   3.526
    1C        C  711   2.720   2.932   3.649
    1C        C  712   2.646   3.053   3.649
    1C        C  713   2.767   2.879   3.771
    1C        C  714   2.717   2.934   3.891
    1C        C  715   2.760   2.881   4.015
    1C        C  716   2.461   3.497   2.062
    1C        C  717   2.498   3.632   2.063
    1C        C  718   2.471   3.420   2.183
    1C        C  719   2.486   3.498   2.301
    1C        C  720   2.520   3.293   2.426
    1C        C  721   2.486   3.430   2.425
    1C        C  722   2.542   3.226   2.549
    1C        C  723   2.532   3.299   2.669
    1C        C  724   2.604   3.102   2.792
    1C        C  725   2.555   3.234   2.792
    1C        C  726   2.630   3.039   2.916
    1C        C  727   2.600   3.104   3.038
    1C        C  728   2.715   2.927   3.160
    1C        C  729   2.634   3.042   3.160
    1C        C  730   2.760   2.873   3.283
    1C        C  731   2.719   2.930   3.406
    1C        C  732   2.764   2.874   3.528
    1C        C  733   2.488   3.192   2.076
    1C        C  734   2.491   3.278   2.187
    1C        C  735   2.581   3.083   2.309
    1C        C  736   2.533   3.217   2.308
    1C        C  737   2.619   3.022   2.430
    1C        C  738   2.595   3.095   2.549
    1C        C  739   2.700   2.912   2.669
    1C        C  740   2.626   3.033   2.671
    1C        C  741   2.745   2.859   2.792
    1C        C  742   2.704   2.918   2.914
    1C        C  743   2.751   2.868   3.037
    1C        C  744   2.543   3.064   2.074
    1C        C  745   2.684   2.896   2.187
    1C        C  746   2.598   3.008   2.190
    1C        C  747   2.737   2.842   2.307
    1C        C  748   2.696   2.904   2.427
    1C        C  749   2.743   2.851   2.549
    1C        C  750   2.741   2.842   2.071
    1C        C  751   3.652   2.301   1.995
    1C        O  752   3.632   2.184   2.036
    1C        O  753   3.713   2.318   1.871
    1C        C  754   4.635   3.057   1.980
    1C        O  755   4.582   3.016   1.873
    1C        O  756   4.757   3.006   2.026
    1C        C  757   4.424   4.232   1.959
    1C        O  758   4.534   4.292   1.957
    1C        O  759   4.378   4.197   1.832
    1C        C  760   3.569   4.606   1.913
    1C        O  761   3.543   4.726   1.882
    1C        O  762   3.570   4.531   1.794
    1C        C  763   2.857   4.526   1.983
    1C        O  764   2.849   4.548   1.859
    1C        O  765   2.798   4.638   2.043
    1C        C  766   2.360   3.475   1.956
    1C        O  767   2.394   3.433   1.843
    1C        O  768   2.221   3.489   1.972
    1C        C  769   4.661   3.588   5.089
    1C        O  770   4.607   3.576   5.203
    1C        O  771   4.800   3.578   5.087
    1C        C  772   4.275   4.465   5.036
    1C        O  773   4.280   4.424   5.155
    1C        O  774   4.311   4.598   5.012
    1C        C  775   4.144   2.519   5.075
    1C        O  776   4.232   2.431   5.056
    1C        O  777   4.140   2.555   5.211
    1C        C  778   2.875   4.550   5.043
    1C        O  779   2.773   4.622   5.022
    1C        O  780   2.929   4.581   5.169
    1C        C  781   2.473   3.044   5.072
    1C        O  782   2.368   2.985   5.034
    1C        O  783   2.505   3.030   5.207
    1C        C  784   2.421   3.977   5.056
    1C        O  785   2.301   3.986   5.019
    1C        O  786   2.437   4.020   5.188
    1C        C  787   2.950   2.436   1.992
    1C        O  788   2.996   2.411   1.877
    1C        O  789   2.866   2.336   2.041
    1C        C  790   3.189   2.367   5.053
    1C        O  791   3.146   2.264   4.994
    1C        O  792   3.171   2.365   5.192
    1C        H  793   4.271   3.027   5.062
    1C        H  794   4.180   2.805   5.069
    1C        H  795   4.497   3.119   5.056
    1C        H  796   4.463   3.369   5.056
    1C        H  797   4.613   3.822   5.016
    1C        H  798   4.441   3.985   5.056
    1C        H  799   4.298   4.181   5.052
    1C        H  800   4.057   4.565   5.008
    1C        H  801   3.823   4.585   5.038
    1C        H  802   3.591   4.648   5.034
    1C        H  803   3.394   4.491   5.048
    1C        H  804   3.154   4.536   5.050
    1C        H  805   3.897   2.473   5.065
    1C        H  806   3.675   2.469   5.077
    1C        H  807   3.019   2.574   5.076
    1C        H  808   3.439   2.455   5.080
    1C        H  809   2.837   2.702   5.066
    1C        H  810   2.699   2.887   5.077
    1C        H  811   2.494   3.290   5.069
    1C        H  812   2.571   3.501   5.066
    1C        H  813   2.501   3.740   5.068
    1C        H  814   2.591   4.182   5.047
    1C        H  815   2.789   4.283   5.059
    1C        H  816   2.714   2.890   1.979
    1C        H  817   2.876   2.714   1.978
    1C        H  818   3.206   2.403   2.005
    1C        H  819   3.456   2.507   1.991
    1C        H  820   3.885   2.469   1.995
    1C        H  821   4.023   2.684   1.983
    1C        H  822   4.260   2.713   1.975
    1C        H  823   4.420   2.889   1.974
    1C        H  824   4.561   3.313   1.971
    1C        H  825   4.503   3.518   1.959
    1C        H  826   4.466   3.746   1.967
    1C        H  827   3.807   4.552   1.957
    1C        H  828   3.982   4.405   1.946
    1C        H  829   4.149   4.244   1.950
    1C        H  830   4.492   3.962   1.963
    1C        H  831   2.588   3.869   1.962
    1C        H  832   2.709   4.064   1.960
    1C        H  833   2.721   4.294   1.969
    1C        H  834   3.389   4.444   1.959
    1C        H  835   3.153   4.403   1.952
    1C        H  836   2.508   2.991   2.004
    1C        H  837   2.441   3.219   1.984
    1C        H  838   2.469   3.695   1.981
    2V3OU   H29  839   2.802   3.548   1.731
    2V3OU   C27  840   2.790   3.505   1.834
    2V3OU   H27  841   2.729   3.574   1.898
    2V3OU   H28  842   2.730   3.411   1.825
    2V3OU   O11  843   2.917   3.477   1.893
    2V3OU   C15  844   2.924   3.399   2.007
    2V3OU   C13  845   3.053   3.372   2.057
    2V3OU   C14  846   3.083   3.267   2.145
    2V3OU   C16  847   2.976   3.190   2.189
    2V3OU    H6  848   2.992   3.106   2.258
    2V3OU   C12  849   3.213   3.234   2.208
    2V3OU    O2  850   3.237   3.125   2.265
    2V3OU   C10  851   3.329   3.313   2.163
    2V3OU    C8  852   3.460   3.273   2.189
    2V3OU   O10  853   3.493   3.152   2.242
    2V3OU   H26  854   3.405   3.113   2.255
    2V3OU    C6  855   3.568   3.353   2.142
    2V3OU    C5  856   3.541   3.471   2.073
    2V3OU    C4  857   3.704   3.296   2.122
    2V3OU    H4  858   3.732   3.230   2.209
    2V3OU    H5  859   3.711   3.231   2.030
    2V3OU    C2  860   3.816   3.400   2.123
    2V3OU    O6  861   3.811   3.474   2.245
    2V3OU   H21  862   3.757   3.553   2.234
    2V3OU    C3  863   3.784   3.500   2.011
    2V3OU    H2  864   3.860   3.581   2.009
    2V3OU    H3  865   3.784   3.436   1.919
    2V3OU   C25  866   3.951   3.329   2.106
    2V3OU    O7  867   4.008   3.299   2.002
    2V3OU   C26  868   4.034   3.294   2.229
    2V3OU   H22  869   4.062   3.386   2.285
    2V3OU   H23  870   4.121   3.231   2.199
    2V3OU    O8  871   3.961   3.211   2.316
    2V3OU   H24  872   3.920   3.266   2.386
    2V3OU    C1  873   3.649   3.567   2.033
    2V3OU    H1  874   3.625   3.623   1.938
    2V3OU    O3  875   3.662   3.653   2.147
    2V3OU   C19  876   3.625   3.790   2.138
    2V3OU    H9  877   3.521   3.791   2.093
    2V3OU    O4  878   3.709   3.853   2.044
    2V3OU   C20  879   3.840   3.881   2.096
    2V3OU   H10  880   3.894   3.782   2.103
    2V3OU   C24  881   3.615   3.859   2.274
    2V3OU   H16  882   3.547   3.798   2.339
    2V3OU   H17  883   3.568   3.960   2.257
    2V3OU   C23  884   3.756   3.878   2.330
    2V3OU   H15  885   3.797   3.772   2.344
    2V3OU    N1  886   3.740   3.953   2.453
    2V3OU   H19  887   3.807   3.921   2.521
    2V3OU   H20  888   3.653   3.931   2.498
    2V3OU   C21  889   3.848   3.954   2.230
    2V3OU   H11  890   3.954   3.932   2.262
    2V3OU    O5  891   3.833   4.095   2.217
    2V3OU   H18  892   3.789   4.114   2.301
    2V3OU   C22  893   3.916   3.952   1.986
    2V3OU   H12  894   3.870   4.053   1.972
    2V3OU   H13  895   3.910   3.891   1.892
    2V3OU   H14  896   4.022   3.967   2.019
    2V3OU   C11  897   3.161   3.472   2.057
    2V3OU    O1  898   3.139   3.589   2.020
    2V3OU    C9  899   3.299   3.427   2.084
    2V3OU    C7  900   3.406   3.508   2.046
    2V3OU    O9  901   3.389   3.616   1.962
    2V3OU   H25  902   3.293   3.632   1.962
    2V3OU   C17  903   2.820   3.314   2.047
    2V3OU    H7  904   2.717   3.337   2.019
    2V3OU   C18  905   2.849   3.213   2.139
    2V3OU    H8  906   2.765   3.158   2.184
    3SOL     OW  907   2.592   4.365   0.753
    3SOL    HW1  908   2.633   4.303   0.686
    3SOL    HW2  909   2.622   4.339   0.845
    4SOL     OW  910   6.389   5.492   2.034
    4SOL    HW1  911   6.312   5.432   2.059
    4SOL    HW2  912   6.475   5.442   2.045
    5SOL     OW  913   3.752   0.935   2.890
    5SOL    HW1  914   3.684   0.889   2.947
    5SOL    HW2  915   3.827   0.872   2.871
    6SOL     OW  916   4.368   1.422   2.095
    6SOL    HW1  917   4.288   1.471   2.131
    6SOL    HW2  918   4.369   1.428   1.995
    7SOL     OW  919   6.278   3.377   2.143
    7SOL    HW1  920   6.232   3.356   2.229
    7SOL    HW2  921   6.211   3.386   2.070
    8SOL     OW  922   2.582   6.944   4.892
    8SOL    HW1  923   2.666   6.895   4.913
    8SOL    HW2  924   2.559   7.004   4.968
    9SOL     OW  925   1.026   5.289   5.877
    9SOL    HW1  926   1.003   5.381   5.907
    9SOL    HW2  927   1.044   5.231   5.957
   10SOL     OW  928   1.307   4.629   5.690
   10SOL    HW1  929   1.230   4.691   5.676
   10SOL    HW2  930   1.386   4.681   5.724
   11SOL     OW  931   2.722   0.092   7.013
   11SOL    HW1  932   2.720   0.182   6.971
   11SOL    HW2  933   2.652   0.086   0.056
   12SOL     OW  934   4.164   6.166   4.430
   12SOL    HW1  935   4.235   6.204   4.370
   12SOL    HW2  936   4.147   6.229   4.506
   13SOL     OW  937   3.166   5.961   3.913
   13SOL    HW1  938   3.142   5.914   3.998
   13SOL    HW2  939   3.137   5.905   3.835
   14SOL     OW  940   4.938   5.748   6.598
   14SOL    HW1  941   4.857   5.691   6.608
   14SOL    HW2  942   4.914   5.830   6.545
   15SOL     OW  943   1.353   5.152   0.858
   15SOL    HW1  944   1.263   5.196   0.851
   15SOL    HW2  945   1.423   5.222   0.868
   16SOL     OW  946   5.847   2.740   5.437
   16SOL    HW1  947   5.868   2.725   5.534
   16SOL    HW2  948   5.899   2.675   5.381
   17SOL     OW  949   5.870   6.229   4.899
   17SOL    HW1  950   5.940   6.202   4.964
   17SOL    HW2  951   5.815   6.303   4.938
   18SOL     OW  952   2.992   1.211   6.807
   18SOL    HW1  953   3.009   1.241   6.713
   18SOL    HW2  954   2.978   1.111   6.808
   19SOL     OW  955   0.407   0.234   3.233
   19SOL    HW1  956   0.439   0.169   3.164
   19SOL    HW2  957   0.486   0.280   3.275
   20SOL     OW  958   3.914   1.697   3.806
   20SOL    HW1  959   4.003   1.713   3.764
   20SOL    HW2  960   3.914   1.737   3.898
   21SOL     OW  961   3.175   2.114   2.038
   21SOL    HW1  962   3.136   2.125   1.947
   21SOL    HW2  963   3.115   2.158   2.105
   22SOL     OW  964   2.346   0.250   0.582
   22SOL    HW1  965   2.386   0.173   0.531
   22SOL    HW2  966   2.363   0.238   0.679
   23SOL     OW  967   4.298   6.701   3.382
   23SOL    HW1  968   4.279   6.605   3.361
   23SOL    HW2  969   4.305   6.753   3.297
   24SOL     OW  970   4.903   1.322   3.577
   24SOL    HW1  971   4.874   1.388   3.646
   24SOL    HW2  972   4.830   1.310   3.509
   25SOL     OW  973   3.335   6.286   5.730
   25SOL    HW1  974   3.249   6.275   5.779
   25SOL    HW2  975   3.388   6.202   5.736
   26SOL     OW  976   6.412   1.352   0.854
   26SOL    HW1  977   6.468   1.435   0.857
   26SOL    HW2  978   6.363   1.342   0.941
   27SOL     OW  979   0.455   1.796   1.563
   27SOL    HW1  980   0.375   1.759   1.515
   27SOL    HW2  981   0.429   1.819   1.657
   28SOL     OW  982   3.832   1.151   6.818
   28SOL    HW1  983   3.817   1.079   6.749
   28SOL    HW2  984   3.846   1.108   6.907
   29SOL     OW  985   5.751   2.551   1.912
   29SOL    HW1  986   5.787   2.526   2.002
   29SOL    HW2  987   5.789   2.640   1.885
   30SOL     OW  988   4.104   0.196   5.520
   30SOL    HW1  989   4.141   0.122   5.576
   30SOL    HW2  990   4.175   0.232   5.460
   31SOL     OW  991   0.700   2.182   5.917
   31SOL    HW1  992   0.762   2.212   5.989
   31SOL    HW2  993   0.746   2.184   5.828
   32SOL     OW  994   0.119   1.014   3.193
   32SOL    HW1  995   0.027   1.030   3.229
   32SOL    HW2  996   0.159   0.934   3.239
   33SOL     OW  997   2.565   3.729   0.325
   33SOL    HW1  998   2.589   3.642   0.370
   33SOL    HW2  999   2.525   3.711   0.236
   34SOL     OW 1000   2.065   1.099   3.784
   34SOL    HW1 1001   2.129   1.046   3.728
   34SOL    HW2 1002   2.094   1.194   3.788
   35SOL     OW 1003   3.875   1.786   6.944
   35SOL    HW1 1004   3.782   1.764   6.970
   35SOL    HW2 1005   3.881   1.797   6.845
   36SOL     OW 1006   0.497   0.877   6.526
   36SOL    HW1 1007   0.593   0.855   6.547
   36SOL    HW2 1008   0.473   0.836   6.438
   37SOL     OW 1009   1.792   1.034   6.942
   37SOL    HW1 1010   1.830   0.989   6.860
   37SOL    HW2 1011   1.822   0.984   7.023
   38SOL     OW 1012   0.508   5.171   2.762
   38SOL    HW1 1013   0.425   5.183   2.707
   38SOL    HW2 1014   0.563   5.097   2.722
   39SOL     OW 1015   6.231   4.685   6.877
   39SOL    HW1 1016   6.324   4.686   6.839
   39SOL    HW2 1017   6.234   4.656   6.973
   40SOL     OW 1018   5.933   2.625   1.303
   40SOL    HW1 1019   5.852   2.568   1.308
   40SOL    HW2 1020   5.932   2.678   1.219
   41SOL     OW 1021   0.602   6.689   4.272
   41SOL    HW1 1022   0.547   6.642   4.340
   41SOL    HW2 1023   0.648   6.622   4.214
   42SOL     OW 1024   2.771   6.115   6.249
   42SOL    HW1 1025   2.673   6.101   6.242
   42SOL    HW2 1026   2.797   6.125   6.345
   43SOL     OW 1027   5.829   6.315   5.892
   43SOL    HW1 1028   5.867   6.328   5.801
   43SOL    HW2 1029   5.729   6.309   5.887
   44SOL     OW 1030   5.826   2.401   6.091
   44SOL    HW1 1031   5.822   2.425   6.188
   44SOL    HW2 1032   5.770   2.465   6.038
   45SOL     OW 1033   3.184   0.142   3.344
   45SOL    HW1 1034   3.280   0.115   3.346
   45SOL    HW2 1035   3.154   0.162   3.437
   46SOL     OW 1036   1.451   3.388   4.531
   46SOL    HW1 1037   1.453   3.421   4.436
   46SOL    HW2 1038   1.370   3.425   4.577
   47SOL     OW 1039   5.548   4.113   2.675
   47SOL    HW1 1040   5.482   4.182   2.645
   47SOL    HW2 1041   5.558   4.044   2.604
   48SOL     OW 1042   0.214   2.943   5.330
   48SOL    HW1 1043   0.117   2.935   5.309
   48SOL    HW2 1044   0.264   2.868   5.287
   49SOL     OW 1045   4.248   4.006   1.734
   49SOL    HW1 1046   4.300   4.068   1.793
   49SOL    HW2 1047   4.248   3.914   1.774
   50SOL     OW 1048   6.500   2.931   5.723
   50SOL    HW1 1049   6.415   2.903   5.769
   50SOL    HW2 1050   6.478   2.975   5.636
   51SOL     OW 1051   3.235   6.242   3.163
   51SOL    HW1 1052   3.143   6.219   3.133
   51SOL    HW2 1053   3.233   6.330   3.211
   52SOL     OW 1054   5.197   2.786   3.598
   52SOL    HW1 1055   5.228   2.755   3.508
   52SOL    HW2 1056   5.119   2.730   3.626
   53SOL     OW 1057   4.405   0.519   4.773
   53SOL    HW1 1058   4.418   0.610   4.813
   53SOL    HW2 1059   4.460   0.512   4.690
   54SOL     OW 1060   3.972   4.807   0.727
   54SOL    HW1 1061   3.906   4.733   0.713
   54SOL    HW2 1062   3.924   4.890   0.756
   55SOL     OW 1063   3.565   1.362   6.182
   55SOL    HW1 1064   3.658   1.394   6.200
   55SOL    HW2 1065   3.548   1.363   6.083
   56SOL     OW 1066   1.124   0.495   1.423
   56SOL    HW1 1067   1.091   0.413   1.470
   56SOL    HW2 1068   1.094   0.576   1.472
   57SOL     OW 1069   5.479   0.671   0.778
   57SOL    HW1 1070   5.511   0.742   0.841
   57SOL    HW2 1071   5.505   0.581   0.812
   58SOL     OW 1072   6.732   6.505   5.324
   58SOL    HW1 1073   6.756   6.453   5.242
   58SOL    HW2 1074   6.785   6.472   5.401
   59SOL     OW 1075   1.913   1.473   5.800
   59SOL    HW1 1076   1.983   1.418   5.845
   59SOL    HW2 1077   1.944   1.568   5.793
   60SOL     OW 1078   6.034   1.147   6.083
   60SOL    HW1 1079   6.044   1.050   6.104
   60SOL    HW2 1080   6.017   1.158   5.985
   61SOL     OW 1081   5.031   1.742   4.309
   61SOL    HW1 1082   4.945   1.753   4.358
   61SOL    HW2 1083   5.081   1.829   4.307
   62SOL     OW 1084   0.153   0.565   3.538
   62SOL    HW1 1085   0.144   0.652   3.489
   62SOL    HW2 1086   0.246   0.530   3.527
   63SOL     OW 1087   6.713   1.143   3.873
   63SOL    HW1 1088   6.659   1.206   3.930
   63SOL    HW2 1089   6.655   1.106   3.801
   64SOL     OW 1090   0.204   3.812   6.570
   64SOL    HW1 1091   0.198   3.889   6.634
   64SOL    HW2 1092   0.275   3.749   6.600
   65SOL     OW 1093   6.779   4.661   5.339
   65SOL    HW1 1094   6.857   4.657   5.276
   65SOL    HW2 1095   6.759   4.570   5.373
   66SOL     OW 1096   3.664   0.559   6.567
   66SOL    HW1 1097   3.590   0.613   6.606
   66SOL    HW2 1098   3.716   0.615   6.502
   67SOL     OW 1099   5.478   4.692   5.376
   67SOL    HW1 1100   5.445   4.714   5.284
   67SOL    HW2 1101   5.577   4.705   5.379
   68SOL     OW 1102   5.643   0.501   6.482
   68SOL    HW1 1103   5.702   0.433   6.439
   68SOL    HW2 1104   5.697   0.582   6.505
   69SOL     OW 1105   1.418   3.511   6.560
   69SOL    HW1 1106   1.485   3.574   6.599
   69SOL    HW2 1107   1.422   3.515   6.460
   70SOL     OW 1108   6.504   4.747   3.726
   70SOL    HW1 1109   6.443   4.747   3.805
   70SOL    HW2 1110   6.598   4.757   3.757
   71SOL     OW 1111   4.097   2.003   2.852
   71SOL    HW1 1112   4.082   2.102   2.843
   71SOL    HW2 1113   4.096   1.961   2.761
   72SOL     OW 1114   2.906   5.875   4.544
   72SOL    HW1 1115   2.994   5.882   4.590
   72SOL    HW2 1116   2.913   5.913   4.451
   73SOL     OW 1117   3.484   1.872   0.829
   73SOL    HW1 1118   3.544   1.857   0.907
   73SOL    HW2 1119   3.407   1.808   0.833
   74SOL     OW 1120   5.434   6.246   6.182
   74SOL    HW1 1121   5.473   6.160   6.148
   74SOL    HW2 1122   5.410   6.304   6.104
   75SOL     OW 1123   3.676   0.000   6.486
   75SOL    HW1 1124   3.599   7.001   6.427
   75SOL    HW2 1125   3.718   0.083   6.450
   76SOL     OW 1126   2.080   2.750   1.418
   76SOL    HW1 1127   2.105   2.789   1.506
   76SOL    HW2 1128   1.996   2.696   1.428
   77SOL     OW 1129   5.267   6.337   4.386
   77SOL    HW1 1130   5.174   6.360   4.356
   77SOL    HW2 1131   5.263   6.268   4.458
   78SOL     OW 1132   5.721   0.526   5.635
   78SOL    HW1 1133   5.797   0.584   5.663
   78SOL    HW2 1134   5.692   0.470   5.714
   79SOL     OW 1135   3.272   0.244   0.464
   79SOL    HW1 1136   3.356   0.196   0.442
   79SOL    HW2 1137   3.281   0.290   0.553
   80SOL     OW 1138   5.523   1.463   4.748
   80SOL    HW1 1139   5.455   1.536   4.738
   80SOL    HW2 1140   5.504   1.390   4.683
   81SOL     OW 1141   2.102   0.107   2.835
   81SOL    HW1 1142   2.115   0.174   2.908
   81SOL    HW2 1143   2.191   0.081   2.798
   82SOL     OW 1144   6.593   5.679   0.490
   82SOL    HW1 1145   6.554   5.724   0.571
   82SOL    HW2 1146   6.692   5.686   0.493
   83SOL     OW 1147   6.345   0.595   0.670
   83SOL    HW1 1148   6.422   0.548   0.625
   83SOL    HW2 1149   6.350   0.693   0.649
   84SOL     OW 1150   4.897   3.149   3.485
   84SOL    HW1 1151   4.891   3.090   3.405
   84SOL    HW2 1152   4.880   3.095   3.568
   85SOL     OW 1153   1.778   2.082   5.197
   85SOL    HW1 1154   1.694   2.039   5.228
   85SOL    HW2 1155   1.756   2.162   5.141
   86SOL     OW 1156   0.743   0.573   5.800
   86SOL    HW1 1157   0.818   0.590   5.736
   86SOL    HW2 1158   0.779   0.537   5.886
   87SOL     OW 1159   4.970   3.577   0.314
   87SOL    HW1 1160   4.991   3.574   0.412
   87SOL    HW2 1161   4.925   3.492   0.287
   88SOL     OW 1162   4.133   1.887   6.378
   88SOL    HW1 1163   4.160   1.975   6.416
   88SOL    HW2 1164   4.206   1.820   6.395
   89SOL     OW 1165   1.171   2.895   6.332
   89SOL    HW1 1166   1.187   2.897   6.233
   89SOL    HW2 1167   1.257   2.907   6.380
   90SOL     OW 1168   4.165   6.153   4.037
   90SOL    HW1 1169   4.089   6.139   3.973
   90SOL    HW2 1170   4.241   6.196   3.989
   91SOL     OW 1171   4.738   4.121   4.354
   91SOL    HW1 1172   4.821   4.108   4.409
   91SOL    HW2 1173   4.731   4.049   4.285
   92SOL     OW 1174   2.933   4.078   0.816
   92SOL    HW1 1175   2.963   4.051   0.725
   92SOL    HW2 1176   2.842   4.040   0.833
   93SOL     OW 1177   2.272   4.328   6.840
   93SOL    HW1 1178   2.246   4.232   6.839
   93SOL    HW2 1179   2.270   4.365   6.747
   94SOL     OW 1180   2.499   6.067   6.211
   94SOL    HW1 1181   2.457   6.142   6.263
   94SOL    HW2 1182   2.492   6.086   6.113
   95SOL     OW 1183   0.676   1.173   2.871
   95SOL    HW1 1184   0.625   1.188   2.955
   95SOL    HW2 1185   0.771   1.148   2.893
   96SOL     OW 1186   3.416   6.944   5.398
   96SOL    HW1 1187   3.365   6.862   5.423
   96SOL    HW2 1188   3.403   6.962   5.300
   97SOL     OW 1189   1.025   3.430   5.748
   97SOL    HW1 1190   1.076   3.508   5.785
   97SOL    HW2 1191   1.082   3.348   5.753
   98SOL     OW 1192   6.482   3.970   0.243
   98SOL    HW1 1193   6.394   4.017   0.246
   98SOL    HW2 1194   6.513   3.963   0.148
   99SOL     OW 1195   4.408   4.005   0.830
   99SOL    HW1 1196   4.331   3.950   0.799
   99SOL    HW2 1197   4.438   3.973   0.919
  100SOL     OW 1198   0.375   0.180   5.923
  100SOL    HW1 1199   0.366   0.228   5.836
  100SOL    HW2 1200   0.465   0.136   5.928
  101SOL     OW 1201   1.422   5.774   2.888
  101SOL    HW1 1202   1.478   5.815   2.816
  101SOL    HW2 1203   1.482   5.741   2.961
  102SOL     OW 1204   4.264   0.564   2.172
  102SOL    HW1 1205   4.304   0.600   2.088
  102SOL    HW2 1206   4.330   0.571   2.247
  103SOL     OW 1207   3.620   0.911   2.389
  103SOL    HW1 1208   3.574   0.831   2.349
  103SOL    HW2 1209   3.706   0.927   2.341
  104SOL     OW 1210   6.924   5.391   2.606
  104SOL    HW1 1211   6.824   5.395   2.599
  104SOL    HW2 1212   6.962   5.480   2.582
  105SOL     OW 1213   6.640   2.361   6.364
  105SOL    HW1 1214   6.688   2.306   6.432
  105SOL    HW2 1215   6.578   2.425   6.410
  106SOL     OW 1216   3.458   6.337   4.660
  106SOL    HW1 1217   3.518   6.288   4.596
  106SOL    HW2 1218   3.363   6.318   4.638
  107SOL     OW 1219   1.514   2.162   1.785
  107SOL    HW1 1220   1.609   2.190   1.774
  107SOL    HW2 1221   1.461   2.238   1.822
  108SOL     OW 1222   3.766   5.510   5.963
  108SOL    HW1 1223   3.856   5.500   5.919
  108SOL    HW2 1224   3.695   5.481   5.899
  109SOL     OW 1225   0.730   1.219   1.575
  109SOL    HW1 1226   0.757   1.212   1.479
  109SOL    HW2 1227   0.639   1.180   1.588
  110SOL     OW 1228   3.944   6.409   5.238
  110SOL    HW1 1229   3.914   6.356   5.159
  110SOL    HW2 1230   3.946   6.351   5.319
  111SOL     OW 1231   3.155   0.667   5.101
  111SOL    HW1 1232   3.199   0.675   5.190
  111SOL    HW2 1233   3.211   0.610   5.041
  112SOL     OW 1234   5.938   6.320   6.373
  112SOL    HW1 1235   5.855   6.341   6.321
  112SOL    HW2 1236   6.017   6.323   6.312
  113SOL     OW 1237   6.512   4.858   3.475
  113SOL    HW1 1238   6.511   4.829   3.571
  113SOL    HW2 1239   6.601   4.838   3.435
  114SOL     OW 1240   1.031   0.279   1.568
  114SOL    HW1 1241   0.954   0.221   1.595
  114SOL    HW2 1242   1.097   0.284   1.643
  115SOL     OW 1243   3.465   1.483   3.548
  115SOL    HW1 1244   3.518   1.449   3.626
  115SOL    HW2 1245   3.374   1.510   3.578
  116SOL     OW 1246   6.001   5.272   2.063
  116SOL    HW1 1247   5.990   5.315   2.153
  116SOL    HW2 1248   6.095   5.239   2.053
  117SOL     OW 1249   1.370   1.468   6.501
  117SOL    HW1 1250   1.406   1.452   6.409
  117SOL    HW2 1251   1.281   1.425   6.510
  118SOL     OW 1252   1.609   1.541   2.819
  118SOL    HW1 1253   1.552   1.460   2.808
  118SOL    HW2 1254   1.567   1.602   2.886
  119SOL     OW 1255   1.066   1.927   6.240
  119SOL    HW1 1256   1.001   1.953   6.312
  119SOL    HW2 1257   1.107   1.838   6.262
  120SOL     OW 1258   6.030   6.673   0.455
  120SOL    HW1 1259   6.041   6.748   0.389
  120SOL    HW2 1260   6.055   6.706   0.547
  121SOL     OW 1261   2.236   4.032   6.832
  121SOL    HW1 1262   2.286   4.031   6.745
  121SOL    HW2 1263   2.258   3.949   6.884
  122SOL     OW 1264   1.590   4.657   0.003
  122SOL    HW1 1265   1.680   4.701   7.027
  122SOL    HW2 1266   1.530   4.698   6.960
  123SOL     OW 1267   0.153   2.102   1.457
  123SOL    HW1 1268   0.122   2.191   1.491
  123SOL    HW2 1269   0.252   2.094   1.470
  124SOL     OW 1270   5.281   3.194   0.411
  124SOL    HW1 1271   5.277   3.257   0.334
  124SOL    HW2 1272   5.203   3.209   0.471
  125SOL     OW 1273   2.447   1.685   2.103
  125SOL    HW1 1274   2.396   1.717   2.023
  125SOL    HW2 1275   2.505   1.759   2.137
  126SOL     OW 1276   2.645   3.989   1.117
  126SOL    HW1 1277   2.716   4.055   1.142
  126SOL    HW2 1278   2.572   4.036   1.067
  127SOL     OW 1279   0.051   5.694   5.952
  127SOL    HW1 1280   0.120   5.634   5.912
  127SOL    HW2 1281   7.002   5.639   5.986
  128SOL     OW 1282   4.549   2.387   1.484
  128SOL    HW1 1283   4.587   2.373   1.392
  128SOL    HW2 1284   4.518   2.299   1.520
  129SOL     OW 1285   3.616   3.100   6.030
  129SOL    HW1 1286   3.566   3.033   5.975
  129SOL    HW2 1287   3.556   3.135   6.102
  130SOL     OW 1288   0.479   1.204   4.301
  130SOL    HW1 1289   0.510   1.293   4.334
  130SOL    HW2 1290   0.429   1.156   4.373
  131SOL     OW 1291   5.181   1.605   2.703
  131SOL    HW1 1292   5.247   1.557   2.760
  131SOL    HW2 1293   5.208   1.701   2.695
  132SOL     OW 1294   2.598   2.890   0.559
  132SOL    HW1 1295   2.649   2.943   0.491
  132SOL    HW2 1296   2.658   2.864   0.634
  133SOL     OW 1297   4.536   6.646   3.951
  133SOL    HW1 1298   4.539   6.693   4.040
  133SOL    HW2 1299   4.460   6.682   3.897
  134SOL     OW 1300   5.997   1.487   2.392
  134SOL    HW1 1301   5.963   1.445   2.477
  134SOL    HW2 1302   6.073   1.433   2.356
  135SOL     OW 1303   5.680   3.119   2.313
  135SOL    HW1 1304   5.764   3.162   2.280
  135SOL    HW2 1305   5.603   3.180   2.299
  136SOL     OW 1306   3.199   3.753   6.365
  136SOL    HW1 1307   3.285   3.702   6.370
  136SOL    HW2 1308   3.188   3.792   6.274
  137SOL     OW 1309   5.282   0.920   5.008
  137SOL    HW1 1310   5.305   0.982   4.932
  137SOL    HW2 1311   5.352   0.926   5.078
  138SOL     OW 1312   0.621   4.568   3.621
  138SOL    HW1 1313   0.604   4.473   3.595
  138SOL    HW2 1314   0.578   4.629   3.553
  139SOL     OW 1315   2.936   6.598   4.827
  139SOL    HW1 1316   3.027   6.576   4.864
  139SOL    HW2 1317   2.905   6.684   4.866
  140SOL     OW 1318   0.681   5.632   3.478
  140SOL    HW1 1319   0.747   5.703   3.453
  140SOL    HW2 1320   0.722   5.570   3.545
  141SOL     OW 1321   6.077   3.435   5.224
  141SOL    HW1 1322   6.149   3.402   5.163
  141SOL    HW2 1323   6.066   3.534   5.212
  142SOL     OW 1324   1.787   4.567   0.499
  142SOL    HW1 1325   1.883   4.550   0.478
  142SOL    HW2 1326   1.730   4.527   0.427
  143SOL     OW 1327   5.696   4.298   1.723
  143SOL    HW1 1328   5.767   4.354   1.766
  143SOL    HW2 1329   5.735   4.244   1.649
  144SOL     OW 1330   1.384   6.263   6.939
  144SOL    HW1 1331   1.479   6.234   6.945
  144SOL    HW2 1332   1.378   6.351   6.891
  145SOL     OW 1333   0.518   4.987   0.163
  145SOL    HW1 1334   0.505   5.086   0.156
  145SOL    HW2 1335   0.523   4.947   0.071
  146SOL     OW 1336   4.850   0.390   6.316
  146SOL    HW1 1337   4.832   0.488   6.326
  146SOL    HW2 1338   4.947   0.376   6.298
  147SOL     OW 1339   5.727   3.369   7.010
  147SOL    HW1 1340   5.686   3.459   6.995
  147SOL    HW2 1341   5.706   3.337   0.075
  148SOL     OW 1342   0.178   4.849   6.509
  148SOL    HW1 1343   0.250   4.799   6.461
  148SOL    HW2 1344   0.212   4.940   6.534
  149SOL     OW 1345   3.172   1.992   4.577
  149SOL    HW1 1346   3.143   1.897   4.580
  149SOL    HW2 1347   3.118   2.045   4.643
  150SOL     OW 1348   5.627   5.690   6.222
  150SOL    HW1 1349   5.546   5.719   6.172
  150SOL    HW2 1350   5.607   5.685   6.320
  151SOL     OW 1351   3.241   2.511   1.058
  151SOL    HW1 1352   3.150   2.471   1.065
  151SOL    HW2 1353   3.265   2.557   1.143
  152SOL     OW 1354   1.664   1.773   3.430
  152SOL    HW1 1355   1.620   1.731   3.509
  152SOL    HW2 1356   1.749   1.724   3.409
  153SOL     OW 1357   2.554   0.347   1.483
  153SOL    HW1 1358   2.498   0.268   1.507
  153SOL    HW2 1359   2.643   0.339   1.527
  154SOL     OW 1360   0.597   2.083   3.157
  154SOL    HW1 1361   0.656   2.154   3.120
  154SOL    HW2 1362   0.506   2.120   3.174
  155SOL     OW 1363   6.972   1.220   3.464
  155SOL    HW1 1364   6.950   1.316   3.443
  155SOL    HW2 1365   6.943   1.199   3.557
  156SOL     OW 1366   0.123   1.978   0.691
  156SOL    HW1 1367   0.090   1.883   0.691
  156SOL    HW2 1368   0.071   2.031   0.758
  157SOL     OW 1369   6.429   3.135   2.080
  157SOL    HW1 1370   6.369   3.213   2.097
  157SOL    HW2 1371   6.452   3.131   1.983
  158SOL     OW 1372   2.862   6.056   2.124
  158SOL    HW1 1373   2.855   6.155   2.122
  158SOL    HW2 1374   2.779   6.017   2.164
  159SOL     OW 1375   4.618   4.351   1.689
  159SOL    HW1 1376   4.554   4.305   1.750
  159SOL    HW2 1377   4.578   4.358   1.598
  160SOL     OW 1378   6.451   5.474   0.373
  160SOL    HW1 1379   6.490   5.552   0.422
  160SOL    HW2 1380   6.524   5.417   0.337
  161SOL     OW 1381   2.131   5.485   5.115
  161SOL    HW1 1382   2.204   5.421   5.091
  161SOL    HW2 1383   2.163   5.579   5.104
  162SOL     OW 1384   3.755   6.551   0.315
  162SOL    HW1 1385   3.814   6.470   0.315
  162SOL    HW2 1386   3.692   6.545   0.237
  163SOL     OW 1387   5.263   5.622   1.178
  163SOL    HW1 1388   5.222   5.648   1.091
  163SOL    HW2 1389   5.361   5.611   1.167
  164SOL     OW 1390   6.704   5.077   0.808
  164SOL    HW1 1391   6.623   5.081   0.750
  164SOL    HW2 1392   6.692   5.007   0.878
  165SOL     OW 1393   5.510   3.194   1.523
  165SOL    HW1 1394   5.449   3.228   1.452
  165SOL    HW2 1395   5.459   3.182   1.608
  166SOL     OW 1396   0.136   5.037   3.370
  166SOL    HW1 1397   0.178   5.112   3.318
  166SOL    HW2 1398   0.194   5.016   3.449
  167SOL     OW 1399   5.894   2.470   6.993
  167SOL    HW1 1400   5.963   2.533   6.957
  167SOL    HW2 1401   5.831   2.520   0.025
  168SOL     OW 1402   2.403   3.637   1.308
  168SOL    HW1 1403   2.489   3.672   1.271
  168SOL    HW2 1404   2.422   3.587   1.393
  169SOL     OW 1405   4.008   0.567   1.783
  169SOL    HW1 1406   3.961   0.607   1.861
  169SOL    HW2 1407   3.948   0.571   1.703
  170SOL     OW 1408   0.388   0.805   3.559
  170SOL    HW1 1409   0.386   0.710   3.529
  170SOL    HW2 1410   0.438   0.860   3.492
  171SOL     OW 1411   3.921   4.395   0.509
  171SOL    HW1 1412   4.002   4.360   0.555
  171SOL    HW2 1413   3.892   4.329   0.439
  172SOL     OW 1414   6.464   2.123   4.176
  172SOL    HW1 1415   6.559   2.154   4.167
  172SOL    HW2 1416   6.463   2.032   4.218
  173SOL     OW 1417   6.798   1.897   4.138
  173SOL    HW1 1418   6.721   1.833   4.136
  173SOL    HW2 1419   6.827   1.912   4.232
  174SOL     OW 1420   3.502   5.676   4.005
  174SOL    HW1 1421   3.471   5.755   3.952
  174SOL    HW2 1422   3.450   5.595   3.977
  175SOL     OW 1423   2.314   6.815   2.295
  175SOL    HW1 1424   2.222   6.824   2.258
  175SOL    HW2 1425   2.377   6.875   2.246
  176SOL     OW 1426   0.858   4.343   1.315
  176SOL    HW1 1427   0.957   4.351   1.327
  176SOL    HW2 1428   0.827   4.256   1.355
  177SOL     OW 1429   5.756   2.843   2.754
  177SOL    HW1 1430   5.719   2.932   2.781
  177SOL    HW2 1431   5.767   2.841   2.654
  178SOL     OW 1432   3.522   2.628   6.458
  178SOL    HW1 1433   3.508   2.580   6.372
  178SOL    HW2 1434   3.619   2.629   6.480
  179SOL     OW 1435   2.352   1.769   6.064
  179SOL    HW1 1436   2.310   1.749   5.976
  179SOL    HW2 1437   2.290   1.743   6.138
  180SOL     OW 1438   1.698   7.019   6.474
  180SOL    HW1 1439   1.605   6.986   6.486
  180SOL    HW2 1440   1.708   0.083   6.516
  181SOL     OW 1441   3.420   1.828   6.299
  181SOL    HW1 1442   3.394   1.869   6.211
  181SOL    HW2 1443   3.338   1.807   6.352
  182SOL     OW 1444   3.711   2.049   4.219
  182SOL    HW1 1445   3.635   1.999   4.177
  182SOL    HW2 1446   3.682   2.086   4.307
  183SOL     OW 1447   3.435   2.142   3.575
  183SOL    HW1 1448   3.495   2.141   3.496
  183SOL    HW2 1449   3.456   2.064   3.634
  184SOL     OW 1450   1.753   6.326   4.254
  184SOL    HW1 1451   1.814   6.403   4.274
  184SOL    HW2 1452   1.678   6.324   4.320
  185SOL     OW 1453   0.834   1.915   6.374
  185SOL    HW1 1454   0.770   1.859   6.322
  185SOL    HW2 1455   0.812   2.012   6.363
  186SOL     OW 1456   6.099   1.360   3.804
  186SOL    HW1 1457   6.171   1.290   3.807
  186SOL    HW2 1458   6.023   1.331   3.862
  187SOL     OW 1459   4.728   0.709   2.973
  187SOL    HW1 1460   4.711   0.787   2.914
  187SOL    HW2 1461   4.660   0.637   2.953
  188SOL     OW 1462   6.486   1.850   2.050
  188SOL    HW1 1463   6.538   1.772   2.085
  188SOL    HW2 1464   6.545   1.930   2.044
  189SOL     OW 1465   1.944   5.305   1.886
  189SOL    HW1 1466   1.854   5.295   1.843
  189SOL    HW2 1467   2.006   5.235   1.852
  190SOL     OW 1468   4.294   1.341   4.352
  190SOL    HW1 1469   4.326   1.361   4.260
  190SOL    HW2 1470   4.358   1.381   4.418
  191SOL     OW 1471   5.511   5.786   5.984
  191SOL    HW1 1472   5.543   5.832   5.901
  191SOL    HW2 1473   5.436   5.724   5.962
  192SOL     OW 1474   0.018   6.028   1.698
  192SOL    HW1 1475   0.007   6.031   1.797
  192SOL    HW2 1476   0.049   5.937   1.670
  193SOL     OW 1477   4.745   2.333   5.369
  193SOL    HW1 1478   4.711   2.421   5.337
  193SOL    HW2 1479   4.809   2.346   5.444
  194SOL     OW 1480   3.391   0.391   2.855
  194SOL    HW1 1481   3.469   0.414   2.914
  194SOL    HW2 1482   3.382   0.292   2.847
  195SOL     OW 1483   1.941   6.511   4.276
  195SOL    HW1 1484   1.918   6.569   4.354
  195SOL    HW2 1485   2.003   6.560   4.215
  196SOL     OW 1486   2.489   1.366   6.753
  196SOL    HW1 1487   2.436   1.446   6.781
  196SOL    HW2 1488   2.579   1.368   6.798
  197SOL     OW 1489   2.203   0.925   0.678
  197SOL    HW1 1490   2.233   0.841   0.722
  197SOL    HW2 1491   2.116   0.910   0.632
  198SOL     OW 1492   5.006   1.356   3.122
  198SOL    HW1 1493   4.950   1.387   3.045
  198SOL    HW2 1494   4.987   1.415   3.201
  199SOL     OW 1495   1.075   1.962   4.297
  199SOL    HW1 1496   1.141   1.918   4.358
  199SOL    HW2 1497   1.065   1.908   4.214
  200SOL     OW 1498   1.230   3.503   0.792
  200SOL    HW1 1499   1.182   3.570   0.737
  200SOL    HW2 1500   1.164   3.439   0.832
  201SOL     OW 1501   0.500   6.026   5.527
  201SOL    HW1 1502   0.542   6.100   5.581
  201SOL    HW2 1503   0.403   6.021   5.549
  202SOL     OW 1504   3.560   1.883   6.519
  202SOL    HW1 1505   3.589   1.814   6.585
  202SOL    HW2 1506   3.524   1.837   6.437
  203SOL     OW 1507   6.340   2.020   5.007
  203SOL    HW1 1508   6.308   1.937   4.964
  203SOL    HW2 1509   6.269   2.057   5.067
  204SOL     OW 1510   1.144   0.015   4.337
  204SOL    HW1 1511   1.126   0.059   4.249
  204SOL    HW2 1512   1.194   6.957   4.323
  205SOL     OW 1513   1.416   2.782   2.928
  205SOL    HW1 1514   1.341   2.835   2.969
  205SOL    HW2 1515   1.419   2.799   2.830
  206SOL     OW 1516   0.650   3.674   1.208
  206SOL    HW1 1517   0.619   3.581   1.228
  206SOL    HW2 1518   0.696   3.712   1.288
  207SOL     OW 1519   5.868   1.084   3.799
  207SOL    HW1 1520   5.832   1.082   3.706
  207SOL    HW2 1521   5.913   0.996   3.819
  208SOL     OW 1522   0.237   3.725   5.872
  208SOL    HW1 1523   0.310   3.787   5.903
  208SOL    HW2 1524   0.217   3.744   5.776
  209SOL     OW 1525   6.861   4.729   3.163
  209SOL    HW1 1526   6.830   4.716   3.069
  209SOL    HW2 1527   6.887   4.641   3.203
  210SOL     OW 1528   4.573   2.103   0.437
  210SOL    HW1 1529   4.492   2.139   0.390
  210SOL    HW2 1530   4.630   2.179   0.468
  211SOL     OW 1531   0.864   6.715   2.465
  211SOL    HW1 1532   0.880   6.715   2.564
  211SOL    HW2 1533   0.921   6.785   2.422
  212SOL     OW 1534   1.311   3.409   2.443
  212SOL    HW1 1535   1.402   3.369   2.449
  212SOL    HW2 1536   1.247   3.353   2.496
  213SOL     OW 1537   1.913   6.232   1.172
  213SOL    HW1 1538   1.859   6.171   1.230
  213SOL    HW2 1539   2.004   6.193   1.160
  214SOL     OW 1540   3.517   5.437   2.845
  214SOL    HW1 1541   3.481   5.506   2.907
  214SOL    HW2 1542   3.612   5.459   2.822
  215SOL     OW 1543   2.944   3.673   1.017
  215SOL    HW1 1544   2.865   3.711   0.969
  215SOL    HW2 1545   2.967   3.584   0.978
  216SOL     OW 1546   0.925   6.076   2.985
  216SOL    HW1 1547   0.851   6.044   2.925
  216SOL    HW2 1548   0.890   6.148   3.045
  217SOL     OW 1549   1.370   2.502   4.829
  217SOL    HW1 1550   1.320   2.511   4.742
  217SOL    HW2 1551   1.362   2.409   4.863
  218SOL     OW 1552   0.819   2.329   4.324
  218SOL    HW1 1553   0.863   2.352   4.411
  218SOL    HW2 1554   0.851   2.392   4.253
  219SOL     OW 1555   4.075   0.011   0.382
  219SOL    HW1 1556   4.063   0.080   0.454
  219SOL    HW2 1557   4.139   0.047   0.314
  220SOL     OW 1558   2.414   0.110   1.466
  220SOL    HW1 1559   2.432   0.069   1.556
  220SOL    HW2 1560   2.371   0.042   1.407
  221SOL     OW 1561   5.820   4.159   1.517
  221SOL    HW1 1562   5.909   4.199   1.499
  221SOL    HW2 1563   5.760   4.172   1.438
  222SOL     OW 1564   1.621   4.494   5.285
  222SOL    HW1 1565   1.668   4.560   5.345
  222SOL    HW2 1566   1.587   4.542   5.204
  223SOL     OW 1567   6.838   3.424   5.880
  223SOL    HW1 1568   6.768   3.354   5.863
  223SOL    HW2 1569   6.862   3.468   5.794
  224SOL     OW 1570   3.297   1.427   6.199
  224SOL    HW1 1571   3.385   1.381   6.184
  224SOL    HW2 1572   3.288   1.449   6.296
  225SOL     OW 1573   4.370   3.998   6.309
  225SOL    HW1 1574   4.397   3.914   6.261
  225SOL    HW2 1575   4.451   4.054   6.325
  226SOL     OW 1576   0.440   1.702   5.965
  226SOL    HW1 1577   0.422   1.674   5.870
  226SOL    HW2 1578   0.433   1.802   5.972
  227SOL     OW 1579   1.687   4.388   2.111
  227SOL    HW1 1580   1.623   4.341   2.051
  227SOL    HW2 1581   1.716   4.325   2.184
  228SOL     OW 1582   2.159   0.106   2.275
  228SOL    HW1 1583   2.125   0.020   2.237
  228SOL    HW2 1584   2.087   0.175   2.273
  229SOL     OW 1585   5.308   5.577   5.696
  229SOL    HW1 1586   5.244   5.579   5.772
  229SOL    HW2 1587   5.309   5.666   5.651
  230SOL     OW 1588   4.505   5.866   4.280
  230SOL    HW1 1589   4.521   5.790   4.343
  230SOL    HW2 1590   4.407   5.874   4.262
  231SOL     OW 1591   5.989   1.247   6.490
  231SOL    HW1 1592   5.959   1.225   6.583
  231SOL    HW2 1593   6.089   1.241   6.485
  232SOL     OW 1594   0.158   3.518   6.725
  232SOL    HW1 1595   0.094   3.521   6.648
  232SOL    HW2 1596   0.174   3.423   6.752
  233SOL     OW 1597   4.088   1.010   2.740
  233SOL    HW1 1598   4.125   1.082   2.799
  233SOL    HW2 1599   4.020   1.050   2.678
  234SOL     OW 1600   5.103   0.885   6.765
  234SOL    HW1 1601   5.073   0.891   6.670
  234SOL    HW2 1602   5.145   0.795   6.780
  235SOL     OW 1603   4.725   2.812   2.196
  235SOL    HW1 1604   4.753   2.747   2.124
  235SOL    HW2 1605   4.726   2.905   2.159
  236SOL     OW 1606   5.248   3.037   7.006
  236SOL    HW1 1607   5.226   2.957   0.035
  236SOL    HW2 1608   5.342   3.029   6.972
  237SOL     OW 1609   0.135   4.358   2.296
  237SOL    HW1 1610   0.095   4.404   2.217
  237SOL    HW2 1611   0.220   4.404   2.322
  238SOL     OW 1612   5.951   1.673   0.401
  238SOL    HW1 1613   5.979   1.658   0.496
  238SOL    HW2 1614   5.994   1.757   0.368
  239SOL     OW 1615   0.736   4.431   0.223
  239SOL    HW1 1616   0.681   4.511   0.199
  239SOL    HW2 1617   0.825   4.462   0.257
  240SOL     OW 1618   0.942   3.152   3.564
  240SOL    HW1 1619   0.999   3.232   3.550
  240SOL    HW2 1620   0.850   3.181   3.590
  241SOL     OW 1621   3.038   2.174   4.784
  241SOL    HW1 1622   2.942   2.202   4.777
  241SOL    HW2 1623   3.074   2.202   4.873
  242SOL     OW 1624   3.284   3.556   3.913
  242SOL    HW1 1625   3.278   3.564   3.813
  242SOL    HW2 1626   3.347   3.482   3.936
  243SOL     OW 1627   5.138   1.427   0.479
  243SOL    HW1 1628   5.044   1.400   0.498
  243SOL    HW2 1629   5.139   1.520   0.441
  244SOL     OW 1630   6.103   3.931   5.364
  244SOL    HW1 1631   6.009   3.961   5.346
  244SOL    HW2 1632   6.148   3.996   5.426
  245SOL     OW 1633   4.432   1.965   4.056
  245SOL    HW1 1634   4.498   2.025   4.011
  245SOL    HW2 1635   4.350   2.017   4.078
  246SOL     OW 1636   4.619   1.840   3.120
  246SOL    HW1 1637   4.551   1.779   3.161
  246SOL    HW2 1638   4.633   1.919   3.179
  247SOL     OW 1639   2.802   1.904   0.949
  247SOL    HW1 1640   2.858   1.913   0.867
  247SOL    HW2 1641   2.721   1.850   0.929
  248SOL     OW 1642   3.221   1.454   3.124
  248SOL    HW1 1643   3.227   1.477   3.027
  248SOL    HW2 1644   3.270   1.369   3.141
  249SOL     OW 1645   5.546   6.606   5.244
  249SOL    HW1 1646   5.598   6.643   5.321
  249SOL    HW2 1647   5.449   6.604   5.266
  250SOL     OW 1648   4.360   3.053   0.416
  250SOL    HW1 1649   4.401   3.141   0.440
  250SOL    HW2 1650   4.311   3.062   0.329
  251SOL     OW 1651   4.416   3.502   5.384
  251SOL    HW1 1652   4.364   3.555   5.316
  251SOL    HW2 1653   4.514   3.508   5.363
  252SOL     OW 1654   0.122   6.424   4.734
  252SOL    HW1 1655   0.096   6.520   4.722
  252SOL    HW2 1656   0.041   6.366   4.729
  253SOL     OW 1657   3.568   5.498   6.568
  253SOL    HW1 1658   3.587   5.414   6.518
  253SOL    HW2 1659   3.652   5.552   6.577
  254SOL     OW 1660   6.267   2.155   3.689
  254SOL    HW1 1661   6.293   2.170   3.784
  254SOL    HW2 1662   6.306   2.069   3.656
  255SOL     OW 1663   2.429   4.701   5.521
  255SOL    HW1 1664   2.361   4.637   5.484
  255SOL    HW2 1665   2.418   4.708   5.620
  256SOL     OW 1666   5.833   3.919   5.969
  256SOL    HW1 1667   5.898   3.981   6.013
  256SOL    HW2 1668   5.807   3.955   5.880
  257SOL     OW 1669   5.267   0.178   3.404
  257SOL    HW1 1670   5.224   0.091   3.428
  257SOL    HW2 1671   5.300   0.174   3.310
  258SOL     OW 1672   2.360   4.168   5.674
  258SOL    HW1 1673   2.405   4.251   5.640
  258SOL    HW2 1674   2.354   4.101   5.601
  259SOL     OW 1675   6.227   0.728   2.613
  259SOL    HW1 1676   6.312   0.781   2.612
  259SOL    HW2 1677   6.233   0.655   2.545
  260SOL     OW 1678   4.132   6.012   3.106
  260SOL    HW1 1679   4.223   5.991   3.141
  260SOL    HW2 1680   4.097   6.093   3.152
  261SOL     OW 1681   6.028   3.215   0.844
  261SOL    HW1 1682   5.995   3.186   0.754
  261SOL    HW2 1683   6.052   3.135   0.898
  262SOL     OW 1684   1.206   3.926   0.265
  262SOL    HW1 1685   1.251   3.959   0.348
  262SOL    HW2 1686   1.111   3.905   0.285
  263SOL     OW 1687   1.847   0.251   5.148
  263SOL    HW1 1688   1.850   0.152   5.135
  263SOL    HW2 1689   1.752   0.281   5.151
  264SOL     OW 1690   5.964   2.944   6.934
  264SOL    HW1 1691   5.900   2.874   6.903
  264SOL    HW2 1692   5.974   3.014   6.864
  265SOL     OW 1693   5.226   6.857   2.833
  265SOL    HW1 1694   5.256   6.901   2.749
  265SOL    HW2 1695   5.217   6.925   2.905
  266SOL     OW 1696   4.429   2.796   5.746
  266SOL    HW1 1697   4.456   2.803   5.650
  266SOL    HW2 1698   4.511   2.802   5.804
  267SOL     OW 1699   0.812   1.669   5.993
  267SOL    HW1 1700   0.778   1.643   5.902
  267SOL    HW2 1701   0.738   1.712   6.044
  268SOL     OW 1702   3.201   0.923   6.214
  268SOL    HW1 1703   3.124   0.937   6.153
  268SOL    HW2 1704   3.183   0.844   6.273
  269SOL     OW 1705   1.637   3.748   1.250
  269SOL    HW1 1706   1.727   3.704   1.250
  269SOL    HW2 1707   1.647   3.845   1.228
  270SOL     OW 1708   1.347   6.020   0.641
  270SOL    HW1 1709   1.276   5.995   0.575
  270SOL    HW2 1710   1.371   5.940   0.696
  271SOL     OW 1711   6.698   1.079   6.284
  271SOL    HW1 1712   6.754   1.144   6.232
  271SOL    HW2 1713   6.647   1.021   6.220
  272SOL     OW 1714   3.780   6.208   4.041
  272SOL    HW1 1715   3.834   6.171   4.116
  272SOL    HW2 1716   3.840   6.243   3.970
  273SOL     OW 1717   2.097   4.823   4.321
  273SOL    HW1 1718   2.107   4.912   4.277
  273SOL    HW2 1719   2.150   4.754   4.271
  274SOL     OW 1720   3.947   1.198   2.930
  274SOL    HW1 1721   3.873   1.170   2.868
  274SOL    HW2 1722   3.913   1.267   2.994
  275SOL     OW 1723   6.844   5.669   3.675
  275SOL    HW1 1724   6.840   5.644   3.578
  275SOL    HW2 1725   6.902   5.603   3.723
  276SOL     OW 1726   0.242   6.574   2.797
  276SOL    HW1 1727   0.235   6.482   2.759
  276SOL    HW2 1728   0.167   6.590   2.861
  277SOL     OW 1729   1.355   3.891   0.571
  277SOL    HW1 1730   1.351   3.792   0.582
  277SOL    HW2 1731   1.281   3.933   0.623
  278SOL     OW 1732   0.087   4.023   1.306
  278SOL    HW1 1733   7.024   3.997   1.269
  278SOL    HW2 1734   0.074   4.084   1.384
  279SOL     OW 1735   5.762   2.871   4.307
  279SOL    HW1 1736   5.664   2.866   4.323
  279SOL    HW2 1737   5.780   2.937   4.234
  280SOL     OW 1738   2.569   5.549   2.744
  280SOL    HW1 1739   2.493   5.525   2.683
  280SOL    HW2 1740   2.534   5.569   2.835
  281SOL     OW 1741   2.678   4.732   1.751
  281SOL    HW1 1742   2.669   4.805   1.818
  281SOL    HW2 1743   2.756   4.675   1.774
  282SOL     OW 1744   3.468   1.512   5.628
  282SOL    HW1 1745   3.449   1.569   5.549
  282SOL    HW2 1746   3.412   1.542   5.705
  283SOL     OW 1747   5.880   2.778   6.471
  283SOL    HW1 1748   5.952   2.834   6.429
  283SOL    HW2 1749   5.813   2.754   6.401
  284SOL     OW 1750   1.447   3.603   3.726
  284SOL    HW1 1751   1.479   3.560   3.810
  284SOL    HW2 1752   1.382   3.543   3.680
  285SOL     OW 1753   5.608   5.278   4.229
  285SOL    HW1 1754   5.538   5.219   4.270
  285SOL    HW2 1755   5.624   5.250   4.134
  286SOL     OW 1756   3.589   4.951   6.673
  286SOL    HW1 1757   3.624   4.858   6.673
  286SOL    HW2 1758   3.550   4.972   6.583
  287SOL     OW 1759   1.211   3.340   1.171
  287SOL    HW1 1760   1.124   3.318   1.128
  287SOL    HW2 1761   1.197   3.366   1.266
  288SOL     OW 1762   3.602   1.771   7.020
  288SOL    HW1 1763   3.618   1.773   0.092
  288SOL    HW2 1764   3.549   1.851   6.993
  289SOL     OW 1765   2.216   4.131   5.905
  289SOL    HW1 1766   2.244   4.209   5.960
  289SOL    HW2 1767   2.258   4.137   5.814
  290SOL     OW 1768   6.523   2.148   4.858
  290SOL    HW1 1769   6.488   2.231   4.814
  290SOL    HW2 1770   6.450   2.106   4.913
  291SOL     OW 1771   0.595   1.806   4.795
  291SOL    HW1 1772   0.608   1.905   4.805
  291SOL    HW2 1773   0.503   1.789   4.759
  292SOL     OW 1774   1.871   1.967   2.886
  292SOL    HW1 1775   1.847   1.879   2.926
  292SOL    HW2 1776   1.796   2.031   2.900
  293SOL     OW 1777   4.289   6.009   3.481
  293SOL    HW1 1778   4.270   6.090   3.536
  293SOL    HW2 1779   4.272   6.030   3.384
  294SOL     OW 1780   0.216   6.219   6.999
  294SOL    HW1 1781   0.140   6.158   7.019
  294SOL    HW2 1782   0.301   6.167   6.998
  295SOL     OW 1783   3.726   0.999   3.272
  295SOL    HW1 1784   3.805   0.964   3.322
  295SOL    HW2 1785   3.758   1.052   3.194
  296SOL     OW 1786   3.226   1.501   2.868
  296SOL    HW1 1787   3.193   1.596   2.862
  296SOL    HW2 1788   3.280   1.479   2.787
  297SOL     OW 1789   2.487   4.476   4.172
  297SOL    HW1 1790   2.421   4.518   4.233
  297SOL    HW2 1791   2.441   4.406   4.116
  298SOL     OW 1792   4.330   5.866   2.163
  298SOL    HW1 1793   4.410   5.817   2.128
  298SOL    HW2 1794   4.293   5.925   2.091
  299SOL     OW 1795   5.153   3.364   5.803
  299SOL    HW1 1796   5.111   3.322   5.884
  299SOL    HW2 1797   5.126   3.313   5.721
  300SOL     OW 1798   6.477   0.488   2.397
  300SOL    HW1 1799   6.386   0.528   2.383
  300SOL    HW2 1800   6.485   0.456   2.491
  301SOL     OW 1801   5.107   3.484   0.763
  301SOL    HW1 1802   5.100   3.575   0.804
  301SOL    HW2 1803   5.193   3.441   0.792
  302SOL     OW 1804   1.231   0.396   2.846
  302SOL    HW1 1805   1.230   0.479   2.790
  302SOL    HW2 1806   1.259   0.318   2.791
  303SOL     OW 1807   5.863   0.499   2.373
  303SOL    HW1 1808   5.893   0.547   2.456
  303SOL    HW2 1809   5.927   0.518   2.299
  304SOL     OW 1810   1.883   0.299   3.320
  304SOL    HW1 1811   1.804   0.335   3.270
  304SOL    HW2 1812   1.946   0.373   3.342
  305SOL     OW 1813   0.516   3.433   6.634
  305SOL    HW1 1814   0.453   3.400   6.703
  305SOL    HW2 1815   0.524   3.365   6.561
  306SOL     OW 1816   1.184   1.219   3.350
  306SOL    HW1 1817   1.196   1.120   3.344
  306SOL    HW2 1818   1.215   1.261   3.264
  307SOL     OW 1819   4.826   6.875   0.912
  307SOL    HW1 1820   4.872   6.793   0.880
  307SOL    HW2 1821   4.826   6.875   1.012
  308SOL     OW 1822   6.799   4.228   5.031
  308SOL    HW1 1823   6.826   4.235   4.935
  308SOL    HW2 1824   6.871   4.181   5.082
  309SOL     OW 1825   3.794   4.557   5.472
  309SOL    HW1 1826   3.863   4.555   5.545
  309SOL    HW2 1827   3.811   4.482   5.408
  310SOL     OW 1828   6.262   6.680   6.005
  310SOL    HW1 1829   6.343   6.739   6.009
  310SOL    HW2 1830   6.218   6.677   6.094
  311SOL     OW 1831   6.599   4.780   1.485
  311SOL    HW1 1832   6.576   4.842   1.410
  311SOL    HW2 1833   6.515   4.739   1.521
  312SOL     OW 1834   4.549   1.742   6.037
  312SOL    HW1 1835   4.623   1.692   6.081
  312SOL    HW2 1836   4.473   1.679   6.019
  313SOL     OW 1837   2.706   4.421   1.670
  313SOL    HW1 1838   2.738   4.474   1.749
  313SOL    HW2 1839   2.765   4.341   1.657
  314SOL     OW 1840   3.336   5.757   0.488
  314SOL    HW1 1841   3.258   5.811   0.521
  314SOL    HW2 1842   3.386   5.810   0.420
  315SOL     OW 1843   0.706   1.902   3.821
  315SOL    HW1 1844   0.721   1.835   3.749
  315SOL    HW2 1845   0.784   1.902   3.884
  316SOL     OW 1846   2.200   2.617   4.443
  316SOL    HW1 1847   2.142   2.628   4.362
  316SOL    HW2 1848   2.186   2.526   4.482
  317SOL     OW 1849   0.844   1.459   0.008
  317SOL    HW1 1850   0.820   1.364   0.031
  317SOL    HW2 1851   0.826   1.474   6.938
  318SOL     OW 1852   1.053   4.759   1.055
  318SOL    HW1 1853   1.083   4.854   1.067
  318SOL    HW2 1854   0.981   4.756   0.985
  319SOL     OW 1855   0.557   0.507   2.133
  319SOL    HW1 1856   0.553   0.428   2.195
  319SOL    HW2 1857   0.487   0.574   2.159
  320SOL     OW 1858   5.573   2.272   0.085
  320SOL    HW1 1859   5.551   2.302   0.177
  320SOL    HW2 1860   5.672   2.273   0.072
  321SOL     OW 1861   2.273   1.539   2.469
  321SOL    HW1 1862   2.262   1.632   2.434
  321SOL    HW2 1863   2.322   1.484   2.402
  322SOL     OW 1864   3.063   3.219   4.621
  322SOL    HW1 1865   3.048   3.314   4.646
  322SOL    HW2 1866   3.160   3.205   4.598
  323SOL     OW 1867   0.878   4.245   6.885
  323SOL    HW1 1868   0.855   4.150   6.863
  323SOL    HW2 1869   0.948   4.277   6.821
  324SOL     OW 1870   1.158   2.822   4.146
  324SOL    HW1 1871   1.148   2.912   4.188
  324SOL    HW2 1872   1.202   2.832   4.056
  325SOL     OW 1873   1.999   2.905   1.225
  325SOL    HW1 1874   1.918   2.953   1.258
  325SOL    HW2 1875   2.038   2.850   1.299
  326SOL     OW 1876   1.660   5.925   0.041
  326SOL    HW1 1877   1.612   5.905   6.982
  326SOL    HW2 1878   1.635   6.017   0.073
  327SOL     OW 1879   0.987   4.979   4.156
  327SOL    HW1 1880   1.054   4.972   4.082
  327SOL    HW2 1881   1.025   4.937   4.239
  328SOL     OW 1882   2.843   5.370   2.422
  328SOL    HW1 1883   2.893   5.284   2.417
  328SOL    HW2 1884   2.841   5.402   2.516
  329SOL     OW 1885   3.111   3.860   3.768
  329SOL    HW1 1886   3.143   3.914   3.690
  329SOL    HW2 1887   3.110   3.763   3.742
  330SOL     OW 1888   3.449   6.298   1.953
  330SOL    HW1 1889   3.545   6.281   1.976
  330SOL    HW2 1890   3.444   6.354   1.870
  331SOL     OW 1891   4.693   5.082   6.613
  331SOL    HW1 1892   4.758   5.009   6.588
  331SOL    HW2 1893   4.730   5.134   6.690
  332SOL     OW 1894   3.705   2.116   3.935
  332SOL    HW1 1895   3.609   2.140   3.950
  332SOL    HW2 1896   3.753   2.116   4.023
  333SOL     OW 1897   3.931   0.236   6.895
  333SOL    HW1 1898   3.869   0.255   6.819
  333SOL    HW2 1899   3.994   0.314   6.906
  334SOL     OW 1900   2.864   6.748   1.519
  334SOL    HW1 1901   2.873   6.735   1.421
  334SOL    HW2 1902   2.767   6.743   1.545
  335SOL     OW 1903   3.074   5.996   3.499
  335SOL    HW1 1904   3.158   5.999   3.554
  335SOL    HW2 1905   3.021   6.079   3.515
  336SOL     OW 1906   2.306   1.066   3.402
  336SOL    HW1 1907   2.360   1.042   3.483
  336SOL    HW2 1908   2.364   1.116   3.337
  337SOL     OW 1909   0.097   3.622   1.102
  337SOL    HW1 1910   0.064   3.574   1.184
  337SOL    HW2 1911   0.032   3.609   1.027
  338SOL     OW 1912   2.949   3.250   1.596
  338SOL    HW1 1913   3.015   3.236   1.670
  338SOL    HW2 1914   2.982   3.323   1.535
  339SOL     OW 1915   3.930   0.106   3.585
  339SOL    HW1 1916   3.972   0.016   3.570
  339SOL    HW2 1917   3.965   0.170   3.517
  340SOL     OW 1918   5.132   4.063   5.079
  340SOL    HW1 1919   5.046   4.024   5.114
  340SOL    HW2 1920   5.209   4.015   5.120
  341SOL     OW 1921   6.270   6.203   4.109
  341SOL    HW1 1922   6.173   6.182   4.099
  341SOL    HW2 1923   6.306   6.236   4.022
  342SOL     OW 1924   5.892   4.093   0.417
  342SOL    HW1 1925   5.953   4.116   0.341
  342SOL    HW2 1926   5.911   4.000   0.449
  343SOL     OW 1927   3.159   6.210   1.599
  343SOL    HW1 1928   3.192   6.198   1.692
  343SOL    HW2 1929   3.060   6.229   1.601
  344SOL     OW 1930   2.351   5.342   1.034
  344SOL    HW1 1931   2.445   5.374   1.026
  344SOL    HW2 1932   2.321   5.303   0.947
  345SOL     OW 1933   0.206   0.583   5.944
  345SOL    HW1 1934   0.305   0.598   5.934
  345SOL    HW2 1935   0.164   0.578   5.854
  346SOL     OW 1936   1.780   0.089   2.466
  346SOL    HW1 1937   1.816   0.102   2.558
  346SOL    HW2 1938   1.792   7.021   2.439
  347SOL     OW 1939   5.273   6.953   6.581
  347SOL    HW1 1940   5.261   0.018   6.541
  347SOL    HW2 1941   5.229   6.886   6.522
  348SOL     OW 1942   4.009   5.070   1.813
  348SOL    HW1 1943   3.987   5.142   1.747
  348SOL    HW2 1944   3.939   4.999   1.810
  349SOL     OW 1945   6.892   4.660   2.378
  349SOL    HW1 1946   6.810   4.658   2.435
  349SOL    HW2 1947   6.915   4.755   2.356
  350SOL     OW 1948   3.838   3.949   1.615
  350SOL    HW1 1949   3.840   3.857   1.653
  350SOL    HW2 1950   3.745   3.985   1.621
  351SOL     OW 1951   2.610   2.228   0.553
  351SOL    HW1 1952   2.708   2.219   0.534
  351SOL    HW2 1953   2.590   2.191   0.643
  352SOL     OW 1954   3.660   0.623   4.944
  352SOL    HW1 1955   3.653   0.556   5.018
  352SOL    HW2 1956   3.623   0.584   4.860
  353SOL     OW 1957   2.202   0.346   0.333
  353SOL    HW1 1958   2.208   0.343   0.433
  353SOL    HW2 1959   2.279   0.296   0.293
  354SOL     OW 1960   4.169   2.452   0.746
  354SOL    HW1 1961   4.077   2.417   0.727
  354SOL    HW2 1962   4.167   2.552   0.747
  355SOL     OW 1963   6.654   3.181   2.627
  355SOL    HW1 1964   6.588   3.135   2.686
  355SOL    HW2 1965   6.673   3.273   2.663
  356SOL     OW 1966   4.209   5.813   4.944
  356SOL    HW1 1967   4.307   5.826   4.957
  356SOL    HW2 1968   4.161   5.899   4.959
  357SOL     OW 1969   0.239   6.333   5.426
  357SOL    HW1 1970   0.305   6.360   5.496
  357SOL    HW2 1971   0.260   6.380   5.340
  358SOL     OW 1972   6.357   0.016   1.222
  358SOL    HW1 1973   6.299   6.981   1.170
  358SOL    HW2 1974   6.318   0.030   1.313
  359SOL     OW 1975   1.618   2.515   2.296
  359SOL    HW1 1976   1.625   2.496   2.198
  359SOL    HW2 1977   1.688   2.582   2.321
  360SOL     OW 1978   2.865   6.381   6.166
  360SOL    HW1 1979   2.917   6.443   6.225
  360SOL    HW2 1980   2.848   6.295   6.214
  361SOL     OW 1981   5.855   6.046   3.153
  361SOL    HW1 1982   5.837   5.982   3.228
  361SOL    HW2 1983   5.792   6.028   3.078
  362SOL     OW 1984   3.203   4.218   0.340
  362SOL    HW1 1985   3.105   4.238   0.343
  362SOL    HW2 1986   3.254   4.298   0.370
  363SOL     OW 1987   3.517   4.911   4.126
  363SOL    HW1 1988   3.441   4.891   4.064
  363SOL    HW2 1989   3.485   4.903   4.221
  364SOL     OW 1990   0.647   5.853   5.375
  364SOL    HW1 1991   0.596   5.932   5.410
  364SOL    HW2 1992   0.728   5.885   5.326
  365SOL     OW 1993   4.598   6.471   3.183
  365SOL    HW1 1994   4.594   6.492   3.281
  365SOL    HW2 1995   4.674   6.521   3.141
  366SOL     OW 1996   5.311   1.111   0.045
  366SOL    HW1 1997   5.283   1.200   0.082
  366SOL    HW2 1998   5.411   1.106   0.044
  367SOL     OW 1999   4.911   2.766   0.986
  367SOL    HW1 2000   4.883   2.853   1.026
  367SOL    HW2 2001   4.990   2.731   1.036
  368SOL     OW 2002   1.413   4.872   4.887
  368SOL    HW1 2003   1.401   4.885   4.789
  368SOL    HW2 2004   1.445   4.779   4.905
  369SOL     OW 2005   6.184   4.616   1.888
  369SOL    HW1 2006   6.140   4.614   1.798
  369SOL    HW2 2007   6.262   4.678   1.886
  370SOL     OW 2008   2.570   0.846   4.881
  370SOL    HW1 2009   2.474   0.864   4.858
  370SOL    HW2 2010   2.600   0.762   4.836
  371SOL     OW 2011   2.262   3.798   6.966
  371SOL    HW1 2012   2.174   3.766   7.002
  371SOL    HW2 2013   2.294   3.736   6.894
  372SOL     OW 2014   0.046   0.534   5.078
  372SOL    HW1 2015   6.984   0.493   5.060
  372SOL    HW2 2016   0.086   0.493   5.161
  373SOL     OW 2017   0.351   6.492   6.210
  373SOL    HW1 2018   0.294   6.453   6.282
  373SOL    HW2 2019   0.425   6.545   6.251
  374SOL     OW 2020   4.310   6.744   2.260
  374SOL    HW1 2021   4.301   6.733   2.161
  374SOL    HW2 2022   4.259   6.824   2.290
  375SOL     OW 2023   6.855   4.863   4.228
  375SOL    HW1 2024   6.828   4.898   4.318
  375SOL    HW2 2025   6.941   4.812   4.236
  376SOL     OW 2026   1.508   3.026   3.967
  376SOL    HW1 2027   1.484   3.049   4.061
  376SOL    HW2 2028   1.535   2.930   3.962
  377SOL     OW 2029   5.332   2.400   2.610
  377SOL    HW1 2030   5.415   2.394   2.554
  377SOL    HW2 2031   5.259   2.442   2.557
  378SOL     OW 2032   4.012   2.974   5.639
  378SOL    HW1 2033   4.028   2.994   5.735
  378SOL    HW2 2034   4.087   3.011   5.584
  379SOL     OW 2035   5.954   3.258   1.479
  379SOL    HW1 2036   5.985   3.260   1.384
  379SOL    HW2 2037   5.862   3.298   1.485
  380SOL     OW 2038   2.040   1.700   1.272
  380SOL    HW1 2039   2.006   1.764   1.341
  380SOL    HW2 2040   2.028   1.606   1.305
  381SOL     OW 2041   2.106   4.731   1.821
  381SOL    HW1 2042   2.073   4.699   1.732
  381SOL    HW2 2043   2.028   4.762   1.876
  382SOL     OW 2044   3.846   5.849   0.296
  382SOL    HW1 2045   3.874   5.754   0.308
  382SOL    HW2 2046   3.927   5.908   0.303
  383SOL     OW 2047   6.569   2.623   6.763
  383SOL    HW1 2048   6.601   2.620   6.668
  383SOL    HW2 2049   6.625   2.688   6.814
  384SOL     OW 2050   1.210   4.683   5.176
  384SOL    HW1 2051   1.241   4.773   5.209
  384SOL    HW2 2052   1.123   4.694   5.127
  385SOL     OW 2053   5.092   6.549   6.958
  385SOL    HW1 2054   5.170   6.612   6.961
  385SOL    HW2 2055   5.089   6.495   0.016
  386SOL     OW 2056   4.037   6.786   5.452
  386SOL    HW1 2057   3.969   6.713   5.443
  386SOL    HW2 2058   4.029   6.848   5.374
  387SOL     OW 2059   0.339   0.044   4.134
  387SOL    HW1 2060   0.311   0.104   4.060
  387SOL    HW2 2061   0.373   0.098   4.211
  388SOL     OW 2062   6.970   2.380   5.294
  388SOL    HW1 2063   6.944   2.476   5.306
  388SOL    HW2 2064   6.997   2.365   5.199
  389SOL     OW 2065   4.284   4.427   1.750
  389SOL    HW1 2066   4.188   4.419   1.726
  389SOL    HW2 2067   4.323   4.336   1.763
  390SOL     OW 2068   3.544   1.208   0.677
  390SOL    HW1 2069   3.572   1.275   0.609
  390SOL    HW2 2070   3.477   1.145   0.637
  391SOL     OW 2071   2.952   4.353   5.667
  391SOL    HW1 2072   2.888   4.280   5.645
  391SOL    HW2 2073   3.040   4.335   5.623
  392SOL     OW 2074   1.610   3.549   2.230
  392SOL    HW1 2075   1.667   3.628   2.205
  392SOL    HW2 2076   1.663   3.465   2.222
  393SOL     OW 2077   0.619   4.833   1.126
  393SOL    HW1 2078   0.678   4.810   1.048
  393SOL    HW2 2079   0.676   4.847   1.207
  394SOL     OW 2080   6.921   3.254   0.178
  394SOL    HW1 2081   6.870   3.173   0.206
  394SOL    HW2 2082   6.997   3.269   0.242
  395SOL     OW 2083   4.787   4.229   2.050
  395SOL    HW1 2084   4.690   4.247   2.065
  395SOL    HW2 2085   4.841   4.284   2.114
  396SOL     OW 2086   2.728   2.142   1.945
  396SOL    HW1 2087   2.804   2.201   1.973
  396SOL    HW2 2088   2.692   2.174   1.857
  397SOL     OW 2089   4.588   1.359   5.331
  397SOL    HW1 2090   4.530   1.440   5.337
  397SOL    HW2 2091   4.589   1.312   5.420
  398SOL     OW 2092   0.943   0.441   4.396
  398SOL    HW1 2093   0.926   0.475   4.488
  398SOL    HW2 2094   0.958   0.342   4.398
  399SOL     OW 2095   5.451   5.942   4.049
  399SOL    HW1 2096   5.530   5.987   4.090
  399SOL    HW2 2097   5.468   5.928   3.951
  400SOL     OW 2098   6.616   0.488   4.811
  400SOL    HW1 2099   6.633   0.571   4.757
  400SOL    HW2 2100   6.690   0.423   4.796
  401SOL     OW 2101   6.823   0.420   5.807
  401SOL    HW1 2102   6.767   0.399   5.887
  401SOL    HW2 2103   6.815   0.517   5.784
  402SOL     OW 2104   6.443   0.368   2.637
  402SOL    HW1 2105   6.482   0.425   2.709
  402SOL    HW2 2106   6.445   0.272   2.664
  403SOL     OW 2107   2.734   0.507   5.855
  403SOL    HW1 2108   2.826   0.547   5.857
  403SOL    HW2 2109   2.741   0.410   5.831
  404SOL     OW 2110   3.591   6.525   6.003
  404SOL    HW1 2111   3.531   6.446   5.987
  404SOL    HW2 2112   3.599   6.542   6.101
  405SOL     OW 2113   1.867   3.790   3.452
  405SOL    HW1 2114   1.795   3.859   3.438
  405SOL    HW2 2115   1.955   3.836   3.464
  406SOL     OW 2116   1.067   5.372   5.348
  406SOL    HW1 2117   0.979   5.369   5.299
  406SOL    HW2 2118   1.051   5.399   5.443
  407SOL     OW 2119   1.573   3.276   3.495
  407SOL    HW1 2120   1.611   3.213   3.563
  407SOL    HW2 2121   1.612   3.367   3.507
  408SOL     OW 2122   3.463   1.774   2.600
  408SOL    HW1 2123   3.372   1.776   2.641
  408SOL    HW2 2124   3.532   1.787   2.671
  409SOL     OW 2125   0.944   3.606   2.324
  409SOL    HW1 2126   1.030   3.555   2.326
  409SOL    HW2 2127   0.922   3.631   2.229
  410SOL     OW 2128   1.526   2.601   1.172
  410SOL    HW1 2129   1.510   2.574   1.267
  410SOL    HW2 2130   1.568   2.525   1.122
  411SOL     OW 2131   0.309   1.880   2.097
  411SOL    HW1 2132   0.223   1.858   2.143
  411SOL    HW2 2133   0.379   1.813   2.124
  412SOL     OW 2134   2.253   4.933   3.032
  412SOL    HW1 2135   2.236   4.916   2.935
  412SOL    HW2 2136   2.344   4.973   3.043
  413SOL     OW 2137   3.911   5.294   2.452
  413SOL    HW1 2138   4.003   5.258   2.467
  413SOL    HW2 2139   3.909   5.347   2.368
  414SOL     OW 2140   2.612   6.948   3.489
  414SOL    HW1 2141   2.559   6.982   3.410
  414SOL    HW2 2142   2.697   6.999   3.496
  415SOL     OW 2143   6.768   1.295   0.754
  415SOL    HW1 2144   6.808   1.244   0.830
  415SOL    HW2 2145   6.704   1.363   0.790
  416SOL     OW 2146   4.936   3.831   5.121
  416SOL    HW1 2147   4.889   3.743   5.109
  416SOL    HW2 2148   4.998   3.825   5.199
  417SOL     OW 2149   2.587   2.254   6.816
  417SOL    HW1 2150   2.630   2.217   6.899
  417SOL    HW2 2151   2.629   2.212   6.735
  418SOL     OW 2152   3.598   7.016   4.284
  418SOL    HW1 2153   3.578   0.005   4.380
  418SOL    HW2 2154   3.588   6.919   4.263
  419SOL     OW 2155   0.775   6.968   1.497
  419SOL    HW1 2156   0.677   6.977   1.514
  419SOL    HW2 2157   0.825   7.024   1.562
  420SOL     OW 2158   5.617   0.311   6.734
  420SOL    HW1 2159   5.716   0.317   6.744
  420SOL    HW2 2160   5.584   0.392   6.685
  421SOL     OW 2161   5.091   4.230   4.742
  421SOL    HW1 2162   5.135   4.260   4.658
  421SOL    HW2 2163   5.082   4.307   4.805
  422SOL     OW 2164   5.065   2.206   1.218
  422SOL    HW1 2165   5.121   2.166   1.291
  422SOL    HW2 2166   4.997   2.267   1.258
  423SOL     OW 2167   2.886   1.292   5.886
  423SOL    HW1 2168   2.969   1.272   5.938
  423SOL    HW2 2169   2.908   1.346   5.805
  424SOL     OW 2170   1.448   4.268   3.012
  424SOL    HW1 2171   1.467   4.204   2.938
  424SOL    HW2 2172   1.497   4.239   3.095
  425SOL     OW 2173   4.206   0.364   5.327
  425SOL    HW1 2174   4.261   0.349   5.245
  425SOL    HW2 2175   4.120   0.410   5.302
  426SOL     OW 2176   2.702   2.022   4.822
  426SOL    HW1 2177   2.742   1.964   4.892
  426SOL    HW2 2178   2.720   2.118   4.843
  427SOL     OW 2179   4.427   1.683   3.293
  427SOL    HW1 2180   4.341   1.638   3.265
  427SOL    HW2 2181   4.466   1.635   3.372
  428SOL     OW 2182   3.136   1.021   5.212
  428SOL    HW1 2183   3.130   1.120   5.197
  428SOL    HW2 2184   3.050   0.989   5.252
  429SOL     OW 2185   1.555   6.082   3.383
  429SOL    HW1 2186   1.513   6.040   3.464
  429SOL    HW2 2187   1.487   6.137   3.335
  430SOL     OW 2188   1.852   7.026   4.017
  430SOL    HW1 2189   1.788   0.075   4.007
  430SOL    HW2 2190   1.940   0.034   4.049
  431SOL     OW 2191   2.548   2.426   1.169
  431SOL    HW1 2192   2.631   2.404   1.220
  431SOL    HW2 2193   2.567   2.501   1.105
  432SOL     OW 2194   4.387   1.938   1.505
  432SOL    HW1 2195   4.443   1.918   1.425
  432SOL    HW2 2196   4.308   1.993   1.478
  433SOL     OW 2197   2.641   6.533   6.805
  433SOL    HW1 2198   2.669   6.607   6.744
  433SOL    HW2 2199   2.643   6.566   6.900
  434SOL     OW 2200   4.193   6.761   3.991
  434SOL    HW1 2201   4.130   6.684   3.999
  434SOL    HW2 2202   4.183   6.821   4.070
  435SOL     OW 2203   3.760   1.889   6.184
  435SOL    HW1 2204   3.787   1.985   6.187
  435SOL    HW2 2205   3.675   1.880   6.132
  436SOL     OW 2206   3.916   6.311   3.845
  436SOL    HW1 2207   3.960   6.275   3.763
  436SOL    HW2 2208   3.851   6.382   3.819
  437SOL     OW 2209   0.393   0.406   4.133
  437SOL    HW1 2210   0.484   0.411   4.092
  437SOL    HW2 2211   0.338   0.484   4.102
  438SOL     OW 2212   0.976   4.773   2.717
  438SOL    HW1 2213   1.065   4.732   2.736
  438SOL    HW2 2214   0.905   4.704   2.728
  439SOL     OW 2215   5.722   0.395   3.046
  439SOL    HW1 2216   5.716   0.454   3.126
  439SOL    HW2 2217   5.763   0.446   2.970
  440SOL     OW 2218   4.604   0.496   6.977
  440SOL    HW1 2219   4.650   0.543   0.025
  440SOL    HW2 2220   4.551   0.562   6.924
  441SOL     OW 2221   0.031   4.477   2.915
  441SOL    HW1 2222   0.097   4.484   2.840
  441SOL    HW2 2223   0.080   4.472   3.002
  442SOL     OW 2224   5.561   3.662   5.661
  442SOL    HW1 2225   5.517   3.575   5.684
  442SOL    HW2 2226   5.514   3.736   5.709
  443SOL     OW 2227   5.022   4.251   3.285
  443SOL    HW1 2228   4.929   4.270   3.253
  443SOL    HW2 2229   5.039   4.300   3.371
  444SOL     OW 2230   3.752   1.231   1.130
  444SOL    HW1 2231   3.659   1.197   1.116
  444SOL    HW2 2232   3.778   1.291   1.055
  445SOL     OW 2233   1.773   5.318   2.434
  445SOL    HW1 2234   1.743   5.412   2.420
  445SOL    HW2 2235   1.826   5.312   2.519
  446SOL     OW 2236   5.811   6.152   2.823
  446SOL    HW1 2237   5.867   6.220   2.774
  446SOL    HW2 2238   5.865   6.068   2.835
  447SOL     OW 2239   6.218   3.842   6.900
  447SOL    HW1 2240   6.313   3.842   6.931
  447SOL    HW2 2241   6.208   3.777   6.825
  448SOL     OW 2242   3.174   0.940   2.355
  448SOL    HW1 2243   3.227   0.876   2.409
  448SOL    HW2 2244   3.203   0.936   2.259
  449SOL     OW 2245   1.815   2.492   4.181
  449SOL    HW1 2246   1.784   2.444   4.099
  449SOL    HW2 2247   1.751   2.565   4.203
  450SOL     OW 2248   1.164   4.217   2.958
  450SOL    HW1 2249   1.115   4.273   3.024
  450SOL    HW2 2250   1.259   4.205   2.988
  451SOL     OW 2251   0.886   2.146   3.404
  451SOL    HW1 2252   0.894   2.193   3.316
  451SOL    HW2 2253   0.956   2.181   3.466
  452SOL     OW 2254   4.006   6.178   3.619
  452SOL    HW1 2255   4.070   6.213   3.550
  452SOL    HW2 2256   3.968   6.091   3.587
  453SOL     OW 2257   4.248   6.488   0.173
  453SOL    HW1 2258   4.232   6.582   0.202
  453SOL    HW2 2259   4.180   6.461   0.105
  454SOL     OW 2260   6.796   4.775   6.689
  454SOL    HW1 2261   6.886   4.754   6.728
  454SOL    HW2 2262   6.798   4.759   6.590
  455SOL     OW 2263   6.427   4.638   5.680
  455SOL    HW1 2264   6.469   4.714   5.729
  455SOL    HW2 2265   6.362   4.592   5.741
  456SOL     OW 2266   2.732   1.253   2.473
  456SOL    HW1 2267   2.640   1.234   2.437
  456SOL    HW2 2268   2.725   1.279   2.570
  457SOL     OW 2269   2.304   6.375   6.052
  457SOL    HW1 2270   2.380   6.331   6.004
  457SOL    HW2 2271   2.340   6.429   6.128
  458SOL     OW 2272   1.898   1.527   3.191
  458SOL    HW1 2273   1.976   1.487   3.144
  458SOL    HW2 2274   1.842   1.454   3.231
  459SOL     OW 2275   2.017   6.942   4.896
  459SOL    HW1 2276   2.112   6.969   4.882
  459SOL    HW2 2277   1.957   7.019   4.871
  460SOL     OW 2278   1.804   1.805   4.705
  460SOL    HW1 2279   1.818   1.797   4.804
  460SOL    HW2 2280   1.795   1.902   4.680
  461SOL     OW 2281   0.806   5.000   5.893
  461SOL    HW1 2282   0.888   5.033   5.939
  461SOL    HW2 2283   0.822   4.907   5.859
  462SOL     OW 2284   3.336   3.526   4.524
  462SOL    HW1 2285   3.373   3.573   4.444
  462SOL    HW2 2286   3.237   3.543   4.530
  463SOL     OW 2287   6.250   6.461   2.417
  463SOL    HW1 2288   6.270   6.558   2.400
  463SOL    HW2 2289   6.295   6.405   2.349
  464SOL     OW 2290   3.444   6.411   6.429
  464SOL    HW1 2291   3.344   6.409   6.439
  464SOL    HW2 2292   3.478   6.318   6.419
  465SOL     OW 2293   1.343   2.381   0.604
  465SOL    HW1 2294   1.269   2.447   0.589
  465SOL    HW2 2295   1.354   2.324   0.523
  466SOL     OW 2296   3.384   6.104   4.816
  466SOL    HW1 2297   3.441   6.183   4.792
  466SOL    HW2 2298   3.321   6.084   4.741
  467SOL     OW 2299   6.410   1.043   2.644
  467SOL    HW1 2300   6.496   1.034   2.695
  467SOL    HW2 2301   6.336   1.068   2.707
  468SOL     OW 2302   3.947   0.530   6.447
  468SOL    HW1 2303   3.969   0.491   6.358
  468SOL    HW2 2304   3.896   0.464   6.502
  469SOL     OW 2305   2.664   4.763   5.941
  469SOL    HW1 2306   2.634   4.777   6.036
  469SOL    HW2 2307   2.731   4.689   5.939
  470SOL     OW 2308   2.508   5.062   3.033
  470SOL    HW1 2309   2.561   4.977   3.029
  470SOL    HW2 2310   2.559   5.130   3.086
  471SOL     OW 2311   3.012   2.176   4.009
  471SOL    HW1 2312   3.102   2.172   3.965
  471SOL    HW2 2313   2.953   2.239   3.959
  472SOL     OW 2314   6.414   4.228   5.967
  472SOL    HW1 2315   6.315   4.215   5.957
  472SOL    HW2 2316   6.461   4.182   5.892
  473SOL     OW 2317   0.118   2.215   2.637
  473SOL    HW1 2318   0.148   2.232   2.544
  473SOL    HW2 2319   0.056   2.136   2.638
  474SOL     OW 2320   6.268   6.350   4.506
  474SOL    HW1 2321   6.229   6.425   4.452
  474SOL    HW2 2322   6.219   6.265   4.487
  475SOL     OW 2323   6.058   1.375   0.971
  475SOL    HW1 2324   6.102   1.465   0.974
  475SOL    HW2 2325   5.960   1.385   0.985
  476SOL     OW 2326   0.810   4.062   1.756
  476SOL    HW1 2327   0.714   4.040   1.739
  476SOL    HW2 2328   0.846   4.116   1.681
  477SOL     OW 2329   1.507   4.604   3.793
  477SOL    HW1 2330   1.425   4.614   3.737
  477SOL    HW2 2331   1.481   4.592   3.888
  478SOL     OW 2332   4.652   5.665   2.511
  478SOL    HW1 2333   4.558   5.646   2.542
  478SOL    HW2 2334   4.694   5.732   2.573
  479SOL     OW 2335   3.966   3.583   3.803
  479SOL    HW1 2336   3.866   3.586   3.801
  479SOL    HW2 2337   4.000   3.649   3.871
  480SOL     OW 2338   1.428   6.936   2.902
  480SOL    HW1 2339   1.484   7.000   2.850
  480SOL    HW2 2340   1.420   6.967   2.996
  481SOL     OW 2341   0.566   6.471   0.747
  481SOL    HW1 2342   0.635   6.494   0.816
  481SOL    HW2 2343   0.505   6.400   0.782
  482SOL     OW 2344   5.356   4.464   2.341
  482SOL    HW1 2345   5.263   4.482   2.309
  482SOL    HW2 2346   5.413   4.545   2.325
  483SOL     OW 2347   6.507   2.156   3.360
  483SOL    HW1 2348   6.445   2.079   3.348
  483SOL    HW2 2349   6.470   2.236   3.313
  484SOL     OW 2350   2.268   4.168   4.300
  484SOL    HW1 2351   2.307   4.204   4.216
  484SOL    HW2 2352   2.226   4.079   4.282
  485SOL     OW 2353   5.250   2.788   2.799
  485SOL    HW1 2354   5.151   2.770   2.798
  485SOL    HW2 2355   5.299   2.701   2.810
  486SOL     OW 2356   6.641   6.225   5.734
  486SOL    HW1 2357   6.627   6.147   5.674
  486SOL    HW2 2358   6.560   6.238   5.792
  487SOL     OW 2359   0.485   6.344   4.388
  487SOL    HW1 2360   0.437   6.267   4.431
  487SOL    HW2 2361   0.421   6.419   4.371
  488SOL     OW 2362   1.738   6.427   3.355
  488SOL    HW1 2363   1.676   6.485   3.408
  488SOL    HW2 2364   1.712   6.430   3.259
  489SOL     OW 2365   0.122   5.793   5.641
  489SOL    HW1 2366   0.197   5.744   5.597
  489SOL    HW2 2367   0.036   5.745   5.624
  490SOL     OW 2368   1.564   4.725   5.725
  490SOL    HW1 2369   1.539   4.814   5.686
  490SOL    HW2 2370   1.622   4.676   5.661
  491SOL     OW 2371   0.239   2.471   0.894
  491SOL    HW1 2372   0.153   2.467   0.843
  491SOL    HW2 2373   0.313   2.434   0.838
  492SOL     OW 2374   1.703   1.754   5.684
  492SOL    HW1 2375   1.663   1.663   5.676
  492SOL    HW2 2376   1.763   1.771   5.606
  493SOL     OW 2377   2.436   6.425   4.804
  493SOL    HW1 2378   2.451   6.326   4.793
  493SOL    HW2 2379   2.513   6.464   4.854
  494SOL     OW 2380   2.303   0.282   4.877
  494SOL    HW1 2381   2.204   0.290   4.888
  494SOL    HW2 2382   2.348   0.350   4.934
  495SOL     OW 2383   4.217   6.067   5.486
  495SOL    HW1 2384   4.167   6.058   5.400
  495SOL    HW2 2385   4.281   6.143   5.479
  496SOL     OW 2386   5.257   1.864   2.685
  496SOL    HW1 2387   5.203   1.867   2.769
  496SOL    HW2 2388   5.343   1.915   2.698
  497SOL     OW 2389   3.135   1.179   6.472
  497SOL    HW1 2390   3.064   1.109   6.466
  497SOL    HW2 2391   3.094   1.267   6.496
  498SOL     OW 2392   0.737   6.084   1.782
  498SOL    HW1 2393   0.694   6.166   1.744
  498SOL    HW2 2394   0.667   6.015   1.800
  499SOL     OW 2395   3.790   5.479   6.898
  499SOL    HW1 2396   3.705   5.472   6.846
  499SOL    HW2 2397   3.779   5.433   6.986
  500SOL     OW 2398   5.715   1.991   0.068
  500SOL    HW1 2399   5.677   2.056   0.003
  500SOL    HW2 2400   5.766   1.920   0.018
  501SOL     OW 2401   0.838   0.136   3.020
  501SOL    HW1 2402   0.758   0.138   3.080
  501SOL    HW2 2403   0.903   0.205   3.049
  502SOL     OW 2404   1.838   5.024   6.987
  502SOL    HW1 2405   1.916   5.079   6.957
  502SOL    HW2 2406   1.871   4.938   0.000
  503SOL     OW 2407   3.690   5.297   0.073
  503SOL    HW1 2408   3.654   5.284   7.008
  503SOL    HW2 2409   3.617   5.285   0.140
  504SOL     OW 2410   6.033   6.077   2.244
  504SOL    HW1 2411   6.130   6.054   2.238
  504SOL    HW2 2412   6.023   6.176   2.257
  505SOL     OW 2413   5.109   6.652   5.224
  505SOL    HW1 2414   5.145   6.693   5.308
  505SOL    HW2 2415   5.107   6.553   5.234
  506SOL     OW 2416   3.357   5.612   3.008
  506SOL    HW1 2417   3.262   5.630   3.032
  506SOL    HW2 2418   3.394   5.691   2.958
  507SOL     OW 2419   3.420   0.998   1.212
  507SOL    HW1 2420   3.378   0.910   1.237
  507SOL    HW2 2421   3.406   1.015   1.114
  508SOL     OW 2422   0.605   4.528   4.522
  508SOL    HW1 2423   0.690   4.479   4.543
  508SOL    HW2 2424   0.613   4.622   4.554
  509SOL     OW 2425   4.545   0.565   6.223
  509SOL    HW1 2426   4.509   0.492   6.280
  509SOL    HW2 2427   4.559   0.531   6.130
  510SOL     OW 2428   6.420   4.417   6.631
  510SOL    HW1 2429   6.402   4.338   6.690
  510SOL    HW2 2430   6.426   4.386   6.536
  511SOL     OW 2431   1.164   1.626   0.381
  511SOL    HW1 2432   1.167   1.564   0.303
  511SOL    HW2 2433   1.072   1.665   0.389
  512SOL     OW 2434   6.425   1.965   6.819
  512SOL    HW1 2435   6.329   1.941   6.800
  512SOL    HW2 2436   6.429   2.024   6.899
  513SOL     OW 2437   5.532   0.234   2.910
  513SOL    HW1 2438   5.531   0.257   2.813
  513SOL    HW2 2439   5.598   0.293   2.958
  514SOL     OW 2440   6.755   6.916   4.199
  514SOL    HW1 2441   6.783   6.867   4.281
  514SOL    HW2 2442   6.668   6.880   4.167
  515SOL     OW 2443   3.771   6.804   6.925
  515SOL    HW1 2444   3.767   6.707   6.900
  515SOL    HW2 2445   3.724   6.858   6.855
  516SOL     OW 2446   2.363   5.262   1.602
  516SOL    HW1 2447   2.343   5.258   1.505
  516SOL    HW2 2448   2.456   5.229   1.619
  517SOL     OW 2449   2.954   5.105   2.371
  517SOL    HW1 2450   3.022   5.099   2.299
  517SOL    HW2 2451   2.878   5.043   2.351
  518SOL     OW 2452   2.181   2.631   3.657
  518SOL    HW1 2453   2.092   2.589   3.677
  518SOL    HW2 2454   2.238   2.628   3.739
  519SOL     OW 2455   0.442   6.392   3.329
  519SOL    HW1 2456   0.359   6.368   3.278
  519SOL    HW2 2457   0.480   6.477   3.293
  520SOL     OW 2458   1.297   2.906   0.060
  520SOL    HW1 2459   1.202   2.899   0.029
  520SOL    HW2 2460   1.357   2.924   7.009
  521SOL     OW 2461   4.847   4.949   4.829
  521SOL    HW1 2462   4.912   4.981   4.898
  521SOL    HW2 2463   4.758   4.932   4.873
  522SOL     OW 2464   4.071   3.872   1.045
  522SOL    HW1 2465   4.122   3.839   0.966
  522SOL    HW2 2466   4.129   3.935   1.098
  523SOL     OW 2467   6.876   6.691   1.628
  523SOL    HW1 2468   6.914   6.645   1.708
  523SOL    HW2 2469   6.933   6.770   1.605
  524SOL     OW 2470   6.987   2.631   2.257
  524SOL    HW1 2471   6.958   2.727   2.264
  524SOL    HW2 2472   6.915   2.577   2.214
  525SOL     OW 2473   1.156   3.577   6.682
  525SOL    HW1 2474   1.241   3.554   6.635
  525SOL    HW2 2475   1.169   3.571   6.781
  526SOL     OW 2476   2.980   0.250   4.601
  526SOL    HW1 2477   3.053   0.296   4.549
  526SOL    HW2 2478   2.953   0.166   4.553
  527SOL     OW 2479   1.259   2.274   6.555
  527SOL    HW1 2480   1.215   2.189   6.584
  527SOL    HW2 2481   1.240   2.291   6.459
  528SOL     OW 2482   0.018   3.091   4.217
  528SOL    HW1 2483   0.074   3.165   4.180
  528SOL    HW2 2484   0.053   3.065   4.307
  529SOL     OW 2485   2.496   0.180   5.475
  529SOL    HW1 2486   2.415   0.170   5.418
  529SOL    HW2 2487   2.550   0.096   5.472
  530SOL     OW 2488   3.562   3.392   1.662
  530SOL    HW1 2489   3.462   3.381   1.667
  530SOL    HW2 2490   3.606   3.319   1.713
  531SOL     OW 2491   2.462   0.875   2.144
  531SOL    HW1 2492   2.501   0.961   2.111
  531SOL    HW2 2493   2.365   0.887   2.162
  532SOL     OW 2494   2.961   2.901   0.025
  532SOL    HW1 2495   2.989   2.826   0.083
  532SOL    HW2 2496   3.037   2.927   6.991
  533SOL     OW 2497   3.819   0.267   3.872
  533SOL    HW1 2498   3.767   0.207   3.933
  533SOL    HW2 2499   3.902   0.298   3.919
  534SOL     OW 2500   0.724   5.718   1.229
  534SOL    HW1 2501   0.757   5.626   1.207
  534SOL    HW2 2502   0.646   5.740   1.171
  535SOL     OW 2503   5.243   4.034   3.326
  535SOL    HW1 2504   5.251   3.993   3.235
  535SOL    HW2 2505   5.163   4.093   3.329
  536SOL     OW 2506   6.714   6.435   3.156
  536SOL    HW1 2507   6.651   6.503   3.121
  536SOL    HW2 2508   6.711   6.435   3.256
  537SOL     OW 2509   3.031   0.235   3.935
  537SOL    HW1 2510   3.067   0.328   3.926
  537SOL    HW2 2511   3.102   0.169   3.912
  538SOL     OW 2512   2.326   5.155   5.643
  538SOL    HW1 2513   2.372   5.182   5.558
  538SOL    HW2 2514   2.238   5.114   5.621
  539SOL     OW 2515   1.093   5.991   0.493
  539SOL    HW1 2516   1.002   6.015   0.528
  539SOL    HW2 2517   1.115   6.048   0.414
  540SOL     OW 2518   1.409   0.392   3.403
  540SOL    HW1 2519   1.502   0.363   3.381
  540SOL    HW2 2520   1.403   0.412   3.501
  541SOL     OW 2521   3.952   6.399   4.439
  541SOL    HW1 2522   3.860   6.373   4.409
  541SOL    HW2 2523   4.014   6.394   4.361
  542SOL     OW 2524   3.073   6.224   6.887
  542SOL    HW1 2525   2.984   6.251   6.924
  542SOL    HW2 2526   3.145   6.272   6.937
  543SOL     OW 2527   6.132   2.655   3.984
  543SOL    HW1 2528   6.093   2.747   3.983
  543SOL    HW2 2529   6.205   2.651   4.052
  544SOL     OW 2530   0.196   4.714   6.894
  544SOL    HW1 2531   0.176   4.808   6.869
  544SOL    HW2 2532   0.195   4.705   6.994
  545SOL     OW 2533   5.387   1.582   1.389
  545SOL    HW1 2534   5.318   1.613   1.324
  545SOL    HW2 2535   5.418   1.490   1.363
  546SOL     OW 2536   0.475   4.336   2.219
  546SOL    HW1 2537   0.427   4.412   2.263
  546SOL    HW2 2538   0.428   4.250   2.241
  547SOL     OW 2539   3.733   1.336   0.067
  547SOL    HW1 2540   3.682   1.260   0.026
  547SOL    HW2 2541   3.757   1.402   7.022
  548SOL     OW 2542   3.968   2.933   7.014
  548SOL    HW1 2543   4.030   2.975   0.054
  548SOL    HW2 2544   4.020   2.910   6.931
  549SOL     OW 2545   6.050   2.186   0.661
  549SOL    HW1 2546   6.139   2.160   0.625
  549SOL    HW2 2547   6.002   2.242   0.593
  550SOL     OW 2548   6.828   4.698   2.900
  550SOL    HW1 2549   6.888   4.628   2.861
  550SOL    HW2 2550   6.865   4.788   2.879
  551SOL     OW 2551   0.020   1.020   0.255
  551SOL    HW1 2552   0.005   0.976   0.167
  551SOL    HW2 2553   0.050   0.952   0.322
  552SOL     OW 2554   5.731   5.793   5.563
  552SOL    HW1 2555   5.822   5.757   5.578
  552SOL    HW2 2556   5.685   5.742   5.491
  553SOL     OW 2557   3.254   1.260   5.770
  553SOL    HW1 2558   3.174   1.311   5.737
  553SOL    HW2 2559   3.296   1.211   5.694
  554SOL     OW 2560   5.682   5.892   1.059
  554SOL    HW1 2561   5.643   5.956   1.126
  554SOL    HW2 2562   5.609   5.855   1.002
  555SOL     OW 2563   2.507   5.364   5.499
  555SOL    HW1 2564   2.513   5.376   5.598
  555SOL    HW2 2565   2.501   5.453   5.454
  556SOL     OW 2566   4.860   2.053   3.693
  556SOL    HW1 2567   4.942   2.027   3.640
  556SOL    HW2 2568   4.887   2.085   3.783
  557SOL     OW 2569   6.895   5.096   5.684
  557SOL    HW1 2570   6.821   5.162   5.672
  557SOL    HW2 2571   6.881   5.019   5.621
  558SOL     OW 2572   3.647   3.771   2.896
  558SOL    HW1 2573   3.694   3.718   2.966
  558SOL    HW2 2574   3.668   3.868   2.908
  559SOL     OW 2575   6.415   6.350   5.896
  559SOL    HW1 2576   6.338   6.306   5.849
  559SOL    HW2 2577   6.401   6.346   5.994
  560SOL     OW 2578   6.828   2.698   2.951
  560SOL    HW1 2579   6.920   2.662   2.962
  560SOL    HW2 2580   6.793   2.672   2.861
  561SOL     OW 2581   0.381   3.390   6.262
  561SOL    HW1 2582   0.469   3.436   6.254
  561SOL    HW2 2583   0.309   3.459   6.275
  562SOL     OW 2584   4.615   6.601   5.985
  562SOL    HW1 2585   4.600   6.527   6.050
  562SOL    HW2 2586   4.703   6.644   6.003
  563SOL     OW 2587   1.859   1.922   4.430
  563SOL    HW1 2588   1.842   1.964   4.519
  563SOL    HW2 2589   1.896   1.830   4.443
  564SOL     OW 2590   0.294   1.193   5.888
  564SOL    HW1 2591   0.286   1.095   5.906
  564SOL    HW2 2592   0.388   1.223   5.905
  565SOL     OW 2593   3.271   2.966   3.960
  565SOL    HW1 2594   3.236   2.968   4.054
  565SOL    HW2 2595   3.361   2.923   3.959
  566SOL     OW 2596   3.459   5.178   2.958
  566SOL    HW1 2597   3.536   5.165   3.020
  566SOL    HW2 2598   3.472   5.262   2.906
  567SOL     OW 2599   2.492   2.801   6.901
  567SOL    HW1 2600   2.451   2.839   6.818
  567SOL    HW2 2601   2.457   2.708   6.915
  568SOL     OW 2602   5.555   6.936   0.541
  568SOL    HW1 2603   5.623   6.991   0.492
  568SOL    HW2 2604   5.601   6.861   0.589
  569SOL     OW 2605   0.225   2.096   6.869
  569SOL    HW1 2606   0.278   2.159   6.925
  569SOL    HW2 2607   0.225   2.006   6.912
  570SOL     OW 2608   2.852   0.540   6.317
  570SOL    HW1 2609   2.840   0.532   6.416
  570SOL    HW2 2610   2.771   0.583   6.277
  571SOL     OW 2611   2.655   4.847   3.034
  571SOL    HW1 2612   2.744   4.837   3.079
  571SOL    HW2 2613   2.645   4.779   2.962
  572SOL     OW 2614   1.799   6.233   4.614
  572SOL    HW1 2615   1.725   6.267   4.556
  572SOL    HW2 2616   1.878   6.212   4.557
  573SOL     OW 2617   6.454   2.049   5.791
  573SOL    HW1 2618   6.418   2.069   5.701
  573SOL    HW2 2619   6.382   2.008   5.847
  574SOL     OW 2620   3.265   1.828   5.190
  574SOL    HW1 2621   3.319   1.861   5.268
  574SOL    HW2 2622   3.253   1.903   5.124
  575SOL     OW 2623   3.485   3.522   0.531
  575SOL    HW1 2624   3.487   3.613   0.489
  575SOL    HW2 2625   3.390   3.492   0.540
  576SOL     OW 2626   2.213   3.032   2.991
  576SOL    HW1 2627   2.271   3.079   3.056
  576SOL    HW2 2628   2.119   3.030   3.025
  577SOL     OW 2629   0.845   1.017   2.205
  577SOL    HW1 2630   0.800   0.935   2.241
  577SOL    HW2 2631   0.884   0.997   2.116
  578SOL     OW 2632   1.731   5.507   0.364
  578SOL    HW1 2633   1.815   5.495   0.418
  578SOL    HW2 2634   1.684   5.420   0.354
  579SOL     OW 2635   2.753   4.831   2.694
  579SOL    HW1 2636   2.719   4.918   2.660
  579SOL    HW2 2637   2.853   4.833   2.698
  580SOL     OW 2638   4.222   5.240   5.181
  580SOL    HW1 2639   4.223   5.184   5.264
  580SOL    HW2 2640   4.180   5.188   5.107
  581SOL     OW 2641   0.989   2.796   3.350
  581SOL    HW1 2642   0.981   2.886   3.309
  581SOL    HW2 2643   0.969   2.802   3.448
  582SOL     OW 2644   5.593   5.220   3.461
  582SOL    HW1 2645   5.649   5.302   3.455
  582SOL    HW2 2646   5.500   5.240   3.431
  583SOL     OW 2647   3.295   5.114   5.368
  583SOL    HW1 2648   3.281   5.211   5.388
  583SOL    HW2 2649   3.225   5.083   5.303
  584SOL     OW 2650   3.448   0.165   6.008
  584SOL    HW1 2651   3.451   0.146   6.106
  584SOL    HW2 2652   3.492   0.253   5.990
  585SOL     OW 2653   2.848   0.006   1.681
  585SOL    HW1 2654   2.927   0.027   1.623
  585SOL    HW2 2655   2.879   6.982   1.762
  586SOL     OW 2656   4.414   0.551   1.454
  586SOL    HW1 2657   4.437   0.454   1.459
  586SOL    HW2 2658   4.387   0.585   1.544
  587SOL     OW 2659   5.338   2.102   1.937
  587SOL    HW1 2660   5.427   2.059   1.927
  587SOL    HW2 2661   5.312   2.148   1.852
  588SOL     OW 2662   1.204   5.427   1.040
  588SOL    HW1 2663   1.180   5.441   0.944
  588SOL    HW2 2664   1.135   5.470   1.098
  589SOL     OW 2665   3.456   6.026   1.166
  589SOL    HW1 2666   3.544   5.977   1.168
  589SOL    HW2 2667   3.382   5.961   1.180
  590SOL     OW 2668   6.043   1.942   1.008
  590SOL    HW1 2669   5.987   1.876   0.958
  590SOL    HW2 2670   6.034   2.032   0.967
  591SOL     OW 2671   4.238   5.463   4.449
  591SOL    HW1 2672   4.300   5.520   4.395
  591SOL    HW2 2673   4.175   5.414   4.389
  592SOL     OW 2674   5.013   1.619   3.914
  592SOL    HW1 2675   4.914   1.625   3.924
  592SOL    HW2 2676   5.036   1.557   3.839
  593SOL     OW 2677   3.969   2.203   5.122
  593SOL    HW1 2678   3.873   2.207   5.149
  593SOL    HW2 2679   4.027   2.221   5.201
  594SOL     OW 2680   5.897   2.052   1.493
  594SOL    HW1 2681   5.925   2.035   1.588
  594SOL    HW2 2682   5.948   1.991   1.433
  595SOL     OW 2683   4.972   6.677   3.203
  595SOL    HW1 2684   5.003   6.616   3.277
  595SOL    HW2 2685   4.910   6.746   3.241
  596SOL     OW 2686   0.016   4.675   4.208
  596SOL    HW1 2687   0.022   4.645   4.303
  596SOL    HW2 2688   0.089   4.633   4.155
  597SOL     OW 2689   3.039   6.814   5.692
  597SOL    HW1 2690   3.013   6.721   5.717
  597SOL    HW2 2691   3.137   6.826   5.708
  598SOL     OW 2692   2.894   3.847   4.914
  598SOL    HW1 2693   2.836   3.877   4.839
  598SOL    HW2 2694   2.958   3.920   4.938
  599SOL     OW 2695   1.812   6.063   2.050
  599SOL    HW1 2696   1.781   6.097   1.961
  599SOL    HW2 2697   1.807   5.963   2.052
  600SOL     OW 2698   7.000   4.088   5.210
  600SOL    HW1 2699   0.030   4.102   5.292
  600SOL    HW2 2700   6.923   4.029   5.233
  601SOL     OW 2701   1.306   0.815   4.874
  601SOL    HW1 2702   1.322   0.752   4.951
  601SOL    HW2 2703   1.377   0.801   4.805
  602SOL     OW 2704   2.811   6.795   4.971
  602SOL    HW1 2705   2.821   6.713   5.028
  602SOL    HW2 2706   2.867   6.869   5.008
  603SOL     OW 2707   1.561   1.505   5.001
  603SOL    HW1 2708   1.580   1.601   4.982
  603SOL    HW2 2709   1.523   1.495   5.093
  604SOL     OW 2710   0.028   2.336   1.500
  604SOL    HW1 2711   0.032   2.375   1.592
  604SOL    HW2 2712   6.966   2.357   1.459
  605SOL     OW 2713   0.361   4.535   2.368
  605SOL    HW1 2714   0.372   4.567   2.463
  605SOL    HW2 2715   0.360   4.615   2.307
  606SOL     OW 2716   4.126   6.867   5.121
  606SOL    HW1 2717   4.030   6.893   5.134
  606SOL    HW2 2718   4.134   6.768   5.116
  607SOL     OW 2719   1.560   4.971   6.090
  607SOL    HW1 2720   1.600   5.062   6.100
  607SOL    HW2 2721   1.534   4.936   6.180
  608SOL     OW 2722   4.033   6.762   7.013
  608SOL    HW1 2723   4.024   6.664   0.002
  608SOL    HW2 2724   3.942   6.804   7.015
  609SOL     OW 2725   3.790   2.325   1.616
  609SOL    HW1 2726   3.877   2.375   1.611
  609SOL    HW2 2727   3.747   2.340   1.705
  610SOL     OW 2728   4.618   2.401   0.222
  610SOL    HW1 2729   4.629   2.312   0.178
  610SOL    HW2 2730   4.636   2.393   0.320
  611SOL     OW 2731   3.960   6.635   2.505
  611SOL    HW1 2732   3.880   6.577   2.523
  611SOL    HW2 2733   3.967   6.704   2.576
  612SOL     OW 2734   3.570   5.030   5.788
  612SOL    HW1 2735   3.547   5.121   5.823
  612SOL    HW2 2736   3.506   5.006   5.715
  613SOL     OW 2737   5.720   5.719   4.790
  613SOL    HW1 2738   5.722   5.659   4.710
  613SOL    HW2 2739   5.809   5.717   4.836
  614SOL     OW 2740   4.804   5.187   5.232
  614SOL    HW1 2741   4.786   5.089   5.237
  614SOL    HW2 2742   4.896   5.206   5.267
  615SOL     OW 2743   0.179   4.664   0.840
  615SOL    HW1 2744   0.190   4.754   0.799
  615SOL    HW2 2745   0.265   4.634   0.880
  616SOL     OW 2746   6.708   2.814   3.207
  616SOL    HW1 2747   6.705   2.913   3.196
  616SOL    HW2 2748   6.713   2.771   3.117
  617SOL     OW 2749   2.472   5.628   6.015
  617SOL    HW1 2750   2.520   5.541   6.027
  617SOL    HW2 2751   2.518   5.699   6.068
  618SOL     OW 2752   2.011   1.617   1.595
  618SOL    HW1 2753   1.993   1.713   1.572
  618SOL    HW2 2754   1.926   1.565   1.591
  619SOL     OW 2755   1.696   2.170   6.737
  619SOL    HW1 2756   1.607   2.127   6.754
  619SOL    HW2 2757   1.695   2.263   6.774
  620SOL     OW 2758   4.984   2.617   0.774
  620SOL    HW1 2759   4.919   2.623   0.698
  620SOL    HW2 2760   4.939   2.643   0.859
  621SOL     OW 2761   6.121   5.182   0.129
  621SOL    HW1 2762   6.030   5.173   0.171
  621SOL    HW2 2763   6.111   5.196   0.030
  622SOL     OW 2764   1.887   1.326   6.967
  622SOL    HW1 2765   1.904   1.229   6.982
  622SOL    HW2 2766   1.789   1.341   6.951
  623SOL     OW 2767   0.518   5.405   6.213
  623SOL    HW1 2768   0.547   5.427   6.120
  623SOL    HW2 2769   0.465   5.320   6.213
  624SOL     OW 2770   0.480   2.517   2.851
  624SOL    HW1 2771   0.501   2.582   2.924
  624SOL    HW2 2772   0.386   2.485   2.861
  625SOL     OW 2773   2.975   1.751   2.117
  625SOL    HW1 2774   2.913   1.689   2.165
  625SOL    HW2 2775   2.968   1.735   2.018
  626SOL     OW 2776   2.040   6.003   3.455
  626SOL    HW1 2777   1.945   5.994   3.426
  626SOL    HW2 2778   2.074   6.095   3.432
  627SOL     OW 2779   5.551   0.822   0.461
  627SOL    HW1 2780   5.591   0.819   0.369
  627SOL    HW2 2781   5.453   0.838   0.453
  628SOL     OW 2782   5.027   5.303   4.765
  628SOL    HW1 2783   5.070   5.230   4.712
  628SOL    HW2 2784   4.991   5.373   4.704
  629SOL     OW 2785   0.545   0.158   1.294
  629SOL    HW1 2786   0.616   0.173   1.363
  629SOL    HW2 2787   0.514   0.063   1.299
  630SOL     OW 2788   4.816   1.798   1.815
  630SOL    HW1 2789   4.804   1.701   1.791
  630SOL    HW2 2790   4.840   1.805   1.912
  631SOL     OW 2791   2.842   0.380   5.198
  631SOL    HW1 2792   2.827   0.409   5.103
  631SOL    HW2 2793   2.754   0.368   5.244
  632SOL     OW 2794   2.198   1.161   0.497
  632SOL    HW1 2795   2.254   1.244   0.490
  632SOL    HW2 2796   2.254   1.085   0.529
  633SOL     OW 2797   3.227   5.553   0.636
  633SOL    HW1 2798   3.317   5.546   0.679
  633SOL    HW2 2799   3.228   5.627   0.569
  634SOL     OW 2800   4.447   4.884   1.705
  634SOL    HW1 2801   4.426   4.945   1.629
  634SOL    HW2 2802   4.429   4.790   1.678
  635SOL     OW 2803   3.471   0.130   3.438
  635SOL    HW1 2804   3.553   0.162   3.390
  635SOL    HW2 2805   3.438   0.203   3.498
  636SOL     OW 2806   5.094   5.326   6.584
  636SOL    HW1 2807   5.034   5.360   6.657
  636SOL    HW2 2808   5.051   5.341   6.495
  637SOL     OW 2809   4.938   4.849   1.941
  637SOL    HW1 2810   4.862   4.860   1.877
  637SOL    HW2 2811   4.902   4.837   2.034
  638SOL     OW 2812   5.115   1.032   1.867
  638SOL    HW1 2813   5.061   1.089   1.804
  638SOL    HW2 2814   5.143   1.087   1.945
  639SOL     OW 2815   4.806   4.562   1.744
  639SOL    HW1 2816   4.739   4.601   1.807
  639SOL    HW2 2817   4.773   4.473   1.711
  640SOL     OW 2818   2.241   3.971   6.156
  640SOL    HW1 2819   2.176   4.017   6.216
  640SOL    HW2 2820   2.260   4.029   6.077
  641SOL     OW 2821   0.748   5.464   4.480
  641SOL    HW1 2822   0.820   5.505   4.424
  641SOL    HW2 2823   0.745   5.509   4.569
  642SOL     OW 2824   0.478   4.576   5.212
  642SOL    HW1 2825   0.556   4.624   5.251
  642SOL    HW2 2826   0.407   4.642   5.188
  643SOL     OW 2827   6.708   6.154   4.962
  643SOL    HW1 2828   6.635   6.106   4.912
  643SOL    HW2 2829   6.735   6.100   5.042
  644SOL     OW 2830   1.132   6.485   3.258
  644SOL    HW1 2831   1.136   6.399   3.207
  644SOL    HW2 2832   1.167   6.470   3.351
  645SOL     OW 2833   4.346   2.414   4.562
  645SOL    HW1 2834   4.290   2.497   4.570
  645SOL    HW2 2835   4.353   2.370   4.651
  646SOL     OW 2836   1.728   1.537   3.667
  646SOL    HW1 2837   1.769   1.611   3.720
  646SOL    HW2 2838   1.800   1.478   3.631
  647SOL     OW 2839   6.174   2.951   0.108
  647SOL    HW1 2840   6.252   2.917   0.054
  647SOL    HW2 2841   6.090   2.939   0.056
  648SOL     OW 2842   5.936   3.607   2.511
  648SOL    HW1 2843   5.868   3.591   2.583
  648SOL    HW2 2844   5.986   3.522   2.493
  649SOL     OW 2845   3.699   4.251   0.776
  649SOL    HW1 2846   3.732   4.282   0.865
  649SOL    HW2 2847   3.623   4.187   0.788
  650SOL     OW 2848   4.595   4.727   0.780
  650SOL    HW1 2849   4.518   4.679   0.739
  650SOL    HW2 2850   4.656   4.761   0.708
  651SOL     OW 2851   0.461   6.305   1.004
  651SOL    HW1 2852   0.415   6.305   0.916
  651SOL    HW2 2853   0.557   6.279   0.993
  652SOL     OW 2854   4.338   6.664   3.050
  652SOL    HW1 2855   4.425   6.636   3.010
  652SOL    HW2 2856   4.317   6.758   3.022
  653SOL     OW 2857   3.383   5.188   4.180
  653SOL    HW1 2858   3.286   5.163   4.186
  653SOL    HW2 2859   3.437   5.107   4.157
  654SOL     OW 2860   7.002   5.662   6.307
  654SOL    HW1 2861   6.947   5.616   6.377
  654SOL    HW2 2862   0.031   5.734   6.349
  655SOL     OW 2863   0.551   0.374   1.798
  655SOL    HW1 2864   0.605   0.401   1.877
  655SOL    HW2 2865   0.604   0.388   1.714
  656SOL     OW 2866   2.372   6.104   2.110
  656SOL    HW1 2867   2.314   6.025   2.091
  656SOL    HW2 2868   2.326   6.188   2.081
  657SOL     OW 2869   2.904   2.039   1.193
  657SOL    HW1 2870   2.894   2.006   1.099
  657SOL    HW2 2871   2.821   2.087   1.220
  658SOL     OW 2872   3.442   3.930   6.822
  658SOL    HW1 2873   3.541   3.947   6.824
  658SOL    HW2 2874   3.394   4.017   6.812
  659SOL     OW 2875   2.737   6.639   6.375
  659SOL    HW1 2876   2.712   6.565   6.438
  659SOL    HW2 2877   2.654   6.686   6.344
  660SOL     OW 2878   3.948   5.978   1.896
  660SOL    HW1 2879   3.879   5.934   1.953
  660SOL    HW2 2880   4.021   5.913   1.875
  661SOL     OW 2881   4.737   5.902   3.459
  661SOL    HW1 2882   4.776   5.994   3.461
  661SOL    HW2 2883   4.767   5.854   3.377
  662SOL     OW 2884   3.575   1.151   5.763
  662SOL    HW1 2885   3.607   1.077   5.823
  662SOL    HW2 2886   3.561   1.115   5.671
  663SOL     OW 2887   1.971   4.571   4.663
  663SOL    HW1 2888   1.958   4.652   4.605
  663SOL    HW2 2889   1.884   4.523   4.673
  664SOL     OW 2890   0.553   6.277   6.430
  664SOL    HW1 2891   0.628   6.321   6.480
  664SOL    HW2 2892   0.539   6.325   6.343
  665SOL     OW 2893   4.052   5.289   3.450
  665SOL    HW1 2894   3.956   5.316   3.437
  665SOL    HW2 2895   4.061   5.241   3.538
  666SOL     OW 2896   4.054   0.852   2.136
  666SOL    HW1 2897   4.001   0.829   2.217
  666SOL    HW2 2898   4.150   0.864   2.160
  667SOL     OW 2899   0.743   5.078   1.796
  667SOL    HW1 2900   0.835   5.056   1.763
  667SOL    HW2 2901   0.679   5.078   1.719
  668SOL     OW 2902   5.495   4.951   6.081
  668SOL    HW1 2903   5.435   4.881   6.118
  668SOL    HW2 2904   5.514   5.020   6.150
  669SOL     OW 2905   5.683   1.386   3.204
  669SOL    HW1 2906   5.613   1.436   3.154
  669SOL    HW2 2907   5.650   1.294   3.225
  670SOL     OW 2908   2.070   2.041   3.121
  670SOL    HW1 2909   2.009   2.083   3.053
  670SOL    HW2 2910   2.094   1.948   3.091
  671SOL     OW 2911   3.078   6.509   1.437
  671SOL    HW1 2912   3.105   6.569   1.512
  671SOL    HW2 2913   3.127   6.422   1.443
  672SOL     OW 2914   0.503   5.897   1.795
  672SOL    HW1 2915   0.553   5.812   1.781
  672SOL    HW2 2916   0.439   5.912   1.719
  673SOL     OW 2917   4.986   6.661   0.889
  673SOL    HW1 2918   4.987   6.587   0.956
  673SOL    HW2 2919   5.077   6.669   0.847
  674SOL     OW 2920   6.937   2.039   4.727
  674SOL    HW1 2921   6.901   2.132   4.735
  674SOL    HW2 2922   6.868   1.974   4.759
  675SOL     OW 2923   6.334   2.289   2.058
  675SOL    HW1 2924   6.239   2.305   2.083
  675SOL    HW2 2925   6.384   2.254   2.138
  676SOL     OW 2926   2.544   4.601   4.627
  676SOL    HW1 2927   2.553   4.505   4.652
  676SOL    HW2 2928   2.602   4.657   4.687
  677SOL     OW 2929   4.995   0.984   1.573
  677SOL    HW1 2930   5.068   0.952   1.634
  677SOL    HW2 2931   4.968   1.076   1.599
  678SOL     OW 2932   2.779   4.589   5.387
  678SOL    HW1 2933   2.709   4.657   5.368
  678SOL    HW2 2934   2.839   4.579   5.308
  679SOL     OW 2935   5.367   2.058   4.901
  679SOL    HW1 2936   5.400   2.083   4.992
  679SOL    HW2 2937   5.431   1.995   4.858
  680SOL     OW 2938   5.088   6.561   4.294
  680SOL    HW1 2939   5.001   6.538   4.250
  680SOL    HW2 2940   5.096   6.660   4.301
  681SOL     OW 2941   4.874   5.823   2.614
  681SOL    HW1 2942   4.820   5.888   2.669
  681SOL    HW2 2943   4.849   5.834   2.518
  682SOL     OW 2944   0.191   1.497   2.092
  682SOL    HW1 2945   0.161   1.408   2.128
  682SOL    HW2 2946   0.289   1.493   2.071
  683SOL     OW 2947   4.224   3.261   1.210
  683SOL    HW1 2948   4.140   3.291   1.257
  683SOL    HW2 2949   4.302   3.312   1.247
  684SOL     OW 2950   6.104   0.479   7.022
  684SOL    HW1 2951   6.164   0.490   0.074
  684SOL    HW2 2952   6.047   0.398   0.008
  685SOL     OW 2953   3.409   1.168   3.673
  685SOL    HW1 2954   3.498   1.212   3.688
  685SOL    HW2 2955   3.423   1.073   3.645
  686SOL     OW 2956   4.295   1.141   3.820
  686SOL    HW1 2957   4.351   1.178   3.893
  686SOL    HW2 2958   4.256   1.216   3.766
  687SOL     OW 2959   1.086   1.811   4.603
  687SOL    HW1 2960   1.002   1.864   4.598
  687SOL    HW2 2961   1.065   1.714   4.591
  688SOL     OW 2962   7.005   0.740   6.071
  688SOL    HW1 2963   7.004   0.789   6.158
  688SOL    HW2 2964   0.072   0.714   6.048
  689SOL     OW 2965   1.078   4.807   5.678
  689SOL    HW1 2966   0.982   4.810   5.706
  689SOL    HW2 2967   1.084   4.824   5.579
  690SOL     OW 2968   6.566   3.500   3.154
  690SOL    HW1 2969   6.544   3.574   3.089
  690SOL    HW2 2970   6.497   3.498   3.226
  691SOL     OW 2971   4.421   1.498   0.681
  691SOL    HW1 2972   4.510   1.540   0.661
  691SOL    HW2 2973   4.359   1.512   0.604
  692SOL     OW 2974   3.529   1.690   5.433
  692SOL    HW1 2975   3.580   1.660   5.352
  692SOL    HW2 2976   3.492   1.782   5.416
  693SOL     OW 2977   4.349   6.291   3.901
  693SOL    HW1 2978   4.410   6.213   3.889
  693SOL    HW2 2979   4.337   6.338   3.813
  694SOL     OW 2980   3.704   6.296   4.318
  694SOL    HW1 2981   3.623   6.327   4.269
  694SOL    HW2 2982   3.751   6.226   4.264
  695SOL     OW 2983   3.271   5.844   4.411
  695SOL    HW1 2984   3.357   5.801   4.385
  695SOL    HW2 2985   3.229   5.793   4.486
  696SOL     OW 2986   5.140   4.303   3.522
  696SOL    HW1 2987   5.125   4.216   3.568
  696SOL    HW2 2988   5.067   4.367   3.548
  697SOL     OW 2989   0.879   3.782   1.735
  697SOL    HW1 2990   0.875   3.881   1.723
  697SOL    HW2 2991   0.960   3.746   1.688
  698SOL     OW 2992   4.839   6.579   1.297
  698SOL    HW1 2993   4.777   6.633   1.240
  698SOL    HW2 2994   4.786   6.520   1.357
  699SOL     OW 2995   2.145   3.183   6.274
  699SOL    HW1 2996   2.137   3.283   6.273
  699SOL    HW2 2997   2.230   3.156   6.229
  700SOL     OW 2998   3.614   6.900   2.606
  700SOL    HW1 2999   3.520   6.914   2.575
  700SOL    HW2 3000   3.676   6.909   2.529
  701SOL     OW 3001   5.916   4.632   0.957
  701SOL    HW1 3002   5.912   4.584   1.045
  701SOL    HW2 3003   5.952   4.724   0.972
  702SOL     OW 3004   2.573   0.401   4.223
  702SOL    HW1 3005   2.669   0.408   4.250
  702SOL    HW2 3006   2.518   0.466   4.275
  703SOL     OW 3007   3.028   3.426   5.710
  703SOL    HW1 3008   3.074   3.382   5.633
  703SOL    HW2 3009   3.090   3.434   5.787
  704SOL     OW 3010   1.603   2.787   6.205
  704SOL    HW1 3011   1.526   2.724   6.216
  704SOL    HW2 3012   1.583   2.851   6.130
  705SOL     OW 3013   0.079   6.497   4.145
  705SOL    HW1 3014   0.073   6.434   4.068
  705SOL    HW2 3015   0.168   6.487   4.190
  706SOL     OW 3016   4.250   1.182   5.251
  706SOL    HW1 3017   4.325   1.120   5.227
  706SOL    HW2 3018   4.190   1.192   5.172
  707SOL     OW 3019   4.209   5.543   3.178
  707SOL    HW1 3020   4.123   5.530   3.129
  707SOL    HW2 3021   4.191   5.547   3.276
  708SOL     OW 3022   2.626   1.041   3.565
  708SOL    HW1 3023   2.640   0.998   3.475
  708SOL    HW2 3024   2.707   1.028   3.621
  709SOL     OW 3025   1.750   6.683   1.693
  709SOL    HW1 3026   1.799   6.740   1.758
  709SOL    HW2 3027   1.813   6.650   1.622
  710SOL     OW 3028   4.813   2.516   1.648
  710SOL    HW1 3029   4.743   2.510   1.719
  710SOL    HW2 3030   4.853   2.608   1.649
  711SOL     OW 3031   6.862   2.669   6.124
  711SOL    HW1 3032   6.885   2.741   6.058
  711SOL    HW2 3033   6.935   2.662   6.192
  712SOL     OW 3034   4.639   2.654   1.081
  712SOL    HW1 3035   4.736   2.671   1.099
  712SOL    HW2 3036   4.584   2.690   1.155
  713SOL     OW 3037   4.303   2.729   5.338
  713SOL    HW1 3038   4.244   2.765   5.410
  713SOL    HW2 3039   4.247   2.677   5.273
  714SOL     OW 3040   6.151   5.305   3.843
  714SOL    HW1 3041   6.090   5.339   3.771
  714SOL    HW2 3042   6.204   5.228   3.807
  715SOL     OW 3043   6.220   5.126   5.497
  715SOL    HW1 3044   6.134   5.075   5.494
  715SOL    HW2 3045   6.282   5.089   5.427
  716SOL     OW 3046   2.064   0.827   2.784
  716SOL    HW1 3047   2.082   0.898   2.715
  716SOL    HW2 3048   2.095   0.738   2.749
  717SOL     OW 3049   5.915   4.733   4.639
  717SOL    HW1 3050   5.875   4.641   4.633
  717SOL    HW2 3051   5.984   4.744   4.566
  718SOL     OW 3052   4.759   2.756   4.395
  718SOL    HW1 3053   4.748   2.795   4.487
  718SOL    HW2 3054   4.856   2.744   4.375
  719SOL     OW 3055   6.956   0.189   2.232
  719SOL    HW1 3056   7.011   0.255   2.283
  719SOL    HW2 3057   6.895   0.141   2.295
  720SOL     OW 3058   2.468   0.677   5.902
  720SOL    HW1 3059   2.533   0.725   5.843
  720SOL    HW2 3060   2.489   0.579   5.902
  721SOL     OW 3061   0.489   1.723   2.189
  721SOL    HW1 3062   0.585   1.704   2.167
  721SOL    HW2 3063   0.468   1.688   2.281
  722SOL     OW 3064   4.244   0.552   6.414
  722SOL    HW1 3065   4.286   0.553   6.505
  722SOL    HW2 3066   4.182   0.630   6.406
  723SOL     OW 3067   2.460   5.910   3.784
  723SOL    HW1 3068   2.506   5.872   3.704
  723SOL    HW2 3069   2.378   5.857   3.804
  724SOL     OW 3070   0.066   0.347   3.188
  724SOL    HW1 3071   0.055   0.434   3.141
  724SOL    HW2 3072   0.046   0.358   3.285
  725SOL     OW 3073   2.481   4.484   2.185
  725SOL    HW1 3074   2.454   4.503   2.090
  725SOL    HW2 3075   2.580   4.486   2.192
  726SOL     OW 3076   2.568   4.934   0.702
  726SOL    HW1 3077   2.536   4.891   0.787
  726SOL    HW2 3078   2.668   4.931   0.698
  727SOL     OW 3079   4.486   5.482   6.231
  727SOL    HW1 3080   4.548   5.561   6.231
  727SOL    HW2 3081   4.472   5.451   6.325
  728SOL     OW 3082   0.145   3.092   4.460
  728SOL    HW1 3083   0.198   3.161   4.411
  728SOL    HW2 3084   0.173   3.090   4.556
  729SOL     OW 3085   0.010   3.273   0.807
  729SOL    HW1 3086   0.079   3.201   0.806
  729SOL    HW2 3087   0.055   3.362   0.797
  730SOL     OW 3088   5.316   0.522   2.577
  730SOL    HW1 3089   5.321   0.512   2.677
  730SOL    HW2 3090   5.377   0.596   2.549
  731SOL     OW 3091   4.832   4.397   6.601
  731SOL    HW1 3092   4.926   4.410   6.631
  731SOL    HW2 3093   4.822   4.306   6.559
  732SOL     OW 3094   5.061   2.168   2.391
  732SOL    HW1 3095   5.072   2.072   2.415
  732SOL    HW2 3096   5.150   2.206   2.365
  733SOL     OW 3097   5.874   6.995   4.097
  733SOL    HW1 3098   5.831   6.928   4.158
  733SOL    HW2 3099   5.970   7.005   4.120
  734SOL     OW 3100   6.438   4.220   2.526
  734SOL    HW1 3101   6.405   4.254   2.438
  734SOL    HW2 3102   6.388   4.136   2.550
  735SOL     OW 3103   5.526   0.532   1.538
  735SOL    HW1 3104   5.615   0.486   1.534
  735SOL    HW2 3105   5.481   0.528   1.449
  736SOL     OW 3106   1.425   1.433   4.313
  736SOL    HW1 3107   1.380   1.438   4.224
  736SOL    HW2 3108   1.448   1.337   4.333
  737SOL     OW 3109   5.762   1.855   5.555
  737SOL    HW1 3110   5.801   1.791   5.487
  737SOL    HW2 3111   5.753   1.808   5.643
  738SOL     OW 3112   3.177   4.215   0.894
  738SOL    HW1 3113   3.083   4.185   0.882
  738SOL    HW2 3114   3.204   4.204   0.990
  739SOL     OW 3115   3.456   7.018   5.101
  739SOL    HW1 3116   3.549   0.026   5.089
  739SOL    HW2 3117   3.391   0.065   5.087
  740SOL     OW 3118   5.802   2.459   2.546
  740SOL    HW1 3119   5.814   2.557   2.556
  740SOL    HW2 3120   5.736   2.426   2.614
  741SOL     OW 3121   1.656   0.749   5.084
  741SOL    HW1 3122   1.677   0.809   5.007
  741SOL    HW2 3123   1.592   0.794   5.145
  742SOL     OW 3124   1.457   6.010   1.277
  742SOL    HW1 3125   1.455   5.926   1.331
  742SOL    HW2 3126   1.452   5.987   1.179
  743SOL     OW 3127   0.519   6.256   3.583
  743SOL    HW1 3128   0.482   6.295   3.499
  743SOL    HW2 3129   0.615   6.281   3.592
  744SOL     OW 3130   6.787   1.093   0.982
  744SOL    HW1 3131   6.882   1.119   1.000
  744SOL    HW2 3132   6.785   1.009   0.927
  745SOL     OW 3133   1.954   5.774   5.213
  745SOL    HW1 3134   1.925   5.786   5.118
  745SOL    HW2 3135   2.042   5.818   5.227
  746SOL     OW 3136   5.462   3.944   5.426
  746SOL    HW1 3137   5.377   3.937   5.478
  746SOL    HW2 3138   5.539   3.917   5.483
  747SOL     OW 3139   5.005   5.385   3.656
  747SOL    HW1 3140   5.047   5.351   3.740
  747SOL    HW2 3141   5.025   5.323   3.581
  748SOL     OW 3142   5.334   4.950   2.930
  748SOL    HW1 3143   5.294   5.041   2.920
  748SOL    HW2 3144   5.316   4.896   2.848
  749SOL     OW 3145   4.934   3.440   3.372
  749SOL    HW1 3146   4.894   3.356   3.408
  749SOL    HW2 3147   4.887   3.466   3.288
  750SOL     OW 3148   2.588   0.956   1.339
  750SOL    HW1 3149   2.619   1.018   1.267
  750SOL    HW2 3150   2.495   0.926   1.319
  751SOL     OW 3151   5.264   2.630   0.904
  751SOL    HW1 3152   5.174   2.589   0.922
  751SOL    HW2 3153   5.260   2.684   0.821
  752SOL     OW 3154   3.641   2.224   6.016
  752SOL    HW1 3155   3.659   2.249   6.111
  752SOL    HW2 3156   3.624   2.307   5.963
  753SOL     OW 3157   3.034   3.784   5.174
  753SOL    HW1 3158   2.995   3.711   5.231
  753SOL    HW2 3159   3.003   3.773   5.080
  754SOL     OW 3160   5.709   0.790   6.801
  754SOL    HW1 3161   5.611   0.768   6.800
  754SOL    HW2 3162   5.743   0.795   6.707
  755SOL     OW 3163   3.082   4.431   5.344
  755SOL    HW1 3164   3.154   4.500   5.346
  755SOL    HW2 3165   3.007   4.462   5.286
  756SOL     OW 3166   3.471   5.065   6.905
  756SOL    HW1 3167   3.511   5.011   6.832
  756SOL    HW2 3168   3.517   5.044   6.991
  757SOL     OW 3169   1.909   6.853   2.540
  757SOL    HW1 3170   1.987   6.888   2.591
  757SOL    HW2 3171   1.880   6.765   2.578
  758SOL     OW 3172   4.035   1.293   3.837
  758SOL    HW1 3173   3.989   1.213   3.798
  758SOL    HW2 3174   4.013   1.374   3.783
  759SOL     OW 3175   0.312   2.209   3.101
  759SOL    HW1 3176   0.302   2.242   3.195
  759SOL    HW2 3177   0.294   2.284   3.037
  760SOL     OW 3178   6.629   6.416   3.679
  760SOL    HW1 3179   6.598   6.480   3.610
  760SOL    HW2 3180   6.683   6.464   3.748
  761SOL     OW 3181   5.390   4.101   5.841
  761SOL    HW1 3182   5.400   4.008   5.807
  761SOL    HW2 3183   5.468   4.124   5.900
  762SOL     OW 3184   2.960   6.392   5.781
  762SOL    HW1 3185   2.902   6.319   5.817
  762SOL    HW2 3186   2.963   6.467   5.847
  763SOL     OW 3187   5.251   0.210   6.524
  763SOL    HW1 3188   5.184   0.214   6.598
  763SOL    HW2 3189   5.236   0.286   6.460
  764SOL     OW 3190   5.937   1.229   5.783
  764SOL    HW1 3191   6.028   1.200   5.753
  764SOL    HW2 3192   5.878   1.243   5.704
  765SOL     OW 3193   1.102   6.585   0.753
  765SOL    HW1 3194   1.058   6.504   0.792
  765SOL    HW2 3195   1.157   6.631   0.823
  766SOL     OW 3196   2.278   2.455   5.489
  766SOL    HW1 3197   2.211   2.515   5.445
  766SOL    HW2 3198   2.304   2.382   5.425
  767SOL     OW 3199   6.888   6.601   3.366
  767SOL    HW1 3200   6.872   6.647   3.279
  767SOL    HW2 3201   6.960   6.649   3.417
  768SOL     OW 3202   2.187   5.937   2.744
  768SOL    HW1 3203   2.248   6.015   2.733
  768SOL    HW2 3204   2.133   5.925   2.661
  769SOL     OW 3205   3.710   1.674   5.231
  769SOL    HW1 3206   3.712   1.694   5.133
  769SOL    HW2 3207   3.778   1.730   5.278
  770SOL     OW 3208   1.623   4.987   4.104
  770SOL    HW1 3209   1.658   4.930   4.031
  770SOL    HW2 3210   1.698   5.015   4.164
  771SOL     OW 3211   1.267   5.387   3.404
  771SOL    HW1 3212   1.219   5.365   3.319
  771SOL    HW2 3213   1.202   5.420   3.471
  772SOL     OW 3214   5.579   5.008   6.817
  772SOL    HW1 3215   5.557   5.058   6.901
  772SOL    HW2 3216   5.535   4.918   6.820
  773SOL     OW 3217   1.153   3.377   3.223
  773SOL    HW1 3218   1.232   3.334   3.267
  773SOL    HW2 3219   1.185   3.446   3.157
  774SOL     OW 3220   2.271   1.896   3.746
  774SOL    HW1 3221   2.369   1.914   3.758
  774SOL    HW2 3222   2.259   1.808   3.699
  775SOL     OW 3223   2.189   3.265   4.209
  775SOL    HW1 3224   2.109   3.285   4.152
  775SOL    HW2 3225   2.253   3.208   4.157
  776SOL     OW 3226   1.015   6.951   6.246
  776SOL    HW1 3227   1.051   6.859   6.258
  776SOL    HW2 3228   0.915   6.947   6.236
  777SOL     OW 3229   1.548   3.397   0.353
  777SOL    HW1 3230   1.509   3.321   0.300
  777SOL    HW2 3231   1.526   3.385   0.450
  778SOL     OW 3232   3.067   0.125   1.566
  778SOL    HW1 3233   3.107   0.045   1.522
  778SOL    HW2 3234   3.031   0.187   1.497
  779SOL     OW 3235   0.433   2.310   1.645
  779SOL    HW1 3236   0.427   2.261   1.558
  779SOL    HW2 3237   0.427   2.408   1.628
  780SOL     OW 3238   1.354   2.180   4.596
  780SOL    HW1 3239   1.450   2.203   4.613
  780SOL    HW2 3240   1.345   2.081   4.585
  781SOL     OW 3241   6.841   4.455   0.189
  781SOL    HW1 3242   6.757   4.449   0.242
  781SOL    HW2 3243   6.822   4.495   0.100
  782SOL     OW 3244   1.950   4.106   5.751
  782SOL    HW1 3245   2.024   4.099   5.818
  782SOL    HW2 3246   1.987   4.136   5.664
  783SOL     OW 3247   5.494   5.267   6.228
  783SOL    HW1 3248   5.563   5.233   6.292
  783SOL    HW2 3249   5.415   5.300   6.278
  784SOL     OW 3250   2.525   6.084   1.858
  784SOL    HW1 3251   2.488   6.080   1.951
  784SOL    HW2 3252   2.584   6.005   1.843
  785SOL     OW 3253   0.903   0.364   3.907
  785SOL    HW1 3254   0.950   0.429   3.966
  785SOL    HW2 3255   0.911   0.394   3.812
  786SOL     OW 3256   6.060   0.563   3.122
  786SOL    HW1 3257   6.000   0.589   3.197
  786SOL    HW2 3258   6.069   0.639   3.058
  787SOL     OW 3259   2.328   0.918   0.338
  787SOL    HW1 3260   2.350   0.928   0.241
  787SOL    HW2 3261   2.278   0.832   0.352
  788SOL     OW 3262   3.724   2.874   1.542
  788SOL    HW1 3263   3.795   2.805   1.528
  788SOL    HW2 3264   3.636   2.840   1.510
  789SOL     OW 3265   4.471   5.475   2.110
  789SOL    HW1 3266   4.533   5.426   2.048
  789SOL    HW2 3267   4.524   5.538   2.167
  790SOL     OW 3268   0.802   2.667   1.397
  790SOL    HW1 3269   0.890   2.658   1.350
  790SOL    HW2 3270   0.767   2.576   1.419
  791SOL     OW 3271   3.063   5.983   5.439
  791SOL    HW1 3272   3.129   6.058   5.447
  791SOL    HW2 3273   3.106   5.906   5.391
  792SOL     OW 3274   0.467   1.500   0.331
  792SOL    HW1 3275   0.503   1.535   0.244
  792SOL    HW2 3276   0.370   1.524   0.339
  793SOL     OW 3277   4.398   5.569   4.273
  793SOL    HW1 3278   4.485   5.618   4.281
  793SOL    HW2 3279   4.397   5.516   4.188
  794SOL     OW 3280   3.313   3.371   4.238
  794SOL    HW1 3281   3.282   3.414   4.153
  794SOL    HW2 3282   3.252   3.397   4.312
  795SOL     OW 3283   4.050   0.518   5.748
  795SOL    HW1 3284   4.032   0.617   5.746
  795SOL    HW2 3285   3.966   0.468   5.731
  796SOL     OW 3286   1.841   2.619   6.230
  796SOL    HW1 3287   1.752   2.643   6.192
  796SOL    HW2 3288   1.913   2.649   6.167
  797SOL     OW 3289   4.213   0.317   1.147
  797SOL    HW1 3290   4.158   0.395   1.118
  797SOL    HW2 3291   4.301   0.349   1.181
  798SOL     OW 3292   2.479   6.457   1.467
  798SOL    HW1 3293   2.467   6.448   1.565
  798SOL    HW2 3294   2.510   6.370   1.429
  799SOL     OW 3295   0.554   2.188   6.373
  799SOL    HW1 3296   0.508   2.181   6.284
  799SOL    HW2 3297   0.511   2.260   6.427
  800SOL     OW 3298   6.068   1.372   1.960
  800SOL    HW1 3299   6.110   1.456   1.994
  800SOL    HW2 3300   6.010   1.332   2.030
  801SOL     OW 3301   1.850   5.554   5.625
  801SOL    HW1 3302   1.823   5.552   5.721
  801SOL    HW2 3303   1.933   5.500   5.612
  802SOL     OW 3304   5.388   2.214   6.692
  802SOL    HW1 3305   5.340   2.288   6.738
  802SOL    HW2 3306   5.329   2.175   6.621
  803SOL     OW 3307   2.783   0.302   5.524
  803SOL    HW1 3308   2.829   0.389   5.540
  803SOL    HW2 3309   2.699   0.317   5.471
  804SOL     OW 3310   6.181   0.329   1.653
  804SOL    HW1 3311   6.091   0.366   1.675
  804SOL    HW2 3312   6.195   0.243   1.703
  805SOL     OW 3313   2.177   0.756   3.414
  805SOL    HW1 3314   2.184   0.744   3.513
  805SOL    HW2 3315   2.122   0.837   3.394
  806SOL     OW 3316   0.650   0.112   5.799
  806SOL    HW1 3317   0.678   0.061   5.718
  806SOL    HW2 3318   0.638   0.050   5.877
  807SOL     OW 3319   0.706   6.654   4.542
  807SOL    HW1 3320   0.721   6.585   4.471
  807SOL    HW2 3321   0.772   6.728   4.532
  808SOL     OW 3322   5.985   2.758   0.448
  808SOL    HW1 3323   6.024   2.729   0.360
  808SOL    HW2 3324   5.891   2.789   0.434
  809SOL     OW 3325   0.121   4.966   6.834
  809SOL    HW1 3326   0.206   4.991   6.788
  809SOL    HW2 3327   0.094   5.040   6.896
  810SOL     OW 3328   2.450   3.280   0.444
  810SOL    HW1 3329   2.369   3.320   0.486
  810SOL    HW2 3330   2.490   3.213   0.507
  811SOL     OW 3331   5.234   5.058   4.640
  811SOL    HW1 3332   5.280   4.970   4.623
  811SOL    HW2 3333   5.275   5.102   4.720
  812SOL     OW 3334   0.721   2.024   2.278
  812SOL    HW1 3335   0.647   2.029   2.211
  812SOL    HW2 3336   0.807   2.006   2.230
  813SOL     OW 3337   2.120   0.835   4.466
  813SOL    HW1 3338   2.106   0.838   4.367
  813SOL    HW2 3339   2.217   0.843   4.486
  814SOL     OW 3340   0.005   5.812   2.845
  814SOL    HW1 3341   6.958   5.852   2.899
  814SOL    HW2 3342   0.074   5.774   2.907
  815SOL     OW 3343   4.871   2.449   3.426
  815SOL    HW1 3344   4.828   2.420   3.512
  815SOL    HW2 3345   4.853   2.381   3.355
  816SOL     OW 3346   4.904   4.249   0.312
  816SOL    HW1 3347   4.942   4.332   0.354
  816SOL    HW2 3348   4.951   4.232   0.225
  817SOL     OW 3349   0.840   5.455   1.159
  817SOL    HW1 3350   0.924   5.510   1.161
  817SOL    HW2 3351   0.811   5.442   1.064
  818SOL     OW 3352   5.641   2.756   3.530
  818SOL    HW1 3353   5.735   2.738   3.558
  818SOL    HW2 3354   5.619   2.700   3.450
  819SOL     OW 3355   6.099   2.826   1.406
  819SOL    HW1 3356   6.073   2.858   1.497
  819SOL    HW2 3357   6.029   2.764   1.371
  820SOL     OW 3358   2.838   1.955   4.331
  820SOL    HW1 3359   2.920   1.922   4.283
  820SOL    HW2 3360   2.783   2.011   4.269
  821SOL     OW 3361   5.687   4.431   4.613
  821SOL    HW1 3362   5.701   4.384   4.525
  821SOL    HW2 3363   5.644   4.367   4.677
  822SOL     OW 3364   0.680   4.336   3.471
  822SOL    HW1 3365   0.778   4.334   3.491
  822SOL    HW2 3366   0.651   4.245   3.439
  823SOL     OW 3367   0.745   3.257   6.114
  823SOL    HW1 3368   0.831   3.259   6.165
  823SOL    HW2 3369   0.759   3.211   6.026
  824SOL     OW 3370   5.521   1.241   5.089
  824SOL    HW1 3371   5.515   1.320   5.150
  824SOL    HW2 3372   5.587   1.259   5.016
  825SOL     OW 3373   6.225   6.138   1.152
  825SOL    HW1 3374   6.267   6.225   1.124
  825SOL    HW2 3375   6.158   6.156   1.225
  826SOL     OW 3376   3.943   1.716   6.012
  826SOL    HW1 3377   3.877   1.758   6.074
  826SOL    HW2 3378   4.035   1.749   6.034
  827SOL     OW 3379   3.434   4.215   4.592
  827SOL    HW1 3380   3.439   4.260   4.503
  827SOL    HW2 3381   3.434   4.116   4.579
  828SOL     OW 3382   6.425   5.531   4.434
  828SOL    HW1 3383   6.402   5.577   4.348
  828SOL    HW2 3384   6.393   5.436   4.430
  829SOL     OW 3385   3.446   2.853   2.361
  829SOL    HW1 3386   3.515   2.905   2.310
  829SOL    HW2 3387   3.400   2.790   2.298
  830SOL     OW 3388   6.024   4.797   6.742
  830SOL    HW1 3389   6.018   4.895   6.723
  830SOL    HW2 3390   6.109   4.778   6.790
  831SOL     OW 3391   5.378   6.609   1.505
  831SOL    HW1 3392   5.417   6.553   1.578
  831SOL    HW2 3393   5.293   6.569   1.473
  832SOL     OW 3394   3.980   1.497   4.575
  832SOL    HW1 3395   4.017   1.505   4.668
  832SOL    HW2 3396   4.013   1.413   4.533
  833SOL     OW 3397   1.347   3.870   6.193
  833SOL    HW1 3398   1.250   3.854   6.208
  833SOL    HW2 3399   1.397   3.856   6.278
  834SOL     OW 3400   4.621   3.424   6.643
  834SOL    HW1 3401   4.708   3.474   6.640
  834SOL    HW2 3402   4.604   3.381   6.555
  835SOL     OW 3403   1.462   0.281   4.870
  835SOL    HW1 3404   1.503   0.208   4.816
  835SOL    HW2 3405   1.482   0.267   4.967
  836SOL     OW 3406   3.528   2.132   5.710
  836SOL    HW1 3407   3.613   2.178   5.735
  836SOL    HW2 3408   3.548   2.041   5.676
  837SOL     OW 3409   1.351   0.307   1.454
  837SOL    HW1 3410   1.305   0.389   1.420
  837SOL    HW2 3411   1.421   0.278   1.388
  838SOL     OW 3412   2.274   5.521   4.474
  838SOL    HW1 3413   2.321   5.592   4.420
  838SOL    HW2 3414   2.177   5.543   4.480
  839SOL     OW 3415   1.840   0.740   1.065
  839SOL    HW1 3416   1.877   0.762   0.975
  839SOL    HW2 3417   1.817   0.824   1.113
  840SOL     OW 3418   5.703   5.734   0.193
  840SOL    HW1 3419   5.767   5.764   0.122
  840SOL    HW2 3420   5.642   5.664   0.155
  841SOL     OW 3421   4.515   5.479   5.809
  841SOL    HW1 3422   4.583   5.416   5.848
  841SOL    HW2 3423   4.480   5.441   5.723
  842SOL     OW 3424   3.186   6.940   0.009
  842SOL    HW1 3425   3.271   6.993   0.004
  842SOL    HW2 3426   3.122   6.986   0.072
  843SOL     OW 3427   2.333   2.103   1.691
  843SOL    HW1 3428   2.263   2.137   1.628
  843SOL    HW2 3429   2.343   2.004   1.678
  844SOL     OW 3430   0.329   6.506   1.166
  844SOL    HW1 3431   0.391   6.444   1.117
  844SOL    HW2 3432   0.283   6.457   1.239
  845SOL     OW 3433   4.047   1.878   3.104
  845SOL    HW1 3434   4.062   1.943   3.029
  845SOL    HW2 3435   4.062   1.923   3.191
  846SOL     OW 3436   3.135   1.645   6.138
  846SOL    HW1 3437   3.190   1.566   6.164
  846SOL    HW2 3438   3.082   1.675   6.217
  847SOL     OW 3439   2.369   3.432   1.573
  847SOL    HW1 3440   2.324   3.358   1.523
  847SOL    HW2 3441   2.370   3.411   1.670
  848SOL     OW 3442   5.879   6.783   5.993
  848SOL    HW1 3443   5.953   6.808   6.056
  848SOL    HW2 3444   5.803   6.745   6.045
  849SOL     OW 3445   5.669   3.732   0.372
  849SOL    HW1 3446   5.573   3.756   0.386
  849SOL    HW2 3447   5.675   3.640   0.335
  850SOL     OW 3448   6.653   0.718   4.642
  850SOL    HW1 3449   6.591   0.796   4.654
  850SOL    HW2 3450   6.732   0.730   4.702
  851SOL     OW 3451   6.805   3.537   0.339
  851SOL    HW1 3452   6.840   3.458   0.390
  851SOL    HW2 3453   6.748   3.593   0.399
  852SOL     OW 3454   6.815   4.660   0.983
  852SOL    HW1 3455   6.754   4.605   1.041
  852SOL    HW2 3456   6.815   4.755   1.015
  853SOL     OW 3457   2.051   4.509   0.441
  853SOL    HW1 3458   2.082   4.522   0.535
  853SOL    HW2 3459   2.130   4.503   0.380
  854SOL     OW 3460   6.264   6.357   6.997
  854SOL    HW1 3461   6.165   6.342   6.997
  854SOL    HW2 3462   6.302   6.328   6.909
  855SOL     OW 3463   7.008   0.680   0.501
  855SOL    HW1 3464   6.928   0.705   0.446
  855SOL    HW2 3465   6.990   0.595   0.551
  856SOL     OW 3466   1.981   6.747   6.683
  856SOL    HW1 3467   2.062   6.688   6.677
  856SOL    HW2 3468   1.987   6.802   6.766
  857SOL     OW 3469   0.197   4.449   3.135
  857SOL    HW1 3470   0.273   4.401   3.091
  857SOL    HW2 3471   0.161   4.393   3.209
  858SOL     OW 3472   3.340   3.903   0.921
  858SOL    HW1 3473   3.375   3.973   0.859
  858SOL    HW2 3474   3.242   3.917   0.935
  859SOL     OW 3475   4.921   6.195   5.254
  859SOL    HW1 3476   4.971   6.281   5.259
  859SOL    HW2 3477   4.824   6.211   5.272
  860SOL     OW 3478   5.398   3.292   6.085
  860SOL    HW1 3479   5.334   3.284   6.008
  860SOL    HW2 3480   5.347   3.291   6.171
  861SOL     OW 3481   1.636   5.128   2.966
  861SOL    HW1 3482   1.614   5.225   2.977
  861SOL    HW2 3483   1.694   5.117   2.885
  862SOL     OW 3484   1.693   4.805   3.904
  862SOL    HW1 3485   1.775   4.828   3.852
  862SOL    HW2 3486   1.636   4.743   3.850
  863SOL     OW 3487   6.536   0.549   5.993
  863SOL    HW1 3488   6.529   0.477   6.061
  863SOL    HW2 3489   6.618   0.603   6.010
  864SOL     OW 3490   4.410   6.988   5.737
  864SOL    HW1 3491   4.325   0.003   5.766
  864SOL    HW2 3492   4.391   6.918   5.667
  865SOL     OW 3493   2.197   6.316   4.954
  865SOL    HW1 3494   2.178   6.246   4.885
  865SOL    HW2 3495   2.281   6.365   4.928
  866SOL     OW 3496   2.975   6.867   0.944
  866SOL    HW1 3497   2.895   6.829   0.991
  866SOL    HW2 3498   2.995   6.813   0.863
  867SOL     OW 3499   5.977   2.524   0.600
  867SOL    HW1 3500   5.940   2.451   0.544
  867SOL    HW2 3501   6.007   2.600   0.542
  868SOL     OW 3502   0.533   2.237   2.519
  868SOL    HW1 3503   0.502   2.332   2.514
  868SOL    HW2 3504   0.454   2.176   2.519
  869SOL     OW 3505   6.839   3.535   3.765
  869SOL    HW1 3506   6.771   3.492   3.824
  869SOL    HW2 3507   6.874   3.618   3.808
  870SOL     OW 3508   3.767   4.975   1.127
  870SOL    HW1 3509   3.840   4.955   1.193
  870SOL    HW2 3510   3.679   4.947   1.166
  871SOL     OW 3511   4.873   2.297   4.189
  871SOL    HW1 3512   4.872   2.346   4.276
  871SOL    HW2 3513   4.886   2.363   4.115
  872SOL     OW 3514   0.170   2.006   4.822
  872SOL    HW1 3515   0.071   1.998   4.813
  872SOL    HW2 3516   0.201   2.089   4.776
  873SOL     OW 3517   4.830   6.424   5.521
  873SOL    HW1 3518   4.798   6.502   5.467
  873SOL    HW2 3519   4.894   6.456   5.591
  874SOL     OW 3520   6.341   4.184   6.742
  874SOL    HW1 3521   6.263   4.215   6.688
  874SOL    HW2 3522   6.408   4.141   6.682
  875SOL     OW 3523   5.349   5.240   1.344
  875SOL    HW1 3524   5.346   5.340   1.352
  875SOL    HW2 3525   5.315   5.200   1.429
  876SOL     OW 3526   0.608   5.637   1.820
  876SOL    HW1 3527   0.521   5.608   1.780
  876SOL    HW2 3528   0.645   5.564   1.877
  877SOL     OW 3529   2.780   4.637   6.526
  877SOL    HW1 3530   2.780   4.598   6.618
  877SOL    HW2 3531   2.697   4.689   6.511
  878SOL     OW 3532   4.148   6.985   4.178
  878SOL    HW1 3533   4.075   0.025   4.163
  878SOL    HW2 3534   4.142   6.949   4.271
  879SOL     OW 3535   3.776   0.623   1.623
  879SOL    HW1 3536   3.728   0.658   1.703
  879SOL    HW2 3537   3.798   0.699   1.561
  880SOL     OW 3538   3.282   4.105   3.918
  880SOL    HW1 3539   3.379   4.106   3.939
  880SOL    HW2 3540   3.266   4.054   3.833
  881SOL     OW 3541   4.871   3.072   4.806
  881SOL    HW1 3542   4.854   3.123   4.891
  881SOL    HW2 3543   4.967   3.084   4.779
  882SOL     OW 3544   0.816   3.093   4.262
  882SOL    HW1 3545   0.785   3.091   4.167
  882SOL    HW2 3546   0.739   3.119   4.321
  883SOL     OW 3547   3.531   0.686   2.242
  883SOL    HW1 3548   3.501   0.713   2.151
  883SOL    HW2 3549   3.587   0.603   2.236
  884SOL     OW 3550   5.074   3.214   5.597
  884SOL    HW1 3551   4.983   3.193   5.562
  884SOL    HW2 3552   5.128   3.259   5.526
  885SOL     OW 3553   3.634   1.066   5.507
  885SOL    HW1 3554   3.674   0.974   5.509
  885SOL    HW2 3555   3.639   1.102   5.414
  886SOL     OW 3556   3.635   0.490   0.408
  886SOL    HW1 3557   3.665   0.435   0.485
  886SOL    HW2 3558   3.594   0.431   0.338
  887SOL     OW 3559   3.732   6.875   3.968
  887SOL    HW1 3560   3.788   6.946   4.011
  887SOL    HW2 3561   3.643   6.869   4.014
  888SOL     OW 3562   0.746   6.024   2.783
  888SOL    HW1 3563   0.673   5.959   2.807
  888SOL    HW2 3564   0.706   6.113   2.762
  889SOL     OW 3565   0.727   3.987   0.725
  889SOL    HW1 3566   0.820   3.990   0.688
  889SOL    HW2 3567   0.729   4.001   0.823
  890SOL     OW 3568   1.339   5.118   3.318
  890SOL    HW1 3569   1.437   5.130   3.332
  890SOL    HW2 3570   1.314   5.152   3.227
  891SOL     OW 3571   5.371   5.701   0.490
  891SOL    HW1 3572   5.430   5.699   0.571
  891SOL    HW2 3573   5.415   5.651   0.416
  892SOL     OW 3574   2.648   3.736   5.283
  892SOL    HW1 3575   2.640   3.832   5.310
  892SOL    HW2 3576   2.737   3.721   5.239
  893SOL     OW 3577   2.089   6.636   2.774
  893SOL    HW1 3578   2.151   6.592   2.709
  893SOL    HW2 3579   2.013   6.677   2.724
  894SOL     OW 3580   0.899   3.189   1.429
  894SOL    HW1 3581   0.911   3.137   1.514
  894SOL    HW2 3582   0.834   3.263   1.443
  895SOL     OW 3583   0.409   4.564   3.807
  895SOL    HW1 3584   0.472   4.526   3.740
  895SOL    HW2 3585   0.438   4.539   3.899
  896SOL     OW 3586   5.720   4.493   0.401
  896SOL    HW1 3587   5.635   4.530   0.439
  896SOL    HW2 3588   5.747   4.413   0.454
  897SOL     OW 3589   4.852   1.429   0.012
  897SOL    HW1 3590   4.807   1.443   6.951
  897SOL    HW2 3591   4.834   1.335   0.043
  898SOL     OW 3592   3.251   6.228   2.624
  898SOL    HW1 3593   3.203   6.299   2.677
  898SOL    HW2 3594   3.300   6.167   2.686
  899SOL     OW 3595   0.000   6.300   6.649
  899SOL    HW1 3596   6.935   6.318   6.684
  899SOL    HW2 3597   0.003   6.321   6.551
  900SOL     OW 3598   5.800   6.310   0.458
  900SOL    HW1 3599   5.848   6.367   0.392
  900SOL    HW2 3600   5.703   6.337   0.461
  901SOL     OW 3601   2.166   0.973   3.037
  901SOL    HW1 3602   2.111   0.927   2.967
  901SOL    HW2 3603   2.221   1.045   2.994
  902SOL     OW 3604   0.143   2.321   0.505
  902SOL    HW1 3605   0.208   2.397   0.513
  902SOL    HW2 3606   0.097   2.326   0.416
  903SOL     OW 3607   6.750   2.210   6.574
  903SOL    HW1 3608   6.831   2.154   6.562
  903SOL    HW2 3609   6.758   2.263   6.659
  904SOL     OW 3610   2.692   2.132   2.942
  904SOL    HW1 3611   2.729   2.224   2.925
  904SOL    HW2 3612   2.667   2.124   3.038
  905SOL     OW 3613   5.133   2.034   6.928
  905SOL    HW1 3614   5.168   2.120   6.891
  905SOL    HW2 3615   5.136   2.037   0.001
  906SOL     OW 3616   0.210   2.143   5.931
  906SOL    HW1 3617   0.288   2.137   5.869
  906SOL    HW2 3618   0.205   2.060   5.987
  907SOL     OW 3619   5.175   3.810   0.284
  907SOL    HW1 3620   5.101   3.744   0.298
  907SOL    HW2 3621   5.181   3.834   0.188
  908SOL     OW 3622   2.612   4.630   2.767
  908SOL    HW1 3623   2.681   4.557   2.767
  908SOL    HW2 3624   2.651   4.712   2.726
  909SOL     OW 3625   4.592   5.581   0.757
  909SOL    HW1 3626   4.521   5.511   0.750
  909SOL    HW2 3627   4.653   5.560   0.833
  910SOL     OW 3628   2.930   2.740   1.508
  910SOL    HW1 3629   2.932   2.825   1.455
  910SOL    HW2 3630   2.839   2.698   1.501
  911SOL     OW 3631   1.220   5.844   6.643
  911SOL    HW1 3632   1.271   5.758   6.647
  911SOL    HW2 3633   1.185   5.866   6.734
  912SOL     OW 3634   5.738   2.391   2.826
  912SOL    HW1 3635   5.807   2.318   2.823
  912SOL    HW2 3636   5.698   2.396   2.917
  913SOL     OW 3637   4.306   6.443   3.253
  913SOL    HW1 3638   4.406   6.437   3.256
  913SOL    HW2 3639   4.279   6.512   3.186
  914SOL     OW 3640   1.993   0.122   6.318
  914SOL    HW1 3641   2.076   0.152   6.271
  914SOL    HW2 3642   1.945   0.201   6.356
  915SOL     OW 3643   5.850   4.095   6.430
  915SOL    HW1 3644   5.839   4.100   6.330
  915SOL    HW2 3645   5.846   4.187   6.468
  916SOL     OW 3646   1.882   2.244   2.021
  916SOL    HW1 3647   1.958   2.286   2.071
  916SOL    HW2 3648   1.804   2.235   2.082
  917SOL     OW 3649   0.178   6.129   0.742
  917SOL    HW1 3650   0.254   6.157   0.684
  917SOL    HW2 3651   0.092   6.158   0.701
  918SOL     OW 3652   2.771   0.336   0.433
  918SOL    HW1 3653   2.852   0.331   0.492
  918SOL    HW2 3654   2.710   0.259   0.453
  919SOL     OW 3655   5.921   1.421   3.295
  919SOL    HW1 3656   5.827   1.415   3.261
  919SOL    HW2 3657   5.918   1.446   3.392
  920SOL     OW 3658   2.448   4.472   1.576
  920SOL    HW1 3659   2.542   4.468   1.611
  920SOL    HW2 3660   2.410   4.379   1.575
  921SOL     OW 3661   5.214   5.562   4.681
  921SOL    HW1 3662   5.210   5.594   4.587
  921SOL    HW2 3663   5.263   5.475   4.684
  922SOL     OW 3664   3.948   3.851   4.563
  922SOL    HW1 3665   3.899   3.931   4.597
  922SOL    HW2 3666   3.885   3.773   4.560
  923SOL     OW 3667   2.368   2.521   6.283
  923SOL    HW1 3668   2.292   2.583   6.263
  923SOL    HW2 3669   2.437   2.528   6.211
  924SOL     OW 3670   6.185   4.011   2.302
  924SOL    HW1 3671   6.230   3.993   2.389
  924SOL    HW2 3672   6.189   4.109   2.282
  925SOL     OW 3673   6.869   2.577   7.022
  925SOL    HW1 3674   6.808   2.585   0.074
  925SOL    HW2 3675   6.953   2.530   0.023
  926SOL     OW 3676   6.820   1.759   1.146
  926SOL    HW1 3677   6.775   1.694   1.084
  926SOL    HW2 3678   6.912   1.778   1.112
  927SOL     OW 3679   5.910   3.683   3.528
  927SOL    HW1 3680   6.005   3.672   3.500
  927SOL    HW2 3681   5.889   3.617   3.600
  928SOL     OW 3682   2.516   6.463   0.727
  928SOL    HW1 3683   2.549   6.545   0.681
  928SOL    HW2 3684   2.501   6.482   0.824
  929SOL     OW 3685   6.840   0.549   0.003
  929SOL    HW1 3686   6.797   0.621   0.058
  929SOL    HW2 3687   6.903   0.591   6.964
  930SOL     OW 3688   4.337   5.656   6.479
  930SOL    HW1 3689   4.257   5.601   6.455
  930SOL    HW2 3690   4.349   5.656   6.578
  931SOL     OW 3691   6.702   1.994   3.855
  931SOL    HW1 3692   6.684   1.945   3.770
  931SOL    HW2 3693   6.675   1.938   3.933
  932SOL     OW 3694   2.888   1.679   3.518
  932SOL    HW1 3695   2.801   1.718   3.486
  932SOL    HW2 3696   2.885   1.671   3.618
  933SOL     OW 3697   1.183   4.724   2.475
  933SOL    HW1 3698   1.282   4.733   2.481
  933SOL    HW2 3699   1.144   4.727   2.567
  934SOL     OW 3700   3.004   5.863   5.677
  934SOL    HW1 3701   3.017   5.921   5.597
  934SOL    HW2 3702   2.908   5.836   5.683
  935SOL     OW 3703   5.055   4.018   3.621
  935SOL    HW1 3704   5.063   4.070   3.706
  935SOL    HW2 3705   5.141   3.970   3.603
  936SOL     OW 3706   1.625   0.234   6.199
  936SOL    HW1 3707   1.610   0.164   6.270
  936SOL    HW2 3708   1.604   0.195   6.109
  937SOL     OW 3709   5.231   1.417   5.531
  937SOL    HW1 3710   5.175   1.496   5.554
  937SOL    HW2 3711   5.217   1.392   5.435
  938SOL     OW 3712   0.038   5.412   3.838
  938SOL    HW1 3713   0.021   5.318   3.868
  938SOL    HW2 3714   0.129   5.440   3.868
  939SOL     OW 3715   0.211   6.696   4.592
  939SOL    HW1 3716   0.139   6.716   4.659
  939SOL    HW2 3717   0.299   6.690   4.639
  940SOL     OW 3718   1.227   4.545   0.701
  940SOL    HW1 3719   1.213   4.530   0.603
  940SOL    HW2 3720   1.139   4.544   0.749
  941SOL     OW 3721   5.002   0.451   6.618
  941SOL    HW1 3722   4.961   0.362   6.599
  941SOL    HW2 3723   4.954   0.495   6.693
  942SOL     OW 3724   6.486   6.292   1.350
  942SOL    HW1 3725   6.574   6.245   1.348
  942SOL    HW2 3726   6.501   6.391   1.354
  943SOL     OW 3727   2.435   5.070   2.552
  943SOL    HW1 3728   2.530   5.101   2.561
  943SOL    HW2 3729   2.427   5.011   2.471
  944SOL     OW 3730   0.578   5.309   4.289
  944SOL    HW1 3731   0.667   5.346   4.314
  944SOL    HW2 3732   0.589   5.236   4.222
  945SOL     OW 3733   0.983   5.132   5.052
  945SOL    HW1 3734   1.079   5.159   5.043
  945SOL    HW2 3735   0.976   5.032   5.046
  946SOL     OW 3736   4.891   4.669   4.556
  946SOL    HW1 3737   4.973   4.659   4.612
  946SOL    HW2 3738   4.861   4.764   4.557
  947SOL     OW 3739   3.885   3.562   3.513
  947SOL    HW1 3740   3.903   3.617   3.432
  947SOL    HW2 3741   3.967   3.510   3.537
  948SOL     OW 3742   5.242   1.327   2.817
  948SOL    HW1 3743   5.252   1.378   2.903
  948SOL    HW2 3744   5.146   1.303   2.804
  949SOL     OW 3745   3.160   6.388   0.067
  949SOL    HW1 3746   3.132   6.367   0.161
  949SOL    HW2 3747   3.133   6.482   0.044
  950SOL     OW 3748   6.244   5.715   2.139
  950SOL    HW1 3749   6.303   5.635   2.134
  950SOL    HW2 3750   6.186   5.709   2.220
  951SOL     OW 3751   1.316   6.989   3.614
  951SOL    HW1 3752   1.260   7.009   3.533
  951SOL    HW2 3753   1.286   6.903   3.655
  952SOL     OW 3754   3.799   2.091   2.676
  952SOL    HW1 3755   3.726   2.074   2.743
  952SOL    HW2 3756   3.815   2.190   2.670
  953SOL     OW 3757   6.463   6.028   4.902
  953SOL    HW1 3758   6.402   5.995   4.830
  953SOL    HW2 3759   6.454   6.127   4.911
  954SOL     OW 3760   4.457   5.906   2.783
  954SOL    HW1 3761   4.443   5.814   2.749
  954SOL    HW2 3762   4.369   5.948   2.806
  955SOL     OW 3763   1.985   4.241   0.492
  955SOL    HW1 3764   2.013   4.336   0.477
  955SOL    HW2 3765   1.908   4.219   0.433
  956SOL     OW 3766   0.256   1.027   1.109
  956SOL    HW1 3767   0.247   1.126   1.114
  956SOL    HW2 3768   0.331   1.003   1.047
  957SOL     OW 3769   6.303   1.214   1.906
  957SOL    HW1 3770   6.382   1.251   1.857
  957SOL    HW2 3771   6.229   1.282   1.906
  958SOL     OW 3772   5.303   6.378   2.336
  958SOL    HW1 3773   5.203   6.376   2.325
  958SOL    HW2 3774   5.325   6.383   2.434
  959SOL     OW 3775   3.433   6.915   4.573
  959SOL    HW1 3776   3.418   6.817   4.591
  959SOL    HW2 3777   3.529   6.937   4.588
  960SOL     OW 3778   0.977   0.566   0.812
  960SOL    HW1 3779   1.000   0.606   0.901
  960SOL    HW2 3780   1.052   0.581   0.748
  961SOL     OW 3781   3.675   6.902   3.255
  961SOL    HW1 3782   3.665   6.992   3.298
  961SOL    HW2 3783   3.709   6.914   3.162
  962SOL     OW 3784   5.834   0.309   5.034
  962SOL    HW1 3785   5.800   0.215   5.025
  962SOL    HW2 3786   5.931   0.306   5.060
  963SOL     OW 3787   4.223   1.698   1.485
  963SOL    HW1 3788   4.270   1.643   1.416
  963SOL    HW2 3789   4.283   1.771   1.517
  964SOL     OW 3790   4.856   4.657   5.197
  964SOL    HW1 3791   4.932   4.656   5.262
  964SOL    HW2 3792   4.863   4.578   5.136
  965SOL     OW 3793   6.158   2.439   2.391
  965SOL    HW1 3794   6.119   2.381   2.320
  965SOL    HW2 3795   6.189   2.382   2.467
  966SOL     OW 3796   4.934   2.037   3.384
  966SOL    HW1 3797   4.843   2.038   3.341
  966SOL    HW2 3798   4.991   2.107   3.343
  967SOL     OW 3799   3.751   4.752   6.381
  967SOL    HW1 3800   3.794   4.769   6.292
  967SOL    HW2 3801   3.756   4.835   6.437
  968SOL     OW 3802   3.367   0.115   1.320
  968SOL    HW1 3803   3.304   0.193   1.320
  968SOL    HW2 3804   3.377   0.080   1.227
  969SOL     OW 3805   3.093   4.975   5.553
  969SOL    HW1 3806   3.158   5.021   5.493
  969SOL    HW2 3807   3.000   4.987   5.517
  970SOL     OW 3808   6.423   1.346   5.580
  970SOL    HW1 3809   6.438   1.259   5.533
  970SOL    HW2 3810   6.492   1.357   5.652
  971SOL     OW 3811   6.907   3.857   2.565
  971SOL    HW1 3812   6.882   3.891   2.474
  971SOL    HW2 3813   6.853   3.905   2.634
  972SOL     OW 3814   6.577   2.355   1.230
  972SOL    HW1 3815   6.605   2.302   1.149
  972SOL    HW2 3816   6.655   2.365   1.292
  973SOL     OW 3817   0.210   4.042   6.160
  973SOL    HW1 3818   0.207   3.947   6.191
  973SOL    HW2 3819   0.280   4.091   6.212
  974SOL     OW 3820   0.571   5.049   3.129
  974SOL    HW1 3821   0.523   4.961   3.138
  974SOL    HW2 3822   0.591   5.085   3.220
  975SOL     OW 3823   2.636   6.980   1.041
  975SOL    HW1 3824   2.676   6.889   1.038
  975SOL    HW2 3825   2.587   6.993   1.127
  976SOL     OW 3826   6.419   4.185   1.731
  976SOL    HW1 3827   6.418   4.233   1.819
  976SOL    HW2 3828   6.334   4.133   1.721
  977SOL     OW 3829   0.888   1.475   2.079
  977SOL    HW1 3830   0.864   1.451   1.985
  977SOL    HW2 3831   0.868   1.398   2.140
  978SOL     OW 3832   5.591   2.153   1.306
  978SOL    HW1 3833   5.686   2.153   1.274
  978SOL    HW2 3834   5.529   2.141   1.229
  979SOL     OW 3835   6.811   3.065   6.478
  979SOL    HW1 3836   6.725   3.117   6.480
  979SOL    HW2 3837   6.879   3.111   6.534
  980SOL     OW 3838   4.157   1.120   4.693
  980SOL    HW1 3839   4.170   1.022   4.712
  980SOL    HW2 3840   4.128   1.167   4.776
  981SOL     OW 3841   6.856   6.965   5.050
  981SOL    HW1 3842   6.852   6.875   5.094
  981SOL    HW2 3843   6.942   6.974   5.001
  982SOL     OW 3844   0.275   1.841   5.619
  982SOL    HW1 3845   0.348   1.775   5.635
  982SOL    HW2 3846   0.188   1.802   5.652
  983SOL     OW 3847   6.677   3.114   3.146
  983SOL    HW1 3848   6.600   3.150   3.093
  983SOL    HW2 3849   6.662   3.131   3.243
  984SOL     OW 3850   1.655   2.138   2.927
  984SOL    HW1 3851   1.562   2.169   2.948
  984SOL    HW2 3852   1.718   2.215   2.930
  985SOL     OW 3853   6.096   3.670   4.390
  985SOL    HW1 3854   6.042   3.640   4.468
  985SOL    HW2 3855   6.052   3.640   4.305
  986SOL     OW 3856   4.994   4.168   1.363
  986SOL    HW1 3857   5.011   4.070   1.365
  986SOL    HW2 3858   5.073   4.216   1.401
  987SOL     OW 3859   5.481   6.214   3.510
  987SOL    HW1 3860   5.385   6.239   3.521
  987SOL    HW2 3861   5.525   6.277   3.446
  988SOL     OW 3862   3.289   3.906   2.161
  988SOL    HW1 3863   3.303   4.001   2.188
  988SOL    HW2 3864   3.196   3.877   2.186
  989SOL     OW 3865   0.078   1.995   0.398
  989SOL    HW1 3866   0.082   2.011   0.496
  989SOL    HW2 3867   0.069   2.083   0.350
  990SOL     OW 3868   3.034   0.099   2.951
  990SOL    HW1 3869   3.057   0.108   2.854
  990SOL    HW2 3870   3.064   0.181   3.000
  991SOL     OW 3871   6.755   4.497   3.759
  991SOL    HW1 3872   6.750   4.399   3.739
  991SOL    HW2 3873   6.849   4.521   3.786
  992SOL     OW 3874   0.644   2.896   1.254
  992SOL    HW1 3875   0.703   2.855   1.324
  992SOL    HW2 3876   0.606   2.982   1.288
  993SOL     OW 3877   1.204   4.206   1.388
  993SOL    HW1 3878   1.257   4.204   1.473
  993SOL    HW2 3879   1.176   4.114   1.363
  994SOL     OW 3880   3.787   5.989   0.917
  994SOL    HW1 3881   3.727   5.920   0.877
  994SOL    HW2 3882   3.752   6.080   0.896
  995SOL     OW 3883   4.503   3.341   5.579
  995SOL    HW1 3884   4.583   3.387   5.618
  995SOL    HW2 3885   4.462   3.399   5.509
  996SOL     OW 3886   4.240   5.653   5.256
  996SOL    HW1 3887   4.319   5.710   5.236
  996SOL    HW2 3888   4.178   5.702   5.317
  997SOL     OW 3889   1.762   6.890   3.278
  997SOL    HW1 3890   1.701   6.926   3.349
  997SOL    HW2 3891   1.722   6.907   3.188
  998SOL     OW 3892   6.150   0.066   6.088
  998SOL    HW1 3893   6.108   0.068   5.997
  998SOL    HW2 3894   6.122   0.147   6.140
  999SOL     OW 3895   4.656   3.478   1.519
  999SOL    HW1 3896   4.573   3.531   1.501
  999SOL    HW2 3897   4.696   3.507   1.606
 1000SOL     OW 3898   3.978   1.476   1.322
 1000SOL    HW1 3899   3.920   1.556   1.335
 1000SOL    HW2 3900   4.003   1.439   1.412
 1001SOL     OW 3901   2.600   6.199   2.250
 1001SOL    HW1 3902   2.572   6.294   2.263
 1001SOL    HW2 3903   2.534   6.154   2.189
 1002SOL     OW 3904   5.253   2.048   1.450
 1002SOL    HW1 3905   5.185   2.014   1.515
 1002SOL    HW2 3906   5.337   2.072   1.499
 1003SOL     OW 3907   1.536   6.325   2.623
 1003SOL    HW1 3908   1.479   6.294   2.547
 1003SOL    HW2 3909   1.479   6.333   2.705
 1004SOL     OW 3910   6.596   1.416   2.305
 1004SOL    HW1 3911   6.525   1.393   2.372
 1004SOL    HW2 3912   6.596   1.347   2.232
 1005SOL     OW 3913   1.636   4.230   3.952
 1005SOL    HW1 3914   1.539   4.232   3.928
 1005SOL    HW2 3915   1.691   4.238   3.869
 1006SOL     OW 3916   2.300   3.909   0.503
 1006SOL    HW1 3917   2.339   3.895   0.412
 1006SOL    HW2 3918   2.213   3.861   0.511
 1007SOL     OW 3919   4.546   1.661   6.715
 1007SOL    HW1 3920   4.473   1.705   6.662
 1007SOL    HW2 3921   4.629   1.717   6.711
 1008SOL     OW 3922   0.752   3.513   5.690
 1008SOL    HW1 3923   0.731   3.478   5.599
 1008SOL    HW2 3924   0.849   3.500   5.710
 1009SOL     OW 3925   5.960   5.026   5.362
 1009SOL    HW1 3926   5.905   5.025   5.446
 1009SOL    HW2 3927   5.981   5.120   5.337
 1010SOL     OW 3928   2.447   2.195   1.913
 1010SOL    HW1 3929   2.544   2.185   1.934
 1010SOL    HW2 3930   2.430   2.164   1.820
 1011SOL     OW 3931   1.103   5.437   3.101
 1011SOL    HW1 3932   1.062   5.526   3.084
 1011SOL    HW2 3933   1.184   5.427   3.044
 1012SOL     OW 3934   6.811   7.025   2.408
 1012SOL    HW1 3935   6.716   0.018   2.433
 1012SOL    HW2 3936   6.863   7.006   2.491
 1013SOL     OW 3937   6.560   0.884   6.091
 1013SOL    HW1 3938   6.474   0.858   6.134
 1013SOL    HW2 3939   6.543   0.956   6.023
 1014SOL     OW 3940   1.129   4.415   4.582
 1014SOL    HW1 3941   1.144   4.506   4.542
 1014SOL    HW2 3942   1.215   4.379   4.616
 1015SOL     OW 3943   3.261   0.407   6.201
 1015SOL    HW1 3944   3.263   0.370   6.294
 1015SOL    HW2 3945   3.231   0.335   6.138
 1016SOL     OW 3946   4.719   4.107   1.214
 1016SOL    HW1 3947   4.775   4.172   1.163
 1016SOL    HW2 3948   4.779   4.043   1.263
 1017SOL     OW 3949   2.537   1.477   1.908
 1017SOL    HW1 3950   2.504   1.474   1.814
 1017SOL    HW2 3951   2.462   1.501   1.970
 1018SOL     OW 3952   6.939   4.374   4.168
 1018SOL    HW1 3953   6.865   4.383   4.102
 1018SOL    HW2 3954   7.008   4.445   4.150
 1019SOL     OW 3955   6.697   5.326   0.300
 1019SOL    HW1 3956   6.732   5.404   0.352
 1019SOL    HW2 3957   6.769   5.291   0.241
 1020SOL     OW 3958   6.618   0.465   1.118
 1020SOL    HW1 3959   6.593   0.375   1.082
 1020SOL    HW2 3960   6.610   0.533   1.045
 1021SOL     OW 3961   6.363   5.733   2.527
 1021SOL    HW1 3962   6.307   5.718   2.446
 1021SOL    HW2 3963   6.460   5.728   2.502
 1022SOL     OW 3964   3.054   6.047   5.851
 1022SOL    HW1 3965   3.043   5.974   5.783
 1022SOL    HW2 3966   2.967   6.062   5.897
 1023SOL     OW 3967   6.757   0.853   2.399
 1023SOL    HW1 3968   6.805   0.940   2.398
 1023SOL    HW2 3969   6.815   0.782   2.358
 1024SOL     OW 3970   0.776   1.301   4.446
 1024SOL    HW1 3971   0.730   1.254   4.521
 1024SOL    HW2 3972   0.752   1.399   4.449
 1025SOL     OW 3973   4.794   3.149   0.504
 1025SOL    HW1 3974   4.719   3.207   0.473
 1025SOL    HW2 3975   4.882   3.192   0.481
 1026SOL     OW 3976   3.068   2.575   1.697
 1026SOL    HW1 3977   3.015   2.537   1.773
 1026SOL    HW2 3978   3.007   2.622   1.633
 1027SOL     OW 3979   1.376   6.332   1.937
 1027SOL    HW1 3980   1.333   6.376   1.859
 1027SOL    HW2 3981   1.319   6.256   1.968
 1028SOL     OW 3982   1.541   6.496   3.150
 1028SOL    HW1 3983   1.451   6.532   3.123
 1028SOL    HW2 3984   1.583   6.450   3.072
 1029SOL     OW 3985   0.973   1.929   5.973
 1029SOL    HW1 3986   1.002   1.911   6.067
 1029SOL    HW2 3987   0.937   1.845   5.933
 1030SOL     OW 3988   3.282   3.401   1.682
 1030SOL    HW1 3989   3.218   3.475   1.704
 1030SOL    HW2 3990   3.242   3.314   1.709
 1031SOL     OW 3991   3.705   3.116   1.692
 1031SOL    HW1 3992   3.653   3.091   1.774
 1031SOL    HW2 3993   3.714   3.036   1.633
 1032SOL     OW 3994   2.325   1.051   5.069
 1032SOL    HW1 3995   2.285   1.111   5.000
 1032SOL    HW2 3996   2.422   1.074   5.080
 1033SOL     OW 3997   1.613   5.845   2.312
 1033SOL    HW1 3998   1.524   5.822   2.353
 1033SOL    HW2 3999   1.633   5.941   2.329
 1034SOL     OW 4000   2.611   6.195   4.354
 1034SOL    HW1 4001   2.605   6.102   4.390
 1034SOL    HW2 4002   2.659   6.253   4.420
 1035SOL     OW 4003   0.855   2.523   5.967
 1035SOL    HW1 4004   0.819   2.450   6.025
 1035SOL    HW2 4005   0.791   2.539   5.892
 1036SOL     OW 4006   4.730   1.396   1.443
 1036SOL    HW1 4007   4.664   1.376   1.370
 1036SOL    HW2 4008   4.820   1.360   1.417
 1037SOL     OW 4009   1.668   2.234   2.213
 1037SOL    HW1 4010   1.708   2.179   2.287
 1037SOL    HW2 4011   1.645   2.325   2.249
 1038SOL     OW 4012   2.019   1.377   6.714
 1038SOL    HW1 4013   1.957   1.420   6.648
 1038SOL    HW2 4014   1.993   1.403   6.807
 1039SOL     OW 4015   3.048   3.109   3.989
 1039SOL    HW1 4016   2.988   3.162   3.929
 1039SOL    HW2 4017   3.133   3.087   3.941
 1040SOL     OW 4018   5.387   0.673   3.292
 1040SOL    HW1 4019   5.397   0.606   3.365
 1040SOL    HW2 4020   5.301   0.723   3.303
 1041SOL     OW 4021   6.987   6.895   4.057
 1041SOL    HW1 4022   6.894   6.903   4.093
 1041SOL    HW2 4023   0.017   6.848   4.124
 1042SOL     OW 4024   4.883   4.824   2.942
 1042SOL    HW1 4025   4.854   4.918   2.926
 1042SOL    HW2 4026   4.953   4.822   3.014
 1043SOL     OW 4027   3.713   1.660   3.093
 1043SOL    HW1 4028   3.756   1.708   3.017
 1043SOL    HW2 4029   3.781   1.640   3.163
 1044SOL     OW 4030   6.112   5.820   1.228
 1044SOL    HW1 4031   6.117   5.748   1.159
 1044SOL    HW2 4032   6.046   5.889   1.199
 1045SOL     OW 4033   2.708   0.133   2.885
 1045SOL    HW1 4034   2.788   0.182   2.918
 1045SOL    HW2 4035   2.644   0.197   2.843
 1046SOL     OW 4036   2.819   1.267   1.286
 1046SOL    HW1 4037   2.731   1.250   1.241
 1046SOL    HW2 4038   2.866   1.179   1.300
 1047SOL     OW 4039   3.057   6.873   3.931
 1047SOL    HW1 4040   3.070   6.837   3.839
 1047SOL    HW2 4041   2.984   6.823   3.977
 1048SOL     OW 4042   2.455   5.889   2.445
 1048SOL    HW1 4043   2.534   5.848   2.490
 1048SOL    HW2 4044   2.417   5.961   2.503
 1049SOL     OW 4045   4.450   7.006   4.067
 1049SOL    HW1 4046   4.371   6.965   4.113
 1049SOL    HW2 4047   4.425   0.005   3.974
 1050SOL     OW 4048   4.007   5.539   2.967
 1050SOL    HW1 4049   4.034   5.467   2.903
 1050SOL    HW2 4050   3.921   5.513   3.011
 1051SOL     OW 4051   0.001   6.140   0.340
 1051SOL    HW1 4052   6.951   6.105   0.287
 1051SOL    HW2 4053   7.009   6.130   0.437
 1052SOL     OW 4054   4.276   0.448   5.585
 1052SOL    HW1 4055   4.193   0.471   5.635
 1052SOL    HW2 4056   4.257   0.445   5.487
 1053SOL     OW 4057   5.862   3.529   2.222
 1053SOL    HW1 4058   5.876   3.565   2.314
 1053SOL    HW2 4059   5.867   3.603   2.156
 1054SOL     OW 4060   2.991   3.414   0.895
 1054SOL    HW1 4061   2.969   3.370   0.808
 1054SOL    HW2 4062   3.074   3.374   0.933
 1055SOL     OW 4063   5.263   5.784   6.301
 1055SOL    HW1 4064   5.207   5.739   6.371
 1055SOL    HW2 4065   5.270   5.882   6.322
 1056SOL     OW 4066   1.686   3.862   0.538
 1056SOL    HW1 4067   1.763   3.858   0.603
 1056SOL    HW2 4068   1.601   3.847   0.587
 1057SOL     OW 4069   3.475   1.945   1.911
 1057SOL    HW1 4070   3.493   2.018   1.845
 1057SOL    HW2 4071   3.497   1.978   2.003
 1058SOL     OW 4072   4.042   1.973   3.419
 1058SOL    HW1 4073   3.945   1.994   3.432
 1058SOL    HW2 4074   4.088   1.971   3.508
 1059SOL     OW 4075   2.591   6.568   2.071
 1059SOL    HW1 4076   2.492   6.581   2.059
 1059SOL    HW2 4077   2.614   6.472   2.052
 1060SOL     OW 4078   0.321   5.033   4.391
 1060SOL    HW1 4079   0.250   4.991   4.334
 1060SOL    HW2 4080   0.286   5.116   4.434
 1061SOL     OW 4081   6.411   4.146   7.004
 1061SOL    HW1 4082   6.380   4.158   6.910
 1061SOL    HW2 4083   6.384   4.055   0.009
 1062SOL     OW 4084   4.507   6.627   5.061
 1062SOL    HW1 4085   4.480   6.590   5.150
 1062SOL    HW2 4086   4.463   6.573   4.989
 1063SOL     OW 4087   0.609   6.903   5.934
 1063SOL    HW1 4088   0.574   6.844   5.861
 1063SOL    HW2 4089   0.559   6.886   6.018
 1064SOL     OW 4090   0.510   4.665   1.495
 1064SOL    HW1 4091   0.513   4.642   1.398
 1064SOL    HW2 4092   0.416   4.686   1.521
 1065SOL     OW 4093   3.578   0.961   3.524
 1065SOL    HW1 4094   3.643   0.899   3.567
 1065SOL    HW2 4095   3.620   1.004   3.444
 1066SOL     OW 4096   4.937   6.745   2.070
 1066SOL    HW1 4097   4.882   6.739   2.153
 1066SOL    HW2 4098   4.974   6.655   2.047
 1067SOL     OW 4099   2.678   1.228   0.074
 1067SOL    HW1 4100   2.624   1.231   0.159
 1067SOL    HW2 4101   2.666   1.314   0.024
 1068SOL     OW 4102   6.366   3.979   1.440
 1068SOL    HW1 4103   6.313   3.914   1.386
 1068SOL    HW2 4104   6.367   4.068   1.394
 1069SOL     OW 4105   5.626   4.789   0.861
 1069SOL    HW1 4106   5.629   4.689   0.874
 1069SOL    HW2 4107   5.566   4.810   0.783
 1070SOL     OW 4108   2.488   0.042   2.434
 1070SOL    HW1 4109   2.496   0.004   2.526
 1070SOL    HW2 4110   2.408   0.102   2.430
 1071SOL     OW 4111   0.308   2.221   4.738
 1071SOL    HW1 4112   0.366   2.240   4.818
 1071SOL    HW2 4113   0.306   2.301   4.678
 1072SOL     OW 4114   2.017   0.419   1.800
 1072SOL    HW1 4115   2.055   0.467   1.879
 1072SOL    HW2 4116   2.027   0.477   1.719
 1073SOL     OW 4117   6.020   2.007   2.997
 1073SOL    HW1 4118   6.117   1.983   3.002
 1073SOL    HW2 4119   5.964   1.924   2.997
 1074SOL     OW 4120   2.571   5.509   1.959
 1074SOL    HW1 4121   2.568   5.470   2.051
 1074SOL    HW2 4122   2.643   5.577   1.954
 1075SOL     OW 4123   5.978   1.343   4.843
 1075SOL    HW1 4124   5.917   1.380   4.773
 1075SOL    HW2 4125   6.069   1.383   4.833
 1076SOL     OW 4126   1.928   3.603   5.602
 1076SOL    HW1 4127   1.942   3.538   5.527
 1076SOL    HW2 4128   1.891   3.688   5.566
 1077SOL     OW 4129   0.021   0.074   0.132
 1077SOL    HW1 4130   7.017   0.121   0.050
 1077SOL    HW2 4131   6.970   0.065   0.196
 1078SOL     OW 4132   6.644   6.843   3.362
 1078SOL    HW1 4133   6.685   6.833   3.452
 1078SOL    HW2 4134   6.698   6.908   3.307
 1079SOL     OW 4135   1.207   5.386   2.635
 1079SOL    HW1 4136   1.123   5.352   2.677
 1079SOL    HW2 4137   1.243   5.317   2.572
 1080SOL     OW 4138   2.093   5.848   5.603
 1080SOL    HW1 4139   2.160   5.878   5.670
 1080SOL    HW2 4140   2.125   5.764   5.559
 1081SOL     OW 4141   0.055   5.645   4.362
 1081SOL    HW1 4142   0.032   5.732   4.318
 1081SOL    HW2 4143   0.035   5.650   4.460
 1082SOL     OW 4144   6.172   1.589   6.372
 1082SOL    HW1 4145   6.156   1.583   6.471
 1082SOL    HW2 4146   6.140   1.505   6.328
 1083SOL     OW 4147   4.653   4.534   0.471
 1083SOL    HW1 4148   4.574   4.573   0.519
 1083SOL    HW2 4149   4.627   4.447   0.429
 1084SOL     OW 4150   6.225   6.984   6.633
 1084SOL    HW1 4151   6.199   0.035   6.576
 1084SOL    HW2 4152   6.294   6.930   6.586
 1085SOL     OW 4153   1.878   3.658   4.089
 1085SOL    HW1 4154   1.814   3.584   4.065
 1085SOL    HW2 4155   1.842   3.709   4.167
 1086SOL     OW 4156   6.735   4.461   6.227
 1086SOL    HW1 4157   6.740   4.432   6.323
 1086SOL    HW2 4158   6.733   4.561   6.222
 1087SOL     OW 4159   1.514   1.795   5.466
 1087SOL    HW1 4160   1.464   1.833   5.543
 1087SOL    HW2 4161   1.531   1.698   5.482
 1088SOL     OW 4162   0.476   5.434   3.319
 1088SOL    HW1 4163   0.481   5.463   3.414
 1088SOL    HW2 4164   0.383   5.407   3.297
 1089SOL     OW 4165   0.675   5.551   4.750
 1089SOL    HW1 4166   0.703   5.458   4.772
 1089SOL    HW2 4167   0.686   5.610   4.830
 1090SOL     OW 4168   5.817   2.070   3.512
 1090SOL    HW1 4169   5.769   2.147   3.554
 1090SOL    HW2 4170   5.884   2.033   3.576
 1091SOL     OW 4171   2.080   3.287   3.431
 1091SOL    HW1 4172   2.063   3.379   3.466
 1091SOL    HW2 4173   1.999   3.254   3.382
 1092SOL     OW 4174   0.741   4.785   1.379
 1092SOL    HW1 4175   0.837   4.760   1.375
 1092SOL    HW2 4176   0.732   4.875   1.422
 1093SOL     OW 4177   2.900   0.259   1.352
 1093SOL    HW1 4178   2.869   0.348   1.384
 1093SOL    HW2 4179   2.924   0.265   1.255
 1094SOL     OW 4180   0.676   6.971   2.817
 1094SOL    HW1 4181   0.723   7.011   2.896
 1094SOL    HW2 4182   0.681   6.871   2.821
 1095SOL     OW 4183   0.288   2.514   6.417
 1095SOL    HW1 4184   0.332   2.577   6.354
 1095SOL    HW2 4185   0.234   2.566   6.483
 1096SOL     OW 4186   2.984   5.405   0.628
 1096SOL    HW1 4187   2.961   5.343   0.704
 1096SOL    HW2 4188   3.071   5.450   0.647
 1097SOL     OW 4189   2.220   5.524   3.355
 1097SOL    HW1 4190   2.279   5.512   3.275
 1097SOL    HW2 4191   2.215   5.621   3.379
 1098SOL     OW 4192   5.975   3.927   6.783
 1098SOL    HW1 4193   6.062   3.880   6.795
 1098SOL    HW2 4194   5.950   3.927   6.686
 1099SOL     OW 4195   4.726   1.112   6.171
 1099SOL    HW1 4196   4.806   1.054   6.155
 1099SOL    HW2 4197   4.671   1.117   6.088
 1100SOL     OW 4198   3.649   1.436   3.944
 1100SOL    HW1 4199   3.675   1.531   3.963
 1100SOL    HW2 4200   3.614   1.393   4.027
 1101SOL     OW 4201   5.376   3.639   5.282
 1101SOL    HW1 4202   5.418   3.611   5.368
 1101SOL    HW2 4203   5.419   3.591   5.206
 1102SOL     OW 4204   2.389   0.787   4.540
 1102SOL    HW1 4205   2.345   0.827   4.621
 1102SOL    HW2 4206   2.386   0.687   4.547
 1103SOL     OW 4207   2.819   1.831   6.829
 1103SOL    HW1 4208   2.891   1.767   6.853
 1103SOL    HW2 4209   2.783   1.809   6.738
 1104SOL     OW 4210   1.175   3.890   3.164
 1104SOL    HW1 4211   1.075   3.899   3.169
 1104SOL    HW2 4212   1.198   3.824   3.092
 1105SOL     OW 4213   5.418   2.532   4.721
 1105SOL    HW1 4214   5.506   2.492   4.748
 1105SOL    HW2 4215   5.371   2.471   4.657
 1106SOL     OW 4216   0.611   1.199   0.235
 1106SOL    HW1 4217   0.599   1.244   0.323
 1106SOL    HW2 4218   0.707   1.207   0.206
 1107SOL     OW 4219   1.157   0.295   6.189
 1107SOL    HW1 4220   1.224   0.356   6.231
 1107SOL    HW2 4221   1.096   0.258   6.259
 1108SOL     OW 4222   3.503   6.347   4.127
 1108SOL    HW1 4223   3.547   6.367   4.040
 1108SOL    HW2 4224   3.433   6.277   4.114
 1109SOL     OW 4225   5.911   1.785   3.813
 1109SOL    HW1 4226   5.853   1.718   3.767
 1109SOL    HW2 4227   6.007   1.761   3.799
 1110SOL     OW 4228   3.352   1.213   3.162
 1110SOL    HW1 4229   3.391   1.189   3.073
 1110SOL    HW2 4230   3.335   1.130   3.214
 1111SOL     OW 4231   4.901   4.351   6.156
 1111SOL    HW1 4232   4.936   4.386   6.070
 1111SOL    HW2 4233   4.905   4.251   6.156
 1112SOL     OW 4234   6.217   6.687   3.685
 1112SOL    HW1 4235   6.226   6.602   3.634
 1112SOL    HW2 4236   6.120   6.706   3.702
 1113SOL     OW 4237   6.661   3.840   2.255
 1113SOL    HW1 4238   6.713   3.925   2.267
 1113SOL    HW2 4239   6.564   3.858   2.270
 1114SOL     OW 4240   4.047   2.217   5.942
 1114SOL    HW1 4241   3.993   2.152   5.889
 1114SOL    HW2 4242   3.989   2.293   5.971
 1115SOL     OW 4243   4.174   4.478   5.617
 1115SOL    HW1 4244   4.158   4.413   5.543
 1115SOL    HW2 4245   4.263   4.461   5.658
 1116SOL     OW 4246   5.149   0.906   0.135
 1116SOL    HW1 4247   5.201   0.985   0.105
 1116SOL    HW2 4248   5.061   0.904   0.087
 1117SOL     OW 4249   0.850   2.272   1.310
 1117SOL    HW1 4250   0.756   2.240   1.301
 1117SOL    HW2 4251   0.895   2.269   1.221
 1118SOL     OW 4252   2.353   5.890   6.533
 1118SOL    HW1 4253   2.452   5.872   6.534
 1118SOL    HW2 4254   2.305   5.807   6.507
 1119SOL     OW 4255   4.418   4.499   2.492
 1119SOL    HW1 4256   4.330   4.510   2.537
 1119SOL    HW2 4257   4.452   4.589   2.463
 1120SOL     OW 4258   6.374   5.771   1.319
 1120SOL    HW1 4259   6.278   5.798   1.313
 1120SOL    HW2 4260   6.428   5.849   1.350
 1121SOL     OW 4261   0.779   5.178   4.464
 1121SOL    HW1 4262   0.777   5.278   4.472
 1121SOL    HW2 4263   0.789   5.153   4.367
 1122SOL     OW 4264   6.207   2.966   2.086
 1122SOL    HW1 4265   6.267   3.027   2.137
 1122SOL    HW2 4266   6.198   3.000   1.992
 1123SOL     OW 4267   4.378   2.367   3.525
 1123SOL    HW1 4268   4.394   2.271   3.503
 1123SOL    HW2 4269   4.399   2.384   3.621
 1124SOL     OW 4270   1.446   3.436   4.904
 1124SOL    HW1 4271   1.463   3.520   4.854
 1124SOL    HW2 4272   1.357   3.398   4.876
 1125SOL     OW 4273   1.671   3.299   4.687
 1125SOL    HW1 4274   1.627   3.257   4.766
 1125SOL    HW2 4275   1.602   3.342   4.629
 1126SOL     OW 4276   3.988   6.003   5.576
 1126SOL    HW1 4277   3.960   6.069   5.647
 1126SOL    HW2 4278   4.083   6.021   5.550
 1127SOL     OW 4279   6.165   6.653   4.072
 1127SOL    HW1 4280   6.243   6.590   4.065
 1127SOL    HW2 4281   6.082   6.600   4.089
 1128SOL     OW 4282   5.912   1.272   4.478
 1128SOL    HW1 4283   5.874   1.323   4.401
 1128SOL    HW2 4284   5.918   1.331   4.558
 1129SOL     OW 4285   1.905   6.639   0.337
 1129SOL    HW1 4286   1.986   6.593   0.374
 1129SOL    HW2 4287   1.925   6.736   0.324
 1130SOL     OW 4288   1.726   5.227   1.759
 1130SOL    HW1 4289   1.688   5.136   1.746
 1130SOL    HW2 4290   1.673   5.275   1.829
 1131SOL     OW 4291   1.576   0.032   4.761
 1131SOL    HW1 4292   1.543   6.965   4.758
 1131SOL    HW2 4293   1.574   0.071   4.670
 1132SOL     OW 4294   4.554   0.514   2.274
 1132SOL    HW1 4295   4.556   0.582   2.347
 1132SOL    HW2 4296   4.634   0.526   2.215
 1133SOL     OW 4297   1.587   0.107   5.954
 1133SOL    HW1 4298   1.535   0.078   5.874
 1133SOL    HW2 4299   1.672   0.055   5.961
 1134SOL     OW 4300   5.240   6.676   1.858
 1134SOL    HW1 4301   5.147   6.647   1.833
 1134SOL    HW2 4302   5.271   6.623   1.936
 1135SOL     OW 4303   2.339   6.219   4.022
 1135SOL    HW1 4304   2.433   6.187   4.019
 1135SOL    HW2 4305   2.319   6.256   4.113
 1136SOL     OW 4306   3.240   5.696   3.394
 1136SOL    HW1 4307   3.240   5.754   3.312
 1136SOL    HW2 4308   3.303   5.733   3.462
 1137SOL     OW 4309   0.852   5.765   6.930
 1137SOL    HW1 4310   0.909   5.691   6.896
 1137SOL    HW2 4311   0.801   5.805   6.854
 1138SOL     OW 4312   1.805   2.895   5.248
 1138SOL    HW1 4313   1.863   2.959   5.198
 1138SOL    HW2 4314   1.753   2.944   5.317
 1139SOL     OW 4315   2.373   4.839   4.095
 1139SOL    HW1 4316   2.466   4.818   4.066
 1139SOL    HW2 4317   2.331   4.901   4.029
 1140SOL     OW 4318   1.669   0.990   2.067
 1140SOL    HW1 4319   1.623   0.906   2.039
 1140SOL    HW2 4320   1.688   1.046   1.986
 1141SOL     OW 4321   6.033   5.303   6.225
 1141SOL    HW1 4322   6.115   5.313   6.280
 1141SOL    HW2 4323   5.963   5.367   6.257
 1142SOL     OW 4324   2.459   0.010   3.290
 1142SOL    HW1 4325   2.500   0.081   3.234
 1142SOL    HW2 4326   2.363   7.025   3.264
 1143SOL     OW 4327   1.379   2.961   2.401
 1143SOL    HW1 4328   1.395   3.030   2.331
 1143SOL    HW2 4329   1.465   2.915   2.422
 1144SOL     OW 4330   5.408   4.330   3.095
 1144SOL    HW1 4331   5.312   4.306   3.079
 1144SOL    HW2 4332   5.464   4.296   3.020
 1145SOL     OW 4333   1.138   2.953   0.430
 1145SOL    HW1 4334   1.090   2.882   0.379
 1145SOL    HW2 4335   1.101   2.959   0.522
 1146SOL     OW 4336   0.695   1.774   1.038
 1146SOL    HW1 4337   0.646   1.736   0.959
 1146SOL    HW2 4338   0.787   1.801   1.009
 1147SOL     OW 4339   2.888   5.983   1.104
 1147SOL    HW1 4340   2.789   5.982   1.093
 1147SOL    HW2 4341   2.929   5.917   1.041
 1148SOL     OW 4342   4.175   6.391   1.916
 1148SOL    HW1 4343   4.162   6.415   1.820
 1148SOL    HW2 4344   4.262   6.427   1.948
 1149SOL     OW 4345   6.444   3.134   1.809
 1149SOL    HW1 4346   6.455   3.223   1.765
 1149SOL    HW2 4347   6.512   3.071   1.772
 1150SOL     OW 4348   1.268   4.381   6.986
 1150SOL    HW1 4349   1.242   4.333   6.903
 1150SOL    HW2 4350   1.217   4.343   0.037
 1151SOL     OW 4351   6.013   5.061   4.272
 1151SOL    HW1 4352   5.995   5.156   4.245
 1151SOL    HW2 4353   6.011   5.053   4.371
 1152SOL     OW 4354   4.507   6.701   0.258
 1152SOL    HW1 4355   4.519   6.738   0.166
 1152SOL    HW2 4356   4.596   6.699   0.304
 1153SOL     OW 4357   6.866   6.908   1.254
 1153SOL    HW1 4358   6.914   6.881   1.171
 1153SOL    HW2 4359   6.774   6.939   1.231
 1154SOL     OW 4360   0.815   3.764   2.124
 1154SOL    HW1 4361   0.779   3.804   2.040
 1154SOL    HW2 4362   0.802   3.828   2.200
 1155SOL     OW 4363   2.497   6.554   5.100
 1155SOL    HW1 4364   2.532   6.599   5.017
 1155SOL    HW2 4365   2.418   6.605   5.134
 1156SOL     OW 4366   4.441   1.845   5.192
 1156SOL    HW1 4367   4.506   1.921   5.194
 1156SOL    HW2 4368   4.489   1.761   5.170
 1157SOL     OW 4369   4.695   1.031   5.413
 1157SOL    HW1 4370   4.733   1.091   5.342
 1157SOL    HW2 4371   4.603   1.002   5.386
 1158SOL     OW 4372   5.498   6.229   4.155
 1158SOL    HW1 4373   5.413   6.252   4.109
 1158SOL    HW2 4374   5.547   6.312   4.179
 1159SOL     OW 4375   5.928   6.454   3.289
 1159SOL    HW1 4376   5.838   6.441   3.246
 1159SOL    HW2 4377   5.934   6.547   3.325
 1160SOL     OW 4378   4.328   6.204   1.150
 1160SOL    HW1 4379   4.329   6.266   1.071
 1160SOL    HW2 4380   4.419   6.200   1.190
 1161SOL     OW 4381   6.958   5.257   6.068
 1161SOL    HW1 4382   6.961   5.206   6.153
 1161SOL    HW2 4383   6.984   5.352   6.085
 1162SOL     OW 4384   2.295   2.910   5.879
 1162SOL    HW1 4385   2.330   2.899   5.972
 1162SOL    HW2 4386   2.283   2.820   5.837
 1163SOL     OW 4387   6.105   4.364   1.711
 1163SOL    HW1 4388   6.132   4.284   1.766
 1163SOL    HW2 4389   6.121   4.344   1.615
 1164SOL     OW 4390   5.680   2.215   4.626
 1164SOL    HW1 4391   5.690   2.217   4.526
 1164SOL    HW2 4392   5.629   2.134   4.653
 1165SOL     OW 4393   4.334   6.449   3.656
 1165SOL    HW1 4394   4.431   6.450   3.681
 1165SOL    HW2 4395   4.302   6.543   3.645
 1166SOL     OW 4396   1.689   6.459   0.206
 1166SOL    HW1 4397   1.777   6.508   0.201
 1166SOL    HW2 4398   1.623   6.505   0.147
 1167SOL     OW 4399   4.952   3.919   1.623
 1167SOL    HW1 4400   4.883   3.988   1.647
 1167SOL    HW2 4401   4.980   3.869   1.705
 1168SOL     OW 4402   6.234   1.989   2.002
 1168SOL    HW1 4403   6.314   1.933   2.025
 1168SOL    HW2 4404   6.260   2.060   1.936
 1169SOL     OW 4405   6.088   1.757   5.747
 1169SOL    HW1 4406   6.102   1.707   5.662
 1169SOL    HW2 4407   6.087   1.692   5.824
 1170SOL     OW 4408   4.584   0.247   2.730
 1170SOL    HW1 4409   4.547   0.338   2.710
 1170SOL    HW2 4410   4.557   0.183   2.657
 1171SOL     OW 4411   2.084   0.027   0.473
 1171SOL    HW1 4412   2.013   7.024   0.410
 1171SOL    HW2 4413   2.172   0.030   0.425
 1172SOL     OW 4414   5.216   3.481   1.101
 1172SOL    HW1 4415   5.176   3.411   1.160
 1172SOL    HW2 4416   5.188   3.572   1.133
 1173SOL     OW 4417   2.026   1.124   1.340
 1173SOL    HW1 4418   1.994   1.115   1.434
 1173SOL    HW2 4419   1.975   1.061   1.281
 1174SOL     OW 4420   3.632   3.995   1.819
 1174SOL    HW1 4421   3.640   3.913   1.875
 1174SOL    HW2 4422   3.643   4.076   1.876
 1175SOL     OW 4423   4.492   3.156   5.791
 1175SOL    HW1 4424   4.543   3.085   5.741
 1175SOL    HW2 4425   4.480   3.236   5.731
 1176SOL     OW 4426   4.608   3.322   6.092
 1176SOL    HW1 4427   4.683   3.387   6.078
 1176SOL    HW2 4428   4.644   3.239   6.134
 1177SOL     OW 4429   6.283   3.428   5.048
 1177SOL    HW1 4430   6.349   3.492   5.008
 1177SOL    HW2 4431   6.332   3.353   5.092
 1178SOL     OW 4432   2.772   3.210   0.659
 1178SOL    HW1 4433   2.835   3.284   0.635
 1178SOL    HW2 4434   2.743   3.163   0.576
 1179SOL     OW 4435   2.070   5.818   0.306
 1179SOL    HW1 4436   2.030   5.728   0.293
 1179SOL    HW2 4437   2.045   5.854   0.396
 1180SOL     OW 4438   2.466   6.297   3.169
 1180SOL    HW1 4439   2.485   6.336   3.079
 1180SOL    HW2 4440   2.549   6.300   3.225
 1181SOL     OW 4441   0.263   5.530   5.816
 1181SOL    HW1 4442   0.269   5.483   5.904
 1181SOL    HW2 4443   0.257   5.462   5.742
 1182SOL     OW 4444   4.184   5.527   3.458
 1182SOL    HW1 4445   4.133   5.442   3.469
 1182SOL    HW2 4446   4.274   5.518   3.501
 1183SOL     OW 4447   1.893   4.440   0.828
 1183SOL    HW1 4448   1.846   4.502   0.892
 1183SOL    HW2 4449   1.828   4.405   0.761
 1184SOL     OW 4450   0.454   0.375   4.663
 1184SOL    HW1 4451   0.388   0.425   4.719
 1184SOL    HW2 4452   0.544   0.381   4.705
 1185SOL     OW 4453   0.511   1.128   6.609
 1185SOL    HW1 4454   0.495   1.173   6.521
 1185SOL    HW2 4455   0.512   1.029   6.596
 1186SOL     OW 4456   4.964   5.753   5.339
 1186SOL    HW1 4457   4.935   5.720   5.249
 1186SOL    HW2 4458   5.009   5.841   5.329
 1187SOL     OW 4459   6.339   6.629   6.971
 1187SOL    HW1 4460   6.320   6.692   0.019
 1187SOL    HW2 4461   6.289   6.544   6.985
 1188SOL     OW 4462   3.604   6.497   4.809
 1188SOL    HW1 4463   3.697   6.461   4.814
 1188SOL    HW2 4464   3.548   6.438   4.750
 1189SOL     OW 4465   6.525   2.617   2.673
 1189SOL    HW1 4466   6.470   2.573   2.602
 1189SOL    HW2 4467   6.622   2.604   2.653
 1190SOL     OW 4468   2.337   6.040   3.555
 1190SOL    HW1 4469   2.266   6.045   3.626
 1190SOL    HW2 4470   2.314   5.967   3.490
 1191SOL     OW 4471   4.677   4.840   3.757
 1191SOL    HW1 4472   4.611   4.769   3.781
 1191SOL    HW2 4473   4.717   4.819   3.667
 1192SOL     OW 4474   3.662   5.627   3.327
 1192SOL    HW1 4475   3.572   5.583   3.332
 1192SOL    HW2 4476   3.651   5.725   3.309
 1193SOL     OW 4477   6.344   4.086   4.820
 1193SOL    HW1 4478   6.411   4.013   4.832
 1193SOL    HW2 4479   6.291   4.097   4.904
 1194SOL     OW 4480   5.371   7.003   1.537
 1194SOL    HW1 4481   5.304   6.960   1.476
 1194SOL    HW2 4482   5.405   6.935   1.602
 1195SOL     OW 4483   6.366   4.621   1.544
 1195SOL    HW1 4484   6.341   4.530   1.510
 1195SOL    HW2 4485   6.289   4.659   1.596
 1196SOL     OW 4486   0.181   5.785   3.069
 1196SOL    HW1 4487   0.155   5.799   3.164
 1196SOL    HW2 4488   0.275   5.751   3.064
 1197SOL     OW 4489   4.148   0.577   6.008
 1197SOL    HW1 4490   4.119   0.568   5.913
 1197SOL    HW2 4491   4.244   0.602   6.012
 1198SOL     OW 4492   1.377   3.207   1.764
 1198SOL    HW1 4493   1.393   3.159   1.678
 1198SOL    HW2 4494   1.376   3.305   1.748
 1199SOL     OW 4495   4.583   4.546   1.897
 1199SOL    HW1 4496   4.562   4.448   1.895
 1199SOL    HW2 4497   4.497   4.598   1.896
 1200SOL     OW 4498   3.442   3.450   3.556
 1200SOL    HW1 4499   3.537   3.421   3.554
 1200SOL    HW2 4500   3.390   3.392   3.619
 1201SOL     OW 4501   1.112   1.242   4.825
 1201SOL    HW1 4502   1.152   1.271   4.738
 1201SOL    HW2 4503   1.097   1.143   4.824
 1202SOL     OW 4504   1.007   5.451   6.182
 1202SOL    HW1 4505   0.966   5.461   6.091
 1202SOL    HW2 4506   1.027   5.541   6.220
 1203SOL     OW 4507   6.008   6.280   0.013
 1203SOL    HW1 4508   5.919   6.323   7.023
 1203SOL    HW2 4509   5.999   6.211   0.085
 1204SOL     OW 4510   3.090   6.778   1.225
 1204SOL    HW1 4511   3.059   6.865   1.188
 1204SOL    HW2 4512   3.011   6.716   1.233
 1205SOL     OW 4513   5.572   4.178   1.389
 1205SOL    HW1 4514   5.499   4.154   1.325
 1205SOL    HW2 4515   5.546   4.151   1.481
 1206SOL     OW 4516   3.264   2.859   5.290
 1206SOL    HW1 4517   3.179   2.913   5.283
 1206SOL    HW2 4518   3.255   2.793   5.364
 1207SOL     OW 4519   1.916   6.687   1.414
 1207SOL    HW1 4520   1.947   6.595   1.388
 1207SOL    HW2 4521   1.820   6.698   1.387
 1208SOL     OW 4522   3.304   3.817   0.624
 1208SOL    HW1 4523   3.316   3.892   0.559
 1208SOL    HW2 4524   3.385   3.759   0.623
 1209SOL     OW 4525   4.122   0.834   5.076
 1209SOL    HW1 4526   4.044   0.863   5.020
 1209SOL    HW2 4527   4.113   0.737   5.098
 1210SOL     OW 4528   2.538   0.337   2.808
 1210SOL    HW1 4529   2.467   0.389   2.855
 1210SOL    HW2 4530   2.586   0.396   2.743
 1211SOL     OW 4531   1.244   3.882   1.542
 1211SOL    HW1 4532   1.266   3.924   1.630
 1211SOL    HW2 4533   1.318   3.822   1.514
 1212SOL     OW 4534   6.556   0.136   6.674
 1212SOL    HW1 4535   6.628   0.200   6.699
 1212SOL    HW2 4536   6.570   0.105   6.580
 1213SOL     OW 4537   6.458   2.303   0.416
 1213SOL    HW1 4538   6.549   2.286   0.455
 1213SOL    HW2 4539   6.434   2.400   0.428
 1214SOL     OW 4540   0.056   2.927   0.484
 1214SOL    HW1 4541   0.114   3.006   0.463
 1214SOL    HW2 4542   6.995   2.959   0.519
 1215SOL     OW 4543   1.425   3.922   3.832
 1215SOL    HW1 4544   1.516   3.926   3.874
 1215SOL    HW2 4545   1.435   3.913   3.732
 1216SOL     OW 4546   5.202   0.821   1.346
 1216SOL    HW1 4547   5.159   0.891   1.289
 1216SOL    HW2 4548   5.195   0.849   1.442
 1217SOL     OW 4549   1.474   4.879   0.929
 1217SOL    HW1 4550   1.565   4.896   0.968
 1217SOL    HW2 4551   1.437   4.964   0.893
 1218SOL     OW 4552   1.711   4.669   4.329
 1218SOL    HW1 4553   1.778   4.715   4.388
 1218SOL    HW2 4554   1.752   4.656   4.239
 1219SOL     OW 4555   5.273   5.068   2.397
 1219SOL    HW1 4556   5.348   5.080   2.462
 1219SOL    HW2 4557   5.263   4.971   2.375
 1220SOL     OW 4558   0.915   5.261   3.415
 1220SOL    HW1 4559   0.840   5.216   3.464
 1220SOL    HW2 4560   0.878   5.336   3.360
 1221SOL     OW 4561   4.764   3.456   5.593
 1221SOL    HW1 4562   4.784   3.519   5.518
 1221SOL    HW2 4563   4.802   3.492   5.678
 1222SOL     OW 4564   6.279   6.658   6.701
 1222SOL    HW1 4565   6.311   6.667   6.795
 1222SOL    HW2 4566   6.195   6.605   6.699
 1223SOL     OW 4567   3.685   0.729   0.865
 1223SOL    HW1 4568   3.780   0.725   0.897
 1223SOL    HW2 4569   3.644   0.816   0.890
 1224SOL     OW 4570   2.251   6.361   0.716
 1224SOL    HW1 4571   2.187   6.388   0.644
 1224SOL    HW2 4572   2.345   6.381   0.687
 1225SOL     OW 4573   3.566   3.837   6.154
 1225SOL    HW1 4574   3.609   3.844   6.063
 1225SOL    HW2 4575   3.480   3.787   6.146
 1226SOL     OW 4576   2.607   5.458   0.953
 1226SOL    HW1 4577   2.624   5.362   0.934
 1226SOL    HW2 4578   2.624   5.476   1.050
 1227SOL     OW 4579   6.952   4.020   6.838
 1227SOL    HW1 4580   6.991   3.972   6.916
 1227SOL    HW2 4581   7.024   4.046   6.774
 1228SOL     OW 4582   4.014   2.605   6.791
 1228SOL    HW1 4583   4.059   2.575   6.706
 1228SOL    HW2 4584   3.956   2.531   6.826
 1229SOL     OW 4585   3.813   4.886   6.132
 1229SOL    HW1 4586   3.787   4.980   6.109
 1229SOL    HW2 4587   3.836   4.836   6.049
 1230SOL     OW 4588   4.429   0.346   3.736
 1230SOL    HW1 4589   4.340   0.319   3.701
 1230SOL    HW2 4590   4.426   0.440   3.768
 1231SOL     OW 4591   1.086   3.705   4.528
 1231SOL    HW1 4592   1.155   3.635   4.548
 1231SOL    HW2 4593   1.112   3.791   4.571
 1232SOL     OW 4594   1.055   1.702   5.708
 1232SOL    HW1 4595   1.031   1.776   5.646
 1232SOL    HW2 4596   1.101   1.630   5.657
 1233SOL     OW 4597   1.767   3.063   4.561
 1233SOL    HW1 4598   1.740   3.148   4.608
 1233SOL    HW2 4599   1.860   3.073   4.527
 1234SOL     OW 4600   6.753   3.966   4.867
 1234SOL    HW1 4601   6.769   3.938   4.772
 1234SOL    HW2 4602   6.655   3.972   4.884
 1235SOL     OW 4603   0.413   5.966   2.494
 1235SOL    HW1 4604   0.424   5.879   2.543
 1235SOL    HW2 4605   0.383   6.037   2.557
 1236SOL     OW 4606   5.407   0.907   6.868
 1236SOL    HW1 4607   5.342   0.950   6.930
 1236SOL    HW2 4608   5.385   0.932   6.773
 1237SOL     OW 4609   2.979   5.226   6.742
 1237SOL    HW1 4610   2.961   5.247   6.646
 1237SOL    HW2 4611   3.054   5.160   6.748
 1238SOL     OW 4612   1.943   0.834   0.827
 1238SOL    HW1 4613   1.917   0.895   0.753
 1238SOL    HW2 4614   2.013   0.770   0.796
 1239SOL     OW 4615   6.788   6.482   6.746
 1239SOL    HW1 4616   6.716   6.526   6.800
 1239SOL    HW2 4617   6.752   6.460   6.655
 1240SOL     OW 4618   5.790   5.977   2.170
 1240SOL    HW1 4619   5.789   5.881   2.197
 1240SOL    HW2 4620   5.877   6.019   2.199
 1241SOL     OW 4621   0.031   3.558   4.154
 1241SOL    HW1 4622   6.968   3.601   4.155
 1241SOL    HW2 4623   0.022   3.463   4.123
 1242SOL     OW 4624   1.761   3.351   1.317
 1242SOL    HW1 4625   1.744   3.337   1.219
 1242SOL    HW2 4626   1.856   3.381   1.330
 1243SOL     OW 4627   1.227   6.220   5.393
 1243SOL    HW1 4628   1.202   6.254   5.302
 1243SOL    HW2 4629   1.147   6.225   5.453
 1244SOL     OW 4630   0.588   6.056   3.351
 1244SOL    HW1 4631   0.494   6.045   3.319
 1244SOL    HW2 4632   0.589   6.109   3.435
 1245SOL     OW 4633   4.386   3.737   6.242
 1245SOL    HW1 4634   4.312   3.691   6.193
 1245SOL    HW2 4635   4.393   3.699   6.334
 1246SOL     OW 4636   2.246   6.328   2.038
 1246SOL    HW1 4637   2.268   6.310   1.942
 1246SOL    HW2 4638   2.149   6.310   2.054
 1247SOL     OW 4639   2.925   0.292   6.680
 1247SOL    HW1 4640   2.952   0.267   6.587
 1247SOL    HW2 4641   2.977   0.236   6.746
 1248SOL     OW 4642   2.206   0.035   3.998
 1248SOL    HW1 4643   2.220   0.068   4.091
 1248SOL    HW2 4644   2.267   6.985   3.980
 1249SOL     OW 4645   5.531   2.590   2.238
 1249SOL    HW1 4646   5.471   2.654   2.286
 1249SOL    HW2 4647   5.626   2.621   2.248
 1250SOL     OW 4648   0.252   4.706   5.079
 1250SOL    HW1 4649   0.293   4.764   5.010
 1250SOL    HW2 4650   0.235   4.615   5.040
 1251SOL     OW 4651   3.553   0.267   4.486
 1251SOL    HW1 4652   3.549   0.257   4.585
 1251SOL    HW2 4653   3.461   0.284   4.450
 1252SOL     OW 4654   3.353   3.669   6.074
 1252SOL    HW1 4655   3.367   3.572   6.094
 1252SOL    HW2 4656   3.393   3.691   5.985
 1253SOL     OW 4657   4.111   5.758   1.793
 1253SOL    HW1 4658   4.064   5.694   1.732
 1253SOL    HW2 4659   4.138   5.710   1.876
 1254SOL     OW 4660   6.267   2.912   2.511
 1254SOL    HW1 4661   6.270   2.998   2.562
 1254SOL    HW2 4662   6.231   2.839   2.569
 1255SOL     OW 4663   6.817   1.241   4.616
 1255SOL    HW1 4664   6.877   1.207   4.543
 1255SOL    HW2 4665   6.866   1.237   4.703
 1256SOL     OW 4666   6.812   6.978   3.188
 1256SOL    HW1 4667   6.779   0.038   3.151
 1256SOL    HW2 4668   6.911   6.971   3.175
 1257SOL     OW 4669   0.350   0.058   3.613
 1257SOL    HW1 4670   0.314   6.995   3.635
 1257SOL    HW2 4671   0.417   0.085   3.682
 1258SOL     OW 4672   0.751   5.193   3.611
 1258SOL    HW1 4673   0.669   5.241   3.644
 1258SOL    HW2 4674   0.789   5.138   3.686
 1259SOL     OW 4675   3.917   1.773   4.556
 1259SOL    HW1 4676   3.947   1.678   4.546
 1259SOL    HW2 4677   3.818   1.779   4.543
 1260SOL     OW 4678   0.933   1.707   0.019
 1260SOL    HW1 4679   0.895   1.615   0.024
 1260SOL    HW2 4680   1.008   1.709   6.980
 1261SOL     OW 4681   0.278   5.417   6.859
 1261SOL    HW1 4682   0.216   5.495   6.856
 1261SOL    HW2 4683   0.244   5.350   6.925
 1262SOL     OW 4684   5.154   5.363   2.484
 1262SOL    HW1 4685   5.130   5.271   2.454
 1262SOL    HW2 4686   5.070   5.416   2.498
 1263SOL     OW 4687   0.769   1.497   2.565
 1263SOL    HW1 4688   0.788   1.550   2.647
 1263SOL    HW2 4689   0.703   1.545   2.508
 1264SOL     OW 4690   1.031   3.769   5.911
 1264SOL    HW1 4691   1.129   3.747   5.914
 1264SOL    HW2 4692   0.992   3.735   5.825
 1265SOL     OW 4693   6.862   5.395   4.492
 1265SOL    HW1 4694   6.771   5.428   4.518
 1265SOL    HW2 4695   6.889   5.438   4.406
 1266SOL     OW 4696   0.733   0.872   4.378
 1266SOL    HW1 4697   0.660   0.914   4.323
 1266SOL    HW2 4698   0.729   0.773   4.370
 1267SOL     OW 4699   5.357   0.633   2.045
 1267SOL    HW1 4700   5.415   0.646   1.965
 1267SOL    HW2 4701   5.384   0.697   2.117
 1268SOL     OW 4702   3.917   2.564   5.743
 1268SOL    HW1 4703   3.986   2.604   5.683
 1268SOL    HW2 4704   3.834   2.619   5.738
 1269SOL     OW 4705   5.130   2.536   4.319
 1269SOL    HW1 4706   5.138   2.505   4.224
 1269SOL    HW2 4707   5.112   2.635   4.320
 1270SOL     OW 4708   1.677   4.816   2.047
 1270SOL    HW1 4709   1.651   4.912   2.057
 1270SOL    HW2 4710   1.657   4.766   2.131
 1271SOL     OW 4711   1.681   0.612   1.242
 1271SOL    HW1 4712   1.753   0.648   1.183
 1271SOL    HW2 4713   1.592   0.631   1.200
 1272SOL     OW 4714   6.468   3.644   6.416
 1272SOL    HW1 4715   6.411   3.724   6.436
 1272SOL    HW2 4716   6.563   3.673   6.405
 1273SOL     OW 4717   1.487   3.953   4.652
 1273SOL    HW1 4718   1.510   3.964   4.555
 1273SOL    HW2 4719   1.568   3.971   4.707
 1274SOL     OW 4720   0.173   4.647   1.497
 1274SOL    HW1 4721   0.195   4.554   1.468
 1274SOL    HW2 4722   0.133   4.697   1.421
 1275SOL     OW 4723   2.529   0.262   3.437
 1275SOL    HW1 4724   2.476   0.346   3.447
 1275SOL    HW2 4725   2.492   0.208   3.362
 1276SOL     OW 4726   5.591   4.708   4.582
 1276SOL    HW1 4727   5.613   4.612   4.602
 1276SOL    HW2 4728   5.638   4.737   4.499
 1277SOL     OW 4729   0.928   5.385   0.158
 1277SOL    HW1 4730   1.012   5.336   0.133
 1277SOL    HW2 4731   0.942   5.433   0.245
 1278SOL     OW 4732   0.941   6.964   3.638
 1278SOL    HW1 4733   0.883   6.929   3.564
 1278SOL    HW2 4734   0.975   6.888   3.693
 1279SOL     OW 4735   2.176   3.744   5.963
 1279SOL    HW1 4736   2.209   3.802   5.889
 1279SOL    HW2 4737   2.214   3.776   6.050
 1280SOL     OW 4738   3.280   0.679   3.770
 1280SOL    HW1 4739   3.316   0.635   3.687
 1280SOL    HW2 4740   3.337   0.758   3.793
 1281SOL     OW 4741   2.885   6.200   3.956
 1281SOL    HW1 4742   2.799   6.158   3.930
 1281SOL    HW2 4743   2.892   6.203   4.056
 1282SOL     OW 4744   6.671   2.783   0.452
 1282SOL    HW1 4745   6.577   2.762   0.478
 1282SOL    HW2 4746   6.734   2.734   0.511
 1283SOL     OW 4747   6.378   3.860   5.386
 1283SOL    HW1 4748   6.365   3.776   5.437
 1283SOL    HW2 4749   6.290   3.891   5.350
 1284SOL     OW 4750   3.731   0.768   1.186
 1284SOL    HW1 4751   3.658   0.703   1.161
 1284SOL    HW2 4752   3.800   0.770   1.113
 1285SOL     OW 4753   3.807   1.197   5.062
 1285SOL    HW1 4754   3.740   1.139   5.107
 1285SOL    HW2 4755   3.869   1.141   5.007
 1286SOL     OW 4756   4.869   2.646   1.286
 1286SOL    HW1 4757   4.947   2.708   1.271
 1286SOL    HW2 4758   4.804   2.689   1.347
 1287SOL     OW 4759   5.923   4.626   5.222
 1287SOL    HW1 4760   5.985   4.681   5.167
 1287SOL    HW2 4761   5.880   4.556   5.164
 1288SOL     OW 4762   4.441   4.665   6.269
 1288SOL    HW1 4763   4.387   4.742   6.234
 1288SOL    HW2 4764   4.507   4.699   6.336
 1289SOL     OW 4765   6.477   0.695   1.551
 1289SOL    HW1 4766   6.414   0.635   1.601
 1289SOL    HW2 4767   6.571   0.676   1.579
 1290SOL     OW 4768   1.595   0.737   0.269
 1290SOL    HW1 4769   1.523   0.807   0.264
 1290SOL    HW2 4770   1.561   0.657   0.318
 1291SOL     OW 4771   6.450   5.109   4.598
 1291SOL    HW1 4772   6.374   5.046   4.619
 1291SOL    HW2 4773   6.525   5.057   4.557
 1292SOL     OW 4774   0.191   5.588   2.508
 1292SOL    HW1 4775   0.161   5.519   2.574
 1292SOL    HW2 4776   0.196   5.547   2.417
 1293SOL     OW 4777   2.243   1.882   0.340
 1293SOL    HW1 4778   2.297   1.830   0.274
 1293SOL    HW2 4779   2.254   1.980   0.323
 1294SOL     OW 4780   2.012   4.538   6.619
 1294SOL    HW1 4781   2.025   4.462   6.554
 1294SOL    HW2 4782   2.099   4.585   6.633
 1295SOL     OW 4783   0.229   3.810   1.242
 1295SOL    HW1 4784   0.189   3.750   1.173
 1295SOL    HW2 4785   0.161   3.878   1.271
 1296SOL     OW 4786   5.216   6.719   5.470
 1296SOL    HW1 4787   5.237   6.807   5.514
 1296SOL    HW2 4788   5.151   6.668   5.528
 1297SOL     OW 4789   0.874   6.644   2.054
 1297SOL    HW1 4790   0.832   6.570   2.106
 1297SOL    HW2 4791   0.806   6.714   2.035
 1298SOL     OW 4792   4.920   6.122   3.203
 1298SOL    HW1 4793   4.948   6.210   3.163
 1298SOL    HW2 4794   4.931   6.050   3.135
 1299SOL     OW 4795   2.029   2.993   4.037
 1299SOL    HW1 4796   2.110   2.944   4.005
 1299SOL    HW2 4797   1.984   2.941   4.110
 1300SOL     OW 4798   2.171   3.566   1.177
 1300SOL    HW1 4799   2.256   3.585   1.226
 1300SOL    HW2 4800   2.150   3.642   1.116
 1301SOL     OW 4801   0.619   0.560   1.538
 1301SOL    HW1 4802   0.652   0.486   1.479
 1301SOL    HW2 4803   0.522   0.575   1.521
 1302SOL     OW 4804   5.498   0.089   5.359
 1302SOL    HW1 4805   5.450   0.116   5.275
 1302SOL    HW2 4806   5.520   0.170   5.412
 1303SOL     OW 4807   4.173   0.345   1.634
 1303SOL    HW1 4808   4.076   0.339   1.610
 1303SOL    HW2 4809   4.182   0.346   1.734
 1304SOL     OW 4810   1.351   1.435   1.262
 1304SOL    HW1 4811   1.399   1.468   1.181
 1304SOL    HW2 4812   1.329   1.513   1.321
 1305SOL     OW 4813   5.233   4.193   6.095
 1305SOL    HW1 4814   5.309   4.187   6.160
 1305SOL    HW2 4815   5.248   4.270   6.033
 1306SOL     OW 4816   0.805   5.903   4.840
 1306SOL    HW1 4817   0.751   5.859   4.912
 1306SOL    HW2 4818   0.850   5.832   4.785
 1307SOL     OW 4819   1.890   3.043   3.813
 1307SOL    HW1 4820   1.856   2.949   3.815
 1307SOL    HW2 4821   1.953   3.058   3.890
 1308SOL     OW 4822   6.712   6.180   6.611
 1308SOL    HW1 4823   6.661   6.265   6.628
 1308SOL    HW2 4824   6.747   6.180   6.518
 1309SOL     OW 4825   5.196   4.865   5.929
 1309SOL    HW1 4826   5.276   4.921   5.952
 1309SOL    HW2 4827   5.191   4.851   5.830
 1310SOL     OW 4828   0.609   3.896   3.892
 1310SOL    HW1 4829   0.696   3.865   3.855
 1310SOL    HW2 4830   0.608   3.883   3.991
 1311SOL     OW 4831   6.438   5.488   6.386
 1311SOL    HW1 4832   6.483   5.546   6.317
 1311SOL    HW2 4833   6.507   5.451   6.448
 1312SOL     OW 4834   1.440   0.858   5.789
 1312SOL    HW1 4835   1.373   0.787   5.810
 1312SOL    HW2 4836   1.455   0.914   5.870
 1313SOL     OW 4837   6.076   5.777   3.228
 1313SOL    HW1 4838   6.114   5.687   3.209
 1313SOL    HW2 4839   6.020   5.806   3.150
 1314SOL     OW 4840   3.175   1.782   4.772
 1314SOL    HW1 4841   3.241   1.776   4.846
 1314SOL    HW2 4842   3.087   1.745   4.802
 1315SOL     OW 4843   6.576   0.457   3.935
 1315SOL    HW1 4844   6.532   0.488   4.020
 1315SOL    HW2 4845   6.674   0.447   3.950
 1316SOL     OW 4846   3.931   0.495   5.456
 1316SOL    HW1 4847   3.955   0.431   5.529
 1316SOL    HW2 4848   3.831   0.499   5.446
 1317SOL     OW 4849   1.937   4.507   5.576
 1317SOL    HW1 4850   1.945   4.431   5.511
 1317SOL    HW2 4851   2.017   4.567   5.567
 1318SOL     OW 4852   2.229   3.485   6.851
 1318SOL    HW1 4853   2.223   3.499   6.949
 1318SOL    HW2 4854   2.262   3.393   6.832
 1319SOL     OW 4855   7.026   6.073   7.022
 1319SOL    HW1 4856   6.970   6.077   6.939
 1319SOL    HW2 4857   6.971   6.102   0.074
 1320SOL     OW 4858   3.117   2.951   6.275
 1320SOL    HW1 4859   3.183   2.923   6.345
 1320SOL    HW2 4860   3.040   2.888   6.274
 1321SOL     OW 4861   5.032   2.418   6.512
 1321SOL    HW1 4862   5.108   2.468   6.553
 1321SOL    HW2 4863   5.065   2.369   6.431
 1322SOL     OW 4864   3.358   1.258   5.000
 1322SOL    HW1 4865   3.447   1.258   4.955
 1322SOL    HW2 4866   3.303   1.182   4.966
 1323SOL     OW 4867   3.520   6.905   0.606
 1323SOL    HW1 4868   3.544   6.851   0.526
 1323SOL    HW2 4869   3.543   6.854   0.689
 1324SOL     OW 4870   1.270   3.641   0.483
 1324SOL    HW1 4871   1.301   3.562   0.431
 1324SOL    HW2 4872   1.186   3.618   0.532
 1325SOL     OW 4873   3.453   6.488   5.347
 1325SOL    HW1 4874   3.518   6.471   5.422
 1325SOL    HW2 4875   3.443   6.406   5.292
 1326SOL     OW 4876   4.675   4.231   5.182
 1326SOL    HW1 4877   4.714   4.226   5.090
 1326SOL    HW2 4878   4.640   4.141   5.208
 1327SOL     OW 4879   0.104   6.838   1.044
 1327SOL    HW1 4880   0.149   6.887   1.119
 1327SOL    HW2 4881   0.139   6.745   1.038
 1328SOL     OW 4882   1.639   3.291   5.735
 1328SOL    HW1 4883   1.719   3.230   5.731
 1328SOL    HW2 4884   1.669   3.386   5.729
 1329SOL     OW 4885   6.925   1.373   2.642
 1329SOL    HW1 4886   6.971   1.378   2.730
 1329SOL    HW2 4887   6.969   1.437   2.578
 1330SOL     OW 4888   0.515   2.023   0.854
 1330SOL    HW1 4889   0.536   2.100   0.914
 1330SOL    HW2 4890   0.467   2.056   0.773
 1331SOL     OW 4891   4.446   2.308   2.525
 1331SOL    HW1 4892   4.463   2.381   2.591
 1331SOL    HW2 4893   4.448   2.345   2.432
 1332SOL     OW 4894   1.941   0.433   0.355
 1332SOL    HW1 4895   1.947   0.427   0.454
 1332SOL    HW2 4896   2.029   0.406   0.315
 1333SOL     OW 4897   3.128   4.028   3.016
 1333SOL    HW1 4898   3.221   4.038   3.052
 1333SOL    HW2 4899   3.131   4.019   2.917
 1334SOL     OW 4900   0.076   1.702   3.502
 1334SOL    HW1 4901   0.123   1.713   3.590
 1334SOL    HW2 4902   0.140   1.669   3.433
 1335SOL     OW 4903   1.920   2.597   2.045
 1335SOL    HW1 4904   1.959   2.514   2.085
 1335SOL    HW2 4905   1.992   2.649   1.999
 1336SOL     OW 4906   4.156   1.426   5.356
 1336SOL    HW1 4907   4.079   1.408   5.417
 1336SOL    HW2 4908   4.196   1.340   5.326
 1337SOL     OW 4909   6.653   1.107   2.741
 1337SOL    HW1 4910   6.665   1.151   2.652
 1337SOL    HW2 4911   6.731   1.048   2.759
 1338SOL     OW 4912   6.216   4.072   4.283
 1338SOL    HW1 4913   6.139   4.123   4.321
 1338SOL    HW2 4914   6.232   3.990   4.338
 1339SOL     OW 4915   0.082   0.409   0.358
 1339SOL    HW1 4916   0.166   0.368   0.395
 1339SOL    HW2 4917   0.007   0.392   0.422
 1340SOL     OW 4918   4.795   1.896   2.498
 1340SOL    HW1 4919   4.893   1.890   2.515
 1340SOL    HW2 4920   4.775   1.979   2.446
 1341SOL     OW 4921   4.501   6.379   0.095
 1341SOL    HW1 4922   4.421   6.429   0.127
 1341SOL    HW2 4923   4.570   6.444   0.064
 1342SOL     OW 4924   3.306   5.587   6.919
 1342SOL    HW1 4925   3.395   5.626   6.939
 1342SOL    HW2 4926   3.297   5.498   6.964
 1343SOL     OW 4927   6.037   5.219   2.999
 1343SOL    HW1 4928   6.120   5.236   2.946
 1343SOL    HW2 4929   6.054   5.240   3.096
 1344SOL     OW 4930   0.897   6.523   4.235
 1344SOL    HW1 4931   0.835   6.520   4.156
 1344SOL    HW2 4932   0.860   6.466   4.308
 1345SOL     OW 4933   0.922   4.758   2.111
 1345SOL    HW1 4934   0.941   4.681   2.172
 1345SOL    HW2 4935   0.859   4.729   2.039
 1346SOL     OW 4936   1.966   5.265   6.084
 1346SOL    HW1 4937   1.989   5.294   6.177
 1346SOL    HW2 4938   2.024   5.312   6.018
 1347SOL     OW 4939   2.040   0.548   6.113
 1347SOL    HW1 4940   1.964   0.503   6.160
 1347SOL    HW2 4941   2.068   0.629   6.165
 1348SOL     OW 4942   0.319   5.833   5.270
 1348SOL    HW1 4943   0.339   5.754   5.212
 1348SOL    HW2 4944   0.377   5.910   5.242
 1349SOL     OW 4945   5.598   2.669   4.094
 1349SOL    HW1 4946   5.534   2.722   4.149
 1349SOL    HW2 4947   5.548   2.601   4.040
 1350SOL     OW 4948   3.847   4.493   0.157
 1350SOL    HW1 4949   3.822   4.403   0.191
 1350SOL    HW2 4950   3.893   4.483   0.068
 1351SOL     OW 4951   5.999   2.036   3.719
 1351SOL    HW1 4952   5.968   1.975   3.791
 1351SOL    HW2 4953   6.050   2.112   3.759
 1352SOL     OW 4954   0.258   6.768   2.269
 1352SOL    HW1 4955   0.241   6.672   2.251
 1352SOL    HW2 4956   0.172   6.815   2.285
 1353SOL     OW 4957   0.854   2.221   0.439
 1353SOL    HW1 4958   0.828   2.140   0.386
 1353SOL    HW2 4959   0.852   2.302   0.381
 1354SOL     OW 4960   6.945   3.869   2.096
 1354SOL    HW1 4961   6.914   3.937   2.163
 1354SOL    HW2 4962   0.015   3.850   2.110
 1355SOL     OW 4963   6.276   3.871   4.456
 1355SOL    HW1 4964   6.233   3.788   4.422
 1355SOL    HW2 4965   6.258   3.881   4.554
 1356SOL     OW 4966   3.861   2.953   2.292
 1356SOL    HW1 4967   3.930   2.894   2.332
 1356SOL    HW2 4968   3.888   3.049   2.303
 1357SOL     OW 4969   6.487   3.557   5.715
 1357SOL    HW1 4970   6.543   3.618   5.770
 1357SOL    HW2 4971   6.445   3.488   5.774
 1358SOL     OW 4972   6.005   6.963   0.345
 1358SOL    HW1 4973   6.000   7.023   0.424
 1358SOL    HW2 4974   6.052   7.010   0.270
 1359SOL     OW 4975   6.061   4.687   1.586
 1359SOL    HW1 4976   5.979   4.658   1.635
 1359SOL    HW2 4977   6.038   4.760   1.522
 1360SOL     OW 4978   3.540   3.267   0.363
 1360SOL    HW1 4979   3.536   3.367   0.363
 1360SOL    HW2 4980   3.466   3.231   0.420
 1361SOL     OW 4981   0.089   5.073   5.212
 1361SOL    HW1 4982   0.118   5.053   5.305
 1361SOL    HW2 4983   0.146   5.146   5.174
 1362SOL     OW 4984   4.095   3.438   2.552
 1362SOL    HW1 4985   4.031   3.361   2.551
 1362SOL    HW2 4986   4.106   3.471   2.646
 1363SOL     OW 4987   0.237   5.452   4.856
 1363SOL    HW1 4988   0.145   5.469   4.821
 1363SOL    HW2 4989   0.234   5.441   4.955
 1364SOL     OW 4990   4.221   4.565   6.696
 1364SOL    HW1 4991   4.280   4.484   6.700
 1364SOL    HW2 4992   4.227   4.606   6.605
 1365SOL     OW 4993   0.530   4.408   6.523
 1365SOL    HW1 4994   0.601   4.476   6.543
 1365SOL    HW2 4995   0.440   4.446   6.544
 1366SOL     OW 4996   1.841   6.889   5.459
 1366SOL    HW1 4997   1.833   6.915   5.363
 1366SOL    HW2 4998   1.933   6.854   5.477
 1367SOL     OW 4999   1.643   1.558   2.132
 1367SOL    HW1 5000   1.574   1.631   2.125
 1367SOL    HW2 5001   1.641   1.519   2.224
 1368SOL     OW 5002   5.665   6.778   4.724
 1368SOL    HW1 5003   5.582   6.756   4.671
 1368SOL    HW2 5004   5.639   6.796   4.819
 1369SOL     OW 5005   1.132   6.206   2.885
 1369SOL    HW1 5006   1.047   6.158   2.909
 1369SOL    HW2 5007   1.172   6.165   2.803
 1370SOL     OW 5008   3.298   0.760   1.297
 1370SOL    HW1 5009   3.222   0.729   1.355
 1370SOL    HW2 5010   3.383   0.720   1.330
 1371SOL     OW 5011   4.158   0.853   5.577
 1371SOL    HW1 5012   4.132   0.881   5.670
 1371SOL    HW2 5013   4.232   0.787   5.581
 1372SOL     OW 5014   1.965   2.457   0.880
 1372SOL    HW1 5015   2.051   2.503   0.857
 1372SOL    HW2 5016   1.960   2.370   0.830
 1373SOL     OW 5017   7.011   5.150   0.890
 1373SOL    HW1 5018   7.025   5.227   0.952
 1373SOL    HW2 5019   6.920   5.157   0.848
 1374SOL     OW 5020   4.083   1.907   1.159
 1374SOL    HW1 5021   4.161   1.943   1.210
 1374SOL    HW2 5022   4.062   1.968   1.083
 1375SOL     OW 5023   0.080   5.117   5.871
 1375SOL    HW1 5024   0.012   5.097   5.801
 1375SOL    HW2 5025   0.051   5.197   5.924
 1376SOL     OW 5026   4.988   2.639   3.643
 1376SOL    HW1 5027   5.006   2.547   3.609
 1376SOL    HW2 5028   4.951   2.634   3.736
 1377SOL     OW 5029   0.678   4.710   5.353
 1377SOL    HW1 5030   0.704   4.796   5.397
 1377SOL    HW2 5031   0.760   4.663   5.321
 1378SOL     OW 5032   0.996   2.661   6.658
 1378SOL    HW1 5033   1.012   2.647   6.756
 1378SOL    HW2 5034   0.989   2.572   6.613
 1379SOL     OW 5035   3.157   5.440   3.190
 1379SOL    HW1 5036   3.112   5.518   3.146
 1379SOL    HW2 5037   3.242   5.470   3.231
 1380SOL     OW 5038   6.475   6.964   2.607
 1380SOL    HW1 5039   6.474   6.967   2.507
 1380SOL    HW2 5040   6.497   6.872   2.638
 1381SOL     OW 5041   5.908   3.249   0.358
 1381SOL    HW1 5042   5.892   3.223   0.453
 1381SOL    HW2 5043   5.828   3.224   0.303
 1382SOL     OW 5044   5.940   5.046   6.175
 1382SOL    HW1 5045   5.954   5.145   6.175
 1382SOL    HW2 5046   6.018   5.001   6.132
 1383SOL     OW 5047   0.371   0.414   7.005
 1383SOL    HW1 5048   0.314   0.345   0.024
 1383SOL    HW2 5049   0.452   0.370   6.967
 1384SOL     OW 5050   4.066   1.047   3.138
 1384SOL    HW1 5051   4.028   1.117   3.077
 1384SOL    HW2 5052   4.012   1.045   3.223
 1385SOL     OW 5053   6.280   2.684   2.847
 1385SOL    HW1 5054   6.213   2.639   2.788
 1385SOL    HW2 5055   6.372   2.668   2.811
 1386SOL     OW 5056   2.013   3.102   4.443
 1386SOL    HW1 5057   2.078   3.046   4.494
 1386SOL    HW2 5058   2.063   3.171   4.390
 1387SOL     OW 5059   3.287   0.414   4.669
 1387SOL    HW1 5060   3.215   0.351   4.697
 1387SOL    HW2 5061   3.281   0.430   4.570
 1388SOL     OW 5062   6.566   1.054   4.264
 1388SOL    HW1 5063   6.589   0.967   4.307
 1388SOL    HW2 5064   6.638   1.080   4.200
 1389SOL     OW 5065   5.685   6.825   4.233
 1389SOL    HW1 5066   5.642   6.862   4.316
 1389SOL    HW2 5067   5.645   6.737   4.211
 1390SOL     OW 5068   3.987   1.649   1.616
 1390SOL    HW1 5069   4.072   1.682   1.574
 1390SOL    HW2 5070   3.913   1.652   1.549
 1391SOL     OW 5071   6.496   0.859   4.936
 1391SOL    HW1 5072   6.587   0.899   4.946
 1391SOL    HW2 5073   6.463   0.873   4.842
 1392SOL     OW 5074   4.516   5.876   6.924
 1392SOL    HW1 5075   4.437   5.839   6.973
 1392SOL    HW2 5076   4.588   5.900   6.989
 1393SOL     OW 5077   6.623   1.560   6.365
 1393SOL    HW1 5078   6.532   1.602   6.363
 1393SOL    HW2 5079   6.643   1.526   6.457
 1394SOL     OW 5080   3.888   6.602   3.487
 1394SOL    HW1 5081   3.838   6.515   3.488
 1394SOL    HW2 5082   3.847   6.665   3.553
 1395SOL     OW 5083   1.221   4.663   2.766
 1395SOL    HW1 5084   1.319   4.649   2.748
 1395SOL    HW2 5085   1.202   4.640   2.861
 1396SOL     OW 5086   2.562   0.977   4.499
 1396SOL    HW1 5087   2.508   0.895   4.516
 1396SOL    HW2 5088   2.527   1.025   4.419
 1397SOL     OW 5089   0.760   5.096   4.179
 1397SOL    HW1 5090   0.684   5.047   4.136
 1397SOL    HW2 5091   0.844   5.042   4.169
 1398SOL     OW 5092   0.962   1.806   0.976
 1398SOL    HW1 5093   0.979   1.863   0.895
 1398SOL    HW2 5094   1.046   1.757   1.000
 1399SOL     OW 5095   3.748   0.386   0.623
 1399SOL    HW1 5096   3.832   0.439   0.623
 1399SOL    HW2 5097   3.680   0.430   0.681
 1400SOL     OW 5098   6.188   0.889   4.519
 1400SOL    HW1 5099   6.107   0.947   4.518
 1400SOL    HW2 5100   6.161   0.794   4.534
 1401SOL     OW 5101   5.727   0.403   3.435
 1401SOL    HW1 5102   5.731   0.475   3.365
 1401SOL    HW2 5103   5.663   0.332   3.406
 1402SOL     OW 5104   6.287   3.920   1.905
 1402SOL    HW1 5105   6.385   3.919   1.887
 1402SOL    HW2 5106   6.237   3.912   1.818
 1403SOL     OW 5107   3.740   2.791   0.008
 1403SOL    HW1 5108   3.826   2.839   7.018
 1403SOL    HW2 5109   3.753   2.723   0.080
 1404SOL     OW 5110   4.464   0.302   0.942
 1404SOL    HW1 5111   4.504   0.378   0.892
 1404SOL    HW2 5112   4.391   0.335   1.001
 1405SOL     OW 5113   2.499   3.276   1.195
 1405SOL    HW1 5114   2.516   3.182   1.166
 1405SOL    HW2 5115   2.524   3.286   1.292
 1406SOL     OW 5116   3.227   3.332   1.001
 1406SOL    HW1 5117   3.264   3.406   1.057
 1406SOL    HW2 5118   3.261   3.244   1.034
 1407SOL     OW 5119   0.584   3.127   1.374
 1407SOL    HW1 5120   0.488   3.155   1.364
 1407SOL    HW2 5121   0.598   3.089   1.466
 1408SOL     OW 5122   6.125   6.006   6.581
 1408SOL    HW1 5123   6.151   6.030   6.487
 1408SOL    HW2 5124   6.164   5.916   6.603
 1409SOL     OW 5125   0.024   0.729   5.749
 1409SOL    HW1 5126   0.019   0.730   5.849
 1409SOL    HW2 5127   6.979   0.787   5.711
 1410SOL     OW 5128   3.311   2.668   6.218
 1410SOL    HW1 5129   3.228   2.618   6.192
 1410SOL    HW2 5130   3.300   2.706   6.309
 1411SOL     OW 5131   4.001   5.648   0.561
 1411SOL    HW1 5132   3.997   5.607   0.470
 1411SOL    HW2 5133   4.096   5.670   0.583
 1412SOL     OW 5134   1.759   2.567   0.715
 1412SOL    HW1 5135   1.724   2.660   0.720
 1412SOL    HW2 5136   1.793   2.539   0.805
 1413SOL     OW 5137   2.125   1.664   4.871
 1413SOL    HW1 5138   2.043   1.675   4.927
 1413SOL    HW2 5139   2.198   1.622   4.925
 1414SOL     OW 5140   1.224   3.552   2.004
 1414SOL    HW1 5141   1.265   3.547   2.095
 1414SOL    HW2 5142   1.154   3.481   1.994
 1415SOL     OW 5143   2.105   1.713   3.899
 1415SOL    HW1 5144   2.164   1.638   3.869
 1415SOL    HW2 5145   2.145   1.800   3.868
 1416SOL     OW 5146   4.167   0.056   6.071
 1416SOL    HW1 5147   4.262   0.084   6.085
 1416SOL    HW2 5148   4.166   6.986   6.045
 1417SOL     OW 5149   3.850   2.789   6.310
 1417SOL    HW1 5150   3.829   2.817   6.216
 1417SOL    HW2 5151   3.946   2.764   6.317
 1418SOL     OW 5152   3.706   4.032   6.841
 1418SOL    HW1 5153   3.751   4.042   6.752
 1418SOL    HW2 5154   3.768   3.988   6.905
 1419SOL     OW 5155   1.989   4.614   3.565
 1419SOL    HW1 5156   1.905   4.565   3.587
 1419SOL    HW2 5157   2.013   4.597   3.469
 1420SOL     OW 5158   3.432   5.500   3.253
 1420SOL    HW1 5159   3.448   5.402   3.245
 1420SOL    HW2 5160   3.409   5.538   3.163
 1421SOL     OW 5161   1.547   5.522   5.871
 1421SOL    HW1 5162   1.641   5.487   5.866
 1421SOL    HW2 5163   1.487   5.449   5.903
 1422SOL     OW 5164   2.723   3.300   5.857
 1422SOL    HW1 5165   2.716   3.281   5.759
 1422SOL    HW2 5166   2.813   3.337   5.877
 1423SOL     OW 5167   4.731   1.375   4.556
 1423SOL    HW1 5168   4.738   1.278   4.580
 1423SOL    HW2 5169   4.812   1.423   4.588
 1424SOL     OW 5170   5.756   3.032   6.249
 1424SOL    HW1 5171   5.715   3.090   6.178
 1424SOL    HW2 5172   5.776   3.087   6.330
 1425SOL     OW 5173   4.091   6.884   3.569
 1425SOL    HW1 5174   4.168   6.879   3.634
 1425SOL    HW2 5175   4.057   6.792   3.551
 1426SOL     OW 5176   2.755   2.066   6.910
 1426SOL    HW1 5177   2.770   2.058   7.009
 1426SOL    HW2 5178   2.775   1.979   6.866
 1427SOL     OW 5179   1.301   1.350   3.089
 1427SOL    HW1 5180   1.353   1.377   3.008
 1427SOL    HW2 5181   1.280   1.431   3.143
 1428SOL     OW 5182   6.644   3.559   3.557
 1428SOL    HW1 5183   6.682   3.586   3.468
 1428SOL    HW2 5184   6.716   3.564   3.626
 1429SOL     OW 5185   5.992   1.180   1.147
 1429SOL    HW1 5186   6.030   1.244   1.081
 1429SOL    HW2 5187   6.024   1.087   1.125
 1430SOL     OW 5188   1.954   3.544   3.517
 1430SOL    HW1 5189   1.984   3.552   3.612
 1430SOL    HW2 5190   1.895   3.622   3.494
 1431SOL     OW 5191   2.380   1.677   5.363
 1431SOL    HW1 5192   2.469   1.707   5.400
 1431SOL    HW2 5193   2.374   1.703   5.267
 1432SOL     OW 5194   2.797   1.527   1.778
 1432SOL    HW1 5195   2.783   1.590   1.702
 1432SOL    HW2 5196   2.709   1.509   1.823
 1433SOL     OW 5197   3.015   0.196   4.210
 1433SOL    HW1 5198   3.114   0.188   4.218
 1433SOL    HW2 5199   2.991   0.210   4.114
 1434SOL     OW 5200   6.905   3.348   6.928
 1434SOL    HW1 5201   6.814   3.321   6.962
 1434SOL    HW2 5202   6.905   3.445   6.905
 1435SOL     OW 5203   0.700   0.077   4.797
 1435SOL    HW1 5204   0.663   0.170   4.797
 1435SOL    HW2 5205   0.710   0.044   4.703
 1436SOL     OW 5206   5.574   2.048   0.912
 1436SOL    HW1 5207   5.620   2.124   0.957
 1436SOL    HW2 5208   5.487   2.079   0.873
 1437SOL     OW 5209   4.695   0.737   6.042
 1437SOL    HW1 5210   4.758   0.767   6.113
 1437SOL    HW2 5211   4.710   0.641   6.021
 1438SOL     OW 5212   2.643   0.600   1.608
 1438SOL    HW1 5213   2.604   0.603   1.700
 1438SOL    HW2 5214   2.590   0.536   1.552
 1439SOL     OW 5215   6.647   5.101   0.046
 1439SOL    HW1 5216   6.567   5.042   0.036
 1439SOL    HW2 5217   6.705   5.065   0.119
 1440SOL     OW 5218   2.978   3.475   3.529
 1440SOL    HW1 5219   2.919   3.548   3.495
 1440SOL    HW2 5220   2.988   3.405   3.459
 1441SOL     OW 5221   6.860   2.468   3.480
 1441SOL    HW1 5222   6.825   2.561   3.471
 1441SOL    HW2 5223   6.785   2.403   3.464
 1442SOL     OW 5224   4.873   4.583   0.620
 1442SOL    HW1 5225   4.781   4.571   0.585
 1442SOL    HW2 5226   4.893   4.681   0.629
 1443SOL     OW 5227   0.979   1.880   3.329
 1443SOL    HW1 5228   0.896   1.933   3.309
 1443SOL    HW2 5229   1.001   1.887   3.426
 1444SOL     OW 5230   4.062   0.972   3.638
 1444SOL    HW1 5231   4.101   0.882   3.660
 1444SOL    HW2 5232   4.136   1.035   3.615
 1445SOL     OW 5233   6.573   2.759   1.994
 1445SOL    HW1 5234   6.496   2.802   1.947
 1445SOL    HW2 5235   6.557   2.759   2.092
 1446SOL     OW 5236   3.722   1.933   1.604
 1446SOL    HW1 5237   3.803   1.968   1.557
 1446SOL    HW2 5238   3.682   2.005   1.660
 1447SOL     OW 5239   6.606   1.415   4.562
 1447SOL    HW1 5240   6.652   1.374   4.641
 1447SOL    HW2 5241   6.672   1.465   4.507
 1448SOL     OW 5242   5.748   1.131   5.984
 1448SOL    HW1 5243   5.770   1.147   6.080
 1448SOL    HW2 5244   5.803   1.191   5.927
 1449SOL     OW 5245   4.836   5.657   1.349
 1449SOL    HW1 5246   4.929   5.638   1.378
 1449SOL    HW2 5247   4.772   5.620   1.416
 1450SOL     OW 5248   5.640   2.692   3.244
 1450SOL    HW1 5249   5.640   2.700   3.144
 1450SOL    HW2 5250   5.573   2.623   3.271
 1451SOL     OW 5251   1.351   6.581   2.619
 1451SOL    HW1 5252   1.286   6.511   2.590
 1451SOL    HW2 5253   1.436   6.537   2.649
 1452SOL     OW 5254   4.916   0.577   5.436
 1452SOL    HW1 5255   4.821   0.564   5.406
 1452SOL    HW2 5256   4.977   0.563   5.358
 1453SOL     OW 5257   5.065   4.456   4.886
 1453SOL    HW1 5258   5.057   4.410   4.975
 1453SOL    HW2 5259   5.150   4.509   4.883
 1454SOL     OW 5260   4.823   3.091   1.715
 1454SOL    HW1 5261   4.893   3.030   1.752
 1454SOL    HW2 5262   4.739   3.081   1.768
 1455SOL     OW 5263   1.123   2.047   1.560
 1455SOL    HW1 5264   1.203   2.026   1.617
 1455SOL    HW2 5265   1.056   1.974   1.568
 1456SOL     OW 5266   6.453   6.127   4.286
 1456SOL    HW1 5267   6.402   6.182   4.220
 1456SOL    HW2 5268   6.390   6.090   4.354
 1457SOL     OW 5269   1.916   0.671   3.651
 1457SOL    HW1 5270   1.932   0.724   3.568
 1457SOL    HW2 5271   2.003   0.655   3.698
 1458SOL     OW 5272   5.781   6.033   6.222
 1458SOL    HW1 5273   5.821   5.966   6.286
 1458SOL    HW2 5274   5.845   6.050   6.148
 1459SOL     OW 5275   2.844   6.365   6.944
 1459SOL    HW1 5276   2.804   6.408   7.025
 1459SOL    HW2 5277   2.815   6.416   6.862
 1460SOL     OW 5278   1.309   0.066   0.027
 1460SOL    HW1 5279   1.298   0.029   0.119
 1460SOL    HW2 5280   1.404   0.053   7.024
 1461SOL     OW 5281   5.443   4.524   2.761
 1461SOL    HW1 5282   5.508   4.510   2.835
 1461SOL    HW2 5283   5.486   4.502   2.674
 1462SOL     OW 5284   5.887   0.666   0.171
 1462SOL    HW1 5285   5.826   0.604   0.122
 1462SOL    HW2 5286   5.963   0.692   0.112
 1463SOL     OW 5287   1.301   1.210   5.279
 1463SOL    HW1 5288   1.338   1.120   5.256
 1463SOL    HW2 5289   1.276   1.259   5.195
 1464SOL     OW 5290   0.053   6.422   1.081
 1464SOL    HW1 5291   0.138   6.421   1.133
 1464SOL    HW2 5292   0.060   6.491   1.009
 1465SOL     OW 5293   0.040   0.017   4.922
 1465SOL    HW1 5294   0.137   7.023   4.906
 1465SOL    HW2 5295   0.017   0.103   4.877
 1466SOL     OW 5296   6.086   5.174   3.379
 1466SOL    HW1 5297   6.064   5.151   3.473
 1466SOL    HW2 5298   6.185   5.173   3.366
 1467SOL     OW 5299   1.122   1.262   3.766
 1467SOL    HW1 5300   1.178   1.274   3.848
 1467SOL    HW2 5301   1.128   1.345   3.710
 1468SOL     OW 5302   5.227   6.002   3.318
 1468SOL    HW1 5303   5.215   5.916   3.367
 1468SOL    HW2 5304   5.146   6.059   3.331
 1469SOL     OW 5305   0.795   1.246   2.311
 1469SOL    HW1 5306   0.813   1.157   2.268
 1469SOL    HW2 5307   0.785   1.234   2.410
 1470SOL     OW 5308   1.396   1.337   2.801
 1470SOL    HW1 5309   1.360   1.316   2.710
 1470SOL    HW2 5310   1.392   1.255   2.858
 1471SOL     OW 5311   0.650   0.061   0.100
 1471SOL    HW1 5312   0.609   0.112   0.176
 1471SOL    HW2 5313   0.601   7.001   0.087
 1472SOL     OW 5314   4.946   0.453   5.977
 1472SOL    HW1 5315   5.024   0.493   6.024
 1472SOL    HW2 5316   4.975   0.371   5.927
 1473SOL     OW 5317   6.149   4.237   3.094
 1473SOL    HW1 5318   6.058   4.274   3.110
 1473SOL    HW2 5319   6.170   4.169   3.164
 1474SOL     OW 5320   5.611   5.539   4.165
 1474SOL    HW1 5321   5.610   5.443   4.193
 1474SOL    HW2 5322   5.706   5.567   4.148
 1475SOL     OW 5323   6.918   0.618   2.316
 1475SOL    HW1 5324   7.001   0.666   2.345
 1475SOL    HW2 5325   6.936   0.569   2.230
 1476SOL     OW 5326   0.358   2.273   2.118
 1476SOL    HW1 5327   0.381   2.324   2.034
 1476SOL    HW2 5328   0.278   2.216   2.100
 1477SOL     OW 5329   2.975   6.265   5.271
 1477SOL    HW1 5330   2.936   6.254   5.362
 1477SOL    HW2 5331   2.902   6.278   5.204
 1478SOL     OW 5332   6.173   4.681   0.796
 1478SOL    HW1 5333   6.103   4.659   0.863
 1478SOL    HW2 5334   6.148   4.641   0.707
 1479SOL     OW 5335   1.434   4.691   0.420
 1479SOL    HW1 5336   1.474   4.705   0.510
 1479SOL    HW2 5337   1.363   4.621   0.425
 1480SOL     OW 5338   2.764   1.309   0.509
 1480SOL    HW1 5339   2.708   1.289   0.589
 1480SOL    HW2 5340   2.733   1.394   0.467
 1481SOL     OW 5341   5.929   2.581   5.706
 1481SOL    HW1 5342   5.836   2.567   5.740
 1481SOL    HW2 5343   5.987   2.504   5.732
 1482SOL     OW 5344   6.060   0.611   6.564
 1482SOL    HW1 5345   6.107   0.525   6.582
 1482SOL    HW2 5346   6.040   0.657   6.650
 1483SOL     OW 5347   5.907   2.278   0.441
 1483SOL    HW1 5348   5.808   2.268   0.457
 1483SOL    HW2 5349   5.926   2.274   0.343
 1484SOL     OW 5350   6.557   5.336   2.910
 1484SOL    HW1 5351   6.611   5.418   2.892
 1484SOL    HW2 5352   6.618   5.259   2.931
 1485SOL     OW 5353   5.123   2.536   4.048
 1485SOL    HW1 5354   5.164   2.618   4.008
 1485SOL    HW2 5355   5.132   2.460   3.983
 1486SOL     OW 5356   4.564   1.820   2.634
 1486SOL    HW1 5357   4.504   1.895   2.608
 1486SOL    HW2 5358   4.657   1.838   2.601
 1487SOL     OW 5359   6.586   1.095   5.226
 1487SOL    HW1 5360   6.499   1.143   5.232
 1487SOL    HW2 5361   6.612   1.083   5.130
 1488SOL     OW 5362   4.685   1.156   2.910
 1488SOL    HW1 5363   4.747   1.098   2.963
 1488SOL    HW2 5364   4.657   1.107   2.827
 1489SOL     OW 5365   3.488   5.213   4.822
 1489SOL    HW1 5366   3.569   5.222   4.880
 1489SOL    HW2 5367   3.472   5.117   4.801
 1490SOL     OW 5368   1.397   2.891   0.399
 1490SOL    HW1 5369   1.306   2.926   0.420
 1490SOL    HW2 5370   1.406   2.879   0.300
 1491SOL     OW 5371   0.038   2.815   3.627
 1491SOL    HW1 5372   6.973   2.852   3.612
 1491SOL    HW2 5373   0.070   2.840   3.718
 1492SOL     OW 5374   4.794   1.631   1.541
 1492SOL    HW1 5375   4.761   1.546   1.498
 1492SOL    HW2 5376   4.892   1.624   1.558
 1493SOL     OW 5377   5.079   0.103   5.488
 1493SOL    HW1 5378   5.105   0.061   5.400
 1493SOL    HW2 5379   4.993   0.151   5.478
 1494SOL     OW 5380   3.921   2.133   5.560
 1494SOL    HW1 5381   3.996   2.187   5.598
 1494SOL    HW2 5382   3.868   2.093   5.634
 1495SOL     OW 5383   0.974   3.302   2.451
 1495SOL    HW1 5384   1.008   3.292   2.544
 1495SOL    HW2 5385   0.878   3.330   2.453
 1496SOL     OW 5386   0.301   0.192   2.500
 1496SOL    HW1 5387   0.325   0.099   2.526
 1496SOL    HW2 5388   0.377   0.254   2.521
 1497SOL     OW 5389   6.332   5.276   4.380
 1497SOL    HW1 5390   6.351   5.261   4.283
 1497SOL    HW2 5391   6.372   5.201   4.434
 1498SOL     OW 5392   1.806   5.301   6.920
 1498SOL    HW1 5393   1.773   5.269   6.831
 1498SOL    HW2 5394   1.786   5.232   6.990
 1499SOL     OW 5395   1.148   3.971   5.330
 1499SOL    HW1 5396   1.129   3.920   5.414
 1499SOL    HW2 5397   1.241   4.007   5.333
 1500SOL     OW 5398   5.109   6.400   0.190
 1500SOL    HW1 5399   5.188   6.434   0.241
 1500SOL    HW2 5400   5.025   6.418   0.242
 1501SOL     OW 5401   3.797   0.224   6.401
 1501SOL    HW1 5402   3.786   0.305   6.345
 1501SOL    HW2 5403   3.886   0.181   6.381
 1502SOL     OW 5404   6.477   6.472   0.454
 1502SOL    HW1 5405   6.471   6.546   0.386
 1502SOL    HW2 5406   6.511   6.389   0.410
 1503SOL     OW 5407   3.178   3.164   6.621
 1503SOL    HW1 5408   3.179   3.154   6.521
 1503SOL    HW2 5409   3.089   3.198   6.650
 1504SOL     OW 5410   3.395   6.638   4.577
 1504SOL    HW1 5411   3.461   6.571   4.542
 1504SOL    HW2 5412   3.342   6.596   4.651
 1505SOL     OW 5413   5.953   6.115   6.019
 1505SOL    HW1 5414   5.896   6.193   5.993
 1505SOL    HW2 5415   6.026   6.145   6.081
 1506SOL     OW 5416   1.261   5.943   4.274
 1506SOL    HW1 5417   1.354   5.963   4.304
 1506SOL    HW2 5418   1.207   5.912   4.352
 1507SOL     OW 5419   2.116   1.480   5.089
 1507SOL    HW1 5420   2.120   1.382   5.066
 1507SOL    HW2 5421   2.185   1.500   5.159
 1508SOL     OW 5422   4.624   6.847   0.744
 1508SOL    HW1 5423   4.547   6.909   0.761
 1508SOL    HW2 5424   4.696   6.863   0.812
 1509SOL     OW 5425   4.318   3.031   0.021
 1509SOL    HW1 5426   4.238   3.023   0.080
 1509SOL    HW2 5427   4.304   3.106   6.983
 1510SOL     OW 5428   6.992   1.728   3.952
 1510SOL    HW1 5429   0.060   1.753   3.971
 1510SOL    HW2 5430   6.930   1.793   3.997
 1511SOL     OW 5431   2.507   2.667   0.376
 1511SOL    HW1 5432   2.519   2.734   0.449
 1511SOL    HW2 5433   2.414   2.672   0.341
 1512SOL     OW 5434   0.127   1.104   1.398
 1512SOL    HW1 5435   0.134   1.021   1.453
 1512SOL    HW2 5436   0.189   1.174   1.434
 1513SOL     OW 5437   3.441   6.922   3.719
 1513SOL    HW1 5438   3.452   6.861   3.798
 1513SOL    HW2 5439   3.530   6.962   3.696
 1514SOL     OW 5440   6.262   1.818   4.650
 1514SOL    HW1 5441   6.245   1.916   4.642
 1514SOL    HW2 5442   6.255   1.775   4.560
 1515SOL     OW 5443   6.999   4.759   5.178
 1515SOL    HW1 5444   0.060   4.744   5.132
 1515SOL    HW2 5445   7.007   4.835   5.242
 1516SOL     OW 5446   0.651   1.405   0.485
 1516SOL    HW1 5447   0.748   1.408   0.462
 1516SOL    HW2 5448   0.598   1.449   0.412
 1517SOL     OW 5449   4.617   6.068   3.134
 1517SOL    HW1 5450   4.711   6.100   3.146
 1517SOL    HW2 5451   4.563   6.140   3.091
 1518SOL     OW 5452   6.929   4.306   0.855
 1518SOL    HW1 5453   6.845   4.251   0.843
 1518SOL    HW2 5454   6.920   4.392   0.805
 1519SOL     OW 5455   6.046   4.546   0.557
 1519SOL    HW1 5456   6.008   4.469   0.609
 1519SOL    HW2 5457   6.058   4.519   0.462
 1520SOL     OW 5458   2.177   3.799   2.423
 1520SOL    HW1 5459   2.243   3.726   2.438
 1520SOL    HW2 5460   2.209   3.860   2.350
 1521SOL     OW 5461   2.039   3.033   6.456
 1521SOL    HW1 5462   1.948   3.012   6.419
 1521SOL    HW2 5463   2.088   3.091   6.392
 1522SOL     OW 5464   5.807   1.976   6.574
 1522SOL    HW1 5465   5.743   1.946   6.645
 1522SOL    HW2 5466   5.761   2.042   6.515
 1523SOL     OW 5467   6.449   2.880   1.499
 1523SOL    HW1 5468   6.523   2.842   1.443
 1523SOL    HW2 5469   6.407   2.808   1.553
 1524SOL     OW 5470   0.003   1.187   1.899
 1524SOL    HW1 5471   0.062   1.117   1.940
 1524SOL    HW2 5472   0.059   1.255   1.853
 1525SOL     OW 5473   4.198   1.867   6.065
 1525SOL    HW1 5474   4.260   1.921   6.121
 1525SOL    HW2 5475   4.175   1.917   5.981
 1526SOL     OW 5476   6.816   2.371   1.364
 1526SOL    HW1 5477   6.859   2.434   1.299
 1526SOL    HW2 5478   6.841   2.277   1.341
 1527SOL     OW 5479   3.502   2.099   5.041
 1527SOL    HW1 5480   3.435   2.041   4.997
 1527SOL    HW2 5481   3.554   2.149   4.971
 1528SOL     OW 5482   4.620   6.543   3.456
 1528SOL    HW1 5483   4.616   6.476   3.530
 1528SOL    HW2 5484   4.644   6.633   3.493
 1529SOL     OW 5485   3.675   6.946   6.165
 1529SOL    HW1 5486   3.622   6.923   6.083
 1529SOL    HW2 5487   3.762   6.988   6.137
 1530SOL     OW 5488   3.049   6.440   2.196
 1530SOL    HW1 5489   2.987   6.461   2.271
 1530SOL    HW2 5490   3.143   6.444   2.228
 1531SOL     OW 5491   6.233   0.128   4.305
 1531SOL    HW1 5492   6.289   0.158   4.382
 1531SOL    HW2 5493   6.156   0.074   4.340
 1532SOL     OW 5494   3.334   2.158   5.240
 1532SOL    HW1 5495   3.397   2.155   5.163
 1532SOL    HW2 5496   3.271   2.235   5.229
 1533SOL     OW 5497   6.156   3.460   6.454
 1533SOL    HW1 5498   6.162   3.373   6.405
 1533SOL    HW2 5499   6.233   3.468   6.516
 1534SOL     OW 5500   0.839   5.928   0.985
 1534SOL    HW1 5501   0.818   5.947   1.081
 1534SOL    HW2 5502   0.927   5.970   0.961
 1535SOL     OW 5503   4.813   4.532   3.848
 1535SOL    HW1 5504   4.726   4.544   3.800
 1535SOL    HW2 5505   4.795   4.518   3.946
 1536SOL     OW 5506   2.879   5.624   5.066
 1536SOL    HW1 5507   2.841   5.546   5.015
 1536SOL    HW2 5508   2.878   5.603   5.164
 1537SOL     OW 5509   1.807   5.418   4.651
 1537SOL    HW1 5510   1.802   5.494   4.716
 1537SOL    HW2 5511   1.885   5.360   4.674
 1538SOL     OW 5512   2.786   5.008   0.095
 1538SOL    HW1 5513   2.794   4.953   0.012
 1538SOL    HW2 5514   2.817   5.101   0.077
 1539SOL     OW 5515   3.815   4.790   1.506
 1539SOL    HW1 5516   3.883   4.764   1.574
 1539SOL    HW2 5517   3.725   4.758   1.535
 1540SOL     OW 5518   0.889   0.254   5.135
 1540SOL    HW1 5519   0.819   0.210   5.079
 1540SOL    HW2 5520   0.923   0.335   5.088
 1541SOL     OW 5521   4.639   2.410   1.229
 1541SOL    HW1 5522   4.659   2.504   1.200
 1541SOL    HW2 5523   4.566   2.373   1.173
 1542SOL     OW 5524   0.262   6.437   1.428
 1542SOL    HW1 5525   0.326   6.369   1.464
 1542SOL    HW2 5526   0.242   6.505   1.499
 1543SOL     OW 5527   3.482   3.843   3.808
 1543SOL    HW1 5528   3.414   3.838   3.882
 1543SOL    HW2 5529   3.554   3.907   3.834
 1544SOL     OW 5530   3.190   4.005   2.730
 1544SOL    HW1 5531   3.191   4.021   2.631
 1544SOL    HW2 5532   3.171   3.908   2.748
 1545SOL     OW 5533   6.137   0.635   4.565
 1545SOL    HW1 5534   6.184   0.626   4.653
 1545SOL    HW2 5535   6.069   0.562   4.556
 1546SOL     OW 5536   6.695   5.851   6.198
 1546SOL    HW1 5537   6.778   5.881   6.151
 1546SOL    HW2 5538   6.702   5.870   6.296
 1547SOL     OW 5539   2.657   5.795   2.661
 1547SOL    HW1 5540   2.615   5.869   2.714
 1547SOL    HW2 5541   2.634   5.707   2.703
 1548SOL     OW 5542   4.680   4.377   4.836
 1548SOL    HW1 5543   4.692   4.372   4.737
 1548SOL    HW2 5544   4.724   4.298   4.879
 1549SOL     OW 5545   6.701   2.762   1.400
 1549SOL    HW1 5546   6.780   2.823   1.394
 1549SOL    HW2 5547   6.692   2.709   1.315
 1550SOL     OW 5548   2.074   6.187   4.493
 1550SOL    HW1 5549   2.111   6.265   4.441
 1550SOL    HW2 5550   2.129   6.173   4.575
 1551SOL     OW 5551   2.007   3.123   1.047
 1551SOL    HW1 5552   1.999   3.047   1.112
 1551SOL    HW2 5553   2.093   3.171   1.064
 1552SOL     OW 5554   1.003   1.171   1.032
 1552SOL    HW1 5555   0.998   1.124   0.944
 1552SOL    HW2 5556   0.990   1.104   1.105
 1553SOL     OW 5557   6.092   1.620   6.616
 1553SOL    HW1 5558   6.087   1.678   6.697
 1553SOL    HW2 5559   6.018   1.643   6.553
 1554SOL     OW 5560   3.763   1.800   2.061
 1554SOL    HW1 5561   3.792   1.895   2.073
 1554SOL    HW2 5562   3.762   1.778   1.963
 1555SOL     OW 5563   3.672   1.350   5.573
 1555SOL    HW1 5564   3.656   1.257   5.605
 1555SOL    HW2 5565   3.593   1.407   5.596
 1556SOL     OW 5566   3.965   0.570   0.610
 1556SOL    HW1 5567   4.025   0.607   0.681
 1556SOL    HW2 5568   4.017   0.557   0.526
 1557SOL     OW 5569   1.703   2.172   1.394
 1557SOL    HW1 5570   1.742   2.157   1.303
 1557SOL    HW2 5571   1.605   2.189   1.387
 1558SOL     OW 5572   6.066   3.493   5.503
 1558SOL    HW1 5573   6.011   3.441   5.568
 1558SOL    HW2 5574   6.020   3.495   5.414
 1559SOL     OW 5575   1.802   4.487   2.936
 1559SOL    HW1 5576   1.822   4.553   2.863
 1559SOL    HW2 5577   1.705   4.489   2.958
 1560SOL     OW 5578   3.628   1.445   1.279
 1560SOL    HW1 5579   3.608   1.404   1.369
 1560SOL    HW2 5580   3.704   1.396   1.237
 1561SOL     OW 5581   5.494   5.937   2.044
 1561SOL    HW1 5582   5.428   5.972   2.110
 1561SOL    HW2 5583   5.513   6.006   1.975
 1562SOL     OW 5584   3.550   0.047   1.950
 1562SOL    HW1 5585   3.555   0.012   1.856
 1562SOL    HW2 5586   3.538   6.998   2.014
 1563SOL     OW 5587   4.052   2.137   4.367
 1563SOL    HW1 5588   4.035   2.097   4.277
 1563SOL    HW2 5589   3.977   2.115   4.429
 1564SOL     OW 5590   0.990   2.002   2.212
 1564SOL    HW1 5591   1.003   2.096   2.181
 1564SOL    HW2 5592   1.033   1.990   2.302
 1565SOL     OW 5593   3.626   0.475   3.824
 1565SOL    HW1 5594   3.658   0.564   3.855
 1565SOL    HW2 5595   3.701   0.409   3.827
 1566SOL     OW 5596   4.586   4.353   3.030
 1566SOL    HW1 5597   4.663   4.417   3.031
 1566SOL    HW2 5598   4.612   4.270   2.982
 1567SOL     OW 5599   5.451   6.020   5.282
 1567SOL    HW1 5600   5.479   6.020   5.186
 1567SOL    HW2 5601   5.501   6.090   5.332
 1568SOL     OW 5602   1.918   6.213   2.901
 1568SOL    HW1 5603   1.996   6.254   2.948
 1568SOL    HW2 5604   1.930   6.114   2.896
 1569SOL     OW 5605   2.549   0.222   3.139
 1569SOL    HW1 5606   2.490   0.301   3.129
 1569SOL    HW2 5607   2.640   0.244   3.104
 1570SOL     OW 5608   3.100   0.031   0.462
 1570SOL    HW1 5609   3.161   0.110   0.466
 1570SOL    HW2 5610   3.126   6.991   0.532
 1571SOL     OW 5611   0.993   2.511   3.863
 1571SOL    HW1 5612   0.971   2.496   3.960
 1571SOL    HW2 5613   1.024   2.426   3.823
 1572SOL     OW 5614   1.410   5.237   1.846
 1572SOL    HW1 5615   1.419   5.235   1.746
 1572SOL    HW2 5616   1.332   5.182   1.874
 1573SOL     OW 5617   4.708   4.515   1.176
 1573SOL    HW1 5618   4.772   4.545   1.105
 1573SOL    HW2 5619   4.755   4.452   1.238
 1574SOL     OW 5620   6.841   3.602   2.520
 1574SOL    HW1 5621   6.773   3.587   2.448
 1574SOL    HW2 5622   6.866   3.698   2.522
 1575SOL     OW 5623   0.591   1.117   0.602
 1575SOL    HW1 5624   0.518   1.114   0.535
 1575SOL    HW2 5625   0.554   1.143   0.691
 1576SOL     OW 5626   0.435   6.559   1.888
 1576SOL    HW1 5627   0.347   6.520   1.917
 1576SOL    HW2 5628   0.501   6.485   1.876
 1577SOL     OW 5629   4.034   0.121   6.305
 1577SOL    HW1 5630   4.081   0.081   6.226
 1577SOL    HW2 5631   4.074   0.084   6.389
 1578SOL     OW 5632   4.733   0.450   0.294
 1578SOL    HW1 5633   4.647   0.498   0.278
 1578SOL    HW2 5634   4.718   0.374   0.357
 1579SOL     OW 5635   2.102   2.617   1.811
 1579SOL    HW1 5636   2.031   2.559   1.851
 1579SOL    HW2 5637   2.179   2.561   1.781
 1580SOL     OW 5638   3.369   4.088   3.150
 1580SOL    HW1 5639   3.394   4.142   3.069
 1580SOL    HW2 5640   3.416   4.001   3.148
 1581SOL     OW 5641   7.026   4.180   6.110
 1581SOL    HW1 5642   0.081   4.125   6.128
 1581SOL    HW2 5643   6.952   4.150   6.171
 1582SOL     OW 5644   4.597   6.328   6.130
 1582SOL    HW1 5645   4.677   6.287   6.087
 1582SOL    HW2 5646   4.551   6.260   6.187
 1583SOL     OW 5647   1.152   5.887   5.738
 1583SOL    HW1 5648   1.130   5.860   5.645
 1583SOL    HW2 5649   1.226   5.955   5.737
 1584SOL     OW 5650   0.722   5.111   6.469
 1584SOL    HW1 5651   0.676   5.173   6.532
 1584SOL    HW2 5652   0.655   5.069   6.407
 1585SOL     OW 5653   4.036   6.995   3.248
 1585SOL    HW1 5654   4.025   6.901   3.281
 1585SOL    HW2 5655   4.035   6.995   3.148
 1586SOL     OW 5656   3.080   5.699   4.098
 1586SOL    HW1 5657   3.115   5.628   4.159
 1586SOL    HW2 5658   2.980   5.703   4.105
 1587SOL     OW 5659   2.020   6.198   6.487
 1587SOL    HW1 5660   2.017   6.297   6.498
 1587SOL    HW2 5661   1.930   6.165   6.458
 1588SOL     OW 5662   6.260   0.081   2.789
 1588SOL    HW1 5663   6.335   0.040   2.841
 1588SOL    HW2 5664   6.250   0.177   2.814
 1589SOL     OW 5665   6.628   4.119   2.883
 1589SOL    HW1 5666   6.675   4.201   2.915
 1589SOL    HW2 5667   6.529   4.134   2.886
 1590SOL     OW 5668   6.773   1.615   3.187
 1590SOL    HW1 5669   6.820   1.566   3.260
 1590SOL    HW2 5670   6.775   1.560   3.103
 1591SOL     OW 5671   0.473   5.835   1.127
 1591SOL    HW1 5672   0.386   5.825   1.080
 1591SOL    HW2 5673   0.484   5.930   1.157
 1592SOL     OW 5674   1.346   3.986   6.978
 1592SOL    HW1 5675   1.401   3.997   6.895
 1592SOL    HW2 5676   1.393   4.028   0.028
 1593SOL     OW 5677   0.814   6.914   6.752
 1593SOL    HW1 5678   0.889   6.963   6.796
 1593SOL    HW2 5679   0.767   6.856   6.819
 1594SOL     OW 5680   6.713   0.359   1.498
 1594SOL    HW1 5681   6.715   0.286   1.566
 1594SOL    HW2 5682   6.743   0.444   1.541
 1595SOL     OW 5683   1.598   3.715   6.684
 1595SOL    HW1 5684   1.661   3.785   6.716
 1595SOL    HW2 5685   1.645   3.627   6.678
 1596SOL     OW 5686   5.730   4.327   2.306
 1596SOL    HW1 5687   5.810   4.270   2.321
 1596SOL    HW2 5688   5.747   4.389   2.229
 1597SOL     OW 5689   3.192   5.925   0.895
 1597SOL    HW1 5690   3.257   5.980   0.842
 1597SOL    HW2 5691   3.206   5.943   0.993
 1598SOL     OW 5692   1.678   5.529   0.018
 1598SOL    HW1 5693   1.757   5.475   7.015
 1598SOL    HW2 5694   1.595   5.475   0.006
 1599SOL     OW 5695   4.158   5.073   4.088
 1599SOL    HW1 5696   4.127   5.148   4.030
 1599SOL    HW2 5697   4.093   4.997   4.082
 1600SOL     OW 5698   3.377   0.131   2.768
 1600SOL    HW1 5699   3.432   0.087   2.697
 1600SOL    HW2 5700   3.424   0.124   2.856
 1601SOL     OW 5701   6.506   6.718   3.973
 1601SOL    HW1 5702   6.492   6.776   4.053
 1601SOL    HW2 5703   6.549   6.632   4.002
 1602SOL     OW 5704   4.350   5.212   4.237
 1602SOL    HW1 5705   4.293   5.138   4.201
 1602SOL    HW2 5706   4.356   5.285   4.169
 1603SOL     OW 5707   2.677   6.382   4.035
 1603SOL    HW1 5708   2.748   6.318   4.007
 1603SOL    HW2 5709   2.648   6.362   4.128
 1604SOL     OW 5710   3.824   5.037   2.153
 1604SOL    HW1 5711   3.802   4.993   2.066
 1604SOL    HW2 5712   3.748   5.026   2.217
 1605SOL     OW 5713   4.675   4.812   1.858
 1605SOL    HW1 5714   4.650   4.728   1.906
 1605SOL    HW2 5715   4.606   4.833   1.789
 1606SOL     OW 5716   4.402   6.431   4.438
 1606SOL    HW1 5717   4.478   6.406   4.377
 1606SOL    HW2 5718   4.389   6.530   4.435
 1607SOL     OW 5719   4.518   6.285   3.000
 1607SOL    HW1 5720   4.527   6.347   3.078
 1607SOL    HW2 5721   4.426   6.290   2.963
 1608SOL     OW 5722   6.808   0.185   3.012
 1608SOL    HW1 5723   6.828   0.106   2.954
 1608SOL    HW2 5724   6.831   0.269   2.963
 1609SOL     OW 5725   2.805   6.559   0.822
 1609SOL    HW1 5726   2.876   6.498   0.857
 1609SOL    HW2 5727   2.792   6.542   0.724
 1610SOL     OW 5728   4.267   7.016   0.170
 1610SOL    HW1 5729   4.323   0.047   0.111
 1610SOL    HW2 5730   4.265   6.923   0.134
 1611SOL     OW 5731   0.624   4.134   1.358
 1611SOL    HW1 5732   0.643   4.144   1.260
 1611SOL    HW2 5733   0.559   4.204   1.387
 1612SOL     OW 5734   3.018   6.292   1.100
 1612SOL    HW1 5735   3.008   6.194   1.087
 1612SOL    HW2 5736   2.930   6.337   1.085
 1613SOL     OW 5737   0.447   5.695   2.589
 1613SOL    HW1 5738   0.364   5.641   2.573
 1613SOL    HW2 5739   0.487   5.669   2.677
 1614SOL     OW 5740   5.691   2.799   6.983
 1614SOL    HW1 5741   5.745   2.770   6.903
 1614SOL    HW2 5742   5.687   2.724   0.022
 1615SOL     OW 5743   0.506   4.954   6.329
 1615SOL    HW1 5744   0.452   4.880   6.369
 1615SOL    HW2 5745   0.446   5.026   6.296
 1616SOL     OW 5746   2.763   1.140   5.502
 1616SOL    HW1 5747   2.752   1.086   5.586
 1616SOL    HW2 5748   2.857   1.174   5.496
 1617SOL     OW 5749   4.562   6.817   3.591
 1617SOL    HW1 5750   4.651   6.805   3.634
 1617SOL    HW2 5751   4.553   6.912   3.559
 1618SOL     OW 5752   2.409   5.808   3.169
 1618SOL    HW1 5753   2.463   5.729   3.142
 1618SOL    HW2 5754   2.469   5.887   3.182
 1619SOL     OW 5755   0.959   5.280   6.698
 1619SOL    HW1 5756   0.905   5.234   6.769
 1619SOL    HW2 5757   0.936   5.377   6.695
 1620SOL     OW 5758   3.360   5.049   0.835
 1620SOL    HW1 5759   3.438   4.987   0.836
 1620SOL    HW2 5760   3.316   5.048   0.924
 1621SOL     OW 5761   5.876   6.314   1.216
 1621SOL    HW1 5762   5.885   6.413   1.211
 1621SOL    HW2 5763   5.792   6.290   1.264
 1622SOL     OW 5764   0.974   3.576   5.205
 1622SOL    HW1 5765   1.015   3.588   5.295
 1622SOL    HW2 5766   1.010   3.644   5.142
 1623SOL     OW 5767   0.621   2.067   4.851
 1623SOL    HW1 5768   0.559   2.140   4.879
 1623SOL    HW2 5769   0.709   2.079   4.896
 1624SOL     OW 5770   4.149   1.225   0.667
 1624SOL    HW1 5771   4.073   1.289   0.676
 1624SOL    HW2 5772   4.194   1.214   0.755
 1625SOL     OW 5773   2.311   4.990   0.533
 1625SOL    HW1 5774   2.246   5.053   0.490
 1625SOL    HW2 5775   2.272   4.898   0.535
 1626SOL     OW 5776   3.180   2.142   1.385
 1626SOL    HW1 5777   3.150   2.048   1.370
 1626SOL    HW2 5778   3.117   2.205   1.339
 1627SOL     OW 5779   4.660   2.648   3.968
 1627SOL    HW1 5780   4.737   2.609   3.916
 1627SOL    HW2 5781   4.575   2.631   3.918
 1628SOL     OW 5782   5.225   6.095   6.333
 1628SOL    HW1 5783   5.297   6.130   6.273
 1628SOL    HW2 5784   5.254   6.103   6.429
 1629SOL     OW 5785   2.821   1.671   2.985
 1629SOL    HW1 5786   2.754   1.733   2.945
 1629SOL    HW2 5787   2.854   1.709   3.072
 1630SOL     OW 5788   0.930   3.943   0.333
 1630SOL    HW1 5789   0.922   4.018   0.267
 1630SOL    HW2 5790   0.843   3.895   0.339
 1631SOL     OW 5791   0.082   3.544   0.807
 1631SOL    HW1 5792   0.061   3.622   0.747
 1631SOL    HW2 5793   0.181   3.538   0.818
 1632SOL     OW 5794   5.926   4.286   2.870
 1632SOL    HW1 5795   6.023   4.274   2.892
 1632SOL    HW2 5796   5.917   4.353   2.796
 1633SOL     OW 5797   4.925   3.787   3.779
 1633SOL    HW1 5798   4.931   3.749   3.872
 1633SOL    HW2 5799   5.012   3.772   3.731
 1634SOL     OW 5800   4.782   0.624   4.530
 1634SOL    HW1 5801   4.798   0.613   4.432
 1634SOL    HW2 5802   4.844   0.694   4.566
 1635SOL     OW 5803   3.809   5.136   5.240
 1635SOL    HW1 5804   3.837   5.121   5.335
 1635SOL    HW2 5805   3.747   5.063   5.211
 1636SOL     OW 5806   4.722   5.841   1.580
 1636SOL    HW1 5807   4.631   5.843   1.538
 1636SOL    HW2 5808   4.750   5.747   1.596
 1637SOL     OW 5809   0.049   6.593   2.111
 1637SOL    HW1 5810   7.016   6.518   2.142
 1637SOL    HW2 5811   0.012   6.680   2.141
 1638SOL     OW 5812   6.739   3.220   1.786
 1638SOL    HW1 5813   6.663   3.275   1.750
 1638SOL    HW2 5814   6.728   3.125   1.757
 1639SOL     OW 5815   5.436   3.617   2.435
 1639SOL    HW1 5816   5.447   3.569   2.348
 1639SOL    HW2 5817   5.520   3.607   2.489
 1640SOL     OW 5818   6.356   6.936   0.726
 1640SOL    HW1 5819   6.448   6.977   0.730
 1640SOL    HW2 5820   6.361   6.847   0.683
 1641SOL     OW 5821   0.057   2.590   2.976
 1641SOL    HW1 5822   0.103   2.649   3.042
 1641SOL    HW2 5823   0.021   2.509   3.024
 1642SOL     OW 5824   5.899   3.005   5.858
 1642SOL    HW1 5825   5.809   2.997   5.816
 1642SOL    HW2 5826   5.914   3.100   5.887
 1643SOL     OW 5827   3.507   5.263   4.428
 1643SOL    HW1 5828   3.468   5.243   4.338
 1643SOL    HW2 5829   3.562   5.185   4.459
 1644SOL     OW 5830   5.878   3.154   0.641
 1644SOL    HW1 5831   5.865   3.056   0.626
 1644SOL    HW2 5832   5.788   3.198   0.650
 1645SOL     OW 5833   2.891   0.986   6.055
 1645SOL    HW1 5834   2.819   1.048   6.089
 1645SOL    HW2 5835   2.921   1.016   5.965
 1646SOL     OW 5836   1.064   5.754   0.203
 1646SOL    HW1 5837   1.109   5.707   0.128
 1646SOL    HW2 5838   0.985   5.701   0.233
 1647SOL     OW 5839   6.235   2.813   4.630
 1647SOL    HW1 5840   6.302   2.789   4.700
 1647SOL    HW2 5841   6.148   2.836   4.674
 1648SOL     OW 5842   5.233   5.913   0.949
 1648SOL    HW1 5843   5.205   5.912   1.044
 1648SOL    HW2 5844   5.153   5.922   0.890
 1649SOL     OW 5845   3.134   0.539   3.263
 1649SOL    HW1 5846   3.183   0.580   3.186
 1649SOL    HW2 5847   3.036   0.561   3.255
 1650SOL     OW 5848   2.281   5.225   6.472
 1650SOL    HW1 5849   2.373   5.263   6.469
 1650SOL    HW2 5850   2.277   5.143   6.415
 1651SOL     OW 5851   0.808   2.818   4.032
 1651SOL    HW1 5852   0.742   2.743   4.041
 1651SOL    HW2 5853   0.826   2.858   4.121
 1652SOL     OW 5854   1.052   2.613   1.267
 1652SOL    HW1 5855   1.066   2.605   1.365
 1652SOL    HW2 5856   1.117   2.556   1.218
 1653SOL     OW 5857   6.608   5.104   2.645
 1653SOL    HW1 5858   6.524   5.050   2.651
 1653SOL    HW2 5859   6.588   5.194   2.605
 1654SOL     OW 5860   0.517   2.920   1.880
 1654SOL    HW1 5861   0.559   2.957   1.963
 1654SOL    HW2 5862   0.586   2.872   1.826
 1655SOL     OW 5863   0.095   0.720   4.500
 1655SOL    HW1 5864   7.025   0.710   4.476
 1655SOL    HW2 5865   0.140   0.630   4.496
 1656SOL     OW 5866   2.323   5.246   4.388
 1656SOL    HW1 5867   2.252   5.317   4.386
 1656SOL    HW2 5868   2.374   5.247   4.302
 1657SOL     OW 5869   0.169   0.440   5.591
 1657SOL    HW1 5870   0.135   0.500   5.519
 1657SOL    HW2 5871   0.093   0.409   5.648
 1658SOL     OW 5872   6.660   6.816   0.496
 1658SOL    HW1 5873   6.599   6.777   0.428
 1658SOL    HW2 5874   6.622   6.901   0.532
 1659SOL     OW 5875   4.151   0.003   6.500
 1659SOL    HW1 5876   4.117   0.035   6.589
 1659SOL    HW2 5877   4.238   6.983   6.513
 1660SOL     OW 5878   1.792   6.511   2.019
 1660SOL    HW1 5879   1.763   6.517   2.115
 1660SOL    HW2 5880   1.719   6.546   1.960
 1661SOL     OW 5881   3.088   5.091   2.623
 1661SOL    HW1 5882   3.040   5.109   2.537
 1661SOL    HW2 5883   3.183   5.121   2.615
 1662SOL     OW 5884   0.106   1.511   5.524
 1662SOL    HW1 5885   0.073   1.597   5.564
 1662SOL    HW2 5886   0.131   1.448   5.597
 1663SOL     OW 5887   4.565   4.903   1.425
 1663SOL    HW1 5888   4.615   4.870   1.345
 1663SOL    HW2 5889   4.573   4.837   1.500
 1664SOL     OW 5890   0.541   0.120   5.416
 1664SOL    HW1 5891   0.634   0.156   5.427
 1664SOL    HW2 5892   0.486   0.187   5.365
 1665SOL     OW 5893   1.900   3.811   1.060
 1665SOL    HW1 5894   1.841   3.888   1.081
 1665SOL    HW2 5895   1.921   3.761   1.145
 1666SOL     OW 5896   5.486   0.133   6.387
 1666SOL    HW1 5897   5.463   0.182   6.303
 1666SOL    HW2 5898   5.417   0.152   6.457
 1667SOL     OW 5899   0.408   6.872   0.725
 1667SOL    HW1 5900   0.444   6.947   0.669
 1667SOL    HW2 5901   0.346   6.909   0.794
 1668SOL     OW 5902   5.014   4.722   3.761
 1668SOL    HW1 5903   4.988   4.671   3.843
 1668SOL    HW2 5904   4.940   4.717   3.694
 1669SOL     OW 5905   0.269   3.708   5.564
 1669SOL    HW1 5906   0.207   3.772   5.519
 1669SOL    HW2 5907   0.306   3.644   5.497
 1670SOL     OW 5908   1.813   4.523   6.020
 1670SOL    HW1 5909   1.723   4.563   6.031
 1670SOL    HW2 5910   1.810   4.453   5.949
 1671SOL     OW 5911   5.010   1.625   1.997
 1671SOL    HW1 5912   5.094   1.575   1.977
 1671SOL    HW2 5913   5.024   1.723   1.978
 1672SOL     OW 5914   0.676   3.086   0.079
 1672SOL    HW1 5915   0.690   3.018   0.008
 1672SOL    HW2 5916   0.746   3.158   0.072
 1673SOL     OW 5917   2.494   1.687   4.315
 1673SOL    HW1 5918   2.495   1.642   4.404
 1673SOL    HW2 5919   2.426   1.761   4.315
 1674SOL     OW 5920   4.990   2.800   2.369
 1674SOL    HW1 5921   4.893   2.791   2.395
 1674SOL    HW2 5922   5.002   2.767   2.275
 1675SOL     OW 5923   5.625   0.883   1.278
 1675SOL    HW1 5924   5.682   0.832   1.342
 1675SOL    HW2 5925   5.585   0.820   1.211
 1676SOL     OW 5926   1.856   2.381   2.912
 1676SOL    HW1 5927   1.864   2.433   2.997
 1676SOL    HW2 5928   1.948   2.354   2.881
 1677SOL     OW 5929   4.021   3.758   3.364
 1677SOL    HW1 5930   4.101   3.702   3.385
 1677SOL    HW2 5931   4.025   3.787   3.268
 1678SOL     OW 5932   0.377   6.187   0.587
 1678SOL    HW1 5933   0.370   6.222   0.494
 1678SOL    HW2 5934   0.467   6.211   0.624
 1679SOL     OW 5935   1.995   1.907   5.314
 1679SOL    HW1 5936   2.011   1.893   5.412
 1679SOL    HW2 5937   1.944   1.992   5.301
 1680SOL     OW 5938   5.202   2.978   4.504
 1680SOL    HW1 5939   5.252   3.038   4.567
 1680SOL    HW2 5940   5.151   3.033   4.438
 1681SOL     OW 5941   1.821   5.916   4.106
 1681SOL    HW1 5942   1.723   5.897   4.096
 1681SOL    HW2 5943   1.838   5.958   4.195
 1682SOL     OW 5944   2.803   6.565   5.153
 1682SOL    HW1 5945   2.848   6.540   5.239
 1682SOL    HW2 5946   2.717   6.514   5.145
 1683SOL     OW 5947   5.760   4.862   2.760
 1683SOL    HW1 5948   5.832   4.917   2.718
 1683SOL    HW2 5949   5.771   4.862   2.859
 1684SOL     OW 5950   1.655   4.966   1.673
 1684SOL    HW1 5951   1.699   4.922   1.594
 1684SOL    HW2 5952   1.634   4.896   1.742
 1685SOL     OW 5953   1.248   1.842   5.903
 1685SOL    HW1 5954   1.230   1.815   5.809
 1685SOL    HW2 5955   1.180   1.800   5.963
 1686SOL     OW 5956   4.701   5.453   3.277
 1686SOL    HW1 5957   4.610   5.494   3.281
 1686SOL    HW2 5958   4.766   5.520   3.242
 1687SOL     OW 5959   0.335   3.598   2.337
 1687SOL    HW1 5960   0.346   3.513   2.286
 1687SOL    HW2 5961   0.325   3.577   2.435
 1688SOL     OW 5962   2.124   2.136   3.606
 1688SOL    HW1 5963   2.079   2.217   3.645
 1688SOL    HW2 5964   2.179   2.092   3.677
 1689SOL     OW 5965   6.312   0.817   2.227
 1689SOL    HW1 5966   6.338   0.882   2.298
 1689SOL    HW2 5967   6.266   0.865   2.152
 1690SOL     OW 5968   0.562   3.902   4.186
 1690SOL    HW1 5969   0.488   3.968   4.193
 1690SOL    HW2 5970   0.555   3.836   4.261
 1691SOL     OW 5971   5.122   3.232   4.439
 1691SOL    HW1 5972   5.171   3.213   4.524
 1691SOL    HW2 5973   5.028   3.259   4.460
 1692SOL     OW 5974   5.683   5.051   2.421
 1692SOL    HW1 5975   5.753   5.120   2.439
 1692SOL    HW2 5976   5.709   4.996   2.342
 1693SOL     OW 5977   6.675   0.812   5.294
 1693SOL    HW1 5978   6.615   0.787   5.370
 1693SOL    HW2 5979   6.665   0.910   5.274
 1694SOL     OW 5980   6.036   1.063   4.921
 1694SOL    HW1 5981   5.956   1.025   4.967
 1694SOL    HW2 5982   6.037   1.162   4.933
 1695SOL     OW 5983   3.781   0.736   6.876
 1695SOL    HW1 5984   3.850   0.802   6.906
 1695SOL    HW2 5985   3.793   0.650   6.925
 1696SOL     OW 5986   4.378   5.677   0.151
 1696SOL    HW1 5987   4.442   5.708   0.221
 1696SOL    HW2 5988   4.412   5.594   0.108
 1697SOL     OW 5989   6.000   2.336   1.326
 1697SOL    HW1 5990   5.943   2.315   1.405
 1697SOL    HW2 5991   6.039   2.428   1.336
 1698SOL     OW 5992   3.427   0.758   2.011
 1698SOL    HW1 5993   3.511   0.767   1.957
 1698SOL    HW2 5994   3.391   0.849   2.034
 1699SOL     OW 5995   2.649   0.942   6.776
 1699SOL    HW1 5996   2.568   0.976   6.823
 1699SOL    HW2 5997   2.731   0.984   6.816
 1700SOL     OW 5998   5.988   3.389   3.407
 1700SOL    HW1 5999   5.976   3.461   3.339
 1700SOL    HW2 6000   5.900   3.346   3.426
 1701SOL     OW 6001   6.445   4.677   4.757
 1701SOL    HW1 6002   6.435   4.673   4.857
 1701SOL    HW2 6003   6.542   4.687   4.733
 1702SOL     OW 6004   1.905   1.785   5.896
 1702SOL    HW1 6005   1.821   1.774   5.843
 1702SOL    HW2 6006   1.882   1.795   5.993
 1703SOL     OW 6007   3.127   1.790   6.395
 1703SOL    HW1 6008   3.118   1.890   6.395
 1703SOL    HW2 6009   3.037   1.749   6.378
 1704SOL     OW 6010   2.741   1.684   0.624
 1704SOL    HW1 6011   2.673   1.729   0.567
 1704SOL    HW2 6012   2.752   1.736   0.709
 1705SOL     OW 6013   3.365   1.487   1.684
 1705SOL    HW1 6014   3.350   1.393   1.715
 1705SOL    HW2 6015   3.411   1.539   1.756
 1706SOL     OW 6016   4.510   2.035   0.698
 1706SOL    HW1 6017   4.538   2.031   0.603
 1706SOL    HW2 6018   4.418   1.995   0.708
 1707SOL     OW 6019   4.670   1.414   2.635
 1707SOL    HW1 6020   4.619   1.472   2.571
 1707SOL    HW2 6021   4.606   1.362   2.691
 1708SOL     OW 6022   3.123   5.079   2.165
 1708SOL    HW1 6023   3.173   4.994   2.149
 1708SOL    HW2 6024   3.187   5.156   2.164
 1709SOL     OW 6025   5.209   5.606   0.916
 1709SOL    HW1 6026   5.222   5.702   0.891
 1709SOL    HW2 6027   5.236   5.548   0.839
 1710SOL     OW 6028   4.914   5.318   3.158
 1710SOL    HW1 6029   4.820   5.324   3.193
 1710SOL    HW2 6030   4.916   5.351   3.064
 1711SOL     OW 6031   3.703   6.188   6.089
 1711SOL    HW1 6032   3.678   6.093   6.071
 1711SOL    HW2 6033   3.738   6.196   6.183
 1712SOL     OW 6034   0.379   2.417   4.559
 1712SOL    HW1 6035   0.453   2.375   4.507
 1712SOL    HW2 6036   0.411   2.503   4.600
 1713SOL     OW 6037   3.615   0.657   2.855
 1713SOL    HW1 6038   3.520   0.660   2.886
 1713SOL    HW2 6039   3.618   0.678   2.757
 1714SOL     OW 6040   3.698   2.526   6.895
 1714SOL    HW1 6041   3.647   2.600   6.939
 1714SOL    HW2 6042   3.742   2.470   6.965
 1715SOL     OW 6043   1.207   6.594   2.342
 1715SOL    HW1 6044   1.185   6.511   2.393
 1715SOL    HW2 6045   1.195   6.674   2.401
 1716SOL     OW 6046   4.839   0.768   3.982
 1716SOL    HW1 6047   4.882   0.702   3.920
 1716SOL    HW2 6048   4.909   0.808   4.041
 1717SOL     OW 6049   3.919   6.252   5.449
 1717SOL    HW1 6050   3.952   6.162   5.421
 1717SOL    HW2 6051   3.865   6.243   5.533
 1718SOL     OW 6052   2.077   2.396   2.112
 1718SOL    HW1 6053   2.100   2.364   2.020
 1718SOL    HW2 6054   2.157   2.384   2.171
 1719SOL     OW 6055   0.955   4.685   1.643
 1719SOL    HW1 6056   1.015   4.613   1.607
 1719SOL    HW2 6057   0.984   4.710   1.735
 1720SOL     OW 6058   6.691   2.735   5.757
 1720SOL    HW1 6059   6.633   2.670   5.806
 1720SOL    HW2 6060   6.636   2.811   5.724
 1721SOL     OW 6061   1.120   1.299   1.862
 1721SOL    HW1 6062   1.209   1.338   1.881
 1721SOL    HW2 6063   1.128   1.200   1.850
 1722SOL     OW 6064   3.399   2.069   2.599
 1722SOL    HW1 6065   3.442   1.988   2.558
 1722SOL    HW2 6066   3.345   2.116   2.530
 1723SOL     OW 6067   4.964   2.266   6.709
 1723SOL    HW1 6068   4.989   2.327   6.634
 1723SOL    HW2 6069   4.957   2.319   6.794
 1724SOL     OW 6070   6.452   2.533   1.405
 1724SOL    HW1 6071   6.397   2.597   1.352
 1724SOL    HW2 6072   6.514   2.484   1.344
 1725SOL     OW 6073   2.178   5.270   6.701
 1725SOL    HW1 6074   2.258   5.309   6.746
 1725SOL    HW2 6075   2.201   5.246   6.606
 1726SOL     OW 6076   5.388   4.699   3.934
 1726SOL    HW1 6077   5.356   4.703   3.839
 1726SOL    HW2 6078   5.481   4.736   3.939
 1727SOL     OW 6079   2.909   3.670   3.359
 1727SOL    HW1 6080   2.957   3.755   3.382
 1727SOL    HW2 6081   2.920   3.652   3.261
 1728SOL     OW 6082   4.826   3.195   5.537
 1728SOL    HW1 6083   4.764   3.148   5.474
 1728SOL    HW2 6084   4.799   3.291   5.546
 1729SOL     OW 6085   1.893   4.015   1.989
 1729SOL    HW1 6086   1.894   4.115   1.978
 1729SOL    HW2 6087   1.805   3.988   2.028
 1730SOL     OW 6088   2.578   4.957   5.477
 1730SOL    HW1 6089   2.554   4.860   5.473
 1730SOL    HW2 6090   2.549   5.003   5.393
 1731SOL     OW 6091   5.855   4.626   3.813
 1731SOL    HW1 6092   5.817   4.693   3.748
 1731SOL    HW2 6093   5.873   4.541   3.765
 1732SOL     OW 6094   2.000   4.790   0.048
 1732SOL    HW1 6095   1.971   4.715   7.016
 1732SOL    HW2 6096   2.088   4.825   0.016
 1733SOL     OW 6097   2.703   3.801   0.005
 1733SOL    HW1 6098   2.766   3.807   6.955
 1733SOL    HW2 6099   2.683   3.705   0.025
 1734SOL     OW 6100   0.168   3.318   1.482
 1734SOL    HW1 6101   0.166   3.230   1.529
 1734SOL    HW2 6102   0.250   3.324   1.425
 1735SOL     OW 6103   4.286   5.386   6.634
 1735SOL    HW1 6104   4.279   5.296   6.590
 1735SOL    HW2 6105   4.230   5.386   6.717
 1736SOL     OW 6106   4.918   3.346   1.043
 1736SOL    HW1 6107   4.895   3.283   1.117
 1736SOL    HW2 6108   4.971   3.423   1.081
 1737SOL     OW 6109   4.512   1.491   4.470
 1737SOL    HW1 6110   4.539   1.587   4.470
 1737SOL    HW2 6111   4.586   1.434   4.505
 1738SOL     OW 6112   1.202   3.739   3.890
 1738SOL    HW1 6113   1.253   3.654   3.884
 1738SOL    HW2 6114   1.263   3.814   3.917
 1739SOL     OW 6115   5.386   0.073   4.229
 1739SOL    HW1 6116   5.347   0.159   4.262
 1739SOL    HW2 6117   5.434   0.089   4.143
 1740SOL     OW 6118   0.025   2.096   4.453
 1740SOL    HW1 6119   7.008   2.179   4.417
 1740SOL    HW2 6120   7.022   2.081   4.547
 1741SOL     OW 6121   1.516   1.763   4.885
 1741SOL    HW1 6122   1.599   1.807   4.918
 1741SOL    HW2 6123   1.475   1.819   4.813
 1742SOL     OW 6124   6.448   6.306   6.329
 1742SOL    HW1 6125   6.506   6.332   6.407
 1742SOL    HW2 6126   6.352   6.325   6.352
 1743SOL     OW 6127   1.339   1.052   3.159
 1743SOL    HW1 6128   1.319   1.083   3.066
 1743SOL    HW2 6129   1.386   1.124   3.209
 1744SOL     OW 6130   5.155   2.469   3.432
 1744SOL    HW1 6131   5.059   2.493   3.417
 1744SOL    HW2 6132   5.213   2.545   3.404
 1745SOL     OW 6133   6.264   6.331   1.523
 1745SOL    HW1 6134   6.215   6.244   1.529
 1745SOL    HW2 6135   6.361   6.314   1.503
 1746SOL     OW 6136   1.668   3.837   2.991
 1746SOL    HW1 6137   1.763   3.831   3.019
 1746SOL    HW2 6138   1.644   3.756   2.936
 1747SOL     OW 6139   3.287   0.995   2.054
 1747SOL    HW1 6140   3.309   1.062   2.125
 1747SOL    HW2 6141   3.233   1.038   1.983
 1748SOL     OW 6142   0.068   1.670   4.251
 1748SOL    HW1 6143   0.051   1.769   4.242
 1748SOL    HW2 6144   7.026   1.621   4.198
 1749SOL     OW 6145   2.626   5.463   1.229
 1749SOL    HW1 6146   2.716   5.448   1.268
 1749SOL    HW2 6147   2.576   5.530   1.285
 1750SOL     OW 6148   4.383   0.762   6.046
 1750SOL    HW1 6149   4.398   0.747   6.144
 1750SOL    HW2 6150   4.470   0.776   6.001
 1751SOL     OW 6151   5.858   2.657   5.015
 1751SOL    HW1 6152   5.761   2.669   5.037
 1751SOL    HW2 6153   5.871   2.670   4.917
 1752SOL     OW 6154   6.489   0.798   1.159
 1752SOL    HW1 6155   6.503   0.700   1.143
 1752SOL    HW2 6156   6.522   0.821   1.251
 1753SOL     OW 6157   6.473   1.512   1.926
 1753SOL    HW1 6158   6.548   1.543   1.984
 1753SOL    HW2 6159   6.502   1.433   1.872
 1754SOL     OW 6160   3.182   5.685   5.563
 1754SOL    HW1 6161   3.123   5.744   5.617
 1754SOL    HW2 6162   3.143   5.675   5.471
 1755SOL     OW 6163   6.338   0.050   4.965
 1755SOL    HW1 6164   6.404   0.017   4.898
 1755SOL    HW2 6165   6.335   0.150   4.964
 1756SOL     OW 6166   5.411   0.288   6.133
 1756SOL    HW1 6167   5.447   0.377   6.104
 1756SOL    HW2 6168   5.391   0.232   6.053
 1757SOL     OW 6169   2.562   5.423   5.137
 1757SOL    HW1 6170   2.633   5.399   5.071
 1757SOL    HW2 6171   2.571   5.519   5.162
 1758SOL     OW 6172   1.997   6.679   4.747
 1758SOL    HW1 6173   1.986   6.769   4.788
 1758SOL    HW2 6174   1.995   6.609   4.818
 1759SOL     OW 6175   1.473   6.289   0.395
 1759SOL    HW1 6176   1.413   6.340   0.333
 1759SOL    HW2 6177   1.448   6.192   0.393
 1760SOL     OW 6178   6.498   0.776   5.483
 1760SOL    HW1 6179   6.400   0.758   5.480
 1760SOL    HW2 6180   6.518   0.845   5.553
 1761SOL     OW 6181   6.756   2.097   1.557
 1761SOL    HW1 6182   6.685   2.082   1.626
 1761SOL    HW2 6183   6.721   2.161   1.488
 1762SOL     OW 6184   0.400   1.337   5.511
 1762SOL    HW1 6185   0.495   1.326   5.539
 1762SOL    HW2 6186   0.343   1.271   5.559
 1763SOL     OW 6187   0.868   3.415   4.538
 1763SOL    HW1 6188   0.874   3.324   4.580
 1763SOL    HW2 6189   0.796   3.467   4.584
 1764SOL     OW 6190   1.463   4.714   2.475
 1764SOL    HW1 6191   1.528   4.698   2.401
 1764SOL    HW2 6192   1.449   4.629   2.526
 1765SOL     OW 6193   5.674   3.212   1.979
 1765SOL    HW1 6194   5.714   3.138   1.925
 1765SOL    HW2 6195   5.729   3.227   2.061
 1766SOL     OW 6196   3.970   4.866   4.348
 1766SOL    HW1 6197   3.872   4.850   4.337
 1766SOL    HW2 6198   3.991   4.883   4.444
 1767SOL     OW 6199   7.015   5.063   2.431
 1767SOL    HW1 6200   7.025   5.066   2.331
 1767SOL    HW2 6201   6.919   5.052   2.454
 1768SOL     OW 6202   4.645   6.402   2.235
 1768SOL    HW1 6203   4.628   6.305   2.216
 1768SOL    HW2 6204   4.603   6.426   2.323
 1769SOL     OW 6205   5.735   0.081   6.540
 1769SOL    HW1 6206   5.715   0.090   6.637
 1769SOL    HW2 6207   5.664   0.126   6.487
 1770SOL     OW 6208   1.787   4.725   6.365
 1770SOL    HW1 6209   1.725   4.647   6.351
 1770SOL    HW2 6210   1.872   4.709   6.314
 1771SOL     OW 6211   0.772   3.807   6.053
 1771SOL    HW1 6212   0.850   3.773   6.001
 1771SOL    HW2 6213   0.766   3.756   6.140
 1772SOL     OW 6214   2.696   4.672   4.047
 1772SOL    HW1 6215   2.784   4.690   4.092
 1772SOL    HW2 6216   2.647   4.600   4.096
 1773SOL     OW 6217   0.222   7.004   5.253
 1773SOL    HW1 6218   0.228   6.911   5.289
 1773SOL    HW2 6219   0.247   7.004   5.156
 1774SOL     OW 6220   5.795   5.624   1.159
 1774SOL    HW1 6221   5.765   5.681   1.083
 1774SOL    HW2 6222   5.889   5.595   1.143
 1775SOL     OW 6223   1.995   5.507   6.954
 1775SOL    HW1 6224   1.933   5.428   6.958
 1775SOL    HW2 6225   2.060   5.495   6.880
 1776SOL     OW 6226   4.251   1.325   6.007
 1776SOL    HW1 6227   4.345   1.298   5.991
 1776SOL    HW2 6228   4.249   1.416   6.049
 1777SOL     OW 6229   4.432   6.936   6.595
 1777SOL    HW1 6230   4.417   6.838   6.586
 1777SOL    HW2 6231   4.443   6.960   6.691
 1778SOL     OW 6232   5.915   0.796   3.804
 1778SOL    HW1 6233   5.896   0.837   3.715
 1778SOL    HW2 6234   5.828   0.776   3.851
 1779SOL     OW 6235   5.615   6.465   3.950
 1779SOL    HW1 6236   5.587   6.559   3.926
 1779SOL    HW2 6237   5.636   6.461   4.048
 1780SOL     OW 6238   1.863   5.428   5.130
 1780SOL    HW1 6239   1.956   5.465   5.135
 1780SOL    HW2 6240   1.809   5.465   5.206
 1781SOL     OW 6241   4.193   0.219   3.885
 1781SOL    HW1 6242   4.117   0.228   3.949
 1781SOL    HW2 6243   4.280   0.230   3.933
 1782SOL     OW 6244   1.599   1.891   2.761
 1782SOL    HW1 6245   1.566   1.870   2.853
 1782SOL    HW2 6246   1.621   1.988   2.755
 1783SOL     OW 6247   1.783   3.860   6.030
 1783SOL    HW1 6248   1.813   3.851   5.935
 1783SOL    HW2 6249   1.776   3.957   6.053
 1784SOL     OW 6250   2.167   0.653   1.104
 1784SOL    HW1 6251   2.227   0.579   1.134
 1784SOL    HW2 6252   2.075   0.637   1.139
 1785SOL     OW 6253   1.480   6.584   4.413
 1785SOL    HW1 6254   1.513   6.645   4.341
 1785SOL    HW2 6255   1.388   6.613   4.441
 1786SOL     OW 6256   1.360   6.207   0.936
 1786SOL    HW1 6257   1.427   6.280   0.944
 1786SOL    HW2 6258   1.306   6.219   0.853
 1787SOL     OW 6259   1.942   3.278   5.845
 1787SOL    HW1 6260   1.964   3.181   5.859
 1787SOL    HW2 6261   2.026   3.332   5.847
 1788SOL     OW 6262   4.544   3.904   0.581
 1788SOL    HW1 6263   4.628   3.852   0.599
 1788SOL    HW2 6264   4.515   3.950   0.664
 1789SOL     OW 6265   6.931   3.646   1.894
 1789SOL    HW1 6266   6.966   3.700   1.971
 1789SOL    HW2 6267   6.839   3.678   1.870
 1790SOL     OW 6268   2.915   2.307   4.243
 1790SOL    HW1 6269   2.941   2.241   4.172
 1790SOL    HW2 6270   2.860   2.380   4.202
 1791SOL     OW 6271   5.897   0.002   3.631
 1791SOL    HW1 6272   5.915   7.001   3.536
 1791SOL    HW2 6273   5.816   0.060   3.634
 1792SOL     OW 6274   6.624   1.546   4.877
 1792SOL    HW1 6275   6.719   1.547   4.908
 1792SOL    HW2 6276   6.615   1.599   4.793
 1793SOL     OW 6277   0.202   1.152   5.581
 1793SOL    HW1 6278   0.220   1.055   5.596
 1793SOL    HW2 6279   0.196   1.171   5.483
 1794SOL     OW 6280   0.191   0.096   6.394
 1794SOL    HW1 6281   0.172   0.120   6.298
 1794SOL    HW2 6282   0.129   0.024   6.422
 1795SOL     OW 6283   5.720   4.918   0.073
 1795SOL    HW1 6284   5.654   4.843   0.068
 1795SOL    HW2 6285   5.671   5.004   0.087
 1796SOL     OW 6286   0.775   6.452   5.726
 1796SOL    HW1 6287   0.729   6.538   5.704
 1796SOL    HW2 6288   0.839   6.467   5.802
 1797SOL     OW 6289   2.442   6.160   4.792
 1797SOL    HW1 6290   2.533   6.126   4.768
 1797SOL    HW2 6291   2.374   6.090   4.771
 1798SOL     OW 6292   3.130   3.960   4.705
 1798SOL    HW1 6293   3.045   3.930   4.662
 1798SOL    HW2 6294   3.112   3.988   4.799
 1799SOL     OW 6295   2.874   1.009   0.108
 1799SOL    HW1 6296   2.792   1.067   0.103
 1799SOL    HW2 6297   2.953   1.060   0.073
 1800SOL     OW 6298   5.259   3.485   4.498
 1800SOL    HW1 6299   5.166   3.515   4.477
 1800SOL    HW2 6300   5.266   3.386   4.483
 1801SOL     OW 6301   0.762   1.737   2.123
 1801SOL    HW1 6302   0.825   1.668   2.159
 1801SOL    HW2 6303   0.774   1.823   2.173
 1802SOL     OW 6304   6.762   4.827   3.803
 1802SOL    HW1 6305   6.855   4.826   3.766
 1802SOL    HW2 6306   6.765   4.802   3.900
 1803SOL     OW 6307   0.735   6.822   3.152
 1803SOL    HW1 6308   0.709   6.794   3.059
 1803SOL    HW2 6309   0.829   6.794   3.170
 1804SOL     OW 6310   2.540   3.471   5.995
 1804SOL    HW1 6311   2.603   3.405   5.956
 1804SOL    HW2 6312   2.592   3.546   6.037
 1805SOL     OW 6313   0.224   5.924   6.282
 1805SOL    HW1 6314   0.261   5.851   6.224
 1805SOL    HW2 6315   0.295   5.992   6.298
 1806SOL     OW 6316   6.810   1.959   2.365
 1806SOL    HW1 6317   6.847   1.971   2.273
 1806SOL    HW2 6318   6.868   1.896   2.417
 1807SOL     OW 6319   6.634   3.697   2.000
 1807SOL    HW1 6320   6.640   3.771   2.068
 1807SOL    HW2 6321   6.604   3.734   1.913
 1808SOL     OW 6322   5.105   1.893   5.787
 1808SOL    HW1 6323   5.184   1.927   5.839
 1808SOL    HW2 6324   5.061   1.819   5.838
 1809SOL     OW 6325   3.859   2.034   5.908
 1809SOL    HW1 6326   3.774   2.075   5.942
 1809SOL    HW2 6327   3.841   1.939   5.882
 1810SOL     OW 6328   0.743   7.003   4.063
 1810SOL    HW1 6329   0.674   6.935   4.037
 1810SOL    HW2 6330   0.794   0.005   3.982
 1811SOL     OW 6331   4.399   5.670   2.683
 1811SOL    HW1 6332   4.332   5.731   2.642
 1811SOL    HW2 6333   4.352   5.602   2.740
 1812SOL     OW 6334   4.560   0.083   5.378
 1812SOL    HW1 6335   4.473   0.034   5.383
 1812SOL    HW2 6336   4.635   0.018   5.393
 1813SOL     OW 6337   4.689   4.396   2.456
 1813SOL    HW1 6338   4.673   4.407   2.358
 1813SOL    HW2 6339   4.611   4.434   2.507
 1814SOL     OW 6340   0.115   6.462   0.661
 1814SOL    HW1 6341   0.020   6.461   0.628
 1814SOL    HW2 6342   0.177   6.457   0.583
 1815SOL     OW 6343   5.655   6.072   1.873
 1815SOL    HW1 6344   5.736   6.115   1.832
 1815SOL    HW2 6345   5.677   5.978   1.899
 1816SOL     OW 6346   4.270   5.974   6.101
 1816SOL    HW1 6347   4.225   5.896   6.058
 1816SOL    HW2 6348   4.313   6.030   6.031
 1817SOL     OW 6349   1.440   1.735   3.646
 1817SOL    HW1 6350   1.397   1.650   3.614
 1817SOL    HW2 6351   1.480   1.721   3.737
 1818SOL     OW 6352   2.238   6.663   0.381
 1818SOL    HW1 6353   2.252   6.564   0.382
 1818SOL    HW2 6354   2.194   6.692   0.466
 1819SOL     OW 6355   1.998   4.844   3.292
 1819SOL    HW1 6356   2.083   4.853   3.346
 1819SOL    HW2 6357   1.920   4.867   3.350
 1820SOL     OW 6358   3.458   0.856   3.865
 1820SOL    HW1 6359   3.447   0.939   3.920
 1820SOL    HW2 6360   3.553   0.825   3.871
 1821SOL     OW 6361   4.145   2.111   2.476
 1821SOL    HW1 6362   4.130   2.187   2.539
 1821SOL    HW2 6363   4.057   2.066   2.457
 1822SOL     OW 6364   0.328   3.222   2.437
 1822SOL    HW1 6365   0.228   3.220   2.435
 1822SOL    HW2 6366   0.361   3.189   2.526
 1823SOL     OW 6367   4.240   6.397   2.532
 1823SOL    HW1 6368   4.142   6.388   2.547
 1823SOL    HW2 6369   4.260   6.385   2.434
 1824SOL     OW 6370   4.015   3.068   0.748
 1824SOL    HW1 6371   3.934   3.012   0.768
 1824SOL    HW2 6372   4.071   3.077   0.830
 1825SOL     OW 6373   2.161   2.027   5.135
 1825SOL    HW1 6374   2.114   2.004   5.220
 1825SOL    HW2 6375   2.197   1.943   5.093
 1826SOL     OW 6376   3.565   2.114   1.729
 1826SOL    HW1 6377   3.607   2.201   1.754
 1826SOL    HW2 6378   3.490   2.130   1.664
 1827SOL     OW 6379   5.474   4.548   0.510
 1827SOL    HW1 6380   5.405   4.498   0.458
 1827SOL    HW2 6381   5.454   4.541   0.608
 1828SOL     OW 6382   1.725   3.538   5.305
 1828SOL    HW1 6383   1.785   3.591   5.246
 1828SOL    HW2 6384   1.780   3.481   5.366
 1829SOL     OW 6385   2.982   0.916   3.448
 1829SOL    HW1 6386   2.958   0.992   3.509
 1829SOL    HW2 6387   2.938   0.832   3.481
 1830SOL     OW 6388   5.583   6.757   5.000
 1830SOL    HW1 6389   5.500   6.727   4.952
 1830SOL    HW2 6390   5.580   6.727   5.095
 1831SOL     OW 6391   4.945   5.559   2.515
 1831SOL    HW1 6392   4.912   5.580   2.423
 1831SOL    HW2 6393   4.939   5.641   2.572
 1832SOL     OW 6394   2.966   2.901   0.532
 1832SOL    HW1 6395   3.038   2.859   0.478
 1832SOL    HW2 6396   2.943   2.842   0.610
 1833SOL     OW 6397   5.108   0.183   1.164
 1833SOL    HW1 6398   5.159   0.233   1.094
 1833SOL    HW2 6399   5.112   0.085   1.144
 1834SOL     OW 6400   2.661   2.701   6.530
 1834SOL    HW1 6401   2.666   2.630   6.601
 1834SOL    HW2 6402   2.750   2.710   6.487
 1835SOL     OW 6403   0.309   5.454   1.366
 1835SOL    HW1 6404   0.242   5.488   1.432
 1835SOL    HW2 6405   0.265   5.391   1.303
 1836SOL     OW 6406   5.365   2.544   1.467
 1836SOL    HW1 6407   5.307   2.583   1.537
 1836SOL    HW2 6408   5.444   2.500   1.510
 1837SOL     OW 6409   2.622   1.633   6.279
 1837SOL    HW1 6410   2.524   1.645   6.261
 1837SOL    HW2 6411   2.639   1.540   6.311
 1838SOL     OW 6412   6.498   0.909   0.647
 1838SOL    HW1 6413   6.576   0.903   0.710
 1838SOL    HW2 6414   6.450   0.995   0.662
 1839SOL     OW 6415   5.768   1.068   6.957
 1839SOL    HW1 6416   5.827   1.013   7.016
 1839SOL    HW2 6417   5.696   1.010   6.918
 1840SOL     OW 6418   4.293   0.056   3.396
 1840SOL    HW1 6419   4.221   7.013   3.392
 1840SOL    HW2 6420   4.312   0.088   3.303
 1841SOL     OW 6421   1.906   1.349   2.289
 1841SOL    HW1 6422   1.959   1.405   2.353
 1841SOL    HW2 6423   1.897   1.398   2.202
 1842SOL     OW 6424   1.542   5.643   0.522
 1842SOL    HW1 6425   1.465   5.677   0.468
 1842SOL    HW2 6426   1.594   5.577   0.468
 1843SOL     OW 6427   3.612   1.079   4.525
 1843SOL    HW1 6428   3.629   1.130   4.610
 1843SOL    HW2 6429   3.561   0.995   4.547
 1844SOL     OW 6430   5.596   1.157   6.523
 1844SOL    HW1 6431   5.518   1.114   6.570
 1844SOL    HW2 6432   5.615   1.246   6.564
 1845SOL     OW 6433   1.561   1.220   3.120
 1845SOL    HW1 6434   1.478   1.229   3.065
 1845SOL    HW2 6435   1.641   1.239   3.064
 1846SOL     OW 6436   4.479   1.152   2.576
 1846SOL    HW1 6437   4.488   1.176   2.479
 1846SOL    HW2 6438   4.421   1.220   2.621
 1847SOL     OW 6439   2.217   0.411   5.219
 1847SOL    HW1 6440   2.124   0.450   5.220
 1847SOL    HW2 6441   2.279   0.473   5.267
 1848SOL     OW 6442   2.396   5.783   4.385
 1848SOL    HW1 6443   2.352   5.826   4.306
 1848SOL    HW2 6444   2.463   5.846   4.425
 1849SOL     OW 6445   4.636   2.766   1.805
 1849SOL    HW1 6446   4.608   2.862   1.813
 1849SOL    HW2 6447   4.717   2.750   1.861
 1850SOL     OW 6448   5.038   1.625   1.677
 1850SOL    HW1 6449   5.126   1.586   1.701
 1850SOL    HW2 6450   5.042   1.725   1.686
 1851SOL     OW 6451   6.859   3.850   5.390
 1851SOL    HW1 6452   6.810   3.936   5.404
 1851SOL    HW2 6453   6.801   3.774   5.419
 1852SOL     OW 6454   1.453   5.260   2.245
 1852SOL    HW1 6455   1.390   5.335   2.264
 1852SOL    HW2 6456   1.500   5.234   2.329
 1853SOL     OW 6457   0.437   2.425   4.235
 1853SOL    HW1 6458   0.464   2.372   4.316
 1853SOL    HW2 6459   0.338   2.420   4.224
 1854SOL     OW 6460   0.335   6.410   4.019
 1854SOL    HW1 6461   0.366   6.505   4.019
 1854SOL    HW2 6462   0.324   6.379   3.925
 1855SOL     OW 6463   4.776   3.331   5.249
 1855SOL    HW1 6464   4.690   3.282   5.267
 1855SOL    HW2 6465   4.755   3.418   5.204
 1856SOL     OW 6466   3.494   2.581   0.130
 1856SOL    HW1 6467   3.588   2.595   0.162
 1856SOL    HW2 6468   3.470   2.485   0.143
 1857SOL     OW 6469   4.967   1.043   0.583
 1857SOL    HW1 6470   4.903   1.103   0.534
 1857SOL    HW2 6471   5.014   0.984   0.517
 1858SOL     OW 6472   4.276   2.295   4.334
 1858SOL    HW1 6473   4.308   2.339   4.418
 1858SOL    HW2 6474   4.180   2.270   4.343
 1859SOL     OW 6475   5.536   2.203   3.575
 1859SOL    HW1 6476   5.545   2.154   3.661
 1859SOL    HW2 6477   5.460   2.164   3.522
 1860SOL     OW 6478   1.269   1.351   4.608
 1860SOL    HW1 6479   1.227   1.315   4.524
 1860SOL    HW2 6480   1.304   1.443   4.591
 1861SOL     OW 6481   6.475   0.112   3.296
 1861SOL    HW1 6482   6.410   0.062   3.238
 1861SOL    HW2 6483   6.473   0.073   3.388
 1862SOL     OW 6484   2.697   6.149   6.750
 1862SOL    HW1 6485   2.644   6.232   6.766
 1862SOL    HW2 6486   2.660   6.074   6.804
 1863SOL     OW 6487   0.519   2.857   1.559
 1863SOL    HW1 6488   0.436   2.906   1.585
 1863SOL    HW2 6489   0.599   2.913   1.580
 1864SOL     OW 6490   3.469   5.828   2.883
 1864SOL    HW1 6491   3.445   5.920   2.913
 1864SOL    HW2 6492   3.437   5.814   2.790
 1865SOL     OW 6493   5.783   0.855   5.863
 1865SOL    HW1 6494   5.867   0.841   5.914
 1865SOL    HW2 6495   5.746   0.946   5.883
 1866SOL     OW 6496   0.089   4.595   3.547
 1866SOL    HW1 6497   0.160   4.591   3.476
 1866SOL    HW2 6498   0.106   4.524   3.615
 1867SOL     OW 6499   2.306   2.416   0.618
 1867SOL    HW1 6500   2.330   2.359   0.697
 1867SOL    HW2 6501   2.265   2.501   0.650
 1868SOL     OW 6502   6.058   4.416   5.725
 1868SOL    HW1 6503   6.023   4.450   5.812
 1868SOL    HW2 6504   6.029   4.476   5.651
 1869SOL     OW 6505   4.633   1.739   4.204
 1869SOL    HW1 6506   4.562   1.809   4.216
 1869SOL    HW2 6507   4.657   1.701   4.293
 1870SOL     OW 6508   0.547   5.035   3.984
 1870SOL    HW1 6509   0.511   4.954   4.032
 1870SOL    HW2 6510   0.472   5.099   3.966
 1871SOL     OW 6511   0.539   6.508   0.479
 1871SOL    HW1 6512   0.625   6.523   0.430
 1871SOL    HW2 6513   0.559   6.490   0.576
 1872SOL     OW 6514   2.604   2.424   0.807
 1872SOL    HW1 6515   2.603   2.524   0.810
 1872SOL    HW2 6516   2.661   2.395   0.730
 1873SOL     OW 6517   6.775   0.773   0.147
 1873SOL    HW1 6518   6.762   0.777   0.246
 1873SOL    HW2 6519   6.861   0.819   0.122
 1874SOL     OW 6520   1.087   6.175   0.081
 1874SOL    HW1 6521   1.024   6.204   0.008
 1874SOL    HW2 6522   1.168   6.132   0.040
 1875SOL     OW 6523   6.318   4.971   0.235
 1875SOL    HW1 6524   6.239   5.032   0.246
 1875SOL    HW2 6525   6.401   5.020   0.259
 1876SOL     OW 6526   0.019   5.899   6.520
 1876SOL    HW1 6527   0.034   5.885   6.618
 1876SOL    HW2 6528   0.105   5.926   6.477
 1877SOL     OW 6529   0.076   0.969   2.073
 1877SOL    HW1 6530   7.025   0.935   2.021
 1877SOL    HW2 6531   0.126   0.892   2.113
 1878SOL     OW 6532   6.805   4.837   3.418
 1878SOL    HW1 6533   6.832   4.767   3.484
 1878SOL    HW2 6534   6.832   4.809   3.326
 1879SOL     OW 6535   4.054   5.637   4.566
 1879SOL    HW1 6536   3.997   5.574   4.618
 1879SOL    HW2 6537   4.128   5.585   4.521
 1880SOL     OW 6538   0.513   1.385   3.831
 1880SOL    HW1 6539   0.465   1.399   3.745
 1880SOL    HW2 6540   0.542   1.289   3.837
 1881SOL     OW 6541   1.310   1.481   4.020
 1881SOL    HW1 6542   1.214   1.454   4.032
 1881SOL    HW2 6543   1.367   1.399   4.020
 1882SOL     OW 6544   1.464   5.699   0.132
 1882SOL    HW1 6545   1.433   5.764   0.062
 1882SOL    HW2 6546   1.551   5.660   0.103
 1883SOL     OW 6547   1.698   3.219   2.901
 1883SOL    HW1 6548   1.695   3.229   3.001
 1883SOL    HW2 6549   1.708   3.123   2.877
 1884SOL     OW 6550   3.132   0.641   0.607
 1884SOL    HW1 6551   3.177   0.702   0.542
 1884SOL    HW2 6552   3.197   0.573   0.641
 1885SOL     OW 6553   6.796   2.416   1.038
 1885SOL    HW1 6554   6.881   2.431   1.088
 1885SOL    HW2 6555   6.788   2.318   1.015
 1886SOL     OW 6556   2.728   2.986   6.930
 1886SOL    HW1 6557   2.656   2.917   6.932
 1886SOL    HW2 6558   2.810   2.952   6.977
 1887SOL     OW 6559   1.373   6.533   5.679
 1887SOL    HW1 6560   1.422   6.488   5.754
 1887SOL    HW2 6561   1.275   6.529   5.697
 1888SOL     OW 6562   1.996   2.069   5.976
 1888SOL    HW1 6563   2.079   2.066   6.031
 1888SOL    HW2 6564   2.020   2.066   5.879
 1889SOL     OW 6565   4.452   2.799   0.288
 1889SOL    HW1 6566   4.481   2.882   0.336
 1889SOL    HW2 6567   4.481   2.804   0.192
 1890SOL     OW 6568   6.859   5.501   6.471
 1890SOL    HW1 6569   6.809   5.539   6.550
 1890SOL    HW2 6570   6.869   5.403   6.482
 1891SOL     OW 6571   6.280   3.292   5.464
 1891SOL    HW1 6572   6.202   3.340   5.424
 1891SOL    HW2 6573   6.259   3.266   5.558
 1892SOL     OW 6574   3.850   5.445   1.893
 1892SOL    HW1 6575   3.768   5.485   1.934
 1892SOL    HW2 6576   3.891   5.380   1.957
 1893SOL     OW 6577   3.955   1.704   4.100
 1893SOL    HW1 6578   3.865   1.672   4.131
 1893SOL    HW2 6579   4.019   1.627   4.100
 1894SOL     OW 6580   4.076   3.781   0.573
 1894SOL    HW1 6581   4.171   3.767   0.547
 1894SOL    HW2 6582   4.020   3.797   0.492
 1895SOL     OW 6583   5.722   0.596   3.215
 1895SOL    HW1 6584   5.635   0.645   3.204
 1895SOL    HW2 6585   5.792   0.660   3.247
 1896SOL     OW 6586   6.883   1.593   4.946
 1896SOL    HW1 6587   6.953   1.523   4.956
 1896SOL    HW2 6588   6.896   1.642   4.860
 1897SOL     OW 6589   5.981   4.870   3.547
 1897SOL    HW1 6590   5.914   4.800   3.520
 1897SOL    HW2 6591   5.948   4.960   3.517
 1898SOL     OW 6592   5.678   4.531   0.799
 1898SOL    HW1 6593   5.747   4.559   0.732
 1898SOL    HW2 6594   5.708   4.448   0.845
 1899SOL     OW 6595   0.719   2.889   2.957
 1899SOL    HW1 6596   0.774   2.959   2.913
 1899SOL    HW2 6597   0.776   2.809   2.976
 1900SOL     OW 6598   2.159   6.021   6.297
 1900SOL    HW1 6599   2.236   5.966   6.330
 1900SOL    HW2 6600   2.153   6.105   6.351
 1901SOL     OW 6601   1.692   0.921   6.519
 1901SOL    HW1 6602   1.729   0.969   6.599
 1901SOL    HW2 6603   1.619   0.976   6.479
 1902SOL     OW 6604   0.777   2.710   4.404
 1902SOL    HW1 6605   0.743   2.708   4.498
 1902SOL    HW2 6606   0.706   2.675   4.342
 1903SOL     OW 6607   6.540   3.046   3.608
 1903SOL    HW1 6608   6.461   3.017   3.554
 1903SOL    HW2 6609   6.512   3.058   3.703
 1904SOL     OW 6610   6.516   6.686   3.675
 1904SOL    HW1 6611   6.516   6.703   3.774
 1904SOL    HW2 6612   6.422   6.668   3.645
 1905SOL     OW 6613   0.008   2.348   3.679
 1905SOL    HW1 6614   7.002   2.409   3.607
 1905SOL    HW2 6615   6.969   2.274   3.692
 1906SOL     OW 6616   2.749   0.481   6.595
 1906SOL    HW1 6617   2.813   0.423   6.647
 1906SOL    HW2 6618   2.656   0.464   6.628
 1907SOL     OW 6619   3.315   6.015   3.648
 1907SOL    HW1 6620   3.370   5.945   3.602
 1907SOL    HW2 6621   3.338   6.016   3.745
 1908SOL     OW 6622   4.230   1.597   6.046
 1908SOL    HW1 6623   4.190   1.574   6.135
 1908SOL    HW2 6624   4.218   1.695   6.029
 1909SOL     OW 6625   2.542   5.248   4.552
 1909SOL    HW1 6626   2.467   5.245   4.486
 1909SOL    HW2 6627   2.582   5.156   4.562
 1910SOL     OW 6628   5.328   1.926   5.964
 1910SOL    HW1 6629   5.313   1.846   6.022
 1910SOL    HW2 6630   5.426   1.943   5.956
 1911SOL     OW 6631   6.352   3.027   4.838
 1911SOL    HW1 6632   6.417   3.091   4.880
 1911SOL    HW2 6633   6.317   3.066   4.753
 1912SOL     OW 6634   3.554   6.791   2.960
 1912SOL    HW1 6635   3.592   6.732   2.888
 1912SOL    HW2 6636   3.539   6.737   3.042
 1913SOL     OW 6637   1.746   5.245   5.573
 1913SOL    HW1 6638   1.663   5.246   5.517
 1913SOL    HW2 6639   1.812   5.311   5.536
 1914SOL     OW 6640   3.493   2.576   6.045
 1914SOL    HW1 6641   3.571   2.539   6.094
 1914SOL    HW2 6642   3.425   2.610   6.110
 1915SOL     OW 6643   3.760   0.138   5.567
 1915SOL    HW1 6644   3.715   0.080   5.634
 1915SOL    HW2 6645   3.717   0.126   5.478
 1916SOL     OW 6646   3.406   6.050   2.024
 1916SOL    HW1 6647   3.361   6.031   2.111
 1916SOL    HW2 6648   3.419   6.149   2.013
 1917SOL     OW 6649   2.981   3.238   4.275
 1917SOL    HW1 6650   2.976   3.245   4.175
 1917SOL    HW2 6651   2.934   3.156   4.306
 1918SOL     OW 6652   5.890   6.387   4.613
 1918SOL    HW1 6653   5.957   6.453   4.646
 1918SOL    HW2 6654   5.808   6.393   4.670
 1919SOL     OW 6655   6.953   6.484   1.791
 1919SOL    HW1 6656   0.004   6.448   1.842
 1919SOL    HW2 6657   6.868   6.458   1.838
 1920SOL     OW 6658   0.003   5.889   4.200
 1920SOL    HW1 6659   6.940   5.900   4.158
 1920SOL    HW2 6660   0.059   5.970   4.181
 1921SOL     OW 6661   0.929   6.290   6.878
 1921SOL    HW1 6662   0.946   6.382   6.842
 1921SOL    HW2 6663   0.972   6.222   6.819
 1922SOL     OW 6664   3.754   3.896   0.773
 1922SOL    HW1 6665   3.831   3.957   0.753
 1922SOL    HW2 6666   3.777   3.803   0.743
 1923SOL     OW 6667   1.772   0.991   0.689
 1923SOL    HW1 6668   1.744   0.996   0.785
 1923SOL    HW2 6669   1.729   1.065   0.638
 1924SOL     OW 6670   0.338   4.473   1.741
 1924SOL    HW1 6671   0.379   4.563   1.727
 1924SOL    HW2 6672   0.410   4.405   1.753
 1925SOL     OW 6673   3.191   4.326   1.410
 1925SOL    HW1 6674   3.175   4.284   1.499
 1925SOL    HW2 6675   3.204   4.255   1.341
 1926SOL     OW 6676   1.330   0.161   4.442
 1926SOL    HW1 6677   1.348   0.237   4.379
 1926SOL    HW2 6678   1.261   0.101   4.402
 1927SOL     OW 6679   3.635   3.973   6.410
 1927SOL    HW1 6680   3.656   3.907   6.338
 1927SOL    HW2 6681   3.540   3.962   6.439
 1928SOL     OW 6682   6.092   3.936   5.739
 1928SOL    HW1 6683   6.153   3.966   5.665
 1928SOL    HW2 6684   6.135   3.860   5.788
 1929SOL     OW 6685   0.580   6.271   1.339
 1929SOL    HW1 6686   0.560   6.293   1.435
 1929SOL    HW2 6687   0.678   6.277   1.323
 1930SOL     OW 6688   6.105   4.577   6.238
 1930SOL    HW1 6689   6.058   4.632   6.307
 1930SOL    HW2 6690   6.198   4.609   6.227
 1931SOL     OW 6691   0.613   3.192   4.414
 1931SOL    HW1 6692   0.614   3.278   4.363
 1931SOL    HW2 6693   0.519   3.170   4.440
 1932SOL     OW 6694   5.366   4.045   1.867
 1932SOL    HW1 6695   5.346   3.947   1.857
 1932SOL    HW2 6696   5.281   4.097   1.856
 1933SOL     OW 6697   2.786   4.534   0.650
 1933SOL    HW1 6698   2.699   4.531   0.699
 1933SOL    HW2 6699   2.768   4.534   0.552
 1934SOL     OW 6700   0.718   6.444   6.021
 1934SOL    HW1 6701   0.696   6.484   6.110
 1934SOL    HW2 6702   0.754   6.352   6.034
 1935SOL     OW 6703   2.536   0.245   3.739
 1935SOL    HW1 6704   2.557   0.238   3.641
 1935SOL    HW2 6705   2.573   0.165   3.786
 1936SOL     OW 6706   6.109   6.086   4.765
 1936SOL    HW1 6707   6.022   6.117   4.804
 1936SOL    HW2 6708   6.119   5.988   4.782
 1937SOL     OW 6709   3.989   6.340   2.100
 1937SOL    HW1 6710   4.013   6.400   2.177
 1937SOL    HW2 6711   4.056   6.350   2.027
 1938SOL     OW 6712   3.849   1.106   3.726
 1938SOL    HW1 6713   3.767   1.050   3.736
 1938SOL    HW2 6714   3.919   1.055   3.677
 1939SOL     OW 6715   1.517   1.400   3.755
 1939SOL    HW1 6716   1.594   1.460   3.732
 1939SOL    HW2 6717   1.437   1.427   3.699
 1940SOL     OW 6718   6.570   5.358   0.019
 1940SOL    HW1 6719   6.637   5.420   0.058
 1940SOL    HW2 6720   6.600   5.263   0.033
 1941SOL     OW 6721   5.451   3.493   2.188
 1941SOL    HW1 6722   5.359   3.525   2.164
 1941SOL    HW2 6723   5.509   3.494   2.107
 1942SOL     OW 6724   6.286   4.984   2.342
 1942SOL    HW1 6725   6.310   4.960   2.436
 1942SOL    HW2 6726   6.338   5.065   2.315
 1943SOL     OW 6727   2.354   4.437   3.678
 1943SOL    HW1 6728   2.342   4.451   3.580
 1943SOL    HW2 6729   2.442   4.475   3.707
 1944SOL     OW 6730   5.960   1.172   6.777
 1944SOL    HW1 6731   5.901   1.106   6.824
 1944SOL    HW2 6732   6.054   1.139   6.776
 1945SOL     OW 6733   4.115   5.468   3.805
 1945SOL    HW1 6734   4.157   5.555   3.833
 1945SOL    HW2 6735   4.042   5.486   3.739
 1946SOL     OW 6736   1.180   0.312   6.985
 1946SOL    HW1 6737   1.241   0.390   7.002
 1946SOL    HW2 6738   1.226   0.227   7.009
 1947SOL     OW 6739   5.221   6.285   3.559
 1947SOL    HW1 6740   5.162   6.347   3.610
 1947SOL    HW2 6741   5.193   6.191   3.576
 1948SOL     OW 6742   6.640   6.027   4.604
 1948SOL    HW1 6743   6.658   5.944   4.656
 1948SOL    HW2 6744   6.544   6.030   4.576
 1949SOL     OW 6745   4.585   4.194   6.311
 1949SOL    HW1 6746   4.664   4.134   6.298
 1949SOL    HW2 6747   4.589   4.269   6.244
 1950SOL     OW 6748   3.161   4.100   6.395
 1950SOL    HW1 6749   3.192   4.183   6.440
 1950SOL    HW2 6750   3.078   4.066   6.440
 1951SOL     OW 6751   5.758   1.555   0.061
 1951SOL    HW1 6752   5.852   1.521   0.071
 1951SOL    HW2 6753   5.701   1.515   0.133
 1952SOL     OW 6754   4.060   2.144   0.553
 1952SOL    HW1 6755   4.139   2.195   0.518
 1952SOL    HW2 6756   4.003   2.114   0.477
 1953SOL     OW 6757   0.195   1.997   6.600
 1953SOL    HW1 6758   0.226   2.036   6.687
 1953SOL    HW2 6759   0.157   1.906   6.615
 1954SOL     OW 6760   3.963   1.973   4.166
 1954SOL    HW1 6761   3.868   1.998   4.185
 1954SOL    HW2 6762   3.970   1.874   4.161
 1955SOL     OW 6763   0.308   6.283   2.391
 1955SOL    HW1 6764   0.282   6.211   2.455
 1955SOL    HW2 6765   0.246   6.361   2.401
 1956SOL     OW 6766   5.532   5.834   2.694
 1956SOL    HW1 6767   5.458   5.868   2.752
 1956SOL    HW2 6768   5.571   5.909   2.642
 1957SOL     OW 6769   0.609   6.058   4.384
 1957SOL    HW1 6770   0.514   6.087   4.397
 1957SOL    HW2 6771   0.612   5.960   4.366
 1958SOL     OW 6772   5.124   3.546   5.253
 1958SOL    HW1 6773   5.194   3.612   5.225
 1958SOL    HW2 6774   5.082   3.506   5.172
 1959SOL     OW 6775   1.504   1.915   6.314
 1959SOL    HW1 6776   1.555   1.990   6.356
 1959SOL    HW2 6777   1.529   1.829   6.357
 1960SOL     OW 6778   5.849   5.029   0.345
 1960SOL    HW1 6779   5.931   5.079   0.372
 1960SOL    HW2 6780   5.871   4.969   0.268
 1961SOL     OW 6781   5.941   4.627   4.114
 1961SOL    HW1 6782   6.030   4.585   4.096
 1961SOL    HW2 6783   5.893   4.640   4.027
 1962SOL     OW 6784   1.420   6.249   3.227
 1962SOL    HW1 6785   1.324   6.275   3.223
 1962SOL    HW2 6786   1.477   6.330   3.211
 1963SOL     OW 6787   0.752   0.458   2.516
 1963SOL    HW1 6788   0.840   0.444   2.561
 1963SOL    HW2 6789   0.689   0.384   2.541
 1964SOL     OW 6790   4.098   2.200   2.060
 1964SOL    HW1 6791   4.086   2.226   1.964
 1964SOL    HW2 6792   4.010   2.171   2.097
 1965SOL     OW 6793   0.727   3.675   2.509
 1965SOL    HW1 6794   0.770   3.663   2.419
 1965SOL    HW2 6795   0.796   3.670   2.580
 1966SOL     OW 6796   0.172   5.480   5.122
 1966SOL    HW1 6797   0.073   5.496   5.115
 1966SOL    HW2 6798   0.197   5.467   5.218
 1967SOL     OW 6799   4.660   2.666   5.454
 1967SOL    HW1 6800   4.596   2.650   5.530
 1967SOL    HW2 6801   4.619   2.634   5.369
 1968SOL     OW 6802   2.734   6.419   0.180
 1968SOL    HW1 6803   2.824   6.418   0.223
 1968SOL    HW2 6804   2.669   6.467   0.239
 1969SOL     OW 6805   6.854   2.530   1.576
 1969SOL    HW1 6806   6.811   2.472   1.508
 1969SOL    HW2 6807   6.786   2.560   1.643
 1970SOL     OW 6808   1.754   0.168   5.541
 1970SOL    HW1 6809   1.793   0.118   5.464
 1970SOL    HW2 6810   1.790   0.262   5.541
 1971SOL     OW 6811   0.250   6.174   6.704
 1971SOL    HW1 6812   0.156   6.199   6.683
 1971SOL    HW2 6813   0.296   6.250   6.750
 1972SOL     OW 6814   0.501   4.467   4.051
 1972SOL    HW1 6815   0.495   4.432   4.144
 1972SOL    HW2 6816   0.594   4.497   4.033
 1973SOL     OW 6817   3.554   2.462   1.443
 1973SOL    HW1 6818   3.629   2.400   1.420
 1973SOL    HW2 6819   3.563   2.492   1.538
 1974SOL     OW 6820   5.399   6.572   4.340
 1974SOL    HW1 6821   5.337   6.650   4.333
 1974SOL    HW2 6822   5.345   6.488   4.352
 1975SOL     OW 6823   2.737   0.429   3.847
 1975SOL    HW1 6824   2.644   0.399   3.828
 1975SOL    HW2 6825   2.798   0.394   3.776
 1976SOL     OW 6826   0.316   6.024   0.234
 1976SOL    HW1 6827   0.269   6.003   0.319
 1976SOL    HW2 6828   0.366   6.110   0.244
 1977SOL     OW 6829   1.045   2.241   4.478
 1977SOL    HW1 6830   1.045   2.181   4.398
 1977SOL    HW2 6831   1.103   2.320   4.460
 1978SOL     OW 6832   0.215   1.184   4.744
 1978SOL    HW1 6833   0.268   1.167   4.827
 1978SOL    HW2 6834   0.263   1.143   4.666
 1979SOL     OW 6835   0.194   4.399   5.224
 1979SOL    HW1 6836   0.233   4.442   5.305
 1979SOL    HW2 6837   0.094   4.409   5.226
 1980SOL     OW 6838   3.416   0.064   1.076
 1980SOL    HW1 6839   3.463   7.010   1.041
 1980SOL    HW2 6840   3.401   0.128   1.001
 1981SOL     OW 6841   5.233   2.823   1.868
 1981SOL    HW1 6842   5.244   2.725   1.853
 1981SOL    HW2 6843   5.314   2.871   1.834
 1982SOL     OW 6844   5.868   5.139   4.889
 1982SOL    HW1 6845   5.825   5.061   4.844
 1982SOL    HW2 6846   5.820   5.160   4.974
 1983SOL     OW 6847   1.465   2.694   3.255
 1983SOL    HW1 6848   1.386   2.723   3.201
 1983SOL    HW2 6849   1.545   2.686   3.196
 1984SOL     OW 6850   4.575   1.511   5.758
 1984SOL    HW1 6851   4.642   1.580   5.734
 1984SOL    HW2 6852   4.483   1.546   5.741
 1985SOL     OW 6853   1.173   1.046   1.917
 1985SOL    HW1 6854   1.231   1.088   1.987
 1985SOL    HW2 6855   1.226   1.038   1.832
 1986SOL     OW 6856   1.344   2.299   6.830
 1986SOL    HW1 6857   1.443   2.284   6.837
 1986SOL    HW2 6858   1.314   2.281   6.736
 1987SOL     OW 6859   2.739   3.099   1.554
 1987SOL    HW1 6860   2.745   3.021   1.617
 1987SOL    HW2 6861   2.818   3.158   1.567
 1988SOL     OW 6862   4.821   3.606   6.684
 1988SOL    HW1 6863   4.911   3.563   6.691
 1988SOL    HW2 6864   4.831   3.696   6.643
 1989SOL     OW 6865   2.030   0.073   4.609
 1989SOL    HW1 6866   2.041   0.172   4.603
 1989SOL    HW2 6867   1.975   0.050   4.689
 1990SOL     OW 6868   2.977   1.225   0.754
 1990SOL    HW1 6869   2.982   1.127   0.771
 1990SOL    HW2 6870   2.996   1.243   0.657
 1991SOL     OW 6871   3.262   5.329   5.004
 1991SOL    HW1 6872   3.298   5.288   4.920
 1991SOL    HW2 6873   3.337   5.347   5.068
 1992SOL     OW 6874   2.320   6.740   5.194
 1992SOL    HW1 6875   2.366   6.828   5.181
 1992SOL    HW2 6876   2.222   6.751   5.179
 1993SOL     OW 6877   3.616   3.957   5.416
 1993SOL    HW1 6878   3.545   3.891   5.388
 1993SOL    HW2 6879   3.694   3.950   5.354
 1994SOL     OW 6880   6.920   1.980   2.126
 1994SOL    HW1 6881   7.003   2.017   2.085
 1994SOL    HW2 6882   6.903   1.889   2.090
 1995SOL     OW 6883   6.193   1.744   1.624
 1995SOL    HW1 6884   6.114   1.688   1.644
 1995SOL    HW2 6885   6.219   1.734   1.528
 1996SOL     OW 6886   3.584   3.545   6.955
 1996SOL    HW1 6887   3.548   3.572   6.866
 1996SOL    HW2 6888   3.523   3.578   0.000
 1997SOL     OW 6889   5.882   1.014   5.350
 1997SOL    HW1 6890   5.907   0.962   5.431
 1997SOL    HW2 6891   5.795   0.980   5.314
 1998SOL     OW 6892   2.776   4.262   6.382
 1998SOL    HW1 6893   2.871   4.294   6.376
 1998SOL    HW2 6894   2.722   4.305   6.310
 1999SOL     OW 6895   2.497   6.975   2.150
 1999SOL    HW1 6896   2.476   0.022   2.086
 1999SOL    HW2 6897   2.578   6.999   2.204
 2000SOL     OW 6898   4.143   1.176   4.951
 2000SOL    HW1 6899   4.211   1.249   4.954
 2000SOL    HW2 6900   4.187   1.088   4.972
 2001SOL     OW 6901   3.229   1.966   1.074
 2001SOL    HW1 6902   3.189   1.898   1.013
 2001SOL    HW2 6903   3.198   1.950   1.168
 2002SOL     OW 6904   1.862   6.239   6.253
 2002SOL    HW1 6905   1.869   6.184   6.170
 2002SOL    HW2 6906   1.942   6.298   6.261
 2003SOL     OW 6907   5.545   0.227   3.375
 2003SOL    HW1 6908   5.606   0.156   3.340
 2003SOL    HW2 6909   5.456   0.187   3.398
 2004SOL     OW 6910   3.600   1.101   5.219
 2004SOL    HW1 6911   3.610   1.200   5.229
 2004SOL    HW2 6912   3.506   1.081   5.192
 2005SOL     OW 6913   2.378   6.252   6.374
 2005SOL    HW1 6914   2.368   6.348   6.350
 2005SOL    HW2 6915   2.405   6.244   6.470
 2006SOL     OW 6916   4.565   4.581   3.728
 2006SOL    HW1 6917   4.508   4.600   3.649
 2006SOL    HW2 6918   4.517   4.519   3.790
 2007SOL     OW 6919   5.003   5.419   6.863
 2007SOL    HW1 6920   5.103   5.426   6.867
 2007SOL    HW2 6921   4.963   5.510   6.877
 2008SOL     OW 6922   6.965   6.313   3.455
 2008SOL    HW1 6923   6.929   6.405   3.436
 2008SOL    HW2 6924   6.891   6.254   3.487
 2009SOL     OW 6925   0.027   0.469   1.697
 2009SOL    HW1 6926   0.118   0.488   1.735
 2009SOL    HW2 6927   0.034   0.450   1.599
 2010SOL     OW 6928   1.003   0.943   0.540
 2010SOL    HW1 6929   1.016   0.991   0.627
 2010SOL    HW2 6930   0.906   0.927   0.525
 2011SOL     OW 6931   6.734   2.497   5.092
 2011SOL    HW1 6932   6.665   2.427   5.070
 2011SOL    HW2 6933   6.822   2.470   5.053
 2012SOL     OW 6934   1.224   4.229   1.946
 2012SOL    HW1 6935   1.161   4.307   1.947
 2012SOL    HW2 6936   1.222   4.183   2.035
 2013SOL     OW 6937   5.903   1.741   2.722
 2013SOL    HW1 6938   5.814   1.736   2.676
 2013SOL    HW2 6939   5.973   1.769   2.656
 2014SOL     OW 6940   1.569   6.143   3.672
 2014SOL    HW1 6941   1.636   6.189   3.613
 2014SOL    HW2 6942   1.614   6.067   3.718
 2015SOL     OW 6943   3.832   0.540   0.046
 2015SOL    HW1 6944   3.827   0.587   0.133
 2015SOL    HW2 6945   3.797   0.447   0.056
 2016SOL     OW 6946   1.153   5.505   4.171
 2016SOL    HW1 6947   1.244   5.508   4.129
 2016SOL    HW2 6948   1.118   5.412   4.167
 2017SOL     OW 6949   2.234   5.794   3.380
 2017SOL    HW1 6950   2.271   5.808   3.289
 2017SOL    HW2 6951   2.141   5.832   3.385
 2018SOL     OW 6952   0.046   5.864   5.309
 2018SOL    HW1 6953   0.013   5.952   5.343
 2018SOL    HW2 6954   0.146   5.860   5.317
 2019SOL     OW 6955   5.537   2.731   0.632
 2019SOL    HW1 6956   5.454   2.783   0.649
 2019SOL    HW2 6957   5.584   2.713   0.718
 2020SOL     OW 6958   2.120   5.081   4.228
 2020SOL    HW1 6959   2.186   5.101   4.301
 2020SOL    HW2 6960   2.084   5.167   4.192
 2021SOL     OW 6961   1.461   1.039   2.231
 2021SOL    HW1 6962   1.418   1.100   2.165
 2021SOL    HW2 6963   1.550   1.010   2.196
 2022SOL     OW 6964   2.490   3.639   1.702
 2022SOL    HW1 6965   2.493   3.598   1.793
 2022SOL    HW2 6966   2.424   3.590   1.645
 2023SOL     OW 6967   6.626   0.894   6.801
 2023SOL    HW1 6968   6.572   0.956   6.745
 2023SOL    HW2 6969   6.622   0.923   6.897
 2024SOL     OW 6970   6.514   0.375   3.675
 2024SOL    HW1 6971   6.418   0.346   3.669
 2024SOL    HW2 6972   6.538   0.393   3.770
 2025SOL     OW 6973   1.022   2.269   1.083
 2025SOL    HW1 6974   1.007   2.191   1.021
 2025SOL    HW2 6975   1.112   2.261   1.125
 2026SOL     OW 6976   2.257   2.619   5.963
 2026SOL    HW1 6977   2.301   2.563   5.892
 2026SOL    HW2 6978   2.205   2.560   6.025
 2027SOL     OW 6979   0.519   1.038   2.245
 2027SOL    HW1 6980   0.507   1.085   2.158
 2027SOL    HW2 6981   0.501   1.102   2.320
 2028SOL     OW 6982   3.785   1.872   0.708
 2028SOL    HW1 6983   3.853   1.828   0.767
 2028SOL    HW2 6984   3.701   1.818   0.708
 2029SOL     OW 6985   1.189   0.902   6.534
 2029SOL    HW1 6986   1.188   0.820   6.591
 2029SOL    HW2 6987   1.096   0.937   6.524
 2030SOL     OW 6988   2.366   2.088   3.456
 2030SOL    HW1 6989   2.288   2.135   3.497
 2030SOL    HW2 6990   2.345   1.991   3.445
 2031SOL     OW 6991   5.505   5.979   2.383
 2031SOL    HW1 6992   5.491   5.885   2.416
 2031SOL    HW2 6993   5.454   6.043   2.441
 2032SOL     OW 6994   5.029   5.958   0.725
 2032SOL    HW1 6995   5.087   6.027   0.681
 2032SOL    HW2 6996   4.943   5.949   0.675
 2033SOL     OW 6997   4.688   4.669   6.482
 2033SOL    HW1 6998   4.708   4.576   6.511
 2033SOL    HW2 6999   4.772   4.723   6.483
 2034SOL     OW 7000   2.167   6.026   3.144
 2034SOL    HW1 7001   2.238   6.064   3.085
 2034SOL    HW2 7002   2.172   6.069   3.234
 2035SOL     OW 7003   0.062   1.493   2.433
 2035SOL    HW1 7004   0.011   1.454   2.356
 2035SOL    HW2 7005   0.016   1.575   2.465
 2036SOL     OW 7006   0.503   5.478   0.737
 2036SOL    HW1 7007   0.557   5.493   0.654
 2036SOL    HW2 7008   0.510   5.381   0.764
 2037SOL     OW 7009   6.889   2.456   5.786
 2037SOL    HW1 7010   6.802   2.417   5.756
 2037SOL    HW2 7011   6.886   2.556   5.775
 2038SOL     OW 7012   0.713   1.723   5.196
 2038SOL    HW1 7013   0.716   1.689   5.102
 2038SOL    HW2 7014   0.708   1.645   5.259
 2039SOL     OW 7015   6.947   5.901   3.865
 2039SOL    HW1 7016   6.885   5.943   3.932
 2039SOL    HW2 7017   6.894   5.864   3.789
 2040SOL     OW 7018   3.656   3.385   4.512
 2040SOL    HW1 7019   3.675   3.434   4.427
 2040SOL    HW2 7020   3.729   3.319   4.530
 2041SOL     OW 7021   5.679   4.630   6.396
 2041SOL    HW1 7022   5.721   4.656   6.309
 2041SOL    HW2 7023   5.656   4.712   6.448
 2042SOL     OW 7024   5.235   5.104   1.151
 2042SOL    HW1 7025   5.224   5.161   1.069
 2042SOL    HW2 7026   5.295   5.152   1.216
 2043SOL     OW 7027   6.195   5.229   2.543
 2043SOL    HW1 7028   6.158   5.138   2.555
 2043SOL    HW2 7029   6.291   5.230   2.571
 2044SOL     OW 7030   5.715   6.930   2.273
 2044SOL    HW1 7031   5.649   6.861   2.302
 2044SOL    HW2 7032   5.756   6.973   2.354
 2045SOL     OW 7033   2.072   4.634   6.052
 2045SOL    HW1 7034   1.976   4.607   6.043
 2045SOL    HW2 7035   2.100   4.687   5.972
 2046SOL     OW 7036   0.086   0.342   4.308
 2046SOL    HW1 7037   0.150   0.337   4.384
 2046SOL    HW2 7038   7.020   0.330   4.341
 2047SOL     OW 7039   4.762   1.849   1.385
 2047SOL    HW1 7040   4.790   1.773   1.443
 2047SOL    HW2 7041   4.777   1.935   1.434
 2048SOL     OW 7042   3.847   6.986   0.206
 2048SOL    HW1 7043   3.930   7.013   0.255
 2048SOL    HW2 7044   3.781   6.948   0.271
 2049SOL     OW 7045   4.739   1.823   6.643
 2049SOL    HW1 7046   4.786   1.841   6.729
 2049SOL    HW2 7047   4.805   1.816   6.568
 2050SOL     OW 7048   6.120   2.605   3.675
 2050SOL    HW1 7049   6.189   2.539   3.644
 2050SOL    HW2 7050   6.118   2.606   3.775
 2051SOL     OW 7051   0.921   4.920   7.002
 2051SOL    HW1 7052   0.863   4.914   6.921
 2051SOL    HW2 7053   0.872   4.970   0.048
 2052SOL     OW 7054   0.590   3.201   6.866
 2052SOL    HW1 7055   0.674   3.233   6.821
 2052SOL    HW2 7056   0.613   3.161   6.955
 2053SOL     OW 7057   6.124   0.415   0.487
 2053SOL    HW1 7058   6.054   0.344   0.482
 2053SOL    HW2 7059   6.201   0.382   0.542
 2054SOL     OW 7060   6.115   2.775   0.832
 2054SOL    HW1 7061   6.195   2.714   0.838
 2054SOL    HW2 7062   6.144   2.869   0.845
 2055SOL     OW 7063   5.604   2.286   3.315
 2055SOL    HW1 7064   5.630   2.197   3.277
 2055SOL    HW2 7065   5.593   2.278   3.414
 2056SOL     OW 7066   2.327   1.599   3.208
 2056SOL    HW1 7067   2.248   1.592   3.269
 2056SOL    HW2 7068   2.374   1.686   3.224
 2057SOL     OW 7069   5.516   2.053   3.834
 2057SOL    HW1 7070   5.592   2.011   3.884
 2057SOL    HW2 7071   5.449   1.983   3.810
 2058SOL     OW 7072   0.475   1.921   3.536
 2058SOL    HW1 7073   0.395   1.980   3.541
 2058SOL    HW2 7074   0.556   1.976   3.518
 2059SOL     OW 7075   2.087   0.538   6.765
 2059SOL    HW1 7076   2.016   0.497   6.707
 2059SOL    HW2 7077   2.118   0.471   6.832
 2060SOL     OW 7078   0.109   4.588   1.946
 2060SOL    HW1 7079   0.112   4.490   1.930
 2060SOL    HW2 7080   0.195   4.630   1.915
 2061SOL     OW 7081   6.464   1.156   2.182
 2061SOL    HW1 7082   6.434   1.155   2.087
 2061SOL    HW2 7083   6.407   1.095   2.236
 2062SOL     OW 7084   4.530   0.062   2.566
 2062SOL    HW1 7085   4.579   0.082   2.481
 2062SOL    HW2 7086   4.483   7.002   2.557
 2063SOL     OW 7087   1.518   1.756   5.968
 2063SOL    HW1 7088   1.426   1.793   5.960
 2063SOL    HW2 7089   1.577   1.821   6.016
 2064SOL     OW 7090   0.937   2.397   5.625
 2064SOL    HW1 7091   1.024   2.441   5.606
 2064SOL    HW2 7092   0.950   2.324   5.692
 2065SOL     OW 7093   5.858   3.269   2.170
 2065SOL    HW1 7094   5.923   3.261   2.095
 2065SOL    HW2 7095   5.865   3.360   2.211
 2066SOL     OW 7096   0.696   5.675   4.077
 2066SOL    HW1 7097   0.741   5.632   4.155
 2066SOL    HW2 7098   0.613   5.722   4.108
 2067SOL     OW 7099   6.706   6.581   0.614
 2067SOL    HW1 7100   6.691   6.677   0.588
 2067SOL    HW2 7101   6.637   6.524   0.572
 2068SOL     OW 7102   2.408   1.184   5.431
 2068SOL    HW1 7103   2.466   1.161   5.353
 2068SOL    HW2 7104   2.422   1.117   5.504
 2069SOL     OW 7105   0.804   2.724   2.514
 2069SOL    HW1 7106   0.836   2.665   2.440
 2069SOL    HW2 7107   0.758   2.669   2.583
 2070SOL     OW 7108   1.132   0.368   2.242
 2070SOL    HW1 7109   1.174   0.458   2.248
 2070SOL    HW2 7110   1.103   0.350   2.148
 2071SOL     OW 7111   0.949   6.275   3.896
 2071SOL    HW1 7112   1.038   6.230   3.905
 2071SOL    HW2 7113   0.879   6.205   3.881
 2072SOL     OW 7114   4.826   5.840   2.329
 2072SOL    HW1 7115   4.733   5.805   2.329
 2072SOL    HW2 7116   4.858   5.851   2.235
 2073SOL     OW 7117   4.046   0.234   4.610
 2073SOL    HW1 7118   3.966   0.217   4.553
 2073SOL    HW2 7119   4.030   0.196   4.702
 2074SOL     OW 7120   6.988   2.034   0.094
 2074SOL    HW1 7121   7.016   2.074   0.007
 2074SOL    HW2 7122   6.906   2.080   0.128
 2075SOL     OW 7123   4.751   2.930   1.160
 2075SOL    HW1 7124   4.722   2.878   1.241
 2075SOL    HW2 7125   4.672   2.969   1.114
 2076SOL     OW 7126   5.986   6.057   0.156
 2076SOL    HW1 7127   5.984   5.979   0.093
 2076SOL    HW2 7128   5.930   6.036   0.236
 2077SOL     OW 7129   5.217   2.304   2.115
 2077SOL    HW1 7130   5.135   2.248   2.104
 2077SOL    HW2 7131   5.289   2.272   2.053
 2078SOL     OW 7132   3.006   5.828   6.267
 2078SOL    HW1 7133   3.020   5.800   6.362
 2078SOL    HW2 7134   2.912   5.858   6.255
 2079SOL     OW 7135   5.606   0.884   3.665
 2079SOL    HW1 7136   5.640   0.796   3.633
 2079SOL    HW2 7137   5.506   0.888   3.654
 2080SOL     OW 7138   2.449   2.032   4.961
 2080SOL    HW1 7139   2.527   2.076   4.917
 2080SOL    HW2 7140   2.368   2.042   4.903
 2081SOL     OW 7141   0.974   6.291   5.628
 2081SOL    HW1 7142   1.057   6.302   5.683
 2081SOL    HW2 7143   0.911   6.367   5.646
 2082SOL     OW 7144   5.702   0.750   1.556
 2082SOL    HW1 7145   5.774   0.756   1.486
 2082SOL    HW2 7146   5.642   0.673   1.535
 2083SOL     OW 7147   4.068   5.358   6.870
 2083SOL    HW1 7148   3.976   5.341   6.836
 2083SOL    HW2 7149   4.083   5.456   6.878
 2084SOL     OW 7150   6.969   2.276   2.986
 2084SOL    HW1 7151   6.910   2.291   2.907
 2084SOL    HW2 7152   6.981   2.177   3.000
 2085SOL     OW 7153   5.050   0.963   6.425
 2085SOL    HW1 7154   5.134   0.992   6.379
 2085SOL    HW2 7155   4.972   0.973   6.363
 2086SOL     OW 7156   2.917   5.082   6.474
 2086SOL    HW1 7157   2.824   5.048   6.461
 2086SOL    HW2 7158   2.940   5.145   6.399
 2087SOL     OW 7159   4.881   6.493   2.543
 2087SOL    HW1 7160   4.855   6.396   2.544
 2087SOL    HW2 7161   4.846   6.536   2.460
 2088SOL     OW 7162   2.992   6.097   0.756
 2088SOL    HW1 7163   2.897   6.098   0.785
 2088SOL    HW2 7164   3.039   6.020   0.799
 2089SOL     OW 7165   4.903   1.663   0.168
 2089SOL    HW1 7166   4.892   1.571   0.132
 2089SOL    HW2 7167   4.983   1.706   0.127
 2090SOL     OW 7168   3.965   3.840   4.297
 2090SOL    HW1 7169   3.995   3.852   4.392
 2090SOL    HW2 7170   3.976   3.744   4.271
 2091SOL     OW 7171   0.469   5.711   0.030
 2091SOL    HW1 7172   0.544   5.774   0.052
 2091SOL    HW2 7173   0.407   5.754   6.992
 2092SOL     OW 7174   5.398   6.112   0.446
 2092SOL    HW1 7175   5.383   6.072   0.537
 2092SOL    HW2 7176   5.484   6.077   0.408
 2093SOL     OW 7177   1.574   2.045   2.010
 2093SOL    HW1 7178   1.572   2.121   2.075
 2093SOL    HW2 7179   1.544   2.078   1.920
 2094SOL     OW 7180   5.913   0.667   1.973
 2094SOL    HW1 7181   5.828   0.615   1.975
 2094SOL    HW2 7182   5.901   0.750   1.918
 2095SOL     OW 7183   4.845   6.748   3.570
 2095SOL    HW1 7184   4.912   6.816   3.599
 2095SOL    HW2 7185   4.848   6.669   3.632
 2096SOL     OW 7186   5.145   3.741   3.077
 2096SOL    HW1 7187   5.076   3.671   3.058
 2096SOL    HW2 7188   5.113   3.829   3.044
 2097SOL     OW 7189   0.697   2.792   6.389
 2097SOL    HW1 7190   0.630   2.800   6.463
 2097SOL    HW2 7191   0.769   2.728   6.417
 2098SOL     OW 7192   4.093   6.346   4.208
 2098SOL    HW1 7193   4.186   6.371   4.179
 2098SOL    HW2 7194   4.071   6.255   4.171
 2099SOL     OW 7195   2.897   0.744   4.760
 2099SOL    HW1 7196   2.802   0.719   4.744
 2099SOL    HW2 7197   2.904   0.799   4.843
 2100SOL     OW 7198   3.437   3.638   6.387
 2100SOL    HW1 7199   3.536   3.634   6.375
 2100SOL    HW2 7200   3.400   3.546   6.396
 2101SOL     OW 7201   0.573   6.703   2.440
 2101SOL    HW1 7202   0.669   6.695   2.412
 2101SOL    HW2 7203   0.540   6.795   2.421
 2102SOL     OW 7204   0.326   5.255   2.543
 2102SOL    HW1 7205   0.292   5.304   2.623
 2102SOL    HW2 7206   0.266   5.273   2.465
 2103SOL     OW 7207   2.869   4.052   0.014
 2103SOL    HW1 7208   2.947   4.002   7.004
 2103SOL    HW2 7209   2.814   3.991   0.072
 2104SOL     OW 7210   1.699   3.503   6.531
 2104SOL    HW1 7211   1.752   3.560   6.468
 2104SOL    HW2 7212   1.760   3.450   6.589
 2105SOL     OW 7213   5.540   5.152   2.841
 2105SOL    HW1 7214   5.527   5.053   2.832
 2105SOL    HW2 7215   5.473   5.199   2.783
 2106SOL     OW 7216   4.244   5.177   6.849
 2106SOL    HW1 7217   4.207   5.088   6.823
 2106SOL    HW2 7218   4.171   5.233   6.889
 2107SOL     OW 7219   4.000   3.558   5.860
 2107SOL    HW1 7220   3.912   3.578   5.815
 2107SOL    HW2 7221   4.056   3.502   5.798
 2108SOL     OW 7222   6.242   5.710   5.508
 2108SOL    HW1 7223   6.316   5.718   5.574
 2108SOL    HW2 7224   6.216   5.614   5.498
 2109SOL     OW 7225   4.764   6.856   3.290
 2109SOL    HW1 7226   4.754   6.802   3.374
 2109SOL    HW2 7227   4.690   6.832   3.227
 2110SOL     OW 7228   2.704   4.187   6.872
 2110SOL    HW1 7229   2.775   4.165   6.939
 2110SOL    HW2 7230   2.729   4.271   6.823
 2111SOL     OW 7231   0.914   2.182   6.107
 2111SOL    HW1 7232   0.954   2.100   6.067
 2111SOL    HW2 7233   0.916   2.174   6.207
 2112SOL     OW 7234   4.513   2.148   1.606
 2112SOL    HW1 7235   4.573   2.130   1.684
 2112SOL    HW2 7236   4.438   2.082   1.604
 2113SOL     OW 7237   1.528   0.033   3.428
 2113SOL    HW1 7238   1.605   0.080   3.470
 2113SOL    HW2 7239   1.451   0.031   3.492
 2114SOL     OW 7240   1.493   3.405   0.657
 2114SOL    HW1 7241   1.435   3.464   0.713
 2114SOL    HW2 7242   1.475   3.309   0.679
 2115SOL     OW 7243   1.985   4.214   3.179
 2115SOL    HW1 7244   2.028   4.256   3.099
 2115SOL    HW2 7245   1.906   4.269   3.207
 2116SOL     OW 7246   6.361   4.189   2.891
 2116SOL    HW1 7247   6.370   4.244   2.808
 2116SOL    HW2 7248   6.292   4.231   2.951
 2117SOL     OW 7249   6.926   5.144   1.883
 2117SOL    HW1 7250   6.995   5.215   1.897
 2117SOL    HW2 7251   6.895   5.147   1.788
 2118SOL     OW 7252   0.273   3.630   2.640
 2118SOL    HW1 7253   0.266   3.533   2.663
 2118SOL    HW2 7254   0.368   3.660   2.648
 2119SOL     OW 7255   2.187   5.854   1.196
 2119SOL    HW1 7256   2.147   5.831   1.108
 2119SOL    HW2 7257   2.158   5.788   1.265
 2120SOL     OW 7258   6.338   4.967   2.618
 2120SOL    HW1 7259   6.297   4.979   2.708
 2120SOL    HW2 7260   6.365   4.871   2.606
 2121SOL     OW 7261   0.777   5.205   5.213
 2121SOL    HW1 7262   0.846   5.182   5.145
 2121SOL    HW2 7263   0.690   5.224   5.168
 2122SOL     OW 7264   6.200   4.410   5.327
 2122SOL    HW1 7265   6.134   4.362   5.269
 2122SOL    HW2 7266   6.176   4.506   5.334
 2123SOL     OW 7267   0.446   4.369   2.945
 2123SOL    HW1 7268   0.484   4.280   2.969
 2123SOL    HW2 7269   0.400   4.364   2.857
 2124SOL     OW 7270   1.848   1.516   0.928
 2124SOL    HW1 7271   1.929   1.536   0.873
 2124SOL    HW2 7272   1.842   1.417   0.943
 2125SOL     OW 7273   1.524   1.112   0.142
 2125SOL    HW1 7274   1.458   1.048   0.181
 2125SOL    HW2 7275   1.610   1.107   0.193
 2126SOL     OW 7276   2.530   1.162   0.344
 2126SOL    HW1 7277   2.615   1.134   0.388
 2126SOL    HW2 7278   2.465   1.086   0.345
 2127SOL     OW 7279   6.173   2.641   4.414
 2127SOL    HW1 7280   6.077   2.626   4.394
 2127SOL    HW2 7281   6.182   2.708   4.487
 2128SOL     OW 7282   0.198   4.466   4.975
 2128SOL    HW1 7283   0.279   4.418   4.939
 2128SOL    HW2 7284   0.166   4.419   5.058
 2129SOL     OW 7285   4.771   2.723   5.748
 2129SOL    HW1 7286   4.727   2.648   5.798
 2129SOL    HW2 7287   4.860   2.692   5.714
 2130SOL     OW 7288   4.755   6.893   2.366
 2130SOL    HW1 7289   4.753   6.993   2.367
 2130SOL    HW2 7290   4.668   6.858   2.400
 2131SOL     OW 7291   0.286   1.256   0.669
 2131SOL    HW1 7292   0.229   1.210   0.737
 2131SOL    HW2 7293   0.281   1.206   0.583
 2132SOL     OW 7294   3.727   3.144   0.604
 2132SOL    HW1 7295   3.735   3.192   0.516
 2132SOL    HW2 7296   3.685   3.204   0.671
 2133SOL     OW 7297   2.799   2.600   5.462
 2133SOL    HW1 7298   2.874   2.541   5.432
 2133SOL    HW2 7299   2.748   2.634   5.383
 2134SOL     OW 7300   6.727   2.147   0.954
 2134SOL    HW1 7301   6.705   2.090   1.033
 2134SOL    HW2 7302   6.643   2.164   0.902
 2135SOL     OW 7303   6.996   4.450   4.826
 2135SOL    HW1 7304   6.972   4.362   4.786
 2135SOL    HW2 7305   0.054   4.442   4.877
 2136SOL     OW 7306   2.994   5.385   2.056
 2136SOL    HW1 7307   2.897   5.375   2.078
 2136SOL    HW2 7308   3.016   5.482   2.047
 2137SOL     OW 7309   3.255   5.263   4.703
 2137SOL    HW1 7310   3.341   5.229   4.742
 2137SOL    HW2 7311   3.273   5.347   4.651
 2138SOL     OW 7312   6.389   0.752   3.339
 2138SOL    HW1 7313   6.297   0.752   3.378
 2138SOL    HW2 7314   6.445   0.683   3.385
 2139SOL     OW 7315   3.344   0.569   4.905
 2139SOL    HW1 7316   3.349   0.669   4.905
 2139SOL    HW2 7317   3.314   0.538   4.815
 2140SOL     OW 7318   3.473   0.335   4.971
 2140SOL    HW1 7319   3.422   0.314   5.054
 2140SOL    HW2 7320   3.443   0.424   4.935
 2141SOL     OW 7321   6.269   4.000   2.560
 2141SOL    HW1 7322   6.181   3.990   2.607
 2141SOL    HW2 7323   6.342   3.967   2.620
 2142SOL     OW 7324   1.406   2.682   3.669
 2142SOL    HW1 7325   1.445   2.730   3.591
 2142SOL    HW2 7326   1.311   2.659   3.649
 2143SOL     OW 7327   1.967   5.771   0.981
 2143SOL    HW1 7328   1.972   5.672   0.970
 2143SOL    HW2 7329   2.001   5.816   0.898
 2144SOL     OW 7330   0.546   5.016   4.518
 2144SOL    HW1 7331   0.603   5.092   4.489
 2144SOL    HW2 7332   0.470   5.004   4.454
 2145SOL     OW 7333   3.930   6.758   4.321
 2145SOL    HW1 7334   3.876   6.723   4.398
 2145SOL    HW2 7335   3.899   6.715   4.236
 2146SOL     OW 7336   1.896   2.071   0.325
 2146SOL    HW1 7337   1.940   2.150   0.369
 2146SOL    HW2 7338   1.817   2.042   0.380
 2147SOL     OW 7339   6.716   2.002   5.926
 2147SOL    HW1 7340   6.638   2.004   5.862
 2147SOL    HW2 7341   6.693   1.947   6.005
 2148SOL     OW 7342   0.408   2.915   6.450
 2148SOL    HW1 7343   0.340   2.989   6.450
 2148SOL    HW2 7344   0.413   2.874   6.359
 2149SOL     OW 7345   1.304   0.974   0.536
 2149SOL    HW1 7346   1.208   1.003   0.530
 2149SOL    HW2 7347   1.363   1.055   0.537
 2150SOL     OW 7348   2.670   2.605   1.464
 2150SOL    HW1 7349   2.694   2.531   1.527
 2150SOL    HW2 7350   2.587   2.651   1.495
 2151SOL     OW 7351   0.681   6.383   6.833
 2151SOL    HW1 7352   0.665   6.367   6.736
 2151SOL    HW2 7353   0.778   6.370   6.854
 2152SOL     OW 7354   3.606   5.576   2.023
 2152SOL    HW1 7355   3.582   5.588   2.120
 2152SOL    HW2 7356   3.601   5.665   1.977
 2153SOL     OW 7357   4.724   1.031   2.546
 2153SOL    HW1 7358   4.784   1.111   2.554
 2153SOL    HW2 7359   4.630   1.059   2.562
 2154SOL     OW 7360   2.704   6.776   3.244
 2154SOL    HW1 7361   2.650   6.818   3.317
 2154SOL    HW2 7362   2.771   6.713   3.283
 2155SOL     OW 7363   4.111   0.038   1.128
 2155SOL    HW1 7364   4.102   7.020   1.217
 2155SOL    HW2 7365   4.182   0.108   1.133
 2156SOL     OW 7366   6.340   0.752   4.044
 2156SOL    HW1 7367   6.313   0.656   4.037
 2156SOL    HW2 7368   6.268   0.804   4.090
 2157SOL     OW 7369   4.252   5.963   4.188
 2157SOL    HW1 7370   4.214   6.019   4.114
 2157SOL    HW2 7371   4.181   5.946   4.257
 2158SOL     OW 7372   4.193   6.939   0.887
 2158SOL    HW1 7373   4.264   6.972   0.825
 2158SOL    HW2 7374   4.186   7.000   0.965
 2159SOL     OW 7375   1.638   0.518   5.208
 2159SOL    HW1 7376   1.647   0.598   5.148
 2159SOL    HW2 7377   1.601   0.547   5.296
 2160SOL     OW 7378   5.181   5.336   0.248
 2160SOL    HW1 7379   5.151   5.245   0.277
 2160SOL    HW2 7380   5.226   5.329   0.159
 2161SOL     OW 7381   0.506   4.017   2.529
 2161SOL    HW1 7382   0.575   4.019   2.456
 2161SOL    HW2 7383   0.543   4.061   2.611
 2162SOL     OW 7384   2.803   7.000   3.115
 2162SOL    HW1 7385   2.748   6.922   3.144
 2162SOL    HW2 7386   2.791   7.015   3.017
 2163SOL     OW 7387   1.905   3.244   0.411
 2163SOL    HW1 7388   1.928   3.330   0.366
 2163SOL    HW2 7389   1.893   3.259   0.509
 2164SOL     OW 7390   2.841   2.419   0.074
 2164SOL    HW1 7391   2.805   2.454   0.161
 2164SOL    HW2 7392   2.819   2.483   0.001
 2165SOL     OW 7393   0.672   1.569   4.653
 2165SOL    HW1 7394   0.653   1.655   4.700
 2165SOL    HW2 7395   0.716   1.588   4.565
 2166SOL     OW 7396   0.620   4.127   4.511
 2166SOL    HW1 7397   0.575   4.204   4.465
 2166SOL    HW2 7398   0.555   4.084   4.574
 2167SOL     OW 7399   1.145   2.611   3.615
 2167SOL    HW1 7400   1.069   2.675   3.597
 2167SOL    HW2 7401   1.113   2.517   3.604
 2168SOL     OW 7402   1.086   2.120   2.982
 2168SOL    HW1 7403   1.031   2.126   2.899
 2168SOL    HW2 7404   1.033   2.153   3.060
 2169SOL     OW 7405   0.583   0.751   0.934
 2169SOL    HW1 7406   0.523   0.706   0.868
 2169SOL    HW2 7407   0.584   0.699   1.019
 2170SOL     OW 7408   0.509   4.347   5.064
 2170SOL    HW1 7409   0.475   4.412   5.131
 2170SOL    HW2 7410   0.539   4.396   4.982
 2171SOL     OW 7411   0.515   5.614   1.515
 2171SOL    HW1 7412   0.570   5.550   1.568
 2171SOL    HW2 7413   0.491   5.572   1.427
 2172SOL     OW 7414   0.948   1.894   5.264
 2172SOL    HW1 7415   1.021   1.891   5.195
 2172SOL    HW2 7416   0.872   1.837   5.235
 2173SOL     OW 7417   5.832   0.179   5.372
 2173SOL    HW1 7418   5.907   0.172   5.307
 2173SOL    HW2 7419   5.839   0.105   5.440
 2174SOL     OW 7420   0.473   6.077   5.245
 2174SOL    HW1 7421   0.416   6.159   5.245
 2174SOL    HW2 7422   0.501   6.056   5.339
 2175SOL     OW 7423   1.950   3.057   5.067
 2175SOL    HW1 7424   1.932   3.045   4.970
 2175SOL    HW2 7425   2.043   3.091   5.079
 2176SOL     OW 7426   4.871   2.320   1.369
 2176SOL    HW1 7427   4.873   2.389   1.442
 2176SOL    HW2 7428   4.799   2.344   1.303
 2177SOL     OW 7429   6.570   0.480   2.868
 2177SOL    HW1 7430   6.548   0.569   2.907
 2177SOL    HW2 7431   6.570   0.410   2.940
 2178SOL     OW 7432   1.348   1.046   1.699
 2178SOL    HW1 7433   1.429   1.088   1.739
 2178SOL    HW2 7434   1.339   1.076   1.604
 2179SOL     OW 7435   2.009   4.213   6.558
 2179SOL    HW1 7436   2.002   4.253   6.650
 2179SOL    HW2 7437   2.033   4.117   6.565
 2180SOL     OW 7438   1.777   3.732   2.141
 2180SOL    HW1 7439   1.870   3.734   2.178
 2180SOL    HW2 7440   1.779   3.695   2.049
 2181SOL     OW 7441   4.810   4.954   4.565
 2181SOL    HW1 7442   4.773   5.044   4.543
 2181SOL    HW2 7443   4.823   4.946   4.664
 2182SOL     OW 7444   0.821   4.778   3.627
 2182SOL    HW1 7445   0.828   4.800   3.530
 2182SOL    HW2 7446   0.790   4.683   3.637
 2183SOL     OW 7447   2.732   3.918   0.459
 2183SOL    HW1 7448   2.724   3.997   0.399
 2183SOL    HW2 7449   2.671   3.845   0.428
 2184SOL     OW 7450   5.180   0.170   0.178
 2184SOL    HW1 7451   5.243   0.188   0.102
 2184SOL    HW2 7452   5.125   0.089   0.157
 2185SOL     OW 7453   0.910   0.982   6.495
 2185SOL    HW1 7454   0.862   0.974   6.408
 2185SOL    HW2 7455   0.882   0.908   6.556
 2186SOL     OW 7456   6.037   5.318   5.311
 2186SOL    HW1 7457   6.030   5.418   5.312
 2186SOL    HW2 7458   6.109   5.291   5.247
 2187SOL     OW 7459   0.202   5.406   2.729
 2187SOL    HW1 7460   0.284   5.436   2.777
 2187SOL    HW2 7461   0.150   5.342   2.787
 2188SOL     OW 7462   2.234   4.912   6.344
 2188SOL    HW1 7463   2.297   4.953   6.277
 2188SOL    HW2 7464   2.145   4.898   6.301
 2189SOL     OW 7465   2.448   1.207   2.440
 2189SOL    HW1 7466   2.377   1.264   2.399
 2189SOL    HW2 7467   2.406   1.133   2.492
 2190SOL     OW 7468   6.956   3.436   2.327
 2190SOL    HW1 7469   6.902   3.428   2.243
 2190SOL    HW2 7470   6.940   3.526   2.369
 2191SOL     OW 7471   2.705   1.420   5.232
 2191SOL    HW1 7472   2.713   1.425   5.332
 2191SOL    HW2 7473   2.795   1.431   5.191
 2192SOL     OW 7474   5.861   0.041   2.487
 2192SOL    HW1 7475   5.876   0.107   2.413
 2192SOL    HW2 7476   5.835   0.088   2.570
 2193SOL     OW 7477   6.191   6.661   6.307
 2193SOL    HW1 7478   6.258   6.696   6.373
 2193SOL    HW2 7479   6.125   6.733   6.287
 2194SOL     OW 7480   0.652   3.959   5.444
 2194SOL    HW1 7481   0.667   3.964   5.543
 2194SOL    HW2 7482   0.739   3.977   5.397
 2195SOL     OW 7483   6.795   5.998   5.192
 2195SOL    HW1 7484   6.880   5.984   5.141
 2195SOL    HW2 7485   6.763   5.910   5.228
 2196SOL     OW 7486   3.204   6.577   4.944
 2196SOL    HW1 7487   3.224   6.548   5.037
 2196SOL    HW2 7488   3.259   6.657   4.921
 2197SOL     OW 7489   2.662   3.035   5.917
 2197SOL    HW1 7490   2.657   3.135   5.910
 2197SOL    HW2 7491   2.736   3.001   5.859
 2198SOL     OW 7492   6.272   6.609   0.894
 2198SOL    HW1 7493   6.257   6.706   0.878
 2198SOL    HW2 7494   6.364   6.595   0.932
 2199SOL     OW 7495   4.970   0.308   4.911
 2199SOL    HW1 7496   4.928   0.223   4.879
 2199SOL    HW2 7497   4.969   0.311   5.011
 2200SOL     OW 7498   3.158   1.217   3.617
 2200SOL    HW1 7499   3.136   1.248   3.525
 2200SOL    HW2 7500   3.257   1.210   3.627
 2201SOL     OW 7501   6.220   3.135   3.273
 2201SOL    HW1 7502   6.150   3.125   3.202
 2201SOL    HW2 7503   6.242   3.045   3.310
 2202SOL     OW 7504   2.987   5.592   2.803
 2202SOL    HW1 7505   3.028   5.501   2.801
 2202SOL    HW2 7506   2.958   5.618   2.711
 2203SOL     OW 7507   2.790   3.568   1.398
 2203SOL    HW1 7508   2.753   3.479   1.428
 2203SOL    HW2 7509   2.733   3.605   1.325
 2204SOL     OW 7510   4.265   2.739   1.184
 2204SOL    HW1 7511   4.236   2.672   1.252
 2204SOL    HW2 7512   4.245   2.831   1.218
 2205SOL     OW 7513   1.315   6.951   0.270
 2205SOL    HW1 7514   1.391   6.941   0.334
 2205SOL    HW2 7515   1.235   6.986   0.319
 2206SOL     OW 7516   2.347   4.598   6.137
 2206SOL    HW1 7517   2.252   4.613   6.111
 2206SOL    HW2 7518   2.352   4.524   6.204
 2207SOL     OW 7519   3.297   5.446   0.307
 2207SOL    HW1 7520   3.252   5.529   0.339
 2207SOL    HW2 7521   3.231   5.371   0.304
 2208SOL     OW 7522   1.039   5.611   3.416
 2208SOL    HW1 7523   1.129   5.638   3.380
 2208SOL    HW2 7524   1.051   5.544   3.489
 2209SOL     OW 7525   2.362   5.697   5.032
 2209SOL    HW1 7526   2.399   5.673   4.943
 2209SOL    HW2 7527   2.434   5.739   5.088
 2210SOL     OW 7528   6.791   5.634   3.008
 2210SOL    HW1 7529   6.790   5.733   2.990
 2210SOL    HW2 7530   6.782   5.618   3.106
 2211SOL     OW 7531   6.215   0.890   0.481
 2211SOL    HW1 7532   6.223   0.880   0.580
 2211SOL    HW2 7533   6.171   0.808   0.443
 2212SOL     OW 7534   1.843   5.756   6.803
 2212SOL    HW1 7535   1.851   5.707   6.890
 2212SOL    HW2 7536   1.828   5.853   6.821
 2213SOL     OW 7537   4.673   2.533   5.170
 2213SOL    HW1 7538   4.768   2.560   5.187
 2213SOL    HW2 7539   4.637   2.588   5.094
 2214SOL     OW 7540   3.498   2.934   5.159
 2214SOL    HW1 7541   3.420   2.911   5.217
 2214SOL    HW2 7542   3.494   3.031   5.134
 2215SOL     OW 7543   5.624   1.611   6.578
 2215SOL    HW1 7544   5.714   1.651   6.563
 2215SOL    HW2 7545   5.633   1.525   6.628
 2216SOL     OW 7546   0.485   6.862   6.185
 2216SOL    HW1 7547   0.464   6.920   6.263
 2216SOL    HW2 7548   0.411   6.867   6.118
 2217SOL     OW 7549   4.127   0.489   3.525
 2217SOL    HW1 7550   4.199   0.546   3.485
 2217SOL    HW2 7551   4.149   0.393   3.510
 2218SOL     OW 7552   6.870   5.268   6.640
 2218SOL    HW1 7553   6.852   5.253   6.737
 2218SOL    HW2 7554   6.940   5.204   6.609
 2219SOL     OW 7555   6.189   2.165   1.203
 2219SOL    HW1 7556   6.113   2.218   1.242
 2219SOL    HW2 7557   6.169   2.068   1.211
 2220SOL     OW 7558   2.330   5.974   5.676
 2220SOL    HW1 7559   2.289   6.065   5.667
 2220SOL    HW2 7560   2.352   5.938   5.585
 2221SOL     OW 7561   6.832   1.735   4.630
 2221SOL    HW1 7562   6.768   1.787   4.687
 2221SOL    HW2 7563   6.903   1.796   4.595
 2222SOL     OW 7564   5.967   6.823   0.683
 2222SOL    HW1 7565   5.954   6.756   0.757
 2222SOL    HW2 7566   5.878   6.856   0.652
 2223SOL     OW 7567   6.374   1.527   6.058
 2223SOL    HW1 7568   6.394   1.606   6.116
 2223SOL    HW2 7569   6.400   1.549   5.963
 2224SOL     OW 7570   5.895   3.678   1.973
 2224SOL    HW1 7571   5.921   3.685   1.877
 2224SOL    HW2 7572   5.958   3.734   2.029
 2225SOL     OW 7573   0.281   6.826   3.245
 2225SOL    HW1 7574   0.269   6.901   3.310
 2225SOL    HW2 7575   0.195   6.778   3.233
 2226SOL     OW 7576   3.967   5.462   0.768
 2226SOL    HW1 7577   3.964   5.547   0.715
 2226SOL    HW2 7578   3.989   5.386   0.707
 2227SOL     OW 7579   4.508   2.646   1.535
 2227SOL    HW1 7580   4.553   2.666   1.622
 2227SOL    HW2 7581   4.530   2.552   1.507
 2228SOL     OW 7582   4.738   5.593   0.173
 2228SOL    HW1 7583   4.746   5.618   0.077
 2228SOL    HW2 7584   4.801   5.648   0.227
 2229SOL     OW 7585   3.747   3.661   4.633
 2229SOL    HW1 7586   3.700   3.590   4.581
 2229SOL    HW2 7587   3.776   3.624   4.721
 2230SOL     OW 7588   5.351   6.035   1.672
 2230SOL    HW1 7589   5.397   6.117   1.707
 2230SOL    HW2 7590   5.302   5.990   1.747
 2231SOL     OW 7591   0.673   0.170   6.650
 2231SOL    HW1 7592   0.669   0.084   6.599
 2231SOL    HW2 7593   0.731   0.235   6.601
 2232SOL     OW 7594   0.504   1.181   5.215
 2232SOL    HW1 7595   0.514   1.281   5.217
 2232SOL    HW2 7596   0.587   1.140   5.176
 2233SOL     OW 7597   2.710   3.076   0.918
 2233SOL    HW1 7598   2.808   3.054   0.917
 2233SOL    HW2 7599   2.686   3.121   0.832
 2234SOL     OW 7600   3.647   1.432   0.517
 2234SOL    HW1 7601   3.597   1.503   0.565
 2234SOL    HW2 7602   3.745   1.455   0.517
 2235SOL     OW 7603   2.654   0.300   2.306
 2235SOL    HW1 7604   2.599   0.229   2.350
 2235SOL    HW2 7605   2.642   0.386   2.355
 2236SOL     OW 7606   1.726   3.542   5.847
 2236SOL    HW1 7607   1.784   3.520   5.925
 2236SOL    HW2 7608   1.784   3.567   5.768
 2237SOL     OW 7609   5.893   4.418   4.962
 2237SOL    HW1 7610   5.989   4.432   4.983
 2237SOL    HW2 7611   5.884   4.351   4.888
 2238SOL     OW 7612   4.623   4.821   2.537
 2238SOL    HW1 7613   4.640   4.744   2.598
 2238SOL    HW2 7614   4.657   4.905   2.579
 2239SOL     OW 7615   4.690   5.795   3.747
 2239SOL    HW1 7616   4.731   5.862   3.810
 2239SOL    HW2 7617   4.733   5.803   3.657
 2240SOL     OW 7618   3.623   5.651   2.300
 2240SOL    HW1 7619   3.645   5.555   2.318
 2240SOL    HW2 7620   3.672   5.709   2.366
 2241SOL     OW 7621   6.681   6.687   2.076
 2241SOL    HW1 7622   6.735   6.703   1.994
 2241SOL    HW2 7623   6.741   6.657   2.150
 2242SOL     OW 7624   5.454   2.963   2.749
 2242SOL    HW1 7625   5.470   2.977   2.651
 2242SOL    HW2 7626   5.384   2.893   2.762
 2243SOL     OW 7627   2.089   0.166   0.082
 2243SOL    HW1 7628   2.059   0.071   0.075
 2243SOL    HW2 7629   2.032   0.214   0.149
 2244SOL     OW 7630   2.538   0.460   1.161
 2244SOL    HW1 7631   2.563   0.557   1.167
 2244SOL    HW2 7632   2.542   0.419   1.252
 2245SOL     OW 7633   0.019   1.193   0.979
 2245SOL    HW1 7634   0.089   1.160   0.916
 2245SOL    HW2 7635   0.063   1.248   1.051
 2246SOL     OW 7636   1.709   0.712   4.190
 2246SOL    HW1 7637   1.640   0.746   4.254
 2246SOL    HW2 7638   1.711   0.771   4.109
 2247SOL     OW 7639   3.150   3.097   2.665
 2247SOL    HW1 7640   3.221   3.164   2.641
 2247SOL    HW2 7641   3.181   3.005   2.642
 2248SOL     OW 7642   6.590   4.197   4.300
 2248SOL    HW1 7643   6.495   4.211   4.273
 2248SOL    HW2 7644   6.605   4.238   4.391
 2249SOL     OW 7645   4.477   0.098   3.820
 2249SOL    HW1 7646   4.394   0.049   3.794
 2249SOL    HW2 7647   4.469   0.194   3.795
 2250SOL     OW 7648   3.421   3.749   5.319
 2250SOL    HW1 7649   3.465   3.659   5.319
 2250SOL    HW2 7650   3.411   3.782   5.225
 2251SOL     OW 7651   5.111   0.357   6.266
 2251SOL    HW1 7652   5.125   0.456   6.264
 2251SOL    HW2 7653   5.183   0.312   6.214
 2252SOL     OW 7654   4.893   1.937   2.818
 2252SOL    HW1 7655   4.890   1.841   2.791
 2252SOL    HW2 7656   4.826   1.989   2.765
 2253SOL     OW 7657   0.402   3.797   0.205
 2253SOL    HW1 7658   0.305   3.785   0.181
 2253SOL    HW2 7659   0.454   3.718   0.173
 2254SOL     OW 7660   3.715   3.201   3.892
 2254SOL    HW1 7661   3.701   3.190   3.990
 2254SOL    HW2 7662   3.711   3.112   3.847
 2255SOL     OW 7663   3.265   3.840   5.527
 2255SOL    HW1 7664   3.312   3.788   5.456
 2255SOL    HW2 7665   3.167   3.820   5.523
 2256SOL     OW 7666   4.559   6.497   1.986
 2256SOL    HW1 7667   4.545   6.586   2.028
 2256SOL    HW2 7668   4.623   6.443   2.042
 2257SOL     OW 7669   0.912   0.948   5.004
 2257SOL    HW1 7670   0.834   0.892   4.975
 2257SOL    HW2 7671   0.975   0.960   4.927
 2258SOL     OW 7672   1.994   5.588   4.490
 2258SOL    HW1 7673   1.894   5.578   4.487
 2258SOL    HW2 7674   2.022   5.608   4.584
 2259SOL     OW 7675   5.575   3.063   5.418
 2259SOL    HW1 7676   5.487   3.102   5.389
 2259SOL    HW2 7677   5.645   3.135   5.416
 2260SOL     OW 7678   0.339   3.544   1.355
 2260SOL    HW1 7679   0.330   3.634   1.312
 2260SOL    HW2 7680   0.323   3.552   1.453
 2261SOL     OW 7681   6.811   4.991   0.571
 2261SOL    HW1 7682   6.790   5.019   0.665
 2261SOL    HW2 7683   6.796   5.069   0.509
 2262SOL     OW 7684   6.104   6.739   3.144
 2262SOL    HW1 7685   6.015   6.735   3.098
 2262SOL    HW2 7686   6.099   6.687   3.229
 2263SOL     OW 7687   2.188   6.188   0.445
 2263SOL    HW1 7688   2.254   6.132   0.396
 2263SOL    HW2 7689   2.116   6.129   0.482
 2264SOL     OW 7690   3.006   6.814   6.284
 2264SOL    HW1 7691   3.041   6.869   6.359
 2264SOL    HW2 7692   2.928   6.761   6.315
 2265SOL     OW 7693   1.917   0.610   4.493
 2265SOL    HW1 7694   1.871   0.604   4.405
 2265SOL    HW2 7695   1.971   0.694   4.498
 2266SOL     OW 7696   5.244   2.129   6.371
 2266SOL    HW1 7697   5.323   2.068   6.367
 2266SOL    HW2 7698   5.165   2.079   6.407
 2267SOL     OW 7699   4.685   2.954   5.189
 2267SOL    HW1 7700   4.721   2.936   5.281
 2267SOL    HW2 7701   4.590   2.983   5.196
 2268SOL     OW 7702   6.317   3.849   6.507
 2268SOL    HW1 7703   6.267   3.858   6.593
 2268SOL    HW2 7704   6.364   3.935   6.486
 2269SOL     OW 7705   0.745   3.151   5.426
 2269SOL    HW1 7706   0.733   3.098   5.509
 2269SOL    HW2 7707   0.729   3.092   5.346
 2270SOL     OW 7708   3.931   3.019   6.574
 2270SOL    HW1 7709   3.844   2.987   6.611
 2270SOL    HW2 7710   3.991   2.940   6.556
 2271SOL     OW 7711   5.541   4.362   0.110
 2271SOL    HW1 7712   5.517   4.408   0.024
 2271SOL    HW2 7713   5.587   4.427   0.171
 2272SOL     OW 7714   6.202   1.078   6.749
 2272SOL    HW1 7715   6.288   1.087   6.799
 2272SOL    HW2 7716   6.206   1.135   6.667
 2273SOL     OW 7717   1.376   2.350   1.897
 2273SOL    HW1 7718   1.285   2.331   1.860
 2273SOL    HW2 7719   1.373   2.432   1.953
 2274SOL     OW 7720   0.307   1.722   6.412
 2274SOL    HW1 7721   0.241   1.768   6.353
 2274SOL    HW2 7722   0.378   1.788   6.439
 2275SOL     OW 7723   5.648   6.790   3.156
 2275SOL    HW1 7724   5.746   6.785   3.136
 2275SOL    HW2 7725   5.605   6.854   3.092
 2276SOL     OW 7726   1.646   5.553   1.833
 2276SOL    HW1 7727   1.641   5.479   1.900
 2276SOL    HW2 7728   1.581   5.625   1.858
 2277SOL     OW 7729   3.655   4.201   4.768
 2277SOL    HW1 7730   3.625   4.107   4.755
 2277SOL    HW2 7731   3.585   4.264   4.734
 2278SOL     OW 7732   6.252   2.400   3.549
 2278SOL    HW1 7733   6.268   2.311   3.591
 2278SOL    HW2 7734   6.340   2.441   3.523
 2279SOL     OW 7735   6.137   0.350   5.037
 2279SOL    HW1 7736   6.093   0.439   5.042
 2279SOL    HW2 7737   6.227   0.360   4.993
 2280SOL     OW 7738   6.617   7.002   4.508
 2280SOL    HW1 7739   6.657   6.918   4.471
 2280SOL    HW2 7740   6.616   0.046   4.437
 2281SOL     OW 7741   3.170   0.656   1.667
 2281SOL    HW1 7742   3.175   0.649   1.766
 2281SOL    HW2 7743   3.112   0.734   1.642
 2282SOL     OW 7744   5.674   6.155   5.632
 2282SOL    HW1 7745   5.653   6.060   5.609
 2282SOL    HW2 7746   5.634   6.178   5.721
 2283SOL     OW 7747   1.708   0.570   2.053
 2283SOL    HW1 7748   1.638   0.637   2.029
 2283SOL    HW2 7749   1.705   0.495   1.987
 2284SOL     OW 7750   1.063   3.413   6.383
 2284SOL    HW1 7751   1.112   3.444   6.302
 2284SOL    HW2 7752   1.095   3.321   6.408
 2285SOL     OW 7753   1.200   3.326   0.013
 2285SOL    HW1 7754   1.160   3.276   0.090
 2285SOL    HW2 7755   1.289   3.286   7.017
 2286SOL     OW 7756   5.358   0.450   3.478
 2286SOL    HW1 7757   5.444   0.422   3.520
 2286SOL    HW2 7758   5.307   0.369   3.448
 2287SOL     OW 7759   2.272   0.937   3.729
 2287SOL    HW1 7760   2.297   1.033   3.740
 2287SOL    HW2 7761   2.346   0.879   3.762
 2288SOL     OW 7762   6.948   5.082   4.105
 2288SOL    HW1 7763   6.876   5.020   4.138
 2288SOL    HW2 7764   6.951   5.079   4.005
 2289SOL     OW 7765   0.100   5.415   0.398
 2289SOL    HW1 7766   0.143   5.436   0.486
 2289SOL    HW2 7767   0.158   5.450   0.324
 2290SOL     OW 7768   0.567   3.726   1.553
 2290SOL    HW1 7769   0.552   3.649   1.616
 2290SOL    HW2 7770   0.481   3.773   1.536
 2291SOL     OW 7771   2.570   2.487   5.586
 2291SOL    HW1 7772   2.481   2.503   5.544
 2291SOL    HW2 7773   2.639   2.540   5.538
 2292SOL     OW 7774   1.730   1.578   4.574
 2292SOL    HW1 7775   1.632   1.565   4.585
 2292SOL    HW2 7776   1.757   1.666   4.615
 2293SOL     OW 7777   5.189   6.012   2.133
 2293SOL    HW1 7778   5.191   6.017   2.033
 2293SOL    HW2 7779   5.254   6.077   2.172
 2294SOL     OW 7780   3.232   0.554   0.072
 2294SOL    HW1 7781   3.238   0.648   0.106
 2294SOL    HW2 7782   3.145   0.540   0.026
 2295SOL     OW 7783   0.205   1.329   2.584
 2295SOL    HW1 7784   0.142   1.395   2.543
 2295SOL    HW2 7785   0.265   1.290   2.513
 2296SOL     OW 7786   3.057   6.336   0.614
 2296SOL    HW1 7787   3.033   6.254   0.664
 2296SOL    HW2 7788   3.062   6.414   0.677
 2297SOL     OW 7789   3.840   4.353   5.259
 2297SOL    HW1 7790   3.810   4.295   5.335
 2297SOL    HW2 7791   3.850   4.297   5.176
 2298SOL     OW 7792   3.931   2.689   1.471
 2298SOL    HW1 7793   3.905   2.681   1.374
 2298SOL    HW2 7794   3.991   2.613   1.495
 2299SOL     OW 7795   5.201   0.633   6.772
 2299SOL    HW1 7796   5.260   0.577   6.830
 2299SOL    HW2 7797   5.196   0.593   6.681
 2300SOL     OW 7798   2.146   5.119   1.703
 2300SOL    HW1 7799   2.148   5.033   1.755
 2300SOL    HW2 7800   2.240   5.152   1.690
 2301SOL     OW 7801   3.019   3.151   3.414
 2301SOL    HW1 7802   3.014   3.185   3.320
 2301SOL    HW2 7803   3.082   3.074   3.419
 2302SOL     OW 7804   3.462   0.226   2.163
 2302SOL    HW1 7805   3.526   0.192   2.232
 2302SOL    HW2 7806   3.485   0.186   2.074
 2303SOL     OW 7807   1.766   3.192   6.033
 2303SOL    HW1 7808   1.840   3.189   6.101
 2303SOL    HW2 7809   1.804   3.216   5.944
 2304SOL     OW 7810   2.848   0.519   3.206
 2304SOL    HW1 7811   2.763   0.568   3.189
 2304SOL    HW2 7812   2.833   0.420   3.197
 2305SOL     OW 7813   3.586   5.882   3.286
 2305SOL    HW1 7814   3.493   5.883   3.249
 2305SOL    HW2 7815   3.608   5.973   3.321
 2306SOL     OW 7816   1.873   5.663   1.721
 2306SOL    HW1 7817   1.915   5.580   1.685
 2306SOL    HW2 7818   1.787   5.640   1.765
 2307SOL     OW 7819   2.119   4.472   2.706
 2307SOL    HW1 7820   2.200   4.530   2.694
 2307SOL    HW2 7821   2.128   4.390   2.650
 2308SOL     OW 7822   1.422   6.524   6.762
 2308SOL    HW1 7823   1.510   6.570   6.743
 2308SOL    HW2 7824   1.352   6.560   6.700
 2309SOL     OW 7825   2.917   6.824   0.121
 2309SOL    HW1 7826   2.959   6.788   0.204
 2309SOL    HW2 7827   2.916   6.924   0.124
 2310SOL     OW 7828   5.879   6.198   1.761
 2310SOL    HW1 7829   5.945   6.255   1.809
 2310SOL    HW2 7830   5.896   6.102   1.783
 2311SOL     OW 7831   2.851   6.498   2.359
 2311SOL    HW1 7832   2.799   6.501   2.445
 2311SOL    HW2 7833   2.826   6.578   2.303
 2312SOL     OW 7834   3.559   6.748   3.482
 2312SOL    HW1 7835   3.609   6.803   3.416
 2312SOL    HW2 7836   3.517   6.807   3.551
 2313SOL     OW 7837   4.690   5.591   2.255
 2313SOL    HW1 7838   4.785   5.579   2.225
 2313SOL    HW2 7839   4.685   5.582   2.354
 2314SOL     OW 7840   5.739   1.016   4.251
 2314SOL    HW1 7841   5.817   0.984   4.304
 2314SOL    HW2 7842   5.771   1.053   4.164
 2315SOL     OW 7843   5.030   3.518   4.971
 2315SOL    HW1 7844   4.940   3.535   5.010
 2315SOL    HW2 7845   5.071   3.604   4.941
 2316SOL     OW 7846   3.081   1.295   5.217
 2316SOL    HW1 7847   3.008   1.349   5.175
 2316SOL    HW2 7848   3.167   1.344   5.209
 2317SOL     OW 7849   6.730   6.167   3.568
 2317SOL    HW1 7850   6.691   6.252   3.605
 2317SOL    HW2 7851   6.687   6.089   3.614
 2318SOL     OW 7852   2.175   3.437   4.407
 2318SOL    HW1 7853   2.192   3.375   4.330
 2318SOL    HW2 7854   2.193   3.389   4.492
 2319SOL     OW 7855   3.217   5.786   5.298
 2319SOL    HW1 7856   3.305   5.740   5.306
 2319SOL    HW2 7857   3.194   5.797   5.201
 2320SOL     OW 7858   1.278   2.860   4.945
 2320SOL    HW1 7859   1.304   2.870   5.041
 2320SOL    HW2 7860   1.224   2.777   4.933
 2321SOL     OW 7861   2.012   5.587   0.225
 2321SOL    HW1 7862   1.951   5.602   0.147
 2321SOL    HW2 7863   2.104   5.569   0.192
 2322SOL     OW 7864   2.057   4.376   2.953
 2322SOL    HW1 7865   2.126   4.403   2.886
 2322SOL    HW2 7866   1.971   4.423   2.933
 2323SOL     OW 7867   3.563   4.706   1.592
 2323SOL    HW1 7868   3.590   4.677   1.685
 2323SOL    HW2 7869   3.521   4.629   1.545
 2324SOL     OW 7870   6.738   6.174   1.302
 2324SOL    HW1 7871   6.790   6.100   1.261
 2324SOL    HW2 7872   6.794   6.257   1.305
 2325SOL     OW 7873   0.418   4.449   1.155
 2325SOL    HW1 7874   0.350   4.412   1.217
 2325SOL    HW2 7875   0.498   4.480   1.207
 2326SOL     OW 7876   1.661   6.641   6.667
 2326SOL    HW1 7877   1.698   6.733   6.679
 2326SOL    HW2 7878   1.726   6.574   6.701
 2327SOL     OW 7879   0.576   1.510   2.825
 2327SOL    HW1 7880   0.623   1.422   2.814
 2327SOL    HW2 7881   0.644   1.584   2.824
 2328SOL     OW 7882   1.586   1.732   3.011
 2328SOL    HW1 7883   1.536   1.759   3.093
 2328SOL    HW2 7884   1.681   1.713   3.034
 2329SOL     OW 7885   0.876   4.505   5.279
 2329SOL    HW1 7886   0.817   4.429   5.306
 2329SOL    HW2 7887   0.969   4.488   5.312
 2330SOL     OW 7888   0.324   2.710   0.994
 2330SOL    HW1 7889   0.286   2.619   0.980
 2330SOL    HW2 7890   0.378   2.711   1.079
 2331SOL     OW 7891   3.926   5.065   0.314
 2331SOL    HW1 7892   3.976   4.988   0.354
 2331SOL    HW2 7893   3.917   5.051   0.215
 2332SOL     OW 7894   6.940   6.831   5.837
 2332SOL    HW1 7895   7.014   6.898   5.836
 2332SOL    HW2 7896   6.854   6.876   5.813
 2333SOL     OW 7897   0.196   4.349   3.677
 2333SOL    HW1 7898   0.268   4.355   3.608
 2333SOL    HW2 7899   0.236   4.327   3.766
 2334SOL     OW 7900   2.237   1.313   6.493
 2334SOL    HW1 7901   2.154   1.332   6.545
 2334SOL    HW2 7902   2.317   1.346   6.544
 2335SOL     OW 7903   5.924   0.754   4.145
 2335SOL    HW1 7904   5.868   0.762   4.063
 2335SOL    HW2 7905   5.919   0.660   4.179
 2336SOL     OW 7906   4.059   1.476   4.818
 2336SOL    HW1 7907   4.114   1.392   4.817
 2336SOL    HW2 7908   3.997   1.475   4.896
 2337SOL     OW 7909   3.875   0.411   1.279
 2337SOL    HW1 7910   3.892   0.376   1.371
 2337SOL    HW2 7911   3.842   0.336   1.221
 2338SOL     OW 7912   0.341   2.701   4.647
 2338SOL    HW1 7913   0.297   2.725   4.560
 2338SOL    HW2 7914   0.295   2.750   4.722
 2339SOL     OW 7915   3.345   4.180   3.399
 2339SOL    HW1 7916   3.337   4.156   3.303
 2339SOL    HW2 7917   3.441   4.198   3.422
 2340SOL     OW 7918   6.660   4.199   6.349
 2340SOL    HW1 7919   6.733   4.213   6.417
 2340SOL    HW2 7920   6.701   4.190   6.258
 2341SOL     OW 7921   2.928   4.768   2.274
 2341SOL    HW1 7922   2.932   4.688   2.214
 2341SOL    HW2 7923   3.019   4.786   2.312
 2342SOL     OW 7924   1.034   6.629   5.460
 2342SOL    HW1 7925   0.990   6.717   5.439
 2342SOL    HW2 7926   0.983   6.555   5.417
 2343SOL     OW 7927   2.030   4.967   2.801
 2343SOL    HW1 7928   1.975   4.902   2.748
 2343SOL    HW2 7929   2.049   5.048   2.746
 2344SOL     OW 7930   0.904   5.538   6.759
 2344SOL    HW1 7931   0.809   5.509   6.769
 2344SOL    HW2 7932   0.927   5.545   6.662
 2345SOL     OW 7933   2.592   5.696   5.221
 2345SOL    HW1 7934   2.618   5.786   5.186
 2345SOL    HW2 7935   2.671   5.652   5.263
 2346SOL     OW 7936   3.131   3.357   5.449
 2346SOL    HW1 7937   3.057   3.320   5.393
 2346SOL    HW2 7938   3.172   3.436   5.403
 2347SOL     OW 7939   3.011   2.318   1.275
 2347SOL    HW1 7940   2.913   2.312   1.294
 2347SOL    HW2 7941   3.026   2.305   1.177
 2348SOL     OW 7942   2.218   6.254   3.336
 2348SOL    HW1 7943   2.312   6.243   3.303
 2348SOL    HW2 7944   2.185   6.346   3.315
 2349SOL     OW 7945   1.290   4.946   5.975
 2349SOL    HW1 7946   1.301   4.969   5.879
 2349SOL    HW2 7947   1.378   4.952   6.021
 2350SOL     OW 7948   6.373   6.130   6.136
 2350SOL    HW1 7949   6.440   6.068   6.096
 2350SOL    HW2 7950   6.417   6.187   6.206
 2351SOL     OW 7951   2.983   5.247   4.418
 2351SOL    HW1 7952   2.954   5.197   4.499
 2351SOL    HW2 7953   2.936   5.335   4.414
 2352SOL     OW 7954   0.719   4.266   2.399
 2352SOL    HW1 7955   0.638   4.284   2.343
 2352SOL    HW2 7956   0.779   4.201   2.352
 2353SOL     OW 7957   3.349   5.469   4.551
 2353SOL    HW1 7958   3.428   5.513   4.593
 2353SOL    HW2 7959   3.380   5.394   4.492
 2354SOL     OW 7960   2.850   1.815   5.277
 2354SOL    HW1 7961   2.814   1.845   5.365
 2354SOL    HW2 7962   2.821   1.721   5.259
 2355SOL     OW 7963   2.191   6.873   6.216
 2355SOL    HW1 7964   2.225   6.803   6.153
 2355SOL    HW2 7965   2.237   6.960   6.197
 2356SOL     OW 7966   1.180   3.175   6.438
 2356SOL    HW1 7967   1.275   3.207   6.438
 2356SOL    HW2 7968   1.176   3.083   6.479
 2357SOL     OW 7969   4.087   0.046   2.969
 2357SOL    HW1 7970   4.113   0.121   2.909
 2357SOL    HW2 7971   4.155   7.000   2.964
 2358SOL     OW 7972   3.509   5.405   5.133
 2358SOL    HW1 7973   3.592   5.395   5.187
 2358SOL    HW2 7974   3.528   5.464   5.054
 2359SOL     OW 7975   6.958   1.194   4.836
 2359SOL    HW1 7976   6.985   1.265   4.901
 2359SOL    HW2 7977   0.003   1.183   4.768
 2360SOL     OW 7978   5.234   3.567   0.043
 2360SOL    HW1 7979   5.262   3.519   6.987
 2360SOL    HW2 7980   5.252   3.509   0.122
 2361SOL     OW 7981   2.679   0.696   5.650
 2361SOL    HW1 7982   2.690   0.619   5.714
 2361SOL    HW2 7983   2.657   0.661   5.559
 2362SOL     OW 7984   2.233   5.787   3.795
 2362SOL    HW1 7985   2.162   5.728   3.757
 2362SOL    HW2 7986   2.197   5.833   3.877
 2363SOL     OW 7987   4.695   2.107   4.971
 2363SOL    HW1 7988   4.702   2.123   4.872
 2363SOL    HW2 7989   4.708   2.010   4.990
 2364SOL     OW 7990   0.802   2.130   2.524
 2364SOL    HW1 7991   0.710   2.093   2.513
 2364SOL    HW2 7992   0.840   2.151   2.434
 2365SOL     OW 7993   6.379   2.458   6.460
 2365SOL    HW1 7994   6.330   2.533   6.504
 2365SOL    HW2 7995   6.347   2.371   6.497
 2366SOL     OW 7996   2.689   5.473   6.376
 2366SOL    HW1 7997   2.741   5.425   6.305
 2366SOL    HW2 7998   2.640   5.550   6.335
 2367SOL     OW 7999   2.761   3.854   0.880
 2367SOL    HW1 8000   2.678   3.845   0.824
 2367SOL    HW2 8001   2.743   3.917   0.956
 2368SOL     OW 8002   4.317   0.305   4.508
 2368SOL    HW1 8003   4.376   0.232   4.542
 2368SOL    HW2 8004   4.231   0.305   4.558
 2369SOL     OW 8005   1.898   0.962   5.184
 2369SOL    HW1 8006   1.848   0.901   5.246
 2369SOL    HW2 8007   1.996   0.951   5.199
 2370SOL     OW 8008   4.812   3.108   6.829
 2370SOL    HW1 8009   4.829   3.204   6.851
 2370SOL    HW2 8010   4.739   3.101   6.761
 2371SOL     OW 8011   0.914   6.689   1.520
 2371SOL    HW1 8012   0.831   6.741   1.496
 2371SOL    HW2 8013   0.995   6.745   1.502
 2372SOL     OW 8014   0.333   2.712   1.857
 2372SOL    HW1 8015   0.375   2.782   1.914
 2372SOL    HW2 8016   0.391   2.630   1.857
 2373SOL     OW 8017   0.995   2.394   6.610
 2373SOL    HW1 8018   0.981   2.359   6.703
 2373SOL    HW2 8019   1.079   2.354   6.572
 2374SOL     OW 8020   6.186   1.820   3.619
 2374SOL    HW1 8021   6.117   1.892   3.617
 2374SOL    HW2 8022   6.277   1.860   3.604
 2375SOL     OW 8023   3.104   6.319   4.884
 2375SOL    HW1 8024   3.030   6.366   4.932
 2375SOL    HW2 8025   3.120   6.363   4.795
 2376SOL     OW 8026   6.596   2.362   4.460
 2376SOL    HW1 8027   6.563   2.434   4.400
 2376SOL    HW2 8028   6.677   2.319   4.420
 2377SOL     OW 8029   3.883   3.994   3.483
 2377SOL    HW1 8030   3.915   4.003   3.578
 2377SOL    HW2 8031   3.961   3.979   3.423
 2378SOL     OW 8032   5.399   1.606   0.719
 2378SOL    HW1 8033   5.399   1.655   0.806
 2378SOL    HW2 8034   5.332   1.532   0.722
 2379SOL     OW 8035   6.305   1.574   0.252
 2379SOL    HW1 8036   6.321   1.580   0.350
 2379SOL    HW2 8037   6.253   1.654   0.222
 2380SOL     OW 8038   0.488   1.526   6.701
 2380SOL    HW1 8039   0.587   1.515   6.711
 2380SOL    HW2 8040   0.442   1.451   6.748
 2381SOL     OW 8041   1.898   4.798   4.499
 2381SOL    HW1 8042   1.971   4.785   4.432
 2381SOL    HW2 8043   1.886   4.895   4.517
 2382SOL     OW 8044   1.952   3.861   4.572
 2382SOL    HW1 8045   2.031   3.805   4.596
 2382SOL    HW2 8046   1.971   3.910   4.486
 2383SOL     OW 8047   4.924   6.196   0.873
 2383SOL    HW1 8048   4.896   6.204   0.969
 2383SOL    HW2 8049   4.960   6.105   0.856
 2384SOL     OW 8050   5.970   1.152   3.374
 2384SOL    HW1 8051   5.996   1.092   3.298
 2384SOL    HW2 8052   5.967   1.247   3.342
 2385SOL     OW 8053   1.023   6.953   0.312
 2385SOL    HW1 8054   0.935   6.906   0.309
 2385SOL    HW2 8055   1.022   0.003   0.249
 2386SOL     OW 8056   6.240   5.653   4.557
 2386SOL    HW1 8057   6.163   5.628   4.499
 2386SOL    HW2 8058   6.324   5.611   4.522
 2387SOL     OW 8059   1.267   2.251   3.875
 2387SOL    HW1 8060   1.340   2.217   3.817
 2387SOL    HW2 8061   1.180   2.209   3.849
 2388SOL     OW 8062   0.905   2.095   4.677
 2388SOL    HW1 8063   0.950   2.156   4.612
 2388SOL    HW2 8064   0.806   2.109   4.673
 2389SOL     OW 8065   4.791   4.152   3.177
 2389SOL    HW1 8066   4.734   4.220   3.223
 2389SOL    HW2 8067   4.829   4.089   3.245
 2390SOL     OW 8068   4.121   3.343   3.530
 2390SOL    HW1 8069   4.070   3.265   3.493
 2390SOL    HW2 8070   4.117   3.342   3.630
 2391SOL     OW 8071   4.844   3.900   5.942
 2391SOL    HW1 8072   4.855   3.964   5.867
 2391SOL    HW2 8073   4.749   3.869   5.946
 2392SOL     OW 8074   4.818   6.624   5.298
 2392SOL    HW1 8075   4.892   6.593   5.238
 2392SOL    HW2 8076   4.740   6.652   5.242
 2393SOL     OW 8077   4.876   3.607   5.799
 2393SOL    HW1 8078   4.962   3.601   5.749
 2393SOL    HW2 8079   4.821   3.682   5.762
 2394SOL     OW 8080   1.515   3.714   4.817
 2394SOL    HW1 8081   1.588   3.749   4.875
 2394SOL    HW2 8082   1.485   3.785   4.754
 2395SOL     OW 8083   5.392   2.398   5.930
 2395SOL    HW1 8084   5.472   2.416   5.872
 2395SOL    HW2 8085   5.354   2.485   5.961
 2396SOL     OW 8086   3.463   5.639   1.377
 2396SOL    HW1 8087   3.378   5.603   1.339
 2396SOL    HW2 8088   3.540   5.616   1.317
 2397SOL     OW 8089   6.582   3.856   5.710
 2397SOL    HW1 8090   6.576   3.816   5.802
 2397SOL    HW2 8091   6.637   3.797   5.651
 2398SOL     OW 8092   3.380   3.954   6.488
 2398SOL    HW1 8093   3.318   3.877   6.472
 2398SOL    HW2 8094   3.328   4.039   6.489
 2399SOL     OW 8095   4.616   1.311   1.739
 2399SOL    HW1 8096   4.516   1.301   1.733
 2399SOL    HW2 8097   4.645   1.393   1.691
 2400SOL     OW 8098   3.073   3.917   0.977
 2400SOL    HW1 8099   3.004   3.970   0.927
 2400SOL    HW2 8100   3.032   3.831   1.008
 2401SOL     OW 8101   4.996   6.290   6.630
 2401SOL    HW1 8102   5.012   6.193   6.612
 2401SOL    HW2 8103   4.903   6.303   6.666
 2402SOL     OW 8104   0.105   0.563   3.885
 2402SOL    HW1 8105   0.044   0.487   3.863
 2402SOL    HW2 8106   0.061   0.649   3.861
 2403SOL     OW 8107   2.207   2.171   6.618
 2403SOL    HW1 8108   2.128   2.181   6.678
 2403SOL    HW2 8109   2.257   2.258   6.614
 2404SOL     OW 8110   2.830   1.038   1.058
 2404SOL    HW1 8111   2.914   1.040   1.112
 2404SOL    HW2 8112   2.797   1.131   1.045
 2405SOL     OW 8113   3.579   3.515   2.510
 2405SOL    HW1 8114   3.609   3.427   2.475
 2405SOL    HW2 8115   3.644   3.548   2.579
 2406SOL     OW 8116   2.824   7.027   2.232
 2406SOL    HW1 8117   2.881   0.031   2.156
 2406SOL    HW2 8118   2.818   0.072   2.301
 2407SOL     OW 8119   5.624   1.938   2.342
 2407SOL    HW1 8120   5.529   1.962   2.321
 2407SOL    HW2 8121   5.673   1.917   2.258
 2408SOL     OW 8122   4.611   4.748   3.005
 2408SOL    HW1 8123   4.706   4.763   2.979
 2408SOL    HW2 8124   4.582   4.658   2.972
 2409SOL     OW 8125   1.921   4.678   2.273
 2409SOL    HW1 8126   1.953   4.766   2.307
 2409SOL    HW2 8127   1.921   4.678   2.173
 2410SOL     OW 8128   4.153   3.373   5.406
 2410SOL    HW1 8129   4.093   3.451   5.425
 2410SOL    HW2 8130   4.247   3.405   5.393
 2411SOL     OW 8131   4.493   5.835   4.923
 2411SOL    HW1 8132   4.548   5.752   4.935
 2411SOL    HW2 8133   4.550   5.916   4.934
 2412SOL     OW 8134   5.199   4.644   0.690
 2412SOL    HW1 8135   5.124   4.580   0.676
 2412SOL    HW2 8136   5.282   4.593   0.713
 2413SOL     OW 8137   6.030   1.548   0.631
 2413SOL    HW1 8138   6.025   1.448   0.641
 2413SOL    HW2 8139   6.017   1.591   0.721
 2414SOL     OW 8140   4.655   4.614   2.694
 2414SOL    HW1 8141   4.587   4.572   2.755
 2414SOL    HW2 8142   4.740   4.562   2.699
 2415SOL     OW 8143   6.532   0.850   2.902
 2415SOL    HW1 8144   6.614   0.830   2.848
 2415SOL    HW2 8145   6.466   0.776   2.888
 2416SOL     OW 8146   4.882   2.291   5.113
 2416SOL    HW1 8147   4.829   2.276   5.197
 2416SOL    HW2 8148   4.828   2.264   5.034
 2417SOL     OW 8149   3.807   3.513   4.886
 2417SOL    HW1 8150   3.742   3.443   4.853
 2417SOL    HW2 8151   3.857   3.477   4.965
 2418SOL     OW 8152   3.175   2.981   4.727
 2418SOL    HW1 8153   3.204   2.940   4.640
 2418SOL    HW2 8154   3.130   3.068   4.709
 2419SOL     OW 8155   6.752   0.169   4.856
 2419SOL    HW1 8156   6.832   0.171   4.795
 2419SOL    HW2 8157   6.767   0.102   4.929
 2420SOL     OW 8158   3.195   0.823   2.597
 2420SOL    HW1 8159   3.127   0.857   2.662
 2420SOL    HW2 8160   3.218   0.728   2.619
 2421SOL     OW 8161   2.041   2.558   4.822
 2421SOL    HW1 8162   2.009   2.601   4.907
 2421SOL    HW2 8163   2.012   2.462   4.821
 2422SOL     OW 8164   5.726   1.706   1.042
 2422SOL    HW1 8165   5.650   1.716   0.979
 2422SOL    HW2 8166   5.699   1.738   1.133
 2423SOL     OW 8167   1.583   5.435   2.809
 2423SOL    HW1 8168   1.633   5.518   2.782
 2423SOL    HW2 8169   1.524   5.456   2.887
 2424SOL     OW 8170   6.028   6.851   6.214
 2424SOL    HW1 8171   6.082   6.930   6.184
 2424SOL    HW2 8172   5.978   6.875   6.297
 2425SOL     OW 8173   5.565   0.612   4.107
 2425SOL    HW1 8174   5.557   0.512   4.105
 2425SOL    HW2 8175   5.615   0.639   4.189
 2426SOL     OW 8176   1.086   5.986   4.895
 2426SOL    HW1 8177   1.002   5.935   4.910
 2426SOL    HW2 8178   1.147   5.974   4.973
 2427SOL     OW 8179   5.499   5.749   5.272
 2427SOL    HW1 8180   5.473   5.843   5.293
 2427SOL    HW2 8181   5.418   5.698   5.244
 2428SOL     OW 8182   0.156   0.411   2.158
 2428SOL    HW1 8183   0.143   0.425   2.256
 2428SOL    HW2 8184   0.211   0.329   2.144
 2429SOL     OW 8185   5.785   5.718   3.077
 2429SOL    HW1 8186   5.848   5.687   3.005
 2429SOL    HW2 8187   5.723   5.786   3.039
 2430SOL     OW 8188   6.123   1.066   1.616
 2430SOL    HW1 8189   6.076   1.019   1.541
 2430SOL    HW2 8190   6.199   1.009   1.648
 2431SOL     OW 8191   3.780   0.847   1.460
 2431SOL    HW1 8192   3.780   0.832   1.362
 2431SOL    HW2 8193   3.852   0.911   1.484
 2432SOL     OW 8194   3.434   6.100   2.825
 2432SOL    HW1 8195   3.442   6.129   2.920
 2432SOL    HW2 8196   3.513   6.132   2.774
 2433SOL     OW 8197   3.860   1.829   0.431
 2433SOL    HW1 8198   3.837   1.844   0.527
 2433SOL    HW2 8199   3.898   1.913   0.392
 2434SOL     OW 8200   3.854   1.464   6.065
 2434SOL    HW1 8201   3.924   1.400   6.098
 2434SOL    HW2 8202   3.897   1.551   6.041
 2435SOL     OW 8203   4.744   5.295   5.798
 2435SOL    HW1 8204   4.787   5.276   5.709
 2435SOL    HW2 8205   4.816   5.307   5.867
 2436SOL     OW 8206   1.372   5.475   0.297
 2436SOL    HW1 8207   1.402   5.382   0.280
 2436SOL    HW2 8208   1.412   5.537   0.230
 2437SOL     OW 8209   5.417   6.591   6.904
 2437SOL    HW1 8210   5.418   6.606   6.805
 2437SOL    HW2 8211   5.416   6.493   6.923
 2438SOL     OW 8212   2.927   1.348   6.538
 2438SOL    HW1 8213   2.912   1.388   6.447
 2438SOL    HW2 8214   2.874   1.400   6.606
 2439SOL     OW 8215   0.340   4.720   6.305
 2439SOL    HW1 8216   0.437   4.698   6.291
 2439SOL    HW2 8217   0.288   4.690   6.224
 2440SOL     OW 8218   4.529   6.320   5.802
 2440SOL    HW1 8219   4.515   6.411   5.842
 2440SOL    HW2 8220   4.605   6.274   5.849
 2441SOL     OW 8221   6.997   2.189   6.886
 2441SOL    HW1 8222   6.911   2.145   6.861
 2441SOL    HW2 8223   0.046   2.140   6.844
 2442SOL     OW 8224   1.027   4.067   5.881
 2442SOL    HW1 8225   1.022   4.091   5.978
 2442SOL    HW2 8226   1.064   3.975   5.871
 2443SOL     OW 8227   3.371   4.889   6.235
 2443SOL    HW1 8228   3.294   4.884   6.172
 2443SOL    HW2 8229   3.454   4.911   6.185
 2444SOL     OW 8230   2.500   4.964   6.767
 2444SOL    HW1 8231   2.409   4.940   6.734
 2444SOL    HW2 8232   2.506   4.948   6.865
 2445SOL     OW 8233   0.055   1.572   1.026
 2445SOL    HW1 8234   0.112   1.596   0.946
 2445SOL    HW2 8235   0.045   1.653   1.084
 2446SOL     OW 8236   6.283   4.605   4.117
 2446SOL    HW1 8237   6.347   4.648   4.180
 2446SOL    HW2 8238   6.247   4.521   4.156
 2447SOL     OW 8239   2.290   3.197   6.832
 2447SOL    HW1 8240   2.379   3.215   6.875
 2447SOL    HW2 8241   2.239   3.131   6.886
 2448SOL     OW 8242   0.457   0.710   4.837
 2448SOL    HW1 8243   0.387   0.746   4.774
 2448SOL    HW2 8244   0.417   0.637   4.892
 2449SOL     OW 8245   6.950   4.077   0.621
 2449SOL    HW1 8246   0.000   4.137   0.645
 2449SOL    HW2 8247   6.936   4.080   0.522
 2450SOL     OW 8248   2.340   4.624   2.744
 2450SOL    HW1 8249   2.329   4.723   2.731
 2450SOL    HW2 8250   2.437   4.602   2.747
 2451SOL     OW 8251   1.524   6.747   4.222
 2451SOL    HW1 8252   1.522   6.720   4.125
 2451SOL    HW2 8253   1.520   6.846   4.229
 2452SOL     OW 8254   1.846   3.592   3.045
 2452SOL    HW1 8255   1.913   3.576   3.117
 2452SOL    HW2 8256   1.890   3.581   2.955
 2453SOL     OW 8257   6.203   4.747   1.285
 2453SOL    HW1 8258   6.220   4.832   1.335
 2453SOL    HW2 8259   6.267   4.677   1.315
 2454SOL     OW 8260   3.609   0.740   1.821
 2454SOL    HW1 8261   3.671   0.687   1.879
 2454SOL    HW2 8262   3.646   0.832   1.807
 2455SOL     OW 8263   5.324   5.461   0.708
 2455SOL    HW1 8264   5.419   5.472   0.679
 2455SOL    HW2 8265   5.271   5.423   0.633
 2456SOL     OW 8266   4.940   6.684   1.716
 2456SOL    HW1 8267   4.932   6.771   1.765
 2456SOL    HW2 8268   4.873   6.619   1.753
 2457SOL     OW 8269   5.646   6.654   0.368
 2457SOL    HW1 8270   5.643   6.641   0.467
 2457SOL    HW2 8271   5.678   6.747   0.348
 2458SOL     OW 8272   2.343   5.488   3.121
 2458SOL    HW1 8273   2.405   5.511   3.047
 2458SOL    HW2 8274   2.286   5.410   3.094
 2459SOL     OW 8275   1.533   0.154   0.460
 2459SOL    HW1 8276   1.532   0.054   0.459
 2459SOL    HW2 8277   1.612   0.186   0.513
 2460SOL     OW 8278   2.278   6.348   2.312
 2460SOL    HW1 8279   2.265   6.340   2.213
 2460SOL    HW2 8280   2.376   6.343   2.333
 2461SOL     OW 8281   5.653   0.512   2.166
 2461SOL    HW1 8282   5.668   0.506   2.068
 2461SOL    HW2 8283   5.580   0.449   2.193
 2462SOL     OW 8284   2.088   5.180   0.435
 2462SOL    HW1 8285   2.109   5.213   0.343
 2462SOL    HW2 8286   1.990   5.159   0.441
 2463SOL     OW 8287   7.016   1.961   3.489
 2463SOL    HW1 8288   0.028   1.869   3.497
 2463SOL    HW2 8289   6.978   1.973   3.398
 2464SOL     OW 8290   0.620   4.222   1.098
 2464SOL    HW1 8291   0.707   4.269   1.082
 2464SOL    HW2 8292   0.545   4.278   1.063
 2465SOL     OW 8293   6.658   5.853   2.066
 2465SOL    HW1 8294   6.755   5.831   2.056
 2465SOL    HW2 8295   6.604   5.788   2.013
 2466SOL     OW 8296   4.114   1.689   2.906
 2466SOL    HW1 8297   4.076   1.757   2.969
 2466SOL    HW2 8298   4.039   1.645   2.857
 2467SOL     OW 8299   6.753   0.686   6.113
 2467SOL    HW1 8300   6.709   0.774   6.127
 2467SOL    HW2 8301   6.844   0.700   6.072
 2468SOL     OW 8302   6.821   6.325   2.189
 2468SOL    HW1 8303   6.749   6.269   2.231
 2468SOL    HW2 8304   6.802   6.422   2.205
 2469SOL     OW 8305   3.009   3.789   5.521
 2469SOL    HW1 8306   2.985   3.860   5.455
 2469SOL    HW2 8307   2.930   3.728   5.534
 2470SOL     OW 8308   2.773   4.042   6.223
 2470SOL    HW1 8309   2.695   4.004   6.173
 2470SOL    HW2 8310   2.742   4.115   6.284
 2471SOL     OW 8311   0.630   6.241   2.442
 2471SOL    HW1 8312   0.540   6.231   2.398
 2471SOL    HW2 8313   0.685   6.160   2.424
 2472SOL     OW 8314   5.401   2.241   4.031
 2472SOL    HW1 8315   5.458   2.177   3.979
 2472SOL    HW2 8316   5.394   2.327   3.981
 2473SOL     OW 8317   1.130   5.307   4.442
 2473SOL    HW1 8318   1.163   5.369   4.372
 2473SOL    HW2 8319   1.128   5.214   4.406
 2474SOL     OW 8320   0.263   5.570   5.373
 2474SOL    HW1 8321   0.174   5.565   5.419
 2474SOL    HW2 8322   0.324   5.629   5.426
 2475SOL     OW 8323   4.412   2.563   0.422
 2475SOL    HW1 8324   4.407   2.539   0.325
 2475SOL    HW2 8325   4.429   2.661   0.432
 2476SOL     OW 8326   1.018   1.523   3.927
 2476SOL    HW1 8327   0.923   1.542   3.951
 2476SOL    HW2 8328   1.024   1.507   3.828
 2477SOL     OW 8329   5.568   5.861   1.597
 2477SOL    HW1 8330   5.548   5.763   1.599
 2477SOL    HW2 8331   5.483   5.912   1.615
 2478SOL     OW 8332   6.533   6.496   2.819
 2478SOL    HW1 8333   6.606   6.452   2.767
 2478SOL    HW2 8334   6.445   6.475   2.778
 2479SOL     OW 8335   0.021   2.420   0.716
 2479SOL    HW1 8336   7.015   2.338   0.763
 2479SOL    HW2 8337   0.068   2.394   0.632
 2480SOL     OW 8338   6.704   3.588   1.643
 2480SOL    HW1 8339   6.656   3.669   1.607
 2480SOL    HW2 8340   6.800   3.591   1.615
 2481SOL     OW 8341   4.213   5.665   2.006
 2481SOL    HW1 8342   4.240   5.581   2.054
 2481SOL    HW2 8343   4.256   5.744   2.051
 2482SOL     OW 8344   5.343   3.471   5.043
 2482SOL    HW1 8345   5.374   3.382   5.076
 2482SOL    HW2 8346   5.247   3.464   5.016
 2483SOL     OW 8347   1.081   1.020   6.947
 2483SOL    HW1 8348   1.048   1.020   0.015
 2483SOL    HW2 8349   1.180   1.032   6.946
 2484SOL     OW 8350   2.968   1.148   0.376
 2484SOL    HW1 8351   2.925   1.073   0.328
 2484SOL    HW2 8352   2.900   1.195   0.432
 2485SOL     OW 8353   0.036   5.159   2.679
 2485SOL    HW1 8354   0.054   5.107   2.596
 2485SOL    HW2 8355   6.998   5.233   2.659
 2486SOL     OW 8356   1.943   5.428   3.321
 2486SOL    HW1 8357   2.041   5.446   3.333
 2486SOL    HW2 8358   1.893   5.514   3.333
 2487SOL     OW 8359   4.192   0.215   0.585
 2487SOL    HW1 8360   4.094   0.208   0.605
 2487SOL    HW2 8361   4.206   0.246   0.491
 2488SOL     OW 8362   2.606   4.676   1.461
 2488SOL    HW1 8363   2.632   4.723   1.545
 2488SOL    HW2 8364   2.524   4.622   1.476
 2489SOL     OW 8365   1.514   5.427   5.187
 2489SOL    HW1 8366   1.570   5.487   5.129
 2489SOL    HW2 8367   1.420   5.462   5.190
 2490SOL     OW 8368   6.249   4.118   1.003
 2490SOL    HW1 8369   6.304   4.074   0.932
 2490SOL    HW2 8370   6.234   4.214   0.979
 2491SOL     OW 8371   2.928   4.794   3.108
 2491SOL    HW1 8372   3.015   4.768   3.149
 2491SOL    HW2 8373   2.941   4.816   3.012
 2492SOL     OW 8374   4.876   2.991   6.388
 2492SOL    HW1 8375   4.819   2.911   6.403
 2492SOL    HW2 8376   4.965   2.963   6.351
 2493SOL     OW 8377   5.873   1.764   2.999
 2493SOL    HW1 8378   5.912   1.756   2.907
 2493SOL    HW2 8379   5.915   1.696   3.059
 2494SOL     OW 8380   4.809   2.636   1.993
 2494SOL    HW1 8381   4.741   2.563   1.994
 2494SOL    HW2 8382   4.900   2.597   1.980
 2495SOL     OW 8383   5.629   1.038   5.216
 2495SOL    HW1 8384   5.572   1.113   5.181
 2495SOL    HW2 8385   5.577   0.953   5.211
 2496SOL     OW 8386   1.080   5.552   6.951
 2496SOL    HW1 8387   1.059   5.479   7.016
 2496SOL    HW2 8388   1.026   5.539   6.867
 2497SOL     OW 8389   6.783   1.843   6.644
 2497SOL    HW1 8390   6.786   1.790   6.729
 2497SOL    HW2 8391   6.689   1.847   6.610
 2498SOL     OW 8392   1.454   3.123   4.210
 2498SOL    HW1 8393   1.483   3.051   4.274
 2498SOL    HW2 8394   1.497   3.210   4.236
 2499SOL     OW 8395   5.151   0.605   4.581
 2499SOL    HW1 8396   5.081   0.669   4.612
 2499SOL    HW2 8397   5.235   0.619   4.634
 2500SOL     OW 8398   4.692   3.089   6.195
 2500SOL    HW1 8399   4.608   3.056   6.237
 2500SOL    HW2 8400   4.770   3.061   6.251
 2501SOL     OW 8401   6.142   4.744   0.429
 2501SOL    HW1 8402   6.095   4.691   0.499
 2501SOL    HW2 8403   6.076   4.776   0.362
 2502SOL     OW 8404   1.878   0.186   2.727
 2502SOL    HW1 8405   1.867   0.285   2.733
 2502SOL    HW2 8406   1.966   0.159   2.765
 2503SOL     OW 8407   3.935   5.089   5.880
 2503SOL    HW1 8408   3.933   5.178   5.836
 2503SOL    HW2 8409   3.878   5.025   5.829
 2504SOL     OW 8410   1.867   5.078   4.537
 2504SOL    HW1 8411   1.953   5.115   4.574
 2504SOL    HW2 8412   1.790   5.111   4.591
 2505SOL     OW 8413   4.727   5.632   4.319
 2505SOL    HW1 8414   4.794   5.707   4.312
 2505SOL    HW2 8415   4.700   5.604   4.227
 2506SOL     OW 8416   6.170   2.576   6.062
 2506SOL    HW1 8417   6.242   2.585   6.131
 2506SOL    HW2 8418   6.105   2.651   6.071
 2507SOL     OW 8419   6.217   5.848   0.742
 2507SOL    HW1 8420   6.245   5.882   0.652
 2507SOL    HW2 8421   6.171   5.921   0.793
 2508SOL     OW 8422   2.396   2.245   2.188
 2508SOL    HW1 8423   2.494   2.259   2.207
 2508SOL    HW2 8424   2.385   2.207   2.096
 2509SOL     OW 8425   5.440   2.495   3.261
 2509SOL    HW1 8426   5.498   2.421   3.295
 2509SOL    HW2 8427   5.367   2.457   3.205
 2510SOL     OW 8428   3.346   5.251   0.645
 2510SOL    HW1 8429   3.305   5.172   0.691
 2510SOL    HW2 8430   3.274   5.313   0.615
 2511SOL     OW 8431   1.297   0.717   5.193
 2511SOL    HW1 8432   1.329   0.650   5.126
 2511SOL    HW2 8433   1.320   0.686   5.285
 2512SOL     OW 8434   4.880   3.705   4.697
 2512SOL    HW1 8435   4.931   3.621   4.682
 2512SOL    HW2 8436   4.876   3.757   4.611
 2513SOL     OW 8437   0.574   2.747   6.642
 2513SOL    HW1 8438   0.538   2.722   6.732
 2513SOL    HW2 8439   0.521   2.823   6.605
 2514SOL     OW 8440   1.174   1.259   4.383
 2514SOL    HW1 8441   1.169   1.163   4.409
 2514SOL    HW2 8442   1.176   1.266   4.283
 2515SOL     OW 8443   0.970   5.691   0.919
 2515SOL    HW1 8444   0.906   5.754   0.965
 2515SOL    HW2 8445   1.013   5.738   0.843
 2516SOL     OW 8446   5.778   6.900   3.872
 2516SOL    HW1 8447   5.804   6.938   3.961
 2516SOL    HW2 8448   5.816   6.957   3.799
 2517SOL     OW 8449   2.204   4.837   0.265
 2517SOL    HW1 8450   2.273   4.766   0.274
 2517SOL    HW2 8451   2.130   4.819   0.330
 2518SOL     OW 8452   2.401   3.017   6.418
 2518SOL    HW1 8453   2.468   2.953   6.381
 2518SOL    HW2 8454   2.363   3.073   6.344
 2519SOL     OW 8455   4.601   4.872   4.972
 2519SOL    HW1 8456   4.592   4.774   4.952
 2519SOL    HW2 8457   4.517   4.905   5.015
 2520SOL     OW 8458   2.315   3.945   1.210
 2520SOL    HW1 8459   2.257   3.880   1.259
 2520SOL    HW2 8460   2.334   3.910   1.118
 2521SOL     OW 8461   6.134   0.291   5.754
 2521SOL    HW1 8462   6.206   0.234   5.715
 2521SOL    HW2 8463   6.133   0.379   5.706
 2522SOL     OW 8464   0.891   3.173   4.630
 2522SOL    HW1 8465   0.817   3.128   4.680
 2522SOL    HW2 8466   0.928   3.110   4.562
 2523SOL     OW 8467   0.646   3.808   0.340
 2523SOL    HW1 8468   0.584   3.850   0.407
 2523SOL    HW2 8469   0.600   3.801   0.252
 2524SOL     OW 8470   1.508   0.045   3.947
 2524SOL    HW1 8471   1.519   7.008   3.870
 2524SOL    HW2 8472   1.580   0.115   3.942
 2525SOL     OW 8473   0.905   3.568   3.533
 2525SOL    HW1 8474   0.959   3.648   3.559
 2525SOL    HW2 8475   0.848   3.591   3.454
 2526SOL     OW 8476   0.247   1.481   3.929
 2526SOL    HW1 8477   0.275   1.577   3.928
 2526SOL    HW2 8478   0.293   1.434   4.005
 2527SOL     OW 8479   5.626   6.498   4.223
 2527SOL    HW1 8480   5.712   6.495   4.274
 2527SOL    HW2 8481   5.555   6.538   4.280
 2528SOL     OW 8482   6.379   5.372   0.887
 2528SOL    HW1 8483   6.355   5.469   0.890
 2528SOL    HW2 8484   6.406   5.347   0.794
 2529SOL     OW 8485   5.210   4.631   4.595
 2529SOL    HW1 8486   5.196   4.660   4.500
 2529SOL    HW2 8487   5.185   4.706   4.657
 2530SOL     OW 8488   1.258   0.194   3.305
 2530SOL    HW1 8489   1.187   0.165   3.369
 2530SOL    HW2 8490   1.331   0.241   3.355
 2531SOL     OW 8491   4.184   1.075   6.080
 2531SOL    HW1 8492   4.210   1.162   6.037
 2531SOL    HW2 8493   4.252   1.050   6.149
 2532SOL     OW 8494   1.187   4.991   6.905
 2532SOL    HW1 8495   1.123   4.947   6.841
 2532SOL    HW2 8496   1.139   5.013   6.990
 2533SOL     OW 8497   5.707   6.671   5.779
 2533SOL    HW1 8498   5.773   6.730   5.827
 2533SOL    HW2 8499   5.624   6.662   5.835
 2534SOL     OW 8500   1.398   1.045   3.764
 2534SOL    HW1 8501   1.315   1.037   3.709
 2534SOL    HW2 8502   1.477   1.052   3.704
 2535SOL     OW 8503   2.392   1.189   3.699
 2535SOL    HW1 8504   2.454   1.140   3.639
 2535SOL    HW2 8505   2.438   1.212   3.785
 2536SOL     OW 8506   5.826   1.374   4.233
 2536SOL    HW1 8507   5.841   1.336   4.142
 2536SOL    HW2 8508   5.887   1.452   4.246
 2537SOL     OW 8509   5.321   5.501   1.477
 2537SOL    HW1 8510   5.263   5.581   1.464
 2537SOL    HW2 8511   5.289   5.449   1.557
 2538SOL     OW 8512   1.841   5.018   4.263
 2538SOL    HW1 8513   1.937   5.005   4.237
 2538SOL    HW2 8514   1.837   5.065   4.351
 2539SOL     OW 8515   3.913   0.234   5.307
 2539SOL    HW1 8516   3.815   0.234   5.329
 2539SOL    HW2 8517   3.966   0.208   5.388
 2540SOL     OW 8518   5.544   1.275   2.125
 2540SOL    HW1 8519   5.525   1.352   2.064
 2540SOL    HW2 8520   5.531   1.303   2.220
 2541SOL     OW 8521   1.506   6.246   6.240
 2541SOL    HW1 8522   1.530   6.281   6.330
 2541SOL    HW2 8523   1.471   6.153   6.249
 2542SOL     OW 8524   3.552   1.640   4.638
 2542SOL    HW1 8525   3.522   1.678   4.551
 2542SOL    HW2 8526   3.536   1.708   4.710
 2543SOL     OW 8527   0.953   1.345   3.107
 2543SOL    HW1 8528   0.854   1.329   3.101
 2543SOL    HW2 8529   0.977   1.369   3.201
 2544SOL     OW 8530   6.520   4.922   1.262
 2544SOL    HW1 8531   6.549   5.013   1.293
 2544SOL    HW2 8532   6.544   4.912   1.165
 2545SOL     OW 8533   0.581   1.891   1.250
 2545SOL    HW1 8534   0.600   1.845   1.337
 2545SOL    HW2 8535   0.606   1.832   1.174
 2546SOL     OW 8536   7.025   3.979   1.859
 2546SOL    HW1 8537   6.990   3.940   1.944
 2546SOL    HW2 8538   0.064   4.051   1.880
 2547SOL     OW 8539   5.470   3.788   0.652
 2547SOL    HW1 8540   5.522   3.863   0.694
 2547SOL    HW2 8541   5.443   3.813   0.560
 2548SOL     OW 8542   0.157   6.711   5.380
 2548SOL    HW1 8543   0.228   6.691   5.447
 2548SOL    HW2 8544   0.069   6.720   5.427
 2549SOL     OW 8545   2.573   1.741   0.894
 2549SOL    HW1 8546   2.579   1.642   0.909
 2549SOL    HW2 8547   2.507   1.760   0.821
 2550SOL     OW 8548   4.382   6.740   6.185
 2550SOL    HW1 8549   4.387   6.790   6.099
 2550SOL    HW2 8550   4.383   6.642   6.167
 2551SOL     OW 8551   2.923   5.467   6.852
 2551SOL    HW1 8552   2.941   5.381   6.804
 2551SOL    HW2 8553   2.975   5.540   6.808
 2552SOL     OW 8554   1.904   6.471   0.770
 2552SOL    HW1 8555   1.964   6.474   0.690
 2552SOL    HW2 8556   1.842   6.550   0.768
 2553SOL     OW 8557   4.362   1.502   6.836
 2553SOL    HW1 8558   4.354   1.417   6.784
 2553SOL    HW2 8559   4.434   1.559   6.796
 2554SOL     OW 8560   1.818   5.789   1.230
 2554SOL    HW1 8561   1.889   5.741   1.282
 2554SOL    HW2 8562   1.848   5.799   1.135
 2555SOL     OW 8563   6.061   6.128   5.108
 2555SOL    HW1 8564   6.066   6.033   5.080
 2555SOL    HW2 8565   6.151   6.171   5.098
 2556SOL     OW 8566   3.817   6.725   1.336
 2556SOL    HW1 8567   3.848   6.814   1.303
 2556SOL    HW2 8568   3.802   6.664   1.258
 2557SOL     OW 8569   4.067   0.484   6.938
 2557SOL    HW1 8570   4.108   0.554   6.880
 2557SOL    HW2 8571   3.982   0.519   6.977
 2558SOL     OW 8572   5.777   4.364   6.979
 2558SOL    HW1 8573   5.869   4.328   6.962
 2558SOL    HW2 8574   5.719   4.291   7.014
 2559SOL     OW 8575   0.835   3.531   3.952
 2559SOL    HW1 8576   0.863   3.439   3.982
 2559SOL    HW2 8577   0.812   3.586   4.032
 2560SOL     OW 8578   4.848   2.320   3.175
 2560SOL    HW1 8579   4.882   2.248   3.114
 2560SOL    HW2 8580   4.827   2.402   3.122
 2561SOL     OW 8581   3.596   0.640   4.246
 2561SOL    HW1 8582   3.631   0.698   4.172
 2561SOL    HW2 8583   3.670   0.620   4.310
 2562SOL     OW 8584   3.002   6.956   3.301
 2562SOL    HW1 8585   3.068   0.002   3.286
 2562SOL    HW2 8586   2.920   6.973   3.246
 2563SOL     OW 8587   3.365   1.317   0.185
 2563SOL    HW1 8588   3.394   1.371   0.264
 2563SOL    HW2 8589   3.353   1.376   0.106
 2564SOL     OW 8590   1.628   1.149   0.483
 2564SOL    HW1 8591   1.547   1.184   0.437
 2564SOL    HW2 8592   1.679   1.224   0.523
 2565SOL     OW 8593   1.117   2.039   6.626
 2565SOL    HW1 8594   1.138   1.961   6.566
 2565SOL    HW2 8595   1.030   2.022   6.672
 2566SOL     OW 8596   2.784   0.999   0.778
 2566SOL    HW1 8597   2.851   0.924   0.786
 2566SOL    HW2 8598   2.759   1.031   0.869
 2567SOL     OW 8599   1.578   0.058   6.826
 2567SOL    HW1 8600   1.588   0.145   6.873
 2567SOL    HW2 8601   1.492   0.057   6.776
 2568SOL     OW 8602   2.721   6.393   1.148
 2568SOL    HW1 8603   2.663   6.416   1.070
 2568SOL    HW2 8604   2.665   6.370   1.227
 2569SOL     OW 8605   1.044   1.262   0.623
 2569SOL    HW1 8606   0.998   1.193   0.679
 2569SOL    HW2 8607   1.073   1.338   0.680
 2570SOL     OW 8608   5.137   6.158   0.069
 2570SOL    HW1 8609   5.158   6.077   0.122
 2570SOL    HW2 8610   5.152   6.240   0.125
 2571SOL     OW 8611   4.137   3.624   4.641
 2571SOL    HW1 8612   4.146   3.544   4.580
 2571SOL    HW2 8613   4.120   3.705   4.586
 2572SOL     OW 8614   1.948   6.103   1.471
 2572SOL    HW1 8615   1.945   6.189   1.521
 2572SOL    HW2 8616   2.022   6.046   1.507
 2573SOL     OW 8617   6.683   2.280   3.859
 2573SOL    HW1 8618   6.718   2.306   3.769
 2573SOL    HW2 8619   6.667   2.181   3.862
 2574SOL     OW 8620   6.809   4.005   1.501
 2574SOL    HW1 8621   6.751   4.080   1.535
 2574SOL    HW2 8622   6.801   3.999   1.402
 2575SOL     OW 8623   5.858   3.959   0.769
 2575SOL    HW1 8624   5.869   3.902   0.687
 2575SOL    HW2 8625   5.761   3.977   0.785
 2576SOL     OW 8626   2.031   6.637   3.042
 2576SOL    HW1 8627   2.065   6.627   2.948
 2576SOL    HW2 8628   1.931   6.642   3.041
 2577SOL     OW 8629   2.462   6.743   3.001
 2577SOL    HW1 8630   2.550   6.739   3.048
 2577SOL    HW2 8631   2.396   6.792   3.058
 2578SOL     OW 8632   5.166   2.923   4.133
 2578SOL    HW1 8633   5.167   3.023   4.135
 2578SOL    HW2 8634   5.230   2.890   4.064
 2579SOL     OW 8635   0.541   2.289   6.803
 2579SOL    HW1 8636   0.623   2.321   6.851
 2579SOL    HW2 8637   0.540   2.325   6.710
 2580SOL     OW 8638   1.968   2.400   6.363
 2580SOL    HW1 8639   1.907   2.467   6.321
 2580SOL    HW2 8640   1.985   2.425   6.458
 2581SOL     OW 8641   5.287   5.803   2.477
 2581SOL    HW1 8642   5.215   5.871   2.460
 2581SOL    HW2 8643   5.314   5.806   2.573
 2582SOL     OW 8644   0.984   5.662   2.921
 2582SOL    HW1 8645   0.948   5.617   2.839
 2582SOL    HW2 8646   1.031   5.746   2.895
 2583SOL     OW 8647   0.782   0.031   0.782
 2583SOL    HW1 8648   0.739   6.997   0.848
 2583SOL    HW2 8649   0.881   0.027   0.791
 2584SOL     OW 8650   3.423   6.203   0.962
 2584SOL    HW1 8651   3.370   6.285   0.983
 2584SOL    HW2 8652   3.426   6.144   1.043
 2585SOL     OW 8653   3.016   0.277   1.086
 2585SOL    HW1 8654   3.066   0.355   1.048
 2585SOL    HW2 8655   2.931   0.263   1.034
 2586SOL     OW 8656   6.034   1.569   4.459
 2586SOL    HW1 8657   6.105   1.503   4.435
 2586SOL    HW2 8658   6.007   1.620   4.377
 2587SOL     OW 8659   5.964   6.486   4.118
 2587SOL    HW1 8660   5.910   6.493   4.202
 2587SOL    HW2 8661   5.918   6.425   4.053
 2588SOL     OW 8662   5.704   0.485   1.894
 2588SOL    HW1 8663   5.660   0.397   1.876
 2588SOL    HW2 8664   5.651   0.558   1.852
 2589SOL     OW 8665   6.368   0.016   5.732
 2589SOL    HW1 8666   6.304   0.045   5.661
 2589SOL    HW2 8667   6.452   7.009   5.691
 2590SOL     OW 8668   4.130   6.496   2.952
 2590SOL    HW1 8669   4.159   6.408   2.915
 2590SOL    HW2 8670   4.210   6.548   2.982
 2591SOL     OW 8671   5.195   6.110   1.898
 2591SOL    HW1 8672   5.268   6.177   1.881
 2591SOL    HW2 8673   5.110   6.143   1.857
 2592SOL     OW 8674   3.158   5.698   1.646
 2592SOL    HW1 8675   3.183   5.615   1.595
 2592SOL    HW2 8676   3.223   5.771   1.626
 2593SOL     OW 8677   3.852   6.205   2.893
 2593SOL    HW1 8678   3.858   6.296   2.935
 2593SOL    HW2 8679   3.825   6.139   2.963
 2594SOL     OW 8680   6.967   0.212   6.922
 2594SOL    HW1 8681   7.000   0.299   6.959
 2594SOL    HW2 8682   6.869   0.204   6.940
 2595SOL     OW 8683   6.509   3.556   4.893
 2595SOL    HW1 8684   6.569   3.605   4.957
 2595SOL    HW2 8685   6.507   3.604   4.806
 2596SOL     OW 8686   3.861   2.100   2.124
 2596SOL    HW1 8687   3.845   2.076   2.220
 2596SOL    HW2 8688   3.776   2.137   2.085
 2597SOL     OW 8689   2.903   3.269   1.197
 2597SOL    HW1 8690   2.969   3.298   1.267
 2597SOL    HW2 8691   2.854   3.349   1.163
 2598SOL     OW 8692   6.767   2.720   3.472
 2598SOL    HW1 8693   6.771   2.740   3.374
 2598SOL    HW2 8694   6.796   2.801   3.524
 2599SOL     OW 8695   4.130   5.754   0.090
 2599SOL    HW1 8696   4.114   5.849   0.117
 2599SOL    HW2 8697   4.217   5.723   0.127
 2600SOL     OW 8698   5.878   3.664   4.170
 2600SOL    HW1 8699   5.887   3.565   4.160
 2600SOL    HW2 8700   5.807   3.685   4.237
 2601SOL     OW 8701   3.464   3.424   6.088
 2601SOL    HW1 8702   3.561   3.446   6.090
 2601SOL    HW2 8703   3.450   3.331   6.123
 2602SOL     OW 8704   0.325   4.783   4.776
 2602SOL    HW1 8705   0.304   4.880   4.761
 2602SOL    HW2 8706   0.256   4.727   4.731
 2603SOL     OW 8707   2.378   2.289   0.864
 2603SOL    HW1 8708   2.341   2.310   0.955
 2603SOL    HW2 8709   2.476   2.310   0.863
 2604SOL     OW 8710   5.330   0.358   1.399
 2604SOL    HW1 8711   5.355   0.346   1.496
 2604SOL    HW2 8712   5.240   0.318   1.383
 2605SOL     OW 8713   4.141   4.770   4.153
 2605SOL    HW1 8714   4.228   4.722   4.166
 2605SOL    HW2 8715   4.100   4.790   4.242
 2606SOL     OW 8716   6.057   4.041   1.257
 2606SOL    HW1 8717   6.136   4.012   1.203
 2606SOL    HW2 8718   5.993   3.964   1.267
 2607SOL     OW 8719   1.228   0.844   2.837
 2607SOL    HW1 8720   1.232   0.814   2.932
 2607SOL    HW2 8721   1.240   0.764   2.777
 2608SOL     OW 8722   5.369   0.589   1.271
 2608SOL    HW1 8723   5.354   0.500   1.314
 2608SOL    HW2 8724   5.298   0.653   1.300
 2609SOL     OW 8725   0.654   1.921   2.865
 2609SOL    HW1 8726   0.619   1.870   2.944
 2609SOL    HW2 8727   0.605   2.007   2.858
 2610SOL     OW 8728   6.710   5.651   4.965
 2610SOL    HW1 8729   6.699   5.556   4.935
 2610SOL    HW2 8730   6.757   5.653   5.053
 2611SOL     OW 8731   5.257   6.463   1.215
 2611SOL    HW1 8732   5.180   6.491   1.272
 2611SOL    HW2 8733   5.277   6.535   1.148
 2612SOL     OW 8734   4.899   6.595   3.868
 2612SOL    HW1 8735   4.977   6.537   3.894
 2612SOL    HW2 8736   4.916   6.688   3.898
 2613SOL     OW 8737   3.685   0.126   2.298
 2613SOL    HW1 8738   3.748   0.139   2.222
 2613SOL    HW2 8739   3.700   0.036   2.339
 2614SOL     OW 8740   6.113   6.730   5.787
 2614SOL    HW1 8741   6.022   6.742   5.827
 2614SOL    HW2 8742   6.180   6.715   5.860
 2615SOL     OW 8743   5.295   5.458   3.098
 2615SOL    HW1 8744   5.259   5.488   3.010
 2615SOL    HW2 8745   5.369   5.392   3.083
 2616SOL     OW 8746   3.837   2.943   2.757
 2616SOL    HW1 8747   3.774   2.914   2.684
 2616SOL    HW2 8748   3.895   3.017   2.722
 2617SOL     OW 8749   3.839   5.586   0.965
 2617SOL    HW1 8750   3.892   5.529   0.903
 2617SOL    HW2 8751   3.877   5.679   0.966
 2618SOL     OW 8752   0.032   0.373   1.456
 2618SOL    HW1 8753   0.048   0.278   1.427
 2618SOL    HW2 8754   0.058   0.434   1.382
 2619SOL     OW 8755   4.116   1.603   1.955
 2619SOL    HW1 8756   4.086   1.695   1.929
 2619SOL    HW2 8757   4.196   1.610   2.014
 2620SOL     OW 8758   1.160   4.604   3.559
 2620SOL    HW1 8759   1.165   4.691   3.510
 2620SOL    HW2 8760   1.182   4.530   3.496
 2621SOL     OW 8761   0.588   5.831   3.792
 2621SOL    HW1 8762   0.655   5.876   3.732
 2621SOL    HW2 8763   0.624   5.828   3.885
 2622SOL     OW 8764   1.745   3.689   6.267
 2622SOL    HW1 8765   1.762   3.732   6.179
 2622SOL    HW2 8766   1.829   3.646   6.301
 2623SOL     OW 8767   3.583   1.230   4.814
 2623SOL    HW1 8768   3.626   1.311   4.773
 2623SOL    HW2 8769   3.504   1.203   4.760
 2624SOL     OW 8770   5.953   2.538   3.106
 2624SOL    HW1 8771   5.882   2.468   3.115
 2624SOL    HW2 8772   5.943   2.584   3.018
 2625SOL     OW 8773   2.614   2.702   5.887
 2625SOL    HW1 8774   2.586   2.606   5.888
 2625SOL    HW2 8775   2.572   2.748   5.809
 2626SOL     OW 8776   1.549   6.423   3.705
 2626SOL    HW1 8777   1.484   6.466   3.767
 2626SOL    HW2 8778   1.554   6.325   3.724
 2627SOL     OW 8779   0.324   0.596   4.368
 2627SOL    HW1 8780   0.269   0.606   4.286
 2627SOL    HW2 8781   0.282   0.528   4.429
 2628SOL     OW 8782   3.734   6.547   6.897
 2628SOL    HW1 8783   3.696   6.560   6.988
 2628SOL    HW2 8784   3.671   6.492   6.842
 2629SOL     OW 8785   3.659   4.221   1.465
 2629SOL    HW1 8786   3.567   4.201   1.498
 2629SOL    HW2 8787   3.691   4.146   1.408
 2630SOL     OW 8788   3.498   1.568   2.418
 2630SOL    HW1 8789   3.447   1.604   2.340
 2630SOL    HW2 8790   3.511   1.641   2.485
 2631SOL     OW 8791   4.875   6.743   4.497
 2631SOL    HW1 8792   4.909   6.711   4.409
 2631SOL    HW2 8793   4.824   6.669   4.542
 2632SOL     OW 8794   3.291   1.889   7.004
 2632SOL    HW1 8795   3.196   1.915   7.017
 2632SOL    HW2 8796   3.308   1.869   6.907
 2633SOL     OW 8797   6.144   2.358   6.704
 2633SOL    HW1 8798   6.139   2.438   6.645
 2633SOL    HW2 8799   6.171   2.278   6.650
 2634SOL     OW 8800   2.313   4.244   1.639
 2634SOL    HW1 8801   2.248   4.318   1.621
 2634SOL    HW2 8802   2.290   4.165   1.581
 2635SOL     OW 8803   5.611   5.653   4.424
 2635SOL    HW1 8804   5.633   5.615   4.334
 2635SOL    HW2 8805   5.512   5.653   4.437
 2636SOL     OW 8806   5.595   6.903   5.602
 2636SOL    HW1 8807   5.501   6.896   5.634
 2636SOL    HW2 8808   5.627   6.812   5.574
 2637SOL     OW 8809   5.464   6.953   3.564
 2637SOL    HW1 8810   5.486   6.869   3.614
 2637SOL    HW2 8811   5.415   6.930   3.480
 2638SOL     OW 8812   5.168   6.209   1.305
 2638SOL    HW1 8813   5.202   6.292   1.261
 2638SOL    HW2 8814   5.095   6.171   1.249
 2639SOL     OW 8815   5.697   6.761   1.818
 2639SOL    HW1 8816   5.614   6.745   1.765
 2639SOL    HW2 8817   5.769   6.796   1.757
 2640SOL     OW 8818   0.375   6.339   5.168
 2640SOL    HW1 8819   0.467   6.376   5.182
 2640SOL    HW2 8820   0.315   6.412   5.136
 2641SOL     OW 8821   4.955   3.955   6.987
 2641SOL    HW1 8822   4.900   3.889   0.010
 2641SOL    HW2 8823   5.048   3.919   6.977
 2642SOL     OW 8824   4.765   0.370   4.216
 2642SOL    HW1 8825   4.679   0.397   4.259
 2642SOL    HW2 8826   4.747   0.338   4.123
 2643SOL     OW 8827   0.245   6.377   3.112
 2643SOL    HW1 8828   0.197   6.304   3.159
 2643SOL    HW2 8829   0.184   6.420   3.045
 2644SOL     OW 8830   1.267   5.016   5.660
 2644SOL    HW1 8831   1.198   4.944   5.660
 2644SOL    HW2 8832   1.250   5.079   5.584
 2645SOL     OW 8833   5.198   6.339   5.708
 2645SOL    HW1 8834   5.245   6.271   5.764
 2645SOL    HW2 8835   5.266   6.390   5.655
 2646SOL     OW 8836   0.007   0.335   6.225
 2646SOL    HW1 8837   6.957   0.384   6.183
 2646SOL    HW2 8838   6.998   0.265   6.287
 2647SOL     OW 8839   5.094   1.660   0.800
 2647SOL    HW1 8840   5.136   1.574   0.830
 2647SOL    HW2 8841   4.996   1.646   0.788
 2648SOL     OW 8842   6.570   0.156   2.792
 2648SOL    HW1 8843   6.535   0.124   2.880
 2648SOL    HW2 8844   6.550   0.089   2.721
 2649SOL     OW 8845   3.475   1.332   5.933
 2649SOL    HW1 8846   3.541   1.274   5.886
 2649SOL    HW2 8847   3.391   1.338   5.878
 2650SOL     OW 8848   0.510   5.345   3.675
 2650SOL    HW1 8849   0.443   5.308   3.739
 2650SOL    HW2 8850   0.498   5.444   3.667
 2651SOL     OW 8851   0.265   1.314   1.533
 2651SOL    HW1 8852   0.197   1.386   1.517
 2651SOL    HW2 8853   0.351   1.355   1.562
 2652SOL     OW 8854   3.216   3.399   3.260
 2652SOL    HW1 8855   3.143   3.378   3.194
 2652SOL    HW2 8856   3.230   3.498   3.265
 2653SOL     OW 8857   5.428   6.688   5.873
 2653SOL    HW1 8858   5.445   6.702   5.970
 2653SOL    HW2 8859   5.357   6.752   5.842
 2654SOL     OW 8860   5.216   2.172   5.873
 2654SOL    HW1 8861   5.255   2.088   5.910
 2654SOL    HW2 8862   5.262   2.251   5.914
 2655SOL     OW 8863   4.132   6.411   4.617
 2655SOL    HW1 8864   4.212   6.460   4.582
 2655SOL    HW2 8865   4.057   6.420   4.552
 2656SOL     OW 8866   5.503   4.424   3.982
 2656SOL    HW1 8867   5.436   4.360   4.020
 2656SOL    HW2 8868   5.459   4.511   3.963
 2657SOL     OW 8869   1.876   4.571   6.937
 2657SOL    HW1 8870   1.959   4.528   6.974
 2657SOL    HW2 8871   1.856   4.532   6.848
 2658SOL     OW 8872   6.086   4.310   6.093
 2658SOL    HW1 8873   6.100   4.409   6.103
 2658SOL    HW2 8874   6.057   4.289   6.000
 2659SOL     OW 8875   6.666   2.507   4.690
 2659SOL    HW1 8876   6.645   2.459   4.605
 2659SOL    HW2 8877   6.580   2.529   4.737
 2660SOL     OW 8878   6.396   2.780   2.206
 2660SOL    HW1 8879   6.377   2.751   2.299
 2660SOL    HW2 8880   6.322   2.838   2.173
 2661SOL     OW 8881   3.189   5.627   1.250
 2661SOL    HW1 8882   3.094   5.619   1.278
 2661SOL    HW2 8883   3.201   5.586   1.160
 2662SOL     OW 8884   4.463   6.257   4.645
 2662SOL    HW1 8885   4.552   6.213   4.633
 2662SOL    HW2 8886   4.431   6.294   4.558
 2663SOL     OW 8887   1.795   5.128   1.460
 2663SOL    HW1 8888   1.746   5.101   1.543
 2663SOL    HW2 8889   1.729   5.136   1.385
 2664SOL     OW 8890   3.833   3.987   2.941
 2664SOL    HW1 8891   3.763   4.016   2.877
 2664SOL    HW2 8892   3.821   4.034   3.028
 2665SOL     OW 8893   3.593   1.840   4.842
 2665SOL    HW1 8894   3.622   1.935   4.834
 2665SOL    HW2 8895   3.668   1.785   4.879
 2666SOL     OW 8896   4.815   4.582   0.946
 2666SOL    HW1 8897   4.902   4.533   0.945
 2666SOL    HW2 8898   4.792   4.609   0.852
 2667SOL     OW 8899   2.111   6.068   5.443
 2667SOL    HW1 8900   2.021   6.086   5.404
 2667SOL    HW2 8901   2.114   5.975   5.478
 2668SOL     OW 8902   7.011   3.447   4.590
 2668SOL    HW1 8903   0.002   3.383   4.665
 2668SOL    HW2 8904   0.062   3.447   4.527
 2669SOL     OW 8905   3.980   5.214   5.560
 2669SOL    HW1 8906   3.981   5.285   5.630
 2669SOL    HW2 8907   3.906   5.150   5.578
 2670SOL     OW 8908   0.080   0.875   6.832
 2670SOL    HW1 8909   0.014   0.905   6.763
 2670SOL    HW2 8910   0.169   0.860   6.789
 2671SOL     OW 8911   2.450   4.110   6.593
 2671SOL    HW1 8912   2.495   4.098   6.682
 2671SOL    HW2 8913   2.486   4.042   6.529
 2672SOL     OW 8914   1.950   5.429   0.533
 2672SOL    HW1 8915   2.024   5.387   0.586
 2672SOL    HW2 8916   1.979   5.440   0.438
 2673SOL     OW 8917   4.090   2.249   2.952
 2673SOL    HW1 8918   4.005   2.218   2.994
 2673SOL    HW2 8919   4.162   2.255   3.021
 2674SOL     OW 8920   0.903   4.969   4.607
 2674SOL    HW1 8921   0.867   5.050   4.562
 2674SOL    HW2 8922   0.828   4.914   4.644
 2675SOL     OW 8923   0.367   4.316   5.811
 2675SOL    HW1 8924   0.328   4.231   5.847
 2675SOL    HW2 8925   0.466   4.305   5.800
 2676SOL     OW 8926   5.078   1.892   2.463
 2676SOL    HW1 8927   5.149   1.893   2.534
 2676SOL    HW2 8928   5.078   1.803   2.417
 2677SOL     OW 8929   1.599   4.751   1.805
 2677SOL    HW1 8930   1.618   4.756   1.903
 2677SOL    HW2 8931   1.637   4.667   1.767
 2678SOL     OW 8932   1.460   4.945   6.946
 2678SOL    HW1 8933   1.362   4.966   6.938
 2678SOL    HW2 8934   1.495   4.916   6.857
 2679SOL     OW 8935   3.526   5.340   0.970
 2679SOL    HW1 8936   3.604   5.353   1.032
 2679SOL    HW2 8937   3.458   5.281   1.014
 2680SOL     OW 8938   1.702   1.962   0.495
 2680SOL    HW1 8939   1.693   1.953   0.594
 2680SOL    HW2 8940   1.622   1.922   0.450
 2681SOL     OW 8941   1.192   3.131   4.181
 2681SOL    HW1 8942   1.289   3.151   4.191
 2681SOL    HW2 8943   1.139   3.215   4.195
 2682SOL     OW 8944   5.438   2.852   2.090
 2682SOL    HW1 8945   5.371   2.808   2.148
 2682SOL    HW2 8946   5.442   2.805   2.001
 2683SOL     OW 8947   0.404   5.091   1.024
 2683SOL    HW1 8948   0.454   5.008   1.049
 2683SOL    HW2 8949   0.455   5.171   1.055
 2684SOL     OW 8950   4.293   6.292   2.810
 2684SOL    HW1 8951   4.248   6.347   2.739
 2684SOL    HW2 8952   4.252   6.201   2.812
 2685SOL     OW 8953   5.201   6.188   4.634
 2685SOL    HW1 8954   5.243   6.100   4.659
 2685SOL    HW2 8955   5.221   6.255   4.705
 2686SOL     OW 8956   2.369   2.335   4.311
 2686SOL    HW1 8957   2.336   2.273   4.383
 2686SOL    HW2 8958   2.465   2.317   4.292
 2687SOL     OW 8959   3.990   4.804   2.526
 2687SOL    HW1 8960   4.029   4.797   2.618
 2687SOL    HW2 8961   3.902   4.851   2.530
 2688SOL     OW 8962   4.181   5.334   5.919
 2688SOL    HW1 8963   4.244   5.404   5.951
 2688SOL    HW2 8964   4.226   5.276   5.851
 2689SOL     OW 8965   1.309   1.975   3.632
 2689SOL    HW1 8966   1.374   1.903   3.607
 2689SOL    HW2 8967   1.339   2.019   3.717
 2690SOL     OW 8968   4.018   3.177   3.805
 2690SOL    HW1 8969   3.921   3.177   3.780
 2690SOL    HW2 8970   4.070   3.127   3.736
 2691SOL     OW 8971   1.273   5.464   2.318
 2691SOL    HW1 8972   1.267   5.542   2.380
 2691SOL    HW2 8973   1.182   5.444   2.280
 2692SOL     OW 8974   6.986   5.142   3.830
 2692SOL    HW1 8975   6.924   5.145   3.751
 2692SOL    HW2 8976   0.034   5.079   3.811
 2693SOL     OW 8977   2.116   3.830   3.595
 2693SOL    HW1 8978   2.061   3.818   3.678
 2693SOL    HW2 8979   2.199   3.774   3.602
 2694SOL     OW 8980   2.846   0.012   2.693
 2694SOL    HW1 8981   2.913   0.077   2.659
 2694SOL    HW2 8982   2.787   0.055   2.761
 2695SOL     OW 8983   4.665   2.274   2.211
 2695SOL    HW1 8984   4.618   2.358   2.239
 2695SOL    HW2 8985   4.615   2.195   2.246
 2696SOL     OW 8986   3.882   3.848   5.548
 2696SOL    HW1 8987   3.911   3.930   5.598
 2696SOL    HW2 8988   3.802   3.870   5.492
 2697SOL     OW 8989   4.275   2.292   3.936
 2697SOL    HW1 8990   4.290   2.349   4.017
 2697SOL    HW2 8991   4.250   2.199   3.964
 2698SOL     OW 8992   0.992   4.690   1.305
 2698SOL    HW1 8993   1.029   4.711   1.214
 2698SOL    HW2 8994   1.028   4.602   1.336
 2699SOL     OW 8995   3.706   5.304   0.757
 2699SOL    HW1 8996   3.641   5.297   0.832
 2699SOL    HW2 8997   3.772   5.376   0.777
 2700SOL     OW 8998   2.095   3.447   2.659
 2700SOL    HW1 8999   2.129   3.355   2.679
 2700SOL    HW2 9000   2.104   3.505   2.740
 2701SOL     OW 9001   3.475   0.153   6.848
 2701SOL    HW1 9002   3.463   0.100   6.933
 2701SOL    HW2 9003   3.454   0.249   6.866
 2702SOL     OW 9004   6.862   1.406   3.006
 2702SOL    HW1 9005   6.820   1.319   3.030
 2702SOL    HW2 9006   6.930   1.391   2.934
 2703SOL     OW 9007   2.525   1.797   2.612
 2703SOL    HW1 9008   2.601   1.789   2.676
 2703SOL    HW2 9009   2.554   1.850   2.532
 2704SOL     OW 9010   2.245   5.690   2.144
 2704SOL    HW1 9011   2.150   5.682   2.116
 2704SOL    HW2 9012   2.251   5.747   2.226
 2705SOL     OW 9013   6.698   5.918   3.688
 2705SOL    HW1 9014   6.623   5.890   3.748
 2705SOL    HW2 9015   6.762   5.841   3.678
 2706SOL     OW 9016   6.863   1.412   1.976
 2706SOL    HW1 9017   6.950   1.405   1.927
 2706SOL    HW2 9018   6.802   1.338   1.947
 2707SOL     OW 9019   1.962   1.765   6.785
 2707SOL    HW1 9020   2.036   1.790   6.723
 2707SOL    HW2 9021   1.927   1.847   6.831
 2708SOL     OW 9022   2.318   2.906   1.845
 2708SOL    HW1 9023   2.367   2.838   1.898
 2708SOL    HW2 9024   2.244   2.945   1.900
 2709SOL     OW 9025   4.944   5.924   1.383
 2709SOL    HW1 9026   4.849   5.894   1.372
 2709SOL    HW2 9027   4.953   5.975   1.468
 2710SOL     OW 9028   0.053   3.772   2.750
 2710SOL    HW1 9029   0.126   3.719   2.707
 2710SOL    HW2 9030   7.015   3.802   2.680
 2711SOL     OW 9031   1.563   6.999   2.252
 2711SOL    HW1 9032   1.612   7.017   2.338
 2711SOL    HW2 9033   1.552   0.058   2.201
 2712SOL     OW 9034   2.766   4.868   0.359
 2712SOL    HW1 9035   2.761   4.907   0.267
 2712SOL    HW2 9036   2.776   4.769   0.354
 2713SOL     OW 9037   2.194   3.098   4.857
 2713SOL    HW1 9038   2.256   3.046   4.916
 2713SOL    HW2 9039   2.113   3.043   4.836
 2714SOL     OW 9040   5.647   1.587   5.975
 2714SOL    HW1 9041   5.697   1.661   5.932
 2714SOL    HW2 9042   5.705   1.542   6.043
 2715SOL     OW 9043   5.627   0.907   0.210
 2715SOL    HW1 9044   5.719   0.904   0.172
 2715SOL    HW2 9045   5.591   1.000   0.203
 2716SOL     OW 9046   6.516   5.294   1.744
 2716SOL    HW1 9047   6.494   5.384   1.707
 2716SOL    HW2 9048   6.608   5.267   1.715
 2717SOL     OW 9049   0.830   6.434   2.357
 2717SOL    HW1 9050   0.784   6.377   2.425
 2717SOL    HW2 9051   0.826   6.530   2.385
 2718SOL     OW 9052   1.789   3.769   4.326
 2718SOL    HW1 9053   1.805   3.674   4.351
 2718SOL    HW2 9054   1.796   3.827   4.408
 2719SOL     OW 9055   4.369   4.907   2.504
 2719SOL    HW1 9056   4.370   5.007   2.504
 2719SOL    HW2 9057   4.455   4.872   2.542
 2720SOL     OW 9058   1.688   6.272   3.988
 2720SOL    HW1 9059   1.710   6.292   4.083
 2720SOL    HW2 9060   1.770   6.242   3.940
 2721SOL     OW 9061   2.635   0.123   4.305
 2721SOL    HW1 9062   2.566   0.067   4.351
 2721SOL    HW2 9063   2.597   0.213   4.285
 2722SOL     OW 9064   0.745   5.446   3.258
 2722SOL    HW1 9065   0.771   5.521   3.319
 2722SOL    HW2 9066   0.651   5.420   3.276
 2723SOL     OW 9067   2.278   1.404   5.319
 2723SOL    HW1 9068   2.314   1.492   5.349
 2723SOL    HW2 9069   2.312   1.332   5.379
 2724SOL     OW 9070   3.604   5.231   6.448
 2724SOL    HW1 9071   3.662   5.210   6.369
 2724SOL    HW2 9072   3.516   5.185   6.438
 2725SOL     OW 9073   4.792   4.508   3.013
 2725SOL    HW1 9074   4.841   4.490   2.928
 2725SOL    HW2 9075   4.856   4.507   3.090
 2726SOL     OW 9076   4.968   4.462   1.932
 2726SOL    HW1 9077   4.880   4.487   1.893
 2726SOL    HW2 9078   5.036   4.531   1.907
 2727SOL     OW 9079   0.804   5.053   2.935
 2727SOL    HW1 9080   0.716   5.039   2.979
 2727SOL    HW2 9081   0.860   5.116   2.990
 2728SOL     OW 9082   2.994   6.981   5.030
 2728SOL    HW1 9083   3.046   6.960   4.947
 2728SOL    HW2 9084   3.032   6.929   5.107
 2729SOL     OW 9085   6.639   5.262   3.353
 2729SOL    HW1 9086   6.607   5.350   3.387
 2729SOL    HW2 9087   6.739   5.259   3.354
 2730SOL     OW 9088   2.467   6.868   0.080
 2730SOL    HW1 9089   2.473   6.936   0.007
 2730SOL    HW2 9090   2.527   6.791   0.059
 2731SOL     OW 9091   2.973   3.841   1.630
 2731SOL    HW1 9092   3.050   3.877   1.682
 2731SOL    HW2 9093   2.894   3.900   1.642
 2732SOL     OW 9094   5.861   3.050   2.516
 2732SOL    HW1 9095   5.777   3.078   2.469
 2732SOL    HW2 9096   5.937   3.050   2.450
 2733SOL     OW 9097   0.655   6.703   5.655
 2733SOL    HW1 9098   0.581   6.770   5.643
 2733SOL    HW2 9099   0.743   6.751   5.657
 2734SOL     OW 9100   1.934   0.035   3.681
 2734SOL    HW1 9101   1.900   7.026   3.768
 2734SOL    HW2 9102   1.858   0.075   3.630
 2735SOL     OW 9103   1.076   3.999   2.819
 2735SOL    HW1 9104   1.066   4.064   2.894
 2735SOL    HW2 9105   1.001   4.010   2.754
 2736SOL     OW 9106   4.673   0.551   5.626
 2736SOL    HW1 9107   4.678   0.639   5.673
 2736SOL    HW2 9108   4.668   0.566   5.527
 2737SOL     OW 9109   3.706   3.621   6.398
 2737SOL    HW1 9110   3.729   3.557   6.471
 2737SOL    HW2 9111   3.788   3.674   6.374
 2738SOL     OW 9112   5.093   5.291   3.895
 2738SOL    HW1 9113   5.014   5.316   3.953
 2738SOL    HW2 9114   5.140   5.213   3.936
 2739SOL     OW 9115   5.407   4.466   0.776
 2739SOL    HW1 9116   5.369   4.374   0.782
 2739SOL    HW2 9117   5.507   4.461   0.779
 2740SOL     OW 9118   6.228   2.109   2.442
 2740SOL    HW1 9119   6.283   2.089   2.524
 2740SOL    HW2 9120   6.283   2.092   2.361
 2741SOL     OW 9121   7.014   2.130   5.748
 2741SOL    HW1 9122   0.024   2.094   5.662
 2741SOL    HW2 9123   6.975   2.054   5.801
 2742SOL     OW 9124   1.624   5.476   6.497
 2742SOL    HW1 9125   1.709   5.440   6.537
 2742SOL    HW2 9126   1.629   5.469   6.397
 2743SOL     OW 9127   5.221   5.137   1.570
 2743SOL    HW1 9128   5.246   5.049   1.611
 2743SOL    HW2 9129   5.215   5.206   1.642
 2744SOL     OW 9130   4.227   2.133   6.519
 2744SOL    HW1 9131   4.276   2.202   6.466
 2744SOL    HW2 9132   4.285   2.101   6.594
 2745SOL     OW 9133   1.752   6.373   0.995
 2745SOL    HW1 9134   1.822   6.406   0.932
 2745SOL    HW2 9135   1.795   6.318   1.066
 2746SOL     OW 9136   1.764   2.386   5.029
 2746SOL    HW1 9137   1.820   2.418   5.106
 2746SOL    HW2 9138   1.703   2.460   5.000
 2747SOL     OW 9139   6.241   5.437   4.726
 2747SOL    HW1 9140   6.219   5.520   4.675
 2747SOL    HW2 9141   6.232   5.357   4.667
 2748SOL     OW 9142   4.017   1.449   3.406
 2748SOL    HW1 9143   4.060   1.490   3.325
 2748SOL    HW2 9144   4.035   1.506   3.486
 2749SOL     OW 9145   4.944   4.335   4.085
 2749SOL    HW1 9146   4.914   4.412   4.142
 2749SOL    HW2 9147   5.000   4.368   4.010
 2750SOL     OW 9148   0.636   5.876   2.032
 2750SOL    HW1 9149   0.601   5.865   1.939
 2750SOL    HW2 9150   0.727   5.834   2.039
 2751SOL     OW 9151   1.843   0.185   0.227
 2751SOL    HW1 9152   1.865   0.254   0.296
 2751SOL    HW2 9153   1.759   0.210   0.180
 2752SOL     OW 9154   5.449   6.276   5.075
 2752SOL    HW1 9155   5.538   6.319   5.062
 2752SOL    HW2 9156   5.394   6.331   5.138
 2753SOL     OW 9157   3.569   6.150   6.446
 2753SOL    HW1 9158   3.668   6.156   6.447
 2753SOL    HW2 9159   3.541   6.082   6.378
 2754SOL     OW 9160   0.450   0.202   4.318
 2754SOL    HW1 9161   0.419   0.285   4.271
 2754SOL    HW2 9162   0.546   0.213   4.345
 2755SOL     OW 9163   3.278   6.422   2.364
 2755SOL    HW1 9164   3.295   6.513   2.404
 2755SOL    HW2 9165   3.267   6.355   2.438
 2756SOL     OW 9166   5.544   3.664   5.052
 2756SOL    HW1 9167   5.492   3.595   5.003
 2756SOL    HW2 9168   5.640   3.636   5.057
 2757SOL     OW 9169   4.669   1.871   0.024
 2757SOL    HW1 9170   4.629   1.903   0.110
 2757SOL    HW2 9171   4.760   1.834   0.041
 2758SOL     OW 9172   5.324   4.935   3.391
 2758SOL    HW1 9173   5.272   4.849   3.391
 2758SOL    HW2 9174   5.309   4.982   3.478
 2759SOL     OW 9175   3.408   4.341   6.250
 2759SOL    HW1 9176   3.383   4.390   6.167
 2759SOL    HW2 9177   3.397   4.242   6.235
 2760SOL     OW 9178   5.626   6.003   3.557
 2760SOL    HW1 9179   5.653   5.952   3.475
 2760SOL    HW2 9180   5.582   6.089   3.529
 2761SOL     OW 9181   1.808   3.954   2.705
 2761SOL    HW1 9182   1.777   3.860   2.697
 2761SOL    HW2 9183   1.824   3.976   2.802
 2762SOL     OW 9184   1.639   2.412   6.876
 2762SOL    HW1 9185   1.704   2.488   6.883
 2762SOL    HW2 9186   1.606   2.388   6.968
 2763SOL     OW 9187   4.718   1.414   5.968
 2763SOL    HW1 9188   4.745   1.487   6.031
 2763SOL    HW2 9189   4.640   1.444   5.913
 2764SOL     OW 9190   0.533   3.976   1.755
 2764SOL    HW1 9191   0.458   3.955   1.691
 2764SOL    HW2 9192   0.503   3.956   1.848
 2765SOL     OW 9193   6.072   6.585   0.128
 2765SOL    HW1 9194   6.010   6.610   0.054
 2765SOL    HW2 9195   6.054   6.491   0.156
 2766SOL     OW 9196   5.234   1.290   6.784
 2766SOL    HW1 9197   5.242   1.216   6.850
 2766SOL    HW2 9198   5.159   1.270   6.720
 2767SOL     OW 9199   5.811   4.978   6.407
 2767SOL    HW1 9200   5.751   5.057   6.414
 2767SOL    HW2 9201   5.876   4.991   6.332
 2768SOL     OW 9202   4.437   0.504   1.178
 2768SOL    HW1 9203   4.491   0.557   1.113
 2768SOL    HW2 9204   4.444   0.545   1.269
 2769SOL     OW 9205   1.588   4.358   5.754
 2769SOL    HW1 9206   1.550   4.419   5.685
 2769SOL    HW2 9207   1.685   4.379   5.768
 2770SOL     OW 9208   2.684   6.720   6.632
 2770SOL    HW1 9209   2.713   6.738   6.538
 2770SOL    HW2 9210   2.707   6.798   6.690
 2771SOL     OW 9211   4.506   0.362   5.233
 2771SOL    HW1 9212   4.511   0.274   5.280
 2771SOL    HW2 9213   4.517   0.348   5.134
 2772SOL     OW 9214   4.000   0.793   2.857
 2772SOL    HW1 9215   4.055   0.872   2.830
 2772SOL    HW2 9216   4.053   0.710   2.844
 2773SOL     OW 9217   6.798   3.092   4.361
 2773SOL    HW1 9218   6.892   3.089   4.327
 2773SOL    HW2 9219   6.737   3.053   4.292
 2774SOL     OW 9220   5.036   1.787   3.375
 2774SOL    HW1 9221   4.984   1.872   3.376
 2774SOL    HW2 9222   4.975   1.710   3.358
 2775SOL     OW 9223   0.356   4.283   4.784
 2775SOL    HW1 9224   0.452   4.306   4.802
 2775SOL    HW2 9225   0.327   4.210   4.846
 2776SOL     OW 9226   5.024   5.078   6.084
 2776SOL    HW1 9227   4.929   5.052   6.100
 2776SOL    HW2 9228   5.073   5.002   6.040
 2777SOL     OW 9229   3.131   2.354   5.856
 2777SOL    HW1 9230   3.183   2.366   5.771
 2777SOL    HW2 9231   3.058   2.287   5.840
 2778SOL     OW 9232   2.423   6.140   6.659
 2778SOL    HW1 9233   2.420   6.144   6.759
 2778SOL    HW2 9234   2.373   6.060   6.628
 2779SOL     OW 9235   6.068   5.961   2.501
 2779SOL    HW1 9236   6.048   6.024   2.426
 2779SOL    HW2 9237   6.128   6.006   2.567
 2780SOL     OW 9238   0.138   1.263   6.101
 2780SOL    HW1 9239   0.181   1.230   6.017
 2780SOL    HW2 9240   0.113   1.359   6.090
 2781SOL     OW 9241   6.813   0.256   2.663
 2781SOL    HW1 9242   6.732   0.238   2.718
 2781SOL    HW2 9243   6.789   0.312   2.584
 2782SOL     OW 9244   4.568   1.175   6.785
 2782SOL    HW1 9245   4.547   1.130   6.699
 2782SOL    HW2 9246   4.540   1.117   6.862
 2783SOL     OW 9247   5.659   3.488   1.994
 2783SOL    HW1 9248   5.744   3.515   2.039
 2783SOL    HW2 9249   5.665   3.392   1.966
 2784SOL     OW 9250   1.801   1.772   0.965
 2784SOL    HW1 9251   1.794   1.674   0.943
 2784SOL    HW2 9252   1.893   1.793   0.998
 2785SOL     OW 9253   5.487   2.919   1.788
 2785SOL    HW1 9254   5.565   2.970   1.825
 2785SOL    HW2 9255   5.496   2.823   1.813
 2786SOL     OW 9256   6.885   5.704   0.256
 2786SOL    HW1 9257   6.970   5.743   0.221
 2786SOL    HW2 9258   6.906   5.635   0.325
 2787SOL     OW 9259   6.087   5.385   5.777
 2787SOL    HW1 9260   6.128   5.390   5.686
 2787SOL    HW2 9261   6.160   5.376   5.845
 2788SOL     OW 9262   3.583   6.397   5.553
 2788SOL    HW1 9263   3.624   6.312   5.584
 2788SOL    HW2 9264   3.501   6.417   5.608
 2789SOL     OW 9265   0.030   2.685   4.786
 2789SOL    HW1 9266   7.023   2.693   4.692
 2789SOL    HW2 9267   6.982   2.702   4.850
 2790SOL     OW 9268   2.281   5.579   0.440
 2790SOL    HW1 9269   2.368   5.629   0.441
 2790SOL    HW2 9270   2.208   5.641   0.468
 2791SOL     OW 9271   6.779   3.353   3.055
 2791SOL    HW1 9272   6.706   3.405   3.100
 2791SOL    HW2 9273   6.771   3.256   3.079
 2792SOL     OW 9274   3.317   1.439   5.196
 2792SOL    HW1 9275   3.397   1.429   5.255
 2792SOL    HW2 9276   3.323   1.376   5.119
 2793SOL     OW 9277   3.635   4.636   1.130
 2793SOL    HW1 9278   3.683   4.590   1.205
 2793SOL    HW2 9279   3.691   4.633   1.047
 2794SOL     OW 9280   0.040   1.504   6.097
 2794SOL    HW1 9281   0.079   1.491   6.188
 2794SOL    HW2 9282   6.969   1.524   6.105
 2795SOL     OW 9283   0.703   4.770   1.681
 2795SOL    HW1 9284   0.802   4.767   1.662
 2795SOL    HW2 9285   0.655   4.713   1.616
 2796SOL     OW 9286   0.925   5.956   5.875
 2796SOL    HW1 9287   1.022   5.935   5.867
 2796SOL    HW2 9288   0.885   5.968   5.784
 2797SOL     OW 9289   5.147   6.823   4.348
 2797SOL    HW1 9290   5.183   6.861   4.433
 2797SOL    HW2 9291   5.104   6.896   4.295
 2798SOL     OW 9292   6.012   6.358   1.916
 2798SOL    HW1 9293   6.066   6.442   1.901
 2798SOL    HW2 9294   6.069   6.290   1.961
 2799SOL     OW 9295   3.836   6.297   4.755
 2799SOL    HW1 9296   3.912   6.232   4.750
 2799SOL    HW2 9297   3.869   6.389   4.733
 2800SOL     OW 9298   6.248   0.791   6.732
 2800SOL    HW1 9299   6.214   0.883   6.709
 2800SOL    HW2 9300   6.331   0.773   6.680
 2801SOL     OW 9301   0.617   5.142   5.767
 2801SOL    HW1 9302   0.684   5.101   5.829
 2801SOL    HW2 9303   0.656   5.225   5.726
 2802SOL     OW 9304   6.472   5.889   5.147
 2802SOL    HW1 9305   6.442   5.934   5.062
 2802SOL    HW2 9306   6.437   5.940   5.225
 2803SOL     OW 9307   3.082   3.203   6.353
 2803SOL    HW1 9308   2.991   3.203   6.312
 2803SOL    HW2 9309   3.136   3.130   6.312
 2804SOL     OW 9310   0.523   2.898   4.337
 2804SOL    HW1 9311   0.464   2.817   4.334
 2804SOL    HW2 9312   0.600   2.881   4.399
 2805SOL     OW 9313   4.421   3.598   1.541
 2805SOL    HW1 9314   4.324   3.573   1.545
 2805SOL    HW2 9315   4.432   3.692   1.572
 2806SOL     OW 9316   0.801   4.751   5.765
 2806SOL    HW1 9317   0.831   4.698   5.844
 2806SOL    HW2 9318   0.709   4.722   5.737
 2807SOL     OW 9319   2.836   0.243   3.120
 2807SOL    HW1 9320   2.832   0.143   3.114
 2807SOL    HW2 9321   2.923   0.276   3.085
 2808SOL     OW 9322   6.098   5.613   0.417
 2808SOL    HW1 9323   6.102   5.702   0.464
 2808SOL    HW2 9324   6.003   5.595   0.389
 2809SOL     OW 9325   6.318   4.711   2.256
 2809SOL    HW1 9326   6.310   4.810   2.266
 2809SOL    HW2 9327   6.261   4.679   2.181
 2810SOL     OW 9328   2.430   5.409   3.805
 2810SOL    HW1 9329   2.491   5.331   3.820
 2810SOL    HW2 9330   2.472   5.470   3.737
 2811SOL     OW 9331   0.817   0.291   2.313
 2811SOL    HW1 9332   0.828   0.362   2.383
 2811SOL    HW2 9333   0.861   0.322   2.228
 2812SOL     OW 9334   0.271   3.375   1.065
 2812SOL    HW1 9335   0.234   3.462   1.096
 2812SOL    HW2 9336   0.327   3.390   0.983
 2813SOL     OW 9337   0.592   2.169   1.299
 2813SOL    HW1 9338   0.608   2.081   1.255
 2813SOL    HW2 9339   0.525   2.221   1.246
 2814SOL     OW 9340   1.979   3.942   0.521
 2814SOL    HW1 9341   1.951   4.038   0.512
 2814SOL    HW2 9342   1.996   3.921   0.617
 2815SOL     OW 9343   0.645   5.768   5.028
 2815SOL    HW1 9344   0.578   5.699   5.054
 2815SOL    HW2 9345   0.715   5.776   5.100
 2816SOL     OW 9346   0.242   6.070   5.639
 2816SOL    HW1 9347   0.188   5.986   5.637
 2816SOL    HW2 9348   0.203   6.136   5.575
 2817SOL     OW 9349   3.861   0.693   1.981
 2817SOL    HW1 9350   3.895   0.774   2.029
 2817SOL    HW2 9351   3.819   0.630   2.047
 2818SOL     OW 9352   1.353   0.687   1.460
 2818SOL    HW1 9353   1.338   0.589   1.472
 2818SOL    HW2 9354   1.398   0.703   1.372
 2819SOL     OW 9355   0.385   0.299   0.958
 2819SOL    HW1 9356   0.369   0.218   1.015
 2819SOL    HW2 9357   0.458   0.278   0.892
 2820SOL     OW 9358   1.330   2.451   1.410
 2820SOL    HW1 9359   1.352   2.511   1.487
 2820SOL    HW2 9360   1.241   2.408   1.426
 2821SOL     OW 9361   3.126   4.560   6.543
 2821SOL    HW1 9362   3.097   4.498   6.470
 2821SOL    HW2 9363   3.210   4.606   6.515
 2822SOL     OW 9364   4.516   2.484   0.728
 2822SOL    HW1 9365   4.565   2.418   0.785
 2822SOL    HW2 9366   4.460   2.436   0.661
 2823SOL     OW 9367   5.025   1.992   0.495
 2823SOL    HW1 9368   4.985   1.906   0.465
 2823SOL    HW2 9369   4.953   2.052   0.530
 2824SOL     OW 9370   1.119   3.620   5.455
 2824SOL    HW1 9371   1.077   3.645   5.543
 2824SOL    HW2 9372   1.218   3.619   5.464
 2825SOL     OW 9373   5.319   1.474   6.364
 2825SOL    HW1 9374   5.222   1.461   6.342
 2825SOL    HW2 9375   5.326   1.538   6.440
 2826SOL     OW 9376   1.497   4.098   6.767
 2826SOL    HW1 9377   1.567   4.149   6.817
 2826SOL    HW2 9378   1.514   4.105   6.669
 2827SOL     OW 9379   6.919   0.690   6.502
 2827SOL    HW1 9380   6.862   0.639   6.437
 2827SOL    HW2 9381   6.989   0.629   6.540
 2828SOL     OW 9382   1.473   3.949   0.965
 2828SOL    HW1 9383   1.402   3.976   0.900
 2828SOL    HW2 9384   1.472   3.850   0.976
 2829SOL     OW 9385   3.695   4.044   3.185
 2829SOL    HW1 9386   3.633   4.114   3.221
 2829SOL    HW2 9387   3.693   3.964   3.245
 2830SOL     OW 9388   3.622   5.443   5.740
 2830SOL    HW1 9389   3.602   5.361   5.686
 2830SOL    HW2 9390   3.548   5.509   5.731
 2831SOL     OW 9391   6.571   2.044   1.774
 2831SOL    HW1 9392   6.510   1.965   1.765
 2831SOL    HW2 9393   6.597   2.054   1.870
 2832SOL     OW 9394   0.510   3.120   0.988
 2832SOL    HW1 9395   0.432   3.066   1.020
 2832SOL    HW2 9396   0.477   3.190   0.924
 2833SOL     OW 9397   1.936   2.168   1.537
 2833SOL    HW1 9398   1.991   2.246   1.508
 2833SOL    HW2 9399   1.874   2.142   1.463
 2834SOL     OW 9400   4.305   6.063   4.780
 2834SOL    HW1 9401   4.335   5.977   4.738
 2834SOL    HW2 9402   4.366   6.137   4.750
 2835SOL     OW 9403   0.850   6.547   0.579
 2835SOL    HW1 9404   0.803   6.537   0.667
 2835SOL    HW2 9405   0.930   6.606   0.590
 2836SOL     OW 9406   3.634   5.727   3.734
 2836SOL    HW1 9407   3.688   5.711   3.817
 2836SOL    HW2 9408   3.630   5.643   3.680
 2837SOL     OW 9409   5.113   3.922   2.221
 2837SOL    HW1 9410   5.125   3.922   2.122
 2837SOL    HW2 9411   5.016   3.915   2.243
 2838SOL     OW 9412   4.991   3.759   6.131
 2838SOL    HW1 9413   4.929   3.799   6.063
 2838SOL    HW2 9414   5.066   3.712   6.084
 2839SOL     OW 9415   5.945   3.202   4.865
 2839SOL    HW1 9416   5.951   3.148   4.950
 2839SOL    HW2 9417   5.865   3.173   4.813
 2840SOL     OW 9418   0.521   5.951   2.936
 2840SOL    HW1 9419   0.431   5.994   2.938
 2840SOL    HW2 9420   0.562   5.955   3.027
 2841SOL     OW 9421   5.680   2.309   1.753
 2841SOL    HW1 9422   5.694   2.392   1.808
 2841SOL    HW2 9423   5.653   2.234   1.813
 2842SOL     OW 9424   1.791   6.577   3.749
 2842SOL    HW1 9425   1.708   6.522   3.764
 2842SOL    HW2 9426   1.818   6.620   3.835
 2843SOL     OW 9427   2.199   2.851   3.521
 2843SOL    HW1 9428   2.219   2.940   3.564
 2843SOL    HW2 9429   2.232   2.778   3.580
 2844SOL     OW 9430   4.795   4.224   0.964
 2844SOL    HW1 9431   4.729   4.261   0.897
 2844SOL    HW2 9432   4.863   4.294   0.985
 2845SOL     OW 9433   3.880   2.153   3.097
 2845SOL    HW1 9434   3.866   2.220   3.170
 2845SOL    HW2 9435   3.820   2.075   3.111
 2846SOL     OW 9436   4.968   0.691   0.538
 2846SOL    HW1 9437   4.877   0.674   0.576
 2846SOL    HW2 9438   5.018   0.754   0.598
 2847SOL     OW 9439   5.012   4.225   2.647
 2847SOL    HW1 9440   4.951   4.297   2.679
 2847SOL    HW2 9441   5.101   4.264   2.623
 2848SOL     OW 9442   0.542   3.717   5.019
 2848SOL    HW1 9443   0.501   3.631   4.991
 2848SOL    HW2 9444   0.600   3.702   5.099
 2849SOL     OW 9445   3.720   0.313   2.795
 2849SOL    HW1 9446   3.813   0.349   2.796
 2849SOL    HW2 9447   3.676   0.332   2.883
 2850SOL     OW 9448   2.382   0.083   2.748
 2850SOL    HW1 9449   2.400   0.171   2.793
 2850SOL    HW2 9450   2.446   0.015   2.781
 2851SOL     OW 9451   4.148   3.076   0.985
 2851SOL    HW1 9452   4.141   3.142   1.059
 2851SOL    HW2 9453   4.242   3.072   0.951
 2852SOL     OW 9454   6.682   4.305   5.994
 2852SOL    HW1 9455   6.583   4.306   5.978
 2852SOL    HW2 9456   6.702   4.347   6.082
 2853SOL     OW 9457   0.820   3.869   0.018
 2853SOL    HW1 9458   0.797   3.963   0.042
 2853SOL    HW2 9459   0.892   3.869   6.975
 2854SOL     OW 9460   3.567   1.809   6.014
 2854SOL    HW1 9461   3.545   1.849   5.925
 2854SOL    HW2 9462   3.594   1.713   6.002
 2855SOL     OW 9463   1.806   1.548   4.288
 2855SOL    HW1 9464   1.775   1.526   4.380
 2855SOL    HW2 9465   1.903   1.574   4.291
 2856SOL     OW 9466   0.982   4.348   3.135
 2856SOL    HW1 9467   0.993   4.266   3.191
 2856SOL    HW2 9468   0.928   4.415   3.184
 2857SOL     OW 9469   6.716   3.149   0.787
 2857SOL    HW1 9470   6.773   3.203   0.849
 2857SOL    HW2 9471   6.620   3.161   0.812
 2858SOL     OW 9472   4.520   4.544   3.206
 2858SOL    HW1 9473   4.520   4.465   3.144
 2858SOL    HW2 9474   4.554   4.624   3.157
 2859SOL     OW 9475   5.434   4.800   1.810
 2859SOL    HW1 9476   5.446   4.850   1.896
 2859SOL    HW2 9477   5.494   4.721   1.809
 2860SOL     OW 9478   1.224   5.861   1.484
 2860SOL    HW1 9479   1.219   5.960   1.500
 2860SOL    HW2 9480   1.147   5.833   1.426
 2861SOL     OW 9481   4.501   4.889   6.889
 2861SOL    HW1 9482   4.449   4.830   6.950
 2861SOL    HW2 9483   4.487   4.860   6.794
 2862SOL     OW 9484   4.466   2.947   1.122
 2862SOL    HW1 9485   4.437   2.935   1.027
 2862SOL    HW2 9486   4.392   2.919   1.183
 2863SOL     OW 9487   6.031   0.162   5.201
 2863SOL    HW1 9488   6.114   0.210   5.172
 2863SOL    HW2 9489   6.016   0.081   5.145
 2864SOL     OW 9490   3.935   3.562   0.255
 2864SOL    HW1 9491   3.875   3.601   0.324
 2864SOL    HW2 9492   3.881   3.532   0.177
 2865SOL     OW 9493   5.426   6.087   4.444
 2865SOL    HW1 9494   5.350   6.023   4.432
 2865SOL    HW2 9495   5.407   6.172   4.393
 2866SOL     OW 9496   4.621   4.162   6.793
 2866SOL    HW1 9497   4.602   4.163   6.695
 2866SOL    HW2 9498   4.720   4.171   6.808
 2867SOL     OW 9499   5.761   6.498   1.958
 2867SOL    HW1 9500   5.840   6.453   1.916
 2867SOL    HW2 9501   5.756   6.593   1.927
 2868SOL     OW 9502   1.748   0.864   5.847
 2868SOL    HW1 9503   1.676   0.931   5.830
 2868SOL    HW2 9504   1.837   0.907   5.834
 2869SOL     OW 9505   5.356   5.373   3.830
 2869SOL    HW1 9506   5.298   5.306   3.784
 2869SOL    HW2 9507   5.303   5.456   3.850
 2870SOL     OW 9508   0.657   1.629   1.491
 2870SOL    HW1 9509   0.594   1.693   1.534
 2870SOL    HW2 9510   0.751   1.653   1.515
 2871SOL     OW 9511   6.054   1.630   1.329
 2871SOL    HW1 9512   5.961   1.650   1.363
 2871SOL    HW2 9513   6.090   1.551   1.379
 2872SOL     OW 9514   2.104   1.834   2.098
 2872SOL    HW1 9515   2.083   1.805   2.005
 2872SOL    HW2 9516   2.022   1.875   2.139
 2873SOL     OW 9517   0.717   6.549   1.169
 2873SOL    HW1 9518   0.698   6.618   1.239
 2873SOL    HW2 9519   0.736   6.461   1.212
 2874SOL     OW 9520   1.874   0.780   3.343
 2874SOL    HW1 9521   1.812   0.719   3.292
 2874SOL    HW2 9522   1.856   0.875   3.316
 2875SOL     OW 9523   2.881   6.782   2.834
 2875SOL    HW1 9524   2.854   6.860   2.778
 2875SOL    HW2 9525   2.967   6.803   2.881
 2876SOL     OW 9526   1.448   6.439   2.199
 2876SOL    HW1 9527   1.392   6.519   2.221
 2876SOL    HW2 9528   1.407   6.391   2.120
 2877SOL     OW 9529   1.646   1.179   5.691
 2877SOL    HW1 9530   1.596   1.216   5.770
 2877SOL    HW2 9531   1.692   1.253   5.643
 2878SOL     OW 9532   4.047   3.321   4.776
 2878SOL    HW1 9533   4.049   3.420   4.794
 2878SOL    HW2 9534   4.071   3.272   4.860
 2879SOL     OW 9535   4.363   5.100   6.377
 2879SOL    HW1 9536   4.392   5.093   6.473
 2879SOL    HW2 9537   4.309   5.183   6.365
 2880SOL     OW 9538   1.824   1.514   4.916
 2880SOL    HW1 9539   1.769   1.498   4.833
 2880SOL    HW2 9540   1.768   1.493   4.996
 2881SOL     OW 9541   3.975   6.518   0.010
 2881SOL    HW1 9542   3.968   6.463   0.093
 2881SOL    HW2 9543   3.901   6.493   6.974
 2882SOL     OW 9544   4.519   5.927   0.549
 2882SOL    HW1 9545   4.455   5.867   0.596
 2882SOL    HW2 9546   4.506   6.021   0.582
 2883SOL     OW 9547   6.151   6.493   3.509
 2883SOL    HW1 9548   6.162   6.408   3.562
 2883SOL    HW2 9549   6.126   6.470   3.415
 2884SOL     OW 9550   0.153   5.454   3.087
 2884SOL    HW1 9551   0.075   5.469   3.026
 2884SOL    HW2 9552   0.238   5.473   3.037
 2885SOL     OW 9553   1.125   3.256   2.682
 2885SOL    HW1 9554   1.142   3.341   2.732
 2885SOL    HW2 9555   1.055   3.203   2.729
 2886SOL     OW 9556   2.807   4.888   5.750
 2886SOL    HW1 9557   2.734   4.857   5.811
 2886SOL    HW2 9558   2.847   4.809   5.703
 2887SOL     OW 9559   1.244   6.219   3.920
 2887SOL    HW1 9560   1.240   6.245   3.823
 2887SOL    HW2 9561   1.221   6.298   3.977
 2888SOL     OW 9562   6.466   6.225   0.797
 2888SOL    HW1 9563   6.391   6.237   0.862
 2888SOL    HW2 9564   6.431   6.192   0.710
 2889SOL     OW 9565   3.207   6.480   3.305
 2889SOL    HW1 9566   3.226   6.425   3.387
 2889SOL    HW2 9567   3.119   6.527   3.316
 2890SOL     OW 9568   1.599   0.397   0.848
 2890SOL    HW1 9569   1.641   0.453   0.776
 2890SOL    HW2 9570   1.506   0.429   0.865
 2891SOL     OW 9571   0.441   3.183   3.817
 2891SOL    HW1 9572   0.391   3.101   3.845
 2891SOL    HW2 9573   0.407   3.213   3.727
 2892SOL     OW 9574   6.710   3.724   1.346
 2892SOL    HW1 9575   6.646   3.673   1.288
 2892SOL    HW2 9576   6.766   3.784   1.289
 2893SOL     OW 9577   0.023   4.734   4.718
 2893SOL    HW1 9578   0.059   4.802   4.782
 2893SOL    HW2 9579   0.017   4.645   4.763
 2894SOL     OW 9580   1.023   5.068   1.775
 2894SOL    HW1 9581   1.067   5.072   1.686
 2894SOL    HW2 9582   1.062   4.994   1.829
 2895SOL     OW 9583   3.866   6.774   5.908
 2895SOL    HW1 9584   3.857   6.873   5.897
 2895SOL    HW2 9585   3.794   6.728   5.855
 2896SOL     OW 9586   5.648   6.397   4.735
 2896SOL    HW1 9587   5.658   6.418   4.832
 2896SOL    HW2 9588   5.578   6.456   4.695
 2897SOL     OW 9589   3.740   4.899   2.634
 2897SOL    HW1 9590   3.651   4.945   2.638
 2897SOL    HW2 9591   3.798   4.931   2.709
 2898SOL     OW 9592   5.599   4.251   2.911
 2898SOL    HW1 9593   5.692   4.288   2.913
 2898SOL    HW2 9594   5.588   4.195   2.829
 2899SOL     OW 9595   6.775   3.097   1.147
 2899SOL    HW1 9596   6.831   3.179   1.136
 2899SOL    HW2 9597   6.745   3.090   1.242
 2900SOL     OW 9598   3.348   3.594   0.156
 2900SOL    HW1 9599   3.276   3.578   0.223
 2900SOL    HW2 9600   3.360   3.693   0.143
 2901SOL     OW 9601   1.425   3.610   3.176
 2901SOL    HW1 9602   1.425   3.638   3.080
 2901SOL    HW2 9603   1.520   3.601   3.208
 2902SOL     OW 9604   1.295   5.932   3.970
 2902SOL    HW1 9605   1.254   6.012   3.927
 2902SOL    HW2 9606   1.287   5.940   4.069
 2903SOL     OW 9607   4.273   5.981   0.887
 2903SOL    HW1 9608   4.264   6.078   0.865
 2903SOL    HW2 9609   4.233   5.964   0.978
 2904SOL     OW 9610   2.395   4.414   5.339
 2904SOL    HW1 9611   2.463   4.368   5.397
 2904SOL    HW2 9612   2.435   4.434   5.250
 2905SOL     OW 9613   0.685   4.706   1.969
 2905SOL    HW1 9614   0.635   4.785   2.005
 2905SOL    HW2 9615   0.699   4.718   1.871
 2906SOL     OW 9616   5.849   5.867   3.384
 2906SOL    HW1 9617   5.929   5.831   3.335
 2906SOL    HW2 9618   5.880   5.916   3.465
 2907SOL     OW 9619   0.982   0.350   3.610
 2907SOL    HW1 9620   0.896   0.325   3.566
 2907SOL    HW2 9621   1.006   0.444   3.585
 2908SOL     OW 9622   4.312   6.949   3.068
 2908SOL    HW1 9623   4.343   0.015   3.053
 2908SOL    HW2 9624   4.363   6.909   3.144
 2909SOL     OW 9625   1.167   5.962   2.211
 2909SOL    HW1 9626   1.250   5.943   2.262
 2909SOL    HW2 9627   1.088   5.922   2.259
 2910SOL     OW 9628   0.095   0.344   3.687
 2910SOL    HW1 9629   0.093   0.263   3.629
 2910SOL    HW2 9630   0.127   0.423   3.634
 2911SOL     OW 9631   6.706   3.956   4.364
 2911SOL    HW1 9632   6.796   3.933   4.326
 2911SOL    HW2 9633   6.670   4.036   4.316
 2912SOL     OW 9634   6.912   6.442   0.521
 2912SOL    HW1 9635   6.931   6.483   0.432
 2912SOL    HW2 9636   6.837   6.490   0.565
 2913SOL     OW 9637   2.060   5.727   0.632
 2913SOL    HW1 9638   1.961   5.718   0.625
 2913SOL    HW2 9639   2.083   5.814   0.675
 2914SOL     OW 9640   5.084   5.075   0.377
 2914SOL    HW1 9641   5.148   5.072   0.453
 2914SOL    HW2 9642   5.097   4.994   0.320
 2915SOL     OW 9643   3.123   1.335   3.350
 2915SOL    HW1 9644   3.029   1.305   3.364
 2915SOL    HW2 9645   3.133   1.371   3.257
 2916SOL     OW 9646   1.487   6.255   0.689
 2916SOL    HW1 9647   1.457   6.161   0.671
 2916SOL    HW2 9648   1.487   6.307   0.604
 2917SOL     OW 9649   2.393   6.540   3.455
 2917SOL    HW1 9650   2.402   6.455   3.507
 2917SOL    HW2 9651   2.479   6.591   3.460
 2918SOL     OW 9652   6.290   3.690   0.978
 2918SOL    HW1 9653   6.193   3.667   0.983
 2918SOL    HW2 9654   6.304   3.762   0.911
 2919SOL     OW 9655   1.048   6.123   4.205
 2919SOL    HW1 9656   1.069   6.197   4.269
 2919SOL    HW2 9657   1.112   6.047   4.221
 2920SOL     OW 9658   1.603   1.663   1.397
 2920SOL    HW1 9659   1.630   1.715   1.315
 2920SOL    HW2 9660   1.510   1.627   1.383
 2921SOL     OW 9661   0.205   6.994   5.766
 2921SOL    HW1 9662   0.225   0.049   5.819
 2921SOL    HW2 9663   0.173   7.020   5.675
 2922SOL     OW 9664   3.809   0.640   3.305
 2922SOL    HW1 9665   3.887   0.696   3.277
 2922SOL    HW2 9666   3.835   0.581   3.382
 2923SOL     OW 9667   6.326   5.068   4.989
 2923SOL    HW1 9668   6.270   5.082   4.908
 2923SOL    HW2 9669   6.355   4.972   4.993
 2924SOL     OW 9670   6.748   2.941   5.481
 2924SOL    HW1 9671   6.655   2.974   5.493
 2924SOL    HW2 9672   6.794   2.938   5.569
 2925SOL     OW 9673   5.284   0.088   5.962
 2925SOL    HW1 9674   5.353   0.064   5.893
 2925SOL    HW2 9675   5.219   0.153   5.923
 2926SOL     OW 9676   0.330   1.620   4.886
 2926SOL    HW1 9677   0.328   1.662   4.795
 2926SOL    HW2 9678   0.374   1.682   4.951
 2927SOL     OW 9679   1.458   2.872   1.605
 2927SOL    HW1 9680   1.551   2.893   1.632
 2927SOL    HW2 9681   1.424   2.942   1.543
 2928SOL     OW 9682   6.753   2.178   0.135
 2928SOL    HW1 9683   6.761   2.277   0.126
 2928SOL    HW2 9684   6.659   2.155   0.162
 2929SOL     OW 9685   1.852   2.435   4.554
 2929SOL    HW1 9686   1.944   2.465   4.576
 2929SOL    HW2 9687   1.792   2.515   4.545
 2930SOL     OW 9688   0.456   5.579   5.086
 2930SOL    HW1 9689   0.484   5.584   5.182
 2930SOL    HW2 9690   0.363   5.542   5.081
 2931SOL     OW 9691   4.569   4.284   5.933
 2931SOL    HW1 9692   4.587   4.335   6.017
 2931SOL    HW2 9693   4.532   4.194   5.956
 2932SOL     OW 9694   6.533   5.841   0.727
 2932SOL    HW1 9695   6.606   5.878   0.784
 2932SOL    HW2 9696   6.444   5.866   0.766
 2933SOL     OW 9697   1.204   0.189   0.683
 2933SOL    HW1 9698   1.231   0.163   0.776
 2933SOL    HW2 9699   1.210   0.109   0.623
 2934SOL     OW 9700   3.912   3.882   7.006
 2934SOL    HW1 9701   3.903   3.871   0.078
 2934SOL    HW2 9702   3.979   3.954   6.986
 2935SOL     OW 9703   6.903   2.465   6.462
 2935SOL    HW1 9704   6.911   2.391   6.395
 2935SOL    HW2 9705   6.911   2.428   6.554
 2936SOL     OW 9706   4.726   0.228   1.030
 2936SOL    HW1 9707   4.760   0.216   0.937
 2936SOL    HW2 9708   4.633   0.264   1.028
 2937SOL     OW 9709   4.326   5.427   2.354
 2937SOL    HW1 9710   4.396   5.424   2.282
 2937SOL    HW2 9711   4.365   5.390   2.438
 2938SOL     OW 9712   6.704   5.598   6.676
 2938SOL    HW1 9713   6.737   5.690   6.655
 2938SOL    HW2 9714   6.723   5.577   6.772
 2939SOL     OW 9715   0.106   5.776   1.640
 2939SOL    HW1 9716   0.174   5.707   1.663
 2939SOL    HW2 9717   0.083   5.769   1.543
 2940SOL     OW 9718   5.186   5.844   3.997
 2940SOL    HW1 9719   5.268   5.893   4.028
 2940SOL    HW2 9720   5.193   5.748   4.023
 2941SOL     OW 9721   1.964   3.446   3.849
 2941SOL    HW1 9722   1.870   3.447   3.816
 2941SOL    HW2 9723   1.978   3.368   3.910
 2942SOL     OW 9724   3.500   1.607   0.694
 2942SOL    HW1 9725   3.539   1.620   0.785
 2942SOL    HW2 9726   3.413   1.657   0.688
 2943SOL     OW 9727   5.731   4.122   3.496
 2943SOL    HW1 9728   5.824   4.157   3.481
 2943SOL    HW2 9729   5.682   4.120   3.409
 2944SOL     OW 9730   2.065   5.614   3.659
 2944SOL    HW1 9731   2.128   5.602   3.582
 2944SOL    HW2 9732   1.971   5.617   3.625
 2945SOL     OW 9733   5.210   4.301   1.454
 2945SOL    HW1 9734   5.246   4.289   1.547
 2945SOL    HW2 9735   5.235   4.392   1.420
 2946SOL     OW 9736   2.994   4.058   6.062
 2946SOL    HW1 9737   3.079   4.020   6.100
 2946SOL    HW2 9738   2.922   4.053   6.131
 2947SOL     OW 9739   5.711   6.580   0.846
 2947SOL    HW1 9740   5.808   6.555   0.845
 2947SOL    HW2 9741   5.670   6.554   0.759
 2948SOL     OW 9742   5.860   3.871   2.467
 2948SOL    HW1 9743   5.887   3.778   2.445
 2948SOL    HW2 9744   5.762   3.874   2.488
 2949SOL     OW 9745   1.428   6.909   0.840
 2949SOL    HW1 9746   1.413   7.008   0.832
 2949SOL    HW2 9747   1.437   6.869   0.749
 2950SOL     OW 9748   5.231   4.338   2.565
 2950SOL    HW1 9749   5.253   4.418   2.621
 2950SOL    HW2 9750   5.272   4.348   2.475
 2951SOL     OW 9751   5.675   1.536   1.583
 2951SOL    HW1 9752   5.636   1.557   1.673
 2951SOL    HW2 9753   5.634   1.453   1.547
 2952SOL     OW 9754   6.245   1.436   4.275
 2952SOL    HW1 9755   6.196   1.349   4.270
 2952SOL    HW2 9756   6.257   1.474   4.183
 2953SOL     OW 9757   1.231   5.823   3.366
 2953SOL    HW1 9758   1.330   5.818   3.367
 2953SOL    HW2 9759   1.201   5.888   3.296
 2954SOL     OW 9760   0.148   4.668   6.064
 2954SOL    HW1 9761   0.138   4.629   5.973
 2954SOL    HW2 9762   0.116   4.602   6.133
 2955SOL     OW 9763   2.057   3.933   0.244
 2955SOL    HW1 9764   1.984   3.923   0.311
 2955SOL    HW2 9765   2.051   3.861   0.176
 2956SOL     OW 9766   6.716   4.121   3.397
 2956SOL    HW1 9767   6.652   4.194   3.423
 2956SOL    HW2 9768   6.745   4.071   3.478
 2957SOL     OW 9769   3.097   5.635   2.009
 2957SOL    HW1 9770   3.043   5.702   2.060
 2957SOL    HW2 9771   3.138   5.678   1.929
 2958SOL     OW 9772   2.272   4.860   3.381
 2958SOL    HW1 9773   2.251   4.955   3.358
 2958SOL    HW2 9774   2.341   4.825   3.318
 2959SOL     OW 9775   6.383   2.058   2.656
 2959SOL    HW1 9776   6.480   2.083   2.660
 2959SOL    HW2 9777   6.329   2.125   2.708
 2960SOL     OW 9778   4.724   0.907   0.654
 2960SOL    HW1 9779   4.709   0.927   0.751
 2960SOL    HW2 9780   4.814   0.941   0.627
 2961SOL     OW 9781   5.580   3.880   2.501
 2961SOL    HW1 9782   5.493   3.899   2.456
 2961SOL    HW2 9783   5.577   3.789   2.543
 2962SOL     OW 9784   0.132   6.534   2.438
 2962SOL    HW1 9785   0.223   6.543   2.479
 2962SOL    HW2 9786   0.098   6.624   2.413
 2963SOL     OW 9787   2.005   1.273   4.885
 2963SOL    HW1 9788   1.948   1.191   4.896
 2963SOL    HW2 9789   1.946   1.350   4.862
 2964SOL     OW 9790   0.768   2.944   6.878
 2964SOL    HW1 9791   0.755   2.996   6.793
 2964SOL    HW2 9792   0.865   2.923   6.890
 2965SOL     OW 9793   0.427   0.250   4.977
 2965SOL    HW1 9794   0.368   0.182   4.933
 2965SOL    HW2 9795   0.494   0.204   5.035
 2966SOL     OW 9796   4.418   5.569   3.587
 2966SOL    HW1 9797   4.484   5.576   3.662
 2966SOL    HW2 9798   4.438   5.639   3.519
 2967SOL     OW 9799   6.348   0.966   5.782
 2967SOL    HW1 9800   6.305   1.052   5.755
 2967SOL    HW2 9801   6.286   0.916   5.843
 2968SOL     OW 9802   1.705   2.151   0.875
 2968SOL    HW1 9803   1.700   2.052   0.865
 2968SOL    HW2 9804   1.655   2.195   0.801
 2969SOL     OW 9805   5.452   3.203   4.257
 2969SOL    HW1 9806   5.471   3.277   4.193
 2969SOL    HW2 9807   5.500   3.120   4.229
 2970SOL     OW 9808   2.509   2.588   4.476
 2970SOL    HW1 9809   2.594   2.547   4.442
 2970SOL    HW2 9810   2.435   2.566   4.413
 2971SOL     OW 9811   5.584   3.948   6.707
 2971SOL    HW1 9812   5.509   3.997   6.664
 2971SOL    HW2 9813   5.644   3.909   6.636
 2972SOL     OW 9814   5.544   4.740   6.888
 2972SOL    HW1 9815   5.510   4.647   6.896
 2972SOL    HW2 9816   5.644   4.739   6.883
 2973SOL     OW 9817   5.057   6.937   2.251
 2973SOL    HW1 9818   5.025   6.895   2.167
 2973SOL    HW2 9819   5.023   0.004   2.257
 2974SOL     OW 9820   5.021   5.619   3.517
 2974SOL    HW1 9821   5.002   5.536   3.569
 2974SOL    HW2 9822   5.031   5.597   3.420
 2975SOL     OW 9823   4.647   4.830   4.304
 2975SOL    HW1 9824   4.709   4.824   4.382
 2975SOL    HW2 9825   4.559   4.791   4.329
 2976SOL     OW 9826   4.419   2.180   1.901
 2976SOL    HW1 9827   4.471   2.099   1.875
 2976SOL    HW2 9828   4.363   2.159   1.981
 2977SOL     OW 9829   1.272   0.769   1.700
 2977SOL    HW1 9830   1.295   0.747   1.605
 2977SOL    HW2 9831   1.282   0.868   1.715
 2978SOL     OW 9832   4.287   4.876   6.231
 2978SOL    HW1 9833   4.300   4.954   6.292
 2978SOL    HW2 9834   4.233   4.903   6.152
 2979SOL     OW 9835   2.977   1.109   4.135
 2979SOL    HW1 9836   2.898   1.067   4.091
 2979SOL    HW2 9837   3.049   1.041   4.147
 2980SOL     OW 9838   3.749   3.884   5.903
 2980SOL    HW1 9839   3.691   3.940   5.843
 2980SOL    HW2 9840   3.789   3.809   5.851
 2981SOL     OW 9841   1.606   1.261   0.796
 2981SOL    HW1 9842   1.517   1.229   0.766
 2981SOL    HW2 9843   1.627   1.349   0.753
 2982SOL     OW 9844   0.729   0.795   1.702
 2982SOL    HW1 9845   0.696   0.727   1.637
 2982SOL    HW2 9846   0.670   0.876   1.697
 2983SOL     OW 9847   6.156   2.939   6.573
 2983SOL    HW1 9848   6.090   2.996   6.621
 2983SOL    HW2 9849   6.154   2.960   6.475
 2984SOL     OW 9850   0.017   5.122   0.407
 2984SOL    HW1 9851   0.097   5.063   0.401
 2984SOL    HW2 9852   0.045   5.217   0.409
 2985SOL     OW 9853   0.304   0.478   4.870
 2985SOL    HW1 9854   0.211   0.498   4.901
 2985SOL    HW2 9855   0.344   0.407   4.927
 2986SOL     OW 9856   3.625   4.037   2.747
 2986SOL    HW1 9857   3.571   3.959   2.716
 2986SOL    HW2 9858   3.697   4.057   2.680
 2987SOL     OW 9859   1.104   1.558   4.373
 2987SOL    HW1 9860   1.060   1.527   4.458
 2987SOL    HW2 9861   1.158   1.483   4.334
 2988SOL     OW 9862   0.559   1.608   0.086
 2988SOL    HW1 9863   0.631   1.559   0.038
 2988SOL    HW2 9864   0.593   1.698   0.113
 2989SOL     OW 9865   5.019   3.582   4.350
 2989SOL    HW1 9866   4.950   3.511   4.340
 2989SOL    HW2 9867   4.975   3.672   4.345
 2990SOL     OW 9868   4.876   2.023   4.311
 2990SOL    HW1 9869   4.843   2.107   4.270
 2990SOL    HW2 9870   4.971   2.035   4.340
 2991SOL     OW 9871   5.653   3.301   0.683
 2991SOL    HW1 9872   5.610   3.384   0.648
 2991SOL    HW2 9873   5.666   3.310   0.782
 2992SOL     OW 9874   0.476   3.034   5.838
 2992SOL    HW1 9875   0.532   2.986   5.771
 2992SOL    HW2 9876   0.526   3.039   5.925
 2993SOL     OW 9877   1.218   4.492   0.416
 2993SOL    HW1 9878   1.241   4.411   0.362
 2993SOL    HW2 9879   1.121   4.514   0.404
 2994SOL     OW 9880   4.862   6.732   0.175
 2994SOL    HW1 9881   4.875   6.819   0.222
 2994SOL    HW2 9882   4.874   6.657   0.239
 2995SOL     OW 9883   4.996   6.801   0.546
 2995SOL    HW1 9884   4.959   6.893   0.560
 2995SOL    HW2 9885   5.094   6.806   0.529
 2996SOL     OW 9886   0.697   1.571   4.982
 2996SOL    HW1 9887   0.663   1.632   4.911
 2996SOL    HW2 9888   0.751   1.498   4.940
 2997SOL     OW 9889   4.953   0.581   3.811
 2997SOL    HW1 9890   4.892   0.503   3.799
 2997SOL    HW2 9891   5.042   0.560   3.770
 2998SOL     OW 9892   2.606   1.458   2.958
 2998SOL    HW1 9893   2.592   1.542   2.905
 2998SOL    HW2 9894   2.675   1.474   3.028
 2999SOL     OW 9895   2.938   4.263   0.402
 2999SOL    HW1 9896   2.987   4.344   0.434
 2999SOL    HW2 9897   2.872   4.234   0.472
 3000SOL     OW 9898   3.321   3.848   5.089
 3000SOL    HW1 9899   3.234   3.799   5.091
 3000SOL    HW2 9900   3.304   3.946   5.099
 3001SOL     OW 9901   6.388   1.702   6.280
 3001SOL    HW1 9902   6.408   1.757   6.361
 3001SOL    HW2 9903   6.305   1.648   6.295
 3002SOL     OW 9904   2.097   1.087   1.867
 3002SOL    HW1 9905   2.048   1.097   1.953
 3002SOL    HW2 9906   2.187   1.129   1.874
 3003SOL     OW 9907   1.424   6.036   0.299
 3003SOL    HW1 9908   1.412   6.040   0.199
 3003SOL    HW2 9909   1.381   5.952   0.333
 3004SOL     OW 9910   2.682   5.637   4.336
 3004SOL    HW1 9911   2.669   5.538   4.328
 3004SOL    HW2 9912   2.594   5.683   4.324
 3005SOL     OW 9913   0.800   2.326   5.370
 3005SOL    HW1 9914   0.831   2.347   5.462
 3005SOL    HW2 9915   0.853   2.379   5.303
 3006SOL     OW 9916   5.521   1.490   5.242
 3006SOL    HW1 9917   5.582   1.476   5.320
 3006SOL    HW2 9918   5.526   1.585   5.212
 3007SOL     OW 9919   5.201   4.643   6.910
 3007SOL    HW1 9920   5.127   4.645   6.978
 3007SOL    HW2 9921   5.226   4.737   6.886
 3008SOL     OW 9922   4.505   2.511   5.624
 3008SOL    HW1 9923   4.421   2.528   5.675
 3008SOL    HW2 9924   4.483   2.468   5.536
 3009SOL     OW 9925   0.651   2.945   2.420
 3009SOL    HW1 9926   0.638   3.023   2.482
 3009SOL    HW2 9927   0.714   2.880   2.462
 3010SOL     OW 9928   4.168   6.280   6.074
 3010SOL    HW1 9929   4.214   6.352   6.127
 3010SOL    HW2 9930   4.141   6.206   6.136
 3011SOL     OW 9931   6.068   0.149   1.009
 3011SOL    HW1 9932   6.153   0.190   1.041
 3011SOL    HW2 9933   6.088   0.066   0.958
 3012SOL     OW 9934   2.755   2.915   6.148
 3012SOL    HW1 9935   2.803   2.838   6.106
 3012SOL    HW2 9936   2.693   2.956   6.081
 3013SOL     OW 9937   0.721   6.188   4.159
 3013SOL    HW1 9938   0.685   6.142   4.240
 3013SOL    HW2 9939   0.810   6.228   4.179
 3014SOL     OW 9940   4.614   0.792   5.758
 3014SOL    HW1 9941   4.671   0.870   5.730
 3014SOL    HW2 9942   4.636   0.766   5.852
 3015SOL     OW 9943   1.348   1.279   0.002
 3015SOL    HW1 9944   1.406   1.202   0.028
 3015SOL    HW2 9945   1.381   1.362   0.048
 3016SOL     OW 9946   2.733   6.399   4.830
 3016SOL    HW1 9947   2.771   6.492   4.829
 3016SOL    HW2 9948   2.751   6.357   4.918
 3017SOL     OW 9949   6.274   5.840   1.763
 3017SOL    HW1 9950   6.239   5.811   1.852
 3017SOL    HW2 9951   6.205   5.821   1.693
 3018SOL     OW 9952   3.410   0.043   0.073
 3018SOL    HW1 9953   3.506   0.060   0.099
 3018SOL    HW2 9954   3.355   0.122   0.100
 3019SOL     OW 9955   1.866   0.221   5.989
 3019SOL    HW1 9956   1.959   0.199   5.959
 3019SOL    HW2 9957   1.861   0.213   6.089
 3020SOL     OW 9958   4.856   3.822   0.182
 3020SOL    HW1 9959   4.758   3.835   0.165
 3020SOL    HW2 9960   4.869   3.747   0.248
 3021SOL     OW 9961   3.881   6.550   4.685
 3021SOL    HW1 9962   3.835   6.618   4.627
 3021SOL    HW2 9963   3.979   6.569   4.687
 3022SOL     OW 9964   4.473   5.992   3.940
 3022SOL    HW1 9965   4.408   5.950   3.876
 3022SOL    HW2 9966   4.448   5.969   4.034
 3023SOL     OW 9967   3.934   6.688   2.986
 3023SOL    HW1 9968   4.010   6.629   2.960
 3023SOL    HW2 9969   3.932   6.698   3.086
 3024SOL     OW 9970   0.290   6.154   6.431
 3024SOL    HW1 9971   0.248   6.151   6.522
 3024SOL    HW2 9972   0.380   6.196   6.438
 3025SOL     OW 9973   3.645   5.880   0.717
 3025SOL    HW1 9974   3.566   5.941   0.729
 3025SOL    HW2 9975   3.612   5.789   0.692
 3026SOL     OW 9976   6.041   1.276   0.702
 3026SOL    HW1 9977   6.036   1.302   0.798
 3026SOL    HW2 9978   6.106   1.201   0.691
 3027SOL     OW 9979   4.980   1.327   1.388
 3027SOL    HW1 9980   5.072   1.321   1.426
 3027SOL    HW2 9981   4.978   1.283   1.298
 3028SOL     OW 9982   2.863   4.638   6.281
 3028SOL    HW1 9983   2.828   4.631   6.374
 3028SOL    HW2 9984   2.915   4.722   6.270
 3029SOL     OW 9985   0.801   1.953   4.335
 3029SOL    HW1 9986   0.899   1.971   4.338
 3029SOL    HW2 9987   0.760   1.974   4.424
 3030SOL     OW 9988   1.791   3.479   0.870
 3030SOL    HW1 9989   1.719   3.489   0.939
 3030SOL    HW2 9990   1.810   3.382   0.856
 3031SOL     OW 9991   1.056   6.082   1.270
 3031SOL    HW1 9992   1.097   6.090   1.360
 3031SOL    HW2 9993   0.993   6.004   1.269
 3032SOL     OW 9994   1.640   0.355   2.890
 3032SOL    HW1 9995   1.564   0.391   2.944
 3032SOL    HW2 9996   1.604   0.301   2.814
 3033SOL     OW 9997   6.720   2.160   4.117
 3033SOL    HW1 9998   6.734   2.224   4.041
 3033SOL    HW2 9999   6.759   2.071   4.093
 3034SOL     OW10000   0.330   5.472   3.907
 3034SOL    HW110001   0.427   5.496   3.900
 3034SOL    HW210002   0.298   5.489   4.000
 3035SOL     OW10003   1.384   2.620   6.228
 3035SOL    HW110004   1.301   2.601   6.280
 3035SOL    HW210005   1.421   2.533   6.193
 3036SOL     OW10006   2.685   2.084   6.595
 3036SOL    HW110007   2.711   2.105   6.501
 3036SOL    HW210008   2.765   2.088   6.655
 3037SOL     OW10009   0.279   5.223   6.443
 3037SOL    HW110010   0.186   5.199   6.470
 3037SOL    HW210011   0.310   5.302   6.497
 3038SOL     OW10012   5.110   4.489   6.619
 3038SOL    HW110013   5.109   4.514   6.523
 3038SOL    HW210014   5.169   4.551   6.670
 3039SOL     OW10015   6.462   4.427   7.024
 3039SOL    HW110016   6.502   4.432   6.933
 3039SOL    HW210017   6.448   4.331   0.022
 3040SOL     OW10018   4.007   4.510   6.211
 3040SOL    HW110019   3.970   4.431   6.260
 3040SOL    HW210020   4.057   4.569   6.275
 3041SOL     OW10021   2.226   4.281   4.975
 3041SOL    HW110022   2.255   4.188   4.950
 3041SOL    HW210023   2.184   4.279   5.066
 3042SOL     OW10024   6.963   5.198   3.140
 3042SOL    HW110025   0.006   5.198   3.069
 3042SOL    HW210026   6.886   5.141   3.111
 3043SOL     OW10027   3.039   4.592   0.756
 3043SOL    HW110028   2.945   4.569   0.732
 3043SOL    HW210029   3.045   4.691   0.772
 3044SOL     OW10030   3.213   3.561   5.253
 3044SOL    HW110031   3.277   3.630   5.287
 3044SOL    HW210032   3.192   3.581   5.157
 3045SOL     OW10033   4.913   1.458   2.383
 3045SOL    HW110034   4.935   1.398   2.307
 3045SOL    HW210035   4.840   1.521   2.356
 3046SOL     OW10036   5.587   5.599   0.702
 3046SOL    HW110037   5.617   5.503   0.699
 3046SOL    HW210038   5.664   5.659   0.683
 3047SOL     OW10039   6.487   0.487   6.424
 3047SOL    HW110040   6.457   0.425   6.497
 3047SOL    HW210041   6.492   0.580   6.459
 3048SOL     OW10042   3.826   3.406   1.172
 3048SOL    HW110043   3.889   3.362   1.235
 3048SOL    HW210044   3.859   3.499   1.152
 3049SOL     OW10045   1.353   0.512   4.544
 3049SOL    HW110046   1.299   0.471   4.470
 3049SOL    HW210047   1.446   0.475   4.542
 3050SOL     OW10048   3.080   2.580   1.341
 3050SOL    HW110049   3.020   2.609   1.416
 3050SOL    HW210050   3.058   2.487   1.315
 3051SOL     OW10051   2.325   6.729   4.768
 3051SOL    HW110052   2.410   6.698   4.811
 3051SOL    HW210053   2.257   6.655   4.772
 3052SOL     OW10054   6.223   6.137   2.615
 3052SOL    HW110055   6.290   6.181   2.555
 3052SOL    HW210056   6.229   6.175   2.707
 3053SOL     OW10057   1.430   4.321   0.645
 3053SOL    HW110058   1.408   4.418   0.638
 3053SOL    HW210059   1.528   4.308   0.633
 3054SOL     OW10060   5.889   1.393   2.618
 3054SOL    HW110061   5.830   1.337   2.559
 3054SOL    HW210062   5.844   1.405   2.707
 3055SOL     OW10063   6.124   5.638   6.462
 3055SOL    HW110064   6.135   5.545   6.427
 3055SOL    HW210065   6.033   5.672   6.436
 3056SOL     OW10066   4.999   1.569   6.344
 3056SOL    HW110067   4.940   1.505   6.295
 3056SOL    HW210068   4.969   1.575   6.440
 3057SOL     OW10069   6.185   5.551   3.118
 3057SOL    HW110070   6.285   5.547   3.123
 3057SOL    HW210071   6.146   5.472   3.166
 3058SOL     OW10072   6.220   4.566   0.095
 3058SOL    HW110073   6.177   4.524   0.174
 3058SOL    HW210074   6.313   4.530   0.085
 3059SOL     OW10075   2.564   2.473   4.732
 3059SOL    HW110076   2.484   2.508   4.783
 3059SOL    HW210077   2.567   2.515   4.642
 3060SOL     OW10078   4.446   5.210   5.518
 3060SOL    HW110079   4.450   5.307   5.495
 3060SOL    HW210080   4.351   5.181   5.520
 3061SOL     OW10081   5.195   4.915   5.196
 3061SOL    HW110082   5.196   4.903   5.097
 3061SOL    HW210083   5.278   4.963   5.225
 3062SOL     OW10084   4.985   3.893   1.355
 3062SOL    HW110085   4.968   3.796   1.333
 3062SOL    HW210086   4.969   3.908   1.452
 3063SOL     OW10087   6.936   4.555   1.326
 3063SOL    HW110088   6.971   4.536   1.233
 3063SOL    HW210089   6.902   4.470   1.366
 3064SOL     OW10090   4.104   1.684   6.652
 3064SOL    HW110091   4.036   1.747   6.614
 3064SOL    HW210092   4.195   1.723   6.641
 3065SOL     OW10093   0.771   0.752   6.591
 3065SOL    HW110094   0.720   0.673   6.557
 3065SOL    HW210095   0.810   0.730   6.680
 3066SOL     OW10096   5.540   6.033   6.079
 3066SOL    HW110097   5.516   5.938   6.060
 3066SOL    HW210098   5.624   6.037   6.133
 3067SOL     OW10099   2.420   2.537   6.553
 3067SOL    HW110100   2.398   2.555   6.457
 3067SOL    HW210101   2.515   2.563   6.571
 3068SOL     OW10102   0.447   0.996   0.929
 3068SOL    HW110103   0.504   1.079   0.929
 3068SOL    HW210104   0.506   0.915   0.927
 3069SOL     OW10105   4.902   0.334   2.540
 3069SOL    HW110106   4.969   0.375   2.479
 3069SOL    HW210107   4.894   0.389   2.623
 3070SOL     OW10108   2.932   1.525   1.229
 3070SOL    HW110109   2.849   1.574   1.202
 3070SOL    HW210110   2.907   1.437   1.269
 3071SOL     OW10111   0.217   2.994   3.483
 3071SOL    HW110112   0.154   2.942   3.541
 3071SOL    HW210113   0.165   3.048   3.417
 3072SOL     OW10114   2.337   6.765   6.488
 3072SOL    HW110115   2.254   6.718   6.460
 3072SOL    HW210116   2.351   6.754   6.586
 3073SOL     OW10117   6.228   4.946   0.729
 3073SOL    HW110118   6.204   4.849   0.737
 3073SOL    HW210119   6.169   4.990   0.661
 3074SOL     OW10120   2.107   3.323   1.344
 3074SOL    HW110121   2.155   3.401   1.306
 3074SOL    HW210122   2.174   3.257   1.379
 3075SOL     OW10123   2.240   5.131   3.332
 3075SOL    HW110124   2.141   5.135   3.345
 3075SOL    HW210125   2.267   5.199   3.264
 3076SOL     OW10126   6.873   0.418   4.586
 3076SOL    HW110127   6.793   0.394   4.531
 3076SOL    HW210128   6.897   0.513   4.570
 3077SOL     OW10129   6.553   4.350   1.929
 3077SOL    HW110130   6.613   4.430   1.927
 3077SOL    HW210131   6.599   4.276   1.977
 3078SOL     OW10132   6.896   2.872   1.719
 3078SOL    HW110133   6.970   2.908   1.776
 3078SOL    HW210134   6.881   2.776   1.742
 3079SOL     OW10135   2.383   3.257   5.341
 3079SOL    HW110136   2.450   3.298   5.402
 3079SOL    HW210137   2.423   3.179   5.295
 3080SOL     OW10138   4.349   5.084   1.180
 3080SOL    HW110139   4.266   5.037   1.148
 3080SOL    HW210140   4.375   5.048   1.269
 3081SOL     OW10141   1.712   4.010   0.828
 3081SOL    HW110142   1.629   3.990   0.880
 3081SOL    HW210143   1.762   3.925   0.812
 3082SOL     OW10144   3.895   4.916   4.645
 3082SOL    HW110145   3.964   4.848   4.670
 3082SOL    HW210146   3.922   5.006   4.680
 3083SOL     OW10147   2.307   5.507   2.637
 3083SOL    HW110148   2.245   5.518   2.715
 3083SOL    HW210149   2.287   5.420   2.591
 3084SOL     OW10150   0.720   3.482   3.727
 3084SOL    HW110151   0.799   3.502   3.669
 3084SOL    HW210152   0.750   3.465   3.820
 3085SOL     OW10153   4.513   4.689   1.025
 3085SOL    HW110154   4.527   4.695   0.926
 3085SOL    HW210155   4.562   4.609   1.061
 3086SOL     OW10156   6.264   1.236   6.531
 3086SOL    HW110157   6.335   1.191   6.477
 3086SOL    HW210158   6.297   1.327   6.559
 3087SOL     OW10159   2.984   6.717   1.790
 3087SOL    HW110160   2.917   6.748   1.722
 3087SOL    HW210161   3.068   6.689   1.744
 3088SOL     OW10162   1.110   2.661   5.069
 3088SOL    HW110163   1.133   2.727   5.140
 3088SOL    HW210164   1.011   2.660   5.054
 3089SOL     OW10165   5.081   0.047   5.222
 3089SOL    HW110166   5.009   0.106   5.186
 3089SOL    HW210167   5.124   7.024   5.146
 3090SOL     OW10168   1.130   2.313   1.738
 3090SOL    HW110169   1.177   2.298   1.651
 3090SOL    HW210170   1.061   2.242   1.752
 3091SOL     OW10171   1.186   1.989   0.298
 3091SOL    HW110172   1.129   1.946   0.367
 3091SOL    HW210173   1.143   1.979   0.208
 3092SOL     OW10174   6.597   6.732   2.682
 3092SOL    HW110175   6.564   6.673   2.755
 3092SOL    HW210176   6.697   6.735   2.684
 3093SOL     OW10177   5.336   5.155   6.546
 3093SOL    HW110178   5.240   5.163   6.573
 3093SOL    HW210179   5.365   5.238   6.498
 3094SOL     OW10180   2.705   1.393   6.080
 3094SOL    HW110181   2.779   1.363   6.019
 3094SOL    HW210182   2.682   1.488   6.061
 3095SOL     OW10183   2.237   3.421   5.199
 3095SOL    HW110184   2.289   3.338   5.221
 3095SOL    HW210185   2.196   3.411   5.109
 3096SOL     OW10186   0.414   3.472   4.648
 3096SOL    HW110187   0.438   3.420   4.730
 3096SOL    HW210188   0.462   3.560   4.648
 3097SOL     OW10189   5.454   2.796   6.588
 3097SOL    HW110190   5.524   2.726   6.574
 3097SOL    HW210191   5.466   2.869   6.520
 3098SOL     OW10192   1.873   1.907   1.863
 3098SOL    HW110193   1.884   1.988   1.805
 3098SOL    HW210194   1.786   1.913   1.912
 3099SOL     OW10195   0.342   6.249   3.798
 3099SOL    HW110196   0.391   6.249   3.710
 3099SOL    HW210197   0.325   6.154   3.826
 3100SOL     OW10198   6.577   5.542   2.318
 3100SOL    HW110199   6.647   5.592   2.370
 3100SOL    HW210200   6.532   5.604   2.254
 3101SOL     OW10201   4.015   6.492   5.847
 3101SOL    HW110202   3.998   6.591   5.851
 3101SOL    HW210203   3.928   6.444   5.843
 3102SOL     OW10204   0.398   4.915   0.657
 3102SOL    HW110205   0.417   4.990   0.594
 3102SOL    HW210206   0.317   4.938   0.712
 3103SOL     OW10207   3.408   0.392   1.100
 3103SOL    HW110208   3.484   0.419   1.159
 3103SOL    HW210209   3.357   0.318   1.144
 3104SOL     OW10210   4.686   0.473   5.988
 3104SOL    HW110211   4.637   0.394   5.951
 3104SOL    HW210212   4.781   0.471   5.958
 3105SOL     OW10213   5.241   3.368   0.222
 3105SOL    HW110214   5.179   3.329   0.154
 3105SOL    HW210215   5.190   3.432   0.280
 3106SOL     OW10216   6.070   0.652   5.027
 3106SOL    HW110217   6.129   0.730   5.050
 3106SOL    HW210218   5.979   0.667   5.064
 3107SOL     OW10219   4.149   0.874   5.870
 3107SOL    HW110220   4.205   0.826   5.937
 3107SOL    HW210221   4.124   0.964   5.906
 3108SOL     OW10222   1.859   4.156   4.573
 3108SOL    HW110223   1.958   4.157   4.560
 3108SOL    HW210224   1.814   4.138   4.485
 3109SOL     OW10225   6.871   6.482   3.927
 3109SOL    HW110226   6.802   6.482   3.999
 3109SOL    HW210227   6.921   6.395   3.929
 3110SOL     OW10228   1.759   4.478   3.686
 3110SOL    HW110229   1.687   4.510   3.747
 3110SOL    HW210230   1.793   4.390   3.719
 3111SOL     OW10231   6.447   4.455   4.949
 3111SOL    HW110232   6.528   4.512   4.963
 3111SOL    HW210233   6.467   4.361   4.977
 3112SOL     OW10234   3.277   2.325   6.930
 3112SOL    HW110235   3.296   2.230   6.954
 3112SOL    HW210236   3.323   2.386   6.995
 3113SOL     OW10237   1.929   5.117   3.396
 3113SOL    HW110238   1.835   5.085   3.385
 3113SOL    HW210239   1.934   5.214   3.374
 3114SOL     OW10240   4.385   1.041   6.987
 3114SOL    HW110241   4.324   0.990   6.927
 3114SOL    HW210242   4.404   0.988   0.043
 3115SOL     OW10243   4.104   4.863   5.695
 3115SOL    HW110244   4.145   4.781   5.734
 3115SOL    HW210245   4.093   4.851   5.596
 3116SOL     OW10246   0.339   2.103   0.662
 3116SOL    HW110247   0.333   2.177   0.595
 3116SOL    HW210248   0.251   2.058   0.670
 3117SOL     OW10249   5.175   1.803   5.060
 3117SOL    HW110250   5.197   1.834   5.152
 3117SOL    HW210251   5.143   1.880   5.005
 3118SOL     OW10252   2.024   1.306   2.893
 3118SOL    HW110253   2.116   1.278   2.920
 3118SOL    HW210254   2.014   1.405   2.905
 3119SOL     OW10255   4.158   3.652   6.079
 3119SOL    HW110256   4.181   3.748   6.062
 3119SOL    HW210257   4.093   3.621   6.010
 3120SOL     OW10258   2.290   0.009   4.826
 3120SOL    HW110259   2.369   6.979   4.848
 3120SOL    HW210260   2.287   0.086   4.889
 3121SOL     OW10261   5.219   1.560   4.513
 3121SOL    HW110262   5.253   1.646   4.552
 3121SOL    HW210263   5.213   1.569   4.413
 3122SOL     OW10264   4.248   5.343   4.717
 3122SOL    HW110265   4.245   5.427   4.771
 3122SOL    HW210266   4.248   5.367   4.619
 3123SOL     OW10267   2.602   2.203   3.254
 3123SOL    HW110268   2.575   2.151   3.335
 3123SOL    HW210269   2.592   2.301   3.273
 3124SOL     OW10270   4.934   6.834   3.989
 3124SOL    HW110271   5.019   6.851   4.040
 3124SOL    HW210272   4.857   6.872   4.040
 3125SOL     OW10273   1.617   2.601   4.946
 3125SOL    HW110274   1.603   2.687   4.995
 3125SOL    HW210275   1.528   2.559   4.925
 3126SOL     OW10276   5.363   5.214   4.407
 3126SOL    HW110277   5.332   5.260   4.324
 3126SOL    HW210278   5.374   5.117   4.389
 3127SOL     OW10279   0.563   1.698   4.159
 3127SOL    HW110280   0.478   1.652   4.181
 3127SOL    HW210281   0.569   1.784   4.210
 3128SOL     OW10282   4.703   0.217   0.053
 3128SOL    HW110283   4.662   0.181   0.137
 3128SOL    HW210284   4.691   0.316   0.049
 3129SOL     OW10285   4.666   3.535   0.819
 3129SOL    HW110286   4.729   3.459   0.833
 3129SOL    HW210287   4.692   3.613   0.876
 3130SOL     OW10288   1.235   4.529   1.621
 3130SOL    HW110289   1.260   4.587   1.699
 3130SOL    HW210290   1.315   4.475   1.593
 3131SOL     OW10291   6.823   4.070   2.284
 3131SOL    HW110292   6.882   4.114   2.352
 3131SOL    HW210293   6.783   4.139   2.225
 3132SOL     OW10294   4.039   4.217   0.118
 3132SOL    HW110295   4.092   4.157   0.058
 3132SOL    HW210296   4.029   4.306   0.075
 3133SOL     OW10297   4.128   0.678   3.764
 3133SOL    HW110298   4.147   0.605   3.698
 3133SOL    HW210299   4.211   0.697   3.817
 3134SOL     OW10300   3.774   5.289   2.692
 3134SOL    HW110301   3.829   5.289   2.608
 3134SOL    HW210302   3.711   5.212   2.690
 3135SOL     OW10303   5.575   6.679   6.159
 3135SOL    HW110304   5.570   6.762   6.214
 3135SOL    HW210305   5.629   6.609   6.208
 3136SOL     OW10306   6.202   1.058   2.815
 3136SOL    HW110307   6.218   0.974   2.866
 3136SOL    HW210308   6.116   1.099   2.844
 3137SOL     OW10309   6.263   6.783   0.145
 3137SOL    HW110310   6.189   6.720   0.167
 3137SOL    HW210311   6.226   6.875   0.130
 3138SOL     OW10312   5.401   4.957   4.359
 3138SOL    HW110313   5.495   4.929   4.342
 3138SOL    HW210314   5.343   4.930   4.282
 3139SOL     OW10315   2.516   5.647   1.421
 3139SOL    HW110316   2.496   5.732   1.372
 3139SOL    HW210317   2.464   5.645   1.506
 3140SOL     OW10318   6.581   6.549   5.792
 3140SOL    HW110319   6.678   6.530   5.806
 3140SOL    HW210320   6.527   6.485   5.847
 3141SOL     OW10321   6.815   2.450   6.753
 3141SOL    HW110322   6.873   2.471   6.832
 3141SOL    HW210323   6.725   2.493   6.766
 3142SOL     OW10324   5.419   0.816   2.233
 3142SOL    HW110325   5.354   0.893   2.233
 3142SOL    HW210326   5.509   0.848   2.206
 3143SOL     OW10327   6.220   1.192   0.478
 3143SOL    HW110328   6.173   1.235   0.401
 3143SOL    HW210329   6.216   1.092   0.468
 3144SOL     OW10330   4.169   4.211   6.246
 3144SOL    HW110331   4.078   4.225   6.206
 3144SOL    HW210332   4.164   4.142   6.318
 3145SOL     OW10333   1.492   5.792   1.448
 3145SOL    HW110334   1.515   5.710   1.395
 3145SOL    HW210335   1.395   5.790   1.471
 3146SOL     OW10336   0.697   0.591   5.145
 3146SOL    HW110337   0.706   0.648   5.063
 3146SOL    HW210338   0.605   0.599   5.182
 3147SOL     OW10339   3.961   4.855   6.604
 3147SOL    HW110340   3.878   4.820   6.648
 3147SOL    HW210341   4.020   4.896   6.673
 3148SOL     OW10342   0.740   5.503   2.998
 3148SOL    HW110343   0.731   5.471   3.092
 3148SOL    HW210344   0.816   5.567   2.991
 3149SOL     OW10345   2.879   1.358   0.980
 3149SOL    HW110346   2.932   1.348   0.896
 3149SOL    HW210347   2.940   1.384   1.055
 3150SOL     OW10348   6.760   6.448   4.979
 3150SOL    HW110349   6.771   6.364   5.033
 3150SOL    HW210350   6.696   6.431   4.904
 3151SOL     OW10351   5.728   1.839   6.236
 3151SOL    HW110352   5.654   1.772   6.230
 3151SOL    HW210353   5.695   1.921   6.284
 3152SOL     OW10354   1.495   3.561   6.275
 3152SOL    HW110355   1.524   3.468   6.254
 3152SOL    HW210356   1.576   3.620   6.281
 3153SOL     OW10357   6.769   5.414   0.696
 3153SOL    HW110358   6.679   5.398   0.655
 3153SOL    HW210359   6.759   5.434   0.793
 3154SOL     OW10360   5.793   1.719   1.428
 3154SOL    HW110361   5.714   1.771   1.396
 3154SOL    HW210362   5.762   1.635   1.472
 3155SOL     OW10363   0.168   4.620   0.450
 3155SOL    HW110364   0.111   4.664   0.520
 3155SOL    HW210365   0.248   4.676   0.432
 3156SOL     OW10366   3.605   4.165   2.041
 3156SOL    HW110367   3.689   4.146   2.093
 3156SOL    HW210368   3.597   4.263   2.024
 3157SOL     OW10369   0.647   1.691   5.557
 3157SOL    HW110370   0.727   1.662   5.506
 3157SOL    HW210371   0.659   1.786   5.586
 3158SOL     OW10372   3.128   1.624   5.293
 3158SOL    HW110373   3.204   1.563   5.269
 3158SOL    HW210374   3.143   1.714   5.252
 3159SOL     OW10375   5.280   6.821   0.507
 3159SOL    HW110376   5.300   6.798   0.412
 3159SOL    HW210377   5.347   6.887   0.540
 3160SOL     OW10378   2.636   6.926   5.943
 3160SOL    HW110379   2.674   6.841   5.979
 3160SOL    HW210380   2.606   6.984   6.019
 3161SOL     OW10381   1.902   2.776   3.208
 3161SOL    HW110382   1.813   2.768   3.164
 3161SOL    HW210383   1.889   2.783   3.307
 3162SOL     OW10384   1.777   5.798   0.598
 3162SOL    HW110385   1.750   5.815   0.503
 3162SOL    HW210386   1.701   5.757   0.647
 3163SOL     OW10387   4.602   3.837   0.135
 3163SOL    HW110388   4.542   3.903   0.180
 3163SOL    HW210389   4.620   3.866   0.041
 3164SOL     OW10390   2.691   5.636   3.666
 3164SOL    HW110391   2.775   5.667   3.621
 3164SOL    HW210392   2.663   5.548   3.627
 3165SOL     OW10393   1.181   5.286   0.091
 3165SOL    HW110394   1.276   5.314   0.074
 3165SOL    HW210395   1.180   5.193   0.128
 3166SOL     OW10396   3.913   0.944   5.282
 3166SOL    HW110397   3.955   0.867   5.234
 3166SOL    HW210398   3.822   0.961   5.246
 3167SOL     OW10399   4.517   4.277   0.837
 3167SOL    HW110400   4.479   4.197   0.790
 3167SOL    HW210401   4.443   4.329   0.878
 3168SOL     OW10402   4.231   1.920   0.628
 3168SOL    HW110403   4.245   1.887   0.535
 3168SOL    HW210404   4.170   1.999   0.627
 3169SOL     OW10405   1.022   5.116   2.319
 3169SOL    HW110406   1.065   5.056   2.252
 3169SOL    HW210407   0.942   5.161   2.277
 3170SOL     OW10408   3.792   5.490   3.115
 3170SOL    HW110409   3.751   5.543   3.041
 3170SOL    HW210410   3.749   5.514   3.202
 3171SOL     OW10411   5.696   2.410   3.075
 3171SOL    HW110412   5.682   2.360   3.160
 3171SOL    HW210413   5.654   2.501   3.082
 3172SOL     OW10414   0.121   4.750   0.128
 3172SOL    HW110415   0.024   4.765   0.149
 3172SOL    HW210416   0.177   4.777   0.205
 3173SOL     OW10417   3.422   1.551   7.009
 3173SOL    HW110418   3.495   1.618   7.018
 3173SOL    HW210419   3.336   1.592   0.014
 3174SOL     OW10420   2.620   3.854   5.953
 3174SOL    HW110421   2.552   3.860   5.880
 3174SOL    HW210422   2.701   3.805   5.920
 3175SOL     OW10423   6.560   1.076   3.352
 3175SOL    HW110424   6.583   1.001   3.289
 3175SOL    HW210425   6.596   1.055   3.443
 3176SOL     OW10426   0.635   4.490   4.881
 3176SOL    HW110427   0.704   4.473   4.811
 3176SOL    HW210428   0.604   4.585   4.875
 3177SOL     OW10429   5.790   3.791   3.321
 3177SOL    HW110430   5.690   3.790   3.323
 3177SOL    HW210431   5.825   3.761   3.410
 3178SOL     OW10432   6.366   1.144   0.698
 3178SOL    HW110433   6.391   1.218   0.761
 3178SOL    HW210434   6.342   1.183   0.609
 3179SOL     OW10435   0.894   1.819   1.888
 3179SOL    HW110436   0.979   1.866   1.915
 3179SOL    HW210437   0.854   1.774   1.968
 3180SOL     OW10438   6.785   5.851   6.552
 3180SOL    HW110439   6.878   5.872   6.523
 3180SOL    HW210440   6.753   5.923   6.615
 3181SOL     OW10441   0.637   1.200   4.695
 3181SOL    HW110442   0.604   1.106   4.699
 3181SOL    HW210443   0.565   1.261   4.729
 3182SOL     OW10444   2.767   0.400   0.158
 3182SOL    HW110445   2.706   0.478   0.152
 3182SOL    HW210446   2.779   0.374   0.254
 3183SOL     OW10447   4.614   4.413   2.198
 3183SOL    HW110448   4.548   4.481   2.229
 3183SOL    HW210449   4.588   4.380   2.107
 3184SOL     OW10450   0.698   2.157   4.125
 3184SOL    HW110451   0.752   2.202   4.196
 3184SOL    HW210452   0.741   2.172   4.036
 3185SOL     OW10453   0.155   6.401   6.388
 3185SOL    HW110454   0.093   6.417   6.311
 3185SOL    HW210455   0.175   6.303   6.395
 3186SOL     OW10456   1.178   1.322   6.013
 3186SOL    HW110457   1.123   1.405   6.018
 3186SOL    HW210458   1.274   1.346   6.002
 3187SOL     OW10459   4.175   5.822   2.610
 3187SOL    HW110460   4.242   5.855   2.544
 3187SOL    HW210461   4.088   5.805   2.563
 3188SOL     OW10462   2.140   4.765   5.827
 3188SOL    HW110463   2.239   4.754   5.839
 3188SOL    HW210464   2.116   4.746   5.732
 3189SOL     OW10465   2.791   1.539   0.242
 3189SOL    HW110466   2.713   1.527   0.181
 3189SOL    HW210467   2.825   1.633   0.235
 3190SOL     OW10468   0.049   5.979   4.772
 3190SOL    HW110469   0.073   6.076   4.763
 3190SOL    HW210470   0.021   5.961   4.866
 3191SOL     OW10471   4.953   5.568   2.212
 3191SOL    HW110472   4.974   5.486   2.159
 3191SOL    HW210473   5.037   5.622   2.225
 3192SOL     OW10474   6.428   2.245   1.653
 3192SOL    HW110475   6.479   2.164   1.681
 3192SOL    HW210476   6.341   2.217   1.613
 3193SOL     OW10477   4.380   0.644   5.250
 3193SOL    HW110478   4.298   0.633   5.307
 3193SOL    HW210479   4.413   0.553   5.222
 3194SOL     OW10480   1.600   1.065   5.394
 3194SOL    HW110481   1.684   1.064   5.449
 3194SOL    HW210482   1.592   0.979   5.344
 3195SOL     OW10483   0.494   1.424   1.616
 3195SOL    HW110484   0.468   1.462   1.705
 3195SOL    HW210485   0.571   1.476   1.579
 3196SOL     OW10486   6.575   0.474   5.312
 3196SOL    HW110487   6.662   0.460   5.358
 3196SOL    HW210488   6.584   0.547   5.244
 3197SOL     OW10489   2.544   0.182   6.417
 3197SOL    HW110490   2.638   0.187   6.382
 3197SOL    HW210491   2.497   0.268   6.399
 3198SOL     OW10492   6.554   2.495   3.461
 3198SOL    HW110493   6.570   2.415   3.520
 3198SOL    HW210494   6.618   2.567   3.484
 3199SOL     OW10495   5.786   4.514   3.132
 3199SOL    HW110496   5.700   4.538   3.086
 3199SOL    HW210497   5.862   4.564   3.090
 3200SOL     OW10498   5.761   3.333   4.036
 3200SOL    HW110499   5.764   3.289   3.946
 3200SOL    HW210500   5.666   3.358   4.057
 3201SOL     OW10501   6.292   4.487   2.971
 3201SOL    HW110502   6.203   4.528   2.987
 3201SOL    HW210503   6.301   4.465   2.873
 3202SOL     OW10504   1.094   4.796   0.560
 3202SOL    HW110505   1.182   4.772   0.518
 3202SOL    HW210506   1.102   4.792   0.659
 3203SOL     OW10507   4.298   6.723   1.708
 3203SOL    HW110508   4.204   6.737   1.736
 3203SOL    HW210509   4.327   6.798   1.648
 3204SOL     OW10510   2.895   1.113   3.657
 3204SOL    HW110511   2.847   1.201   3.661
 3204SOL    HW210512   2.993   1.129   3.665
 3205SOL     OW10513   5.662   3.273   5.785
 3205SOL    HW110514   5.577   3.321   5.764
 3205SOL    HW210515   5.659   3.239   5.879
 3206SOL     OW10516   2.483   2.761   1.573
 3206SOL    HW110517   2.465   2.854   1.539
 3206SOL    HW210518   2.401   2.725   1.616
 3207SOL     OW10519   0.620   0.358   5.677
 3207SOL    HW110520   0.647   0.283   5.738
 3207SOL    HW210521   0.670   0.441   5.703
 3208SOL     OW10522   6.066   5.847   5.034
 3208SOL    HW110523   5.988   5.786   5.019
 3208SOL    HW210524   6.150   5.794   5.033
 3209SOL     OW10525   4.833   5.441   6.173
 3209SOL    HW110526   4.859   5.531   6.208
 3209SOL    HW210527   4.760   5.403   6.230
 3210SOL     OW10528   0.358   5.322   1.731
 3210SOL    HW110529   0.366   5.333   1.830
 3210SOL    HW210530   0.445   5.346   1.688
 3211SOL     OW10531   1.353   5.754   0.736
 3211SOL    HW110532   1.383   5.724   0.827
 3211SOL    HW210533   1.406   5.707   0.666
 3212SOL     OW10534   3.325   6.907   2.543
 3212SOL    HW110535   3.241   6.961   2.553
 3212SOL    HW210536   3.352   6.904   2.447
 3213SOL     OW10537   2.161   0.735   6.305
 3213SOL    HW110538   2.137   0.828   6.335
 3213SOL    HW210539   2.253   0.735   6.267
 3214SOL     OW10540   3.838   0.589   3.003
 3214SOL    HW110541   3.894   0.671   3.016
 3214SOL    HW210542   3.778   0.602   2.924
 3215SOL     OW10543   1.223   3.325   0.570
 3215SOL    HW110544   1.232   3.248   0.633
 3215SOL    HW210545   1.228   3.411   0.621
 3216SOL     OW10546   5.328   4.221   1.204
 3216SOL    HW110547   5.313   4.267   1.291
 3216SOL    HW210548   5.274   4.137   1.201
 3217SOL     OW10549   6.915   4.947   2.801
 3217SOL    HW110550   6.907   5.017   2.730
 3217SOL    HW210551   6.994   4.967   2.859
 3218SOL     OW10552   6.935   1.731   2.914
 3218SOL    HW110553   6.852   1.680   2.941
 3218SOL    HW210554   7.011   1.667   2.906
 3219SOL     OW10555   6.888   0.755   5.081
 3219SOL    HW110556   6.971   0.698   5.081
 3219SOL    HW210557   6.820   0.714   5.142
 3220SOL     OW10558   6.891   5.680   6.902
 3220SOL    HW110559   6.989   5.698   6.904
 3220SOL    HW210560   6.841   5.765   6.883
 3221SOL     OW10561   4.084   0.472   2.378
 3221SOL    HW110562   4.135   0.524   2.309
 3221SOL    HW210563   4.024   0.533   2.428
 3222SOL     OW10564   2.931   1.397   2.940
 3222SOL    HW110565   2.879   1.461   2.996
 3222SOL    HW210566   3.029   1.405   2.960
 3223SOL     OW10567   1.729   6.736   0.480
 3223SOL    HW110568   1.776   6.746   0.568
 3223SOL    HW210569   1.792   6.698   0.413
 3224SOL     OW10570   4.822   2.851   4.933
 3224SOL    HW110571   4.835   2.871   5.030
 3224SOL    HW210572   4.819   2.936   4.882
 3225SOL     OW10573   3.708   1.125   4.040
 3225SOL    HW110574   3.791   1.152   3.991
 3225SOL    HW210575   3.733   1.071   4.121
 3226SOL     OW10576   1.046   0.147   2.010
 3226SOL    HW110577   1.101   0.172   1.930
 3226SOL    HW210578   1.071   0.055   2.039
 3227SOL     OW10579   4.056   2.332   6.359
 3227SOL    HW110580   4.004   2.396   6.303
 3227SOL    HW210581   4.138   2.303   6.309
 3228SOL     OW10582   1.192   3.973   0.773
 3228SOL    HW110583   1.210   4.065   0.807
 3228SOL    HW210584   1.132   3.978   0.693
 3229SOL     OW10585   2.449   1.054   6.142
 3229SOL    HW110586   2.426   0.959   6.162
 3229SOL    HW210587   2.427   1.075   6.047
 3230SOL     OW10588   2.747   5.838   5.774
 3230SOL    HW110589   2.730   5.752   5.822
 3230SOL    HW210590   2.665   5.895   5.777
 3231SOL     OW10591   3.385   0.938   2.760
 3231SOL    HW110592   3.301   0.913   2.713
 3231SOL    HW210593   3.459   0.877   2.732
 3232SOL     OW10594   4.034   5.804   4.325
 3232SOL    HW110595   4.071   5.721   4.285
 3232SOL    HW210596   3.978   5.781   4.405
 3233SOL     OW10597   0.335   2.316   6.993
 3233SOL    HW110598   0.405   2.325   6.922
 3233SOL    HW210599   0.379   2.308   0.055
 3234SOL     OW10600   2.013   3.126   0.773
 3234SOL    HW110601   1.989   3.104   0.868
 3234SOL    HW210602   2.102   3.172   0.771
 3235SOL     OW10603   6.517   5.712   1.860
 3235SOL    HW110604   6.461   5.784   1.820
 3235SOL    HW210605   6.458   5.641   1.898
 3236SOL     OW10606   2.673   4.238   0.516
 3236SOL    HW110607   2.588   4.290   0.505
 3236SOL    HW210608   2.675   4.163   0.450
 3237SOL     OW10609   6.380   1.617   4.429
 3237SOL    HW110610   6.344   1.579   4.344
 3237SOL    HW210611   6.405   1.543   4.491
 3238SOL     OW10612   6.054   5.146   0.573
 3238SOL    HW110613   6.092   5.238   0.577
 3238SOL    HW210614   5.970   5.142   0.628
 3239SOL     OW10615   0.157   0.252   4.040
 3239SOL    HW110616   0.245   0.298   4.052
 3239SOL    HW210617   0.096   0.277   4.116
 3240SOL     OW10618   0.226   0.346   6.527
 3240SOL    HW110619   0.230   0.250   6.498
 3240SOL    HW210620   0.299   0.398   6.483
 3241SOL     OW10621   4.758   1.605   6.192
 3241SOL    HW110622   4.764   1.512   6.227
 3241SOL    HW210623   4.849   1.647   6.193
 3242SOL     OW10624   5.118   4.198   5.692
 3242SOL    HW110625   5.099   4.287   5.651
 3242SOL    HW210626   5.183   4.209   5.767
 3243SOL     OW10627   4.117   5.507   6.408
 3243SOL    HW110628   4.068   5.466   6.485
 3243SOL    HW210629   4.100   5.453   6.325
 3244SOL     OW10630   5.875   6.292   6.655
 3244SOL    HW110631   5.880   6.284   6.555
 3244SOL    HW210632   5.965   6.273   6.694
 3245SOL     OW10633   4.363   2.459   4.142
 3245SOL    HW110634   4.461   2.469   4.162
 3245SOL    HW210635   4.318   2.414   4.218
 3246SOL     OW10636   0.424   6.969   2.147
 3246SOL    HW110637   0.361   6.899   2.181
 3246SOL    HW210638   0.489   6.927   2.084
 3247SOL     OW10639   0.354   4.319   2.703
 3247SOL    HW110640   0.278   4.278   2.652
 3247SOL    HW210641   0.421   4.248   2.724
 3248SOL     OW10642   5.468   2.058   2.690
 3248SOL    HW110643   5.563   2.079   2.665
 3248SOL    HW210644   5.446   2.099   2.778
 3249SOL     OW10645   3.691   3.601   3.865
 3249SOL    HW110646   3.624   3.534   3.895
 3249SOL    HW210647   3.644   3.683   3.832
 3250SOL     OW10648   5.021   5.906   3.030
 3250SOL    HW110649   4.993   5.871   2.941
 3250SOL    HW210650   5.120   5.914   3.034
 3251SOL     OW10651   2.345   0.590   4.882
 3251SOL    HW110652   2.409   0.597   4.805
 3251SOL    HW210653   2.274   0.659   4.873
 3252SOL     OW10654   2.767   1.340   3.629
 3252SOL    HW110655   2.790   1.437   3.639
 3252SOL    HW210656   2.751   1.320   3.532
 3253SOL     OW10657   6.045   3.305   1.233
 3253SOL    HW110658   6.020   3.367   1.159
 3253SOL    HW210659   6.131   3.259   1.212
 3254SOL     OW10660   5.292   0.421   0.302
 3254SOL    HW110661   5.294   0.498   0.239
 3254SOL    HW210662   5.256   0.340   0.255
 3255SOL     OW10663   5.816   5.194   1.149
 3255SOL    HW110664   5.790   5.128   1.079
 3255SOL    HW210665   5.735   5.217   1.204
 3256SOL     OW10666   4.569   1.801   1.199
 3256SOL    HW110667   4.646   1.817   1.261
 3256SOL    HW210668   4.572   1.868   1.125
 3257SOL     OW10669   2.972   2.214   2.262
 3257SOL    HW110670   2.899   2.239   2.327
 3257SOL    HW210671   2.960   2.266   2.177
 3258SOL     OW10672   3.675   5.233   3.634
 3258SOL    HW110673   3.658   5.135   3.623
 3258SOL    HW210674   3.718   5.269   3.551
 3259SOL     OW10675   5.648   4.918   4.271
 3259SOL    HW110676   5.667   4.820   4.265
 3259SOL    HW210677   5.735   4.969   4.272
 3260SOL     OW10678   1.665   4.613   2.284
 3260SOL    HW110679   1.761   4.636   2.298
 3260SOL    HW210680   1.658   4.529   2.231
 3261SOL     OW10681   5.842   0.798   2.998
 3261SOL    HW110682   5.818   0.731   2.927
 3261SOL    HW210683   5.779   0.788   3.075
 3262SOL     OW10684   3.796   2.063   2.406
 3262SOL    HW110685   3.792   2.097   2.500
 3262SOL    HW210686   3.708   2.022   2.382
 3263SOL     OW10687   2.455   1.196   3.241
 3263SOL    HW110688   2.475   1.177   3.145
 3263SOL    HW210689   2.518   1.267   3.274
 3264SOL     OW10690   2.369   5.071   0.230
 3264SOL    HW110691   2.304   4.997   0.218
 3264SOL    HW210692   2.325   5.158   0.209
 3265SOL     OW10693   6.320   5.942   5.369
 3265SOL    HW110694   6.268   6.011   5.420
 3265SOL    HW210695   6.289   5.851   5.394
 3266SOL     OW10696   3.098   4.495   0.508
 3266SOL    HW110697   3.193   4.482   0.479
 3266SOL    HW210698   3.097   4.523   0.604
 3267SOL     OW10699   4.112   0.969   1.144
 3267SOL    HW110700   4.083   1.062   1.167
 3267SOL    HW210701   4.078   0.905   1.213
 3268SOL     OW10702   0.579   5.099   1.589
 3268SOL    HW110703   0.595   5.002   1.601
 3268SOL    HW210704   0.531   5.115   1.502
 3269SOL     OW10705   0.779   5.490   2.224
 3269SOL    HW110706   0.776   5.431   2.304
 3269SOL    HW210707   0.719   5.569   2.239
 3270SOL     OW10708   0.683   2.676   5.436
 3270SOL    HW110709   0.616   2.614   5.398
 3270SOL    HW210710   0.756   2.692   5.370
 3271SOL     OW10711   6.962   3.415   1.797
 3271SOL    HW110712   6.875   3.366   1.787
 3271SOL    HW210713   6.945   3.505   1.837
 3272SOL     OW10714   4.072   6.007   0.176
 3272SOL    HW110715   4.127   6.018   0.259
 3272SOL    HW210716   3.990   6.064   0.182
 3273SOL     OW10717   4.671   3.769   6.210
 3273SOL    HW110718   4.582   3.747   6.249
 3273SOL    HW210719   4.665   3.767   6.110
 3274SOL     OW10720   6.161   0.862   7.026
 3274SOL    HW110721   6.250   0.882   0.041
 3274SOL    HW210722   6.176   0.813   6.940
 3275SOL     OW10723   4.866   0.708   1.167
 3275SOL    HW110724   4.861   0.748   1.258
 3275SOL    HW210725   4.892   0.611   1.174
 3276SOL     OW10726   4.565   6.939   0.030
 3276SOL    HW110727   4.538   7.024   7.011
 3276SOL    HW210728   4.569   6.866   6.989
 3277SOL     OW10729   3.039   1.456   1.790
 3277SOL    HW110730   3.061   1.422   1.699
 3277SOL    HW210731   2.941   1.476   1.795
 3278SOL     OW10732   7.012   0.424   6.650
 3278SOL    HW110733   0.019   0.473   6.730
 3278SOL    HW210734   0.061   0.405   6.588
 3279SOL     OW10735   4.335   6.946   1.513
 3279SOL    HW110736   4.424   6.972   1.477
 3279SOL    HW210737   4.263   6.995   1.464
 3280SOL     OW10738   5.515   3.745   3.971
 3280SOL    HW110739   5.583   3.671   3.979
 3280SOL    HW210740   5.434   3.721   4.024
 3281SOL     OW10741   7.000   4.623   1.677
 3281SOL    HW110742   0.064   4.626   1.635
 3281SOL    HW210743   7.009   4.628   1.777
 3282SOL     OW10744   0.437   3.894   5.278
 3282SOL    HW110745   0.513   3.924   5.335
 3282SOL    HW210746   0.361   3.959   5.287
 3283SOL     OW10747   3.028   1.051   1.228
 3283SOL    HW110748   3.096   1.124   1.227
 3283SOL    HW210749   3.024   1.011   1.320
 3284SOL     OW10750   1.708   5.723   4.711
 3284SOL    HW110751   1.613   5.748   4.733
 3284SOL    HW210752   1.737   5.775   4.630
 3285SOL     OW10753   5.106   1.131   4.599
 3285SOL    HW110754   5.074   1.203   4.659
 3285SOL    HW210755   5.188   1.162   4.550
 3286SOL     OW10756   3.236   1.822   1.944
 3286SOL    HW110757   3.174   1.867   2.008
 3286SOL    HW210758   3.324   1.870   1.944
 3287SOL     OW10759   1.374   0.020   6.174
 3287SOL    HW110760   1.292   6.996   6.148
 3287SOL    HW210761   1.397   0.085   6.101
 3288SOL     OW10762   1.549   6.507   0.539
 3288SOL    HW110763   1.611   6.579   0.507
 3288SOL    HW210764   1.524   6.449   0.461
 3289SOL     OW10765   3.067   1.685   6.858
 3289SOL    HW110766   3.104   1.624   6.928
 3289SOL    HW210767   3.142   1.731   6.810
 3290SOL     OW10768   6.499   5.313   0.648
 3290SOL    HW110769   6.487   5.214   0.644
 3290SOL    HW210770   6.430   5.357   0.591
 3291SOL     OW10771   4.358   0.344   6.314
 3291SOL    HW110772   4.345   0.266   6.377
 3291SOL    HW210773   4.294   0.417   6.339
 3292SOL     OW10774   0.808   1.653   0.625
 3292SOL    HW110775   0.742   1.725   0.647
 3292SOL    HW210776   0.760   1.564   0.624
 3293SOL     OW10777   6.678   4.616   2.569
 3293SOL    HW110778   6.585   4.651   2.580
 3293SOL    HW210779   6.679   4.518   2.591
 3294SOL     OW10780   5.422   2.554   5.658
 3294SOL    HW110781   5.454   2.461   5.680
 3294SOL    HW210782   5.325   2.551   5.635
 3295SOL     OW10783   1.751   3.195   0.784
 3295SOL    HW110784   1.848   3.180   0.770
 3295SOL    HW210785   1.702   3.109   0.772
 3296SOL     OW10786   6.794   6.770   5.245
 3296SOL    HW110787   6.838   6.833   5.310
 3296SOL    HW210788   6.785   6.680   5.287
 3297SOL     OW10789   3.123   2.090   5.401
 3297SOL    HW110790   3.046   2.139   5.361
 3297SOL    HW210791   3.203   2.097   5.341
 3298SOL     OW10792   6.035   3.944   4.890
 3298SOL    HW110793   5.964   3.878   4.916
 3298SOL    HW210794   6.123   3.897   4.883
 3299SOL     OW10795   4.063   4.900   3.339
 3299SOL    HW110796   4.109   4.985   3.314
 3299SOL    HW210797   4.119   4.851   3.407
 3300SOL     OW10798   2.442   6.993   5.136
 3300SOL    HW110799   2.512   6.986   5.208
 3300SOL    HW210800   2.361   0.011   5.173
 3301SOL     OW10801   1.495   3.370   2.745
 3301SOL    HW110802   1.542   3.334   2.826
 3301SOL    HW210803   1.504   3.305   2.670
 3302SOL     OW10804   1.446   4.696   6.737
 3302SOL    HW110805   1.370   4.696   6.803
 3302SOL    HW210806   1.409   4.702   6.645
 3303SOL     OW10807   3.664   2.845   0.409
 3303SOL    HW110808   3.724   2.847   0.488
 3303SOL    HW210809   3.691   2.915   0.344
 3304SOL     OW10810   2.262   4.613   6.648
 3304SOL    HW110811   2.267   4.711   6.630
 3304SOL    HW210812   2.354   4.577   6.663
 3305SOL     OW10813   3.317   0.634   1.054
 3305SOL    HW110814   3.274   0.696   1.120
 3305SOL    HW210815   3.356   0.556   1.103
 3306SOL     OW10816   1.318   6.235   6.638
 3306SOL    HW110817   1.337   6.320   6.589
 3306SOL    HW210818   1.348   6.244   6.733
 3307SOL     OW10819   1.190   6.846   5.802
 3307SOL    HW110820   1.180   6.872   5.705
 3307SOL    HW210821   1.140   6.911   5.859
 3308SOL     OW10822   4.017   4.541   1.398
 3308SOL    HW110823   4.026   4.483   1.479
 3308SOL    HW210824   4.024   4.637   1.426
 3309SOL     OW10825   5.017   4.702   4.044
 3309SOL    HW110826   5.080   4.779   4.056
 3309SOL    HW210827   5.016   4.647   4.127
 3310SOL     OW10828   0.667   4.782   4.601
 3310SOL    HW110829   0.647   4.778   4.699
 3310SOL    HW210830   0.604   4.847   4.556
 3311SOL     OW10831   3.719   3.670   1.274
 3311SOL    HW110832   3.699   3.578   1.242
 3311SOL    HW210833   3.651   3.734   1.237
 3312SOL     OW10834   4.547   2.876   6.018
 3312SOL    HW110835   4.496   2.943   6.071
 3312SOL    HW210836   4.640   2.910   6.003
 3313SOL     OW10837   0.668   0.666   3.316
 3313SOL    HW110838   0.721   0.678   3.400
 3313SOL    HW210839   0.730   0.672   3.237
 3314SOL     OW10840   2.144   0.283   3.027
 3314SOL    HW110841   2.074   0.343   3.065
 3314SOL    HW210842   2.232   0.301   3.072
 3315SOL     OW10843   0.652   4.834   5.100
 3315SOL    HW110844   0.580   4.903   5.096
 3315SOL    HW210845   0.660   4.800   5.194
 3316SOL     OW10846   3.372   0.998   5.973
 3316SOL    HW110847   3.329   0.926   6.027
 3316SOL    HW210848   3.412   0.958   5.890
 3317SOL     OW10849   5.599   2.032   1.868
 3317SOL    HW110850   5.671   1.993   1.926
 3317SOL    HW210851   5.618   2.011   1.772
 3318SOL     OW10852   2.746   1.790   6.576
 3318SOL    HW110853   2.814   1.843   6.524
 3318SOL    HW210854   2.658   1.837   6.573
 3319SOL     OW10855   6.999   6.928   2.638
 3319SOL    HW110856   0.004   7.019   2.666
 3319SOL    HW210857   0.051   6.867   2.627
 3320SOL     OW10858   6.703   1.183   0.501
 3320SOL    HW110859   6.715   1.225   0.591
 3320SOL    HW210860   6.771   1.219   0.438
 3321SOL     OW10861   5.781   1.409   0.966
 3321SOL    HW110862   5.753   1.418   0.870
 3321SOL    HW210863   5.754   1.492   1.016
 3322SOL     OW10864   6.394   3.333   0.523
 3322SOL    HW110865   6.464   3.264   0.504
 3322SOL    HW210866   6.437   3.410   0.571
 3323SOL     OW10867   2.571   1.977   2.091
 3323SOL    HW110868   2.652   2.028   2.063
 3323SOL    HW210869   2.489   2.023   2.057
 3324SOL     OW10870   4.609   5.736   5.809
 3324SOL    HW110871   4.546   5.799   5.763
 3324SOL    HW210872   4.567   5.645   5.814
 3325SOL     OW10873   0.864   3.247   6.798
 3325SOL    HW110874   0.963   3.236   6.794
 3325SOL    HW210875   0.821   3.185   6.733
 3326SOL     OW10876   5.335   0.959   3.019
 3326SOL    HW110877   5.275   1.021   3.070
 3326SOL    HW210878   5.296   0.941   2.929
 3327SOL     OW10879   1.759   6.094   1.760
 3327SOL    HW110880   1.706   6.172   1.792
 3327SOL    HW210881   1.696   6.021   1.731
 3328SOL     OW10882   3.605   1.949   1.073
 3328SOL    HW110883   3.592   1.924   1.169
 3328SOL    HW210884   3.525   2.001   1.041
 3329SOL     OW10885   5.889   6.428   5.155
 3329SOL    HW110886   5.875   6.335   5.189
 3329SOL    HW210887   5.897   6.491   5.233
 3330SOL     OW10888   0.066   3.194   2.454
 3330SOL    HW110889   0.025   3.106   2.478
 3330SOL    HW210890   7.022   3.255   2.419
 3331SOL     OW10891   1.918   2.432   1.161
 3331SOL    HW110892   1.826   2.395   1.150
 3331SOL    HW210893   1.952   2.463   1.072
 3332SOL     OW10894   5.275   5.014   0.579
 3332SOL    HW110895   5.243   4.975   0.666
 3332SOL    HW210896   5.323   5.099   0.596
 3333SOL     OW10897   4.118   5.132   6.567
 3333SOL    HW110898   4.200   5.075   6.573
 3333SOL    HW210899   4.052   5.090   6.504
 3334SOL     OW10900   3.471   3.437   1.382
 3334SOL    HW110901   3.531   3.491   1.441
 3334SOL    HW210902   3.453   3.349   1.424
 3335SOL     OW10903   4.862   5.203   5.560
 3335SOL    HW110904   4.787   5.143   5.532
 3335SOL    HW210905   4.945   5.179   5.511
 3336SOL     OW10906   3.115   5.314   5.776
 3336SOL    HW110907   3.031   5.293   5.825
 3336SOL    HW210908   3.184   5.347   5.840
 3337SOL     OW10909   3.742   2.183   1.380
 3337SOL    HW110910   3.644   2.166   1.374
 3337SOL    HW210911   3.760   2.245   1.457
 3338SOL     OW10912   6.647   4.202   1.590
 3338SOL    HW110913   6.561   4.187   1.640
 3338SOL    HW210914   6.648   4.296   1.556
 3339SOL     OW10915   6.853   6.050   6.789
 3339SOL    HW110916   6.794   5.995   6.849
 3339SOL    HW210917   6.797   6.116   6.739
 3340SOL     OW10918   3.587   6.886   1.710
 3340SOL    HW110919   3.506   6.827   1.716
 3340SOL    HW210920   3.669   6.829   1.709
 3341SOL     OW10921   0.243   0.007   2.728
 3341SOL    HW110922   0.319   0.040   2.784
 3341SOL    HW210923   0.182   0.083   2.707
 3342SOL     OW10924   2.154   0.220   3.752
 3342SOL    HW110925   2.219   0.179   3.816
 3342SOL    HW210926   2.076   0.159   3.740
 3343SOL     OW10927   4.985   2.914   0.744
 3343SOL    HW110928   4.926   2.871   0.676
 3343SOL    HW210929   4.957   2.884   0.835
 3344SOL     OW10930   5.096   3.778   4.905
 3344SOL    HW110931   5.095   3.815   4.997
 3344SOL    HW210932   5.036   3.832   4.846
 3345SOL     OW10933   2.820   3.596   5.951
 3345SOL    HW110934   2.890   3.585   5.880
 3345SOL    HW210935   2.864   3.593   6.041
 3346SOL     OW10936   0.587   1.437   2.275
 3346SOL    HW110937   0.561   1.500   2.348
 3346SOL    HW210938   0.649   1.368   2.311
 3347SOL     OW10939   6.664   4.173   4.025
 3347SOL    HW110940   6.639   4.146   4.118
 3347SOL    HW210941   6.683   4.272   4.023
 3348SOL     OW10942   3.486   3.367   3.921
 3348SOL    HW110943   3.570   3.315   3.933
 3348SOL    HW210944   3.428   3.322   3.853
 3349SOL     OW10945   6.802   4.527   4.408
 3349SOL    HW110946   6.897   4.531   4.441
 3349SOL    HW210947   6.791   4.449   4.347
 3350SOL     OW10948   2.155   1.179   6.879
 3350SOL    HW110949   2.242   1.144   6.843
 3350SOL    HW210950   2.118   1.248   6.817
 3351SOL     OW10951   5.874   0.555   1.195
 3351SOL    HW110952   5.932   0.550   1.113
 3351SOL    HW210953   5.903   0.484   1.260
 3352SOL     OW10954   1.102   4.270   0.638
 3352SOL    HW110955   1.078   4.349   0.694
 3352SOL    HW210956   1.198   4.277   0.609
 3353SOL     OW10957   1.358   0.549   0.039
 3353SOL    HW110958   1.443   0.592   0.068
 3353SOL    HW210959   1.311   0.512   0.118
 3354SOL     OW10960   6.541   1.913   3.000
 3354SOL    HW110961   6.583   1.876   3.083
 3354SOL    HW210962   6.589   1.996   2.972
 3355SOL     OW10963   7.014   2.177   0.869
 3355SOL    HW110964   6.930   2.123   0.875
 3355SOL    HW210965   0.014   2.207   0.961
 3356SOL     OW10966   2.842   3.415   0.244
 3356SOL    HW110967   2.775   3.344   0.222
 3356SOL    HW210968   2.932   3.386   0.212
 3357SOL     OW10969   2.282   5.208   1.328
 3357SOL    HW110970   2.191   5.202   1.367
 3357SOL    HW210971   2.289   5.288   1.269
 3358SOL     OW10972   5.039   6.398   2.301
 3358SOL    HW110973   4.987   6.314   2.314
 3358SOL    HW210974   4.976   6.476   2.292
 3359SOL     OW10975   0.462   0.491   2.735
 3359SOL    HW110976   0.529   0.542   2.789
 3359SOL    HW210977   0.378   0.480   2.788
 3360SOL     OW10978   0.338   1.077   0.454
 3360SOL    HW110979   0.380   1.089   0.364
 3360SOL    HW210980   0.273   1.001   0.451
 3361SOL     OW10981   6.442   5.779   3.222
 3361SOL    HW110982   6.372   5.834   3.269
 3361SOL    HW210983   6.419   5.682   3.229
 3362SOL     OW10984   2.936   1.493   5.112
 3362SOL    HW110985   3.020   1.529   5.153
 3362SOL    HW210986   2.934   1.516   5.015
 3363SOL     OW10987   0.723   1.352   6.469
 3363SOL    HW110988   0.704   1.297   6.550
 3363SOL    HW210989   0.761   1.294   6.396
 3364SOL     OW10990   1.086   5.706   6.251
 3364SOL    HW110991   0.998   5.742   6.218
 3364SOL    HW210992   1.151   5.702   6.175
 3365SOL     OW10993   0.300   1.800   4.688
 3365SOL    HW110994   0.225   1.843   4.737
 3365SOL    HW210995   0.324   1.855   4.608
 3366SOL     OW10996   5.819   0.956   5.007
 3366SOL    HW110997   5.844   0.875   5.060
 3366SOL    HW210998   5.736   0.997   5.047
 3367SOL     OW10999   1.762   2.219   1.767
 3367SOL    HW111000   1.816   2.229   1.850
 3367SOL    HW211001   1.823   2.216   1.687
 3368SOL     OW11002   6.384   5.297   6.182
 3368SOL    HW111003   6.479   5.271   6.160
 3368SOL    HW211004   6.383   5.353   6.265
 3369SOL     OW11005   3.714   1.175   0.419
 3369SOL    HW111006   3.740   1.263   0.459
 3369SOL    HW211007   3.736   1.101   0.482
 3370SOL     OW11008   6.573   6.873   4.946
 3370SOL    HW111009   6.520   6.807   4.998
 3370SOL    HW211010   6.661   6.887   4.991
 3371SOL     OW11011   1.255   4.000   2.422
 3371SOL    HW111012   1.159   4.016   2.446
 3371SOL    HW211013   1.260   3.968   2.327
 3372SOL     OW11014   0.211   1.235   2.217
 3372SOL    HW111015   0.278   1.221   2.144
 3372SOL    HW211016   0.202   1.152   2.271
 3373SOL     OW11017   6.141   1.200   4.291
 3373SOL    HW111018   6.068   1.177   4.356
 3373SOL    HW211019   6.169   1.118   4.242
 3374SOL     OW11020   3.690   6.248   5.225
 3374SOL    HW111021   3.721   6.241   5.319
 3374SOL    HW211022   3.767   6.233   5.163
 3375SOL     OW11023   4.574   4.600   4.923
 3375SOL    HW111024   4.607   4.512   4.889
 3375SOL    HW211025   4.485   4.588   4.967
 3376SOL     OW11026   3.689   2.888   2.499
 3376SOL    HW111027   3.593   2.869   2.477
 3376SOL    HW211028   3.734   2.927   2.420
 3377SOL     OW11029   1.288   6.382   5.161
 3377SOL    HW111030   1.239   6.352   5.079
 3377SOL    HW211031   1.387   6.373   5.145
 3378SOL     OW11032   6.824   1.492   1.011
 3378SOL    HW111033   6.784   1.451   1.093
 3378SOL    HW211034   6.924   1.499   1.022
 3379SOL     OW11035   0.316   4.390   6.111
 3379SOL    HW111036   0.232   4.400   6.164
 3379SOL    HW211037   0.293   4.375   6.015
 3380SOL     OW11038   6.612   4.786   6.241
 3380SOL    HW111039   6.672   4.790   6.162
 3380SOL    HW211040   6.519   4.765   6.212
 3381SOL     OW11041   2.515   2.064   0.337
 3381SOL    HW111042   2.424   2.092   0.307
 3381SOL    HW211043   2.556   2.136   0.393
 3382SOL     OW11044   0.175   1.429   6.894
 3382SOL    HW111045   0.253   1.384   6.850
 3382SOL    HW211046   0.174   1.405   6.992
 3383SOL     OW11047   6.066   4.840   2.806
 3383SOL    HW111048   6.022   4.900   2.739
 3383SOL    HW211049   6.157   4.876   2.827
 3384SOL     OW11050   3.451   3.466   4.957
 3384SOL    HW111051   3.445   3.562   4.932
 3384SOL    HW211052   3.360   3.425   4.954
 3385SOL     OW11053   6.455   3.767   3.692
 3385SOL    HW111054   6.403   3.681   3.691
 3385SOL    HW211055   6.509   3.772   3.776
 3386SOL     OW11056   5.869   4.173   4.821
 3386SOL    HW111057   5.783   4.143   4.861
 3386SOL    HW211058   5.943   4.114   4.853
 3387SOL     OW11059   2.460   2.584   2.401
 3387SOL    HW111060   2.515   2.543   2.473
 3387SOL    HW211061   2.513   2.590   2.317
 3388SOL     OW11062   5.765   3.115   1.026
 3388SOL    HW111063   5.790   3.065   1.109
 3388SOL    HW211064   5.772   3.213   1.043
 3389SOL     OW11065   4.725   4.245   3.927
 3389SOL    HW111066   4.653   4.315   3.925
 3389SOL    HW211067   4.803   4.278   3.980
 3390SOL     OW11068   5.106   2.774   5.993
 3390SOL    HW111069   5.031   2.840   5.987
 3390SOL    HW211070   5.165   2.784   5.914
 3391SOL     OW11071   4.247   1.698   4.716
 3391SOL    HW111072   4.290   1.757   4.785
 3391SOL    HW211073   4.178   1.640   4.760
 3392SOL     OW11074   1.936   0.910   4.237
 3392SOL    HW111075   1.906   0.887   4.144
 3392SOL    HW211076   1.987   0.996   4.235
 3393SOL     OW11077   6.354   6.686   0.617
 3393SOL    HW111078   6.306   6.626   0.682
 3393SOL    HW211079   6.382   6.633   0.537
 3394SOL     OW11080   5.893   2.945   1.239
 3394SOL    HW111081   5.831   2.963   1.315
 3394SOL    HW211082   5.975   3.001   1.248
 3395SOL     OW11083   6.597   3.362   3.865
 3395SOL    HW111084   6.537   3.393   3.939
 3395SOL    HW211085   6.560   3.392   3.777
 3396SOL     OW11086   0.368   3.226   3.555
 3396SOL    HW111087   0.396   3.281   3.477
 3396SOL    HW211088   0.335   3.137   3.524
 3397SOL     OW11089   3.804   0.859   5.540
 3397SOL    HW111090   3.871   0.870   5.467
 3397SOL    HW211091   3.850   0.835   5.625
 3398SOL     OW11092   1.057   0.151   4.105
 3398SOL    HW111093   1.014   0.213   4.039
 3398SOL    HW211094   1.112   0.084   4.056
 3399SOL     OW11095   4.401   4.618   4.228
 3399SOL    HW111096   4.486   4.571   4.252
 3399SOL    HW211097   4.381   4.687   4.297
 3400SOL     OW11098   4.560   2.331   6.030
 3400SOL    HW111099   4.612   2.335   6.115
 3400SOL    HW211100   4.550   2.236   6.001
 3401SOL     OW11101   0.031   3.948   0.968
 3401SOL    HW111102   0.037   3.929   0.870
 3401SOL    HW211103   0.099   4.017   0.993
 3402SOL     OW11104   5.626   5.471   1.321
 3402SOL    HW111105   5.686   5.540   1.281
 3402SOL    HW211106   5.601   5.498   1.414
 3403SOL     OW11107   4.040   0.613   4.858
 3403SOL    HW111108   3.970   0.660   4.913
 3403SOL    HW211109   4.044   0.518   4.886
 3404SOL     OW11110   4.527   1.503   0.394
 3404SOL    HW111111   4.543   1.436   0.321
 3404SOL    HW211112   4.430   1.503   0.417
 3405SOL     OW11113   6.551   3.729   5.955
 3405SOL    HW111114   6.635   3.685   5.985
 3405SOL    HW211115   6.537   3.814   6.005
 3406SOL     OW11116   2.227   4.528   1.910
 3406SOL    HW111117   2.326   4.539   1.913
 3406SOL    HW211118   2.184   4.616   1.891
 3407SOL     OW11119   1.489   5.791   1.920
 3407SOL    HW111120   1.419   5.831   1.860
 3407SOL    HW211121   1.445   5.738   1.993
 3408SOL     OW11122   4.691   4.216   3.653
 3408SOL    HW111123   4.716   4.127   3.617
 3408SOL    HW211124   4.689   4.213   3.753
 3409SOL     OW11125   3.981   6.951   5.670
 3409SOL    HW111126   3.995   6.913   5.579
 3409SOL    HW211127   4.066   6.995   5.701
 3410SOL     OW11128   5.959   5.543   6.984
 3410SOL    HW111129   5.995   5.524   6.893
 3410SOL    HW211130   6.014   5.497   0.026
 3411SOL     OW11131   5.851   2.471   2.138
 3411SOL    HW111132   5.799   2.398   2.181
 3411SOL    HW211133   5.887   2.533   2.208
 3412SOL     OW11134   3.992   3.261   0.288
 3412SOL    HW111135   4.046   3.309   0.357
 3412SOL    HW211136   3.935   3.328   0.238
 3413SOL     OW11137   4.118   1.403   2.674
 3413SOL    HW111138   4.053   1.478   2.687
 3413SOL    HW211139   4.122   1.378   2.577
 3414SOL     OW11140   3.360   1.687   4.938
 3414SOL    HW111141   3.443   1.743   4.938
 3414SOL    HW211142   3.331   1.670   5.033
 3415SOL     OW11143   1.070   4.889   4.395
 3415SOL    HW111144   1.113   4.802   4.420
 3415SOL    HW211145   1.032   4.932   4.477
 3416SOL     OW11146   0.035   4.274   5.857
 3416SOL    HW111147   0.074   4.365   5.841
 3416SOL    HW211148   0.027   4.259   5.956
 3417SOL     OW11149   6.454   5.923   2.686
 3417SOL    HW111150   6.409   5.860   2.623
 3417SOL    HW211151   6.447   5.888   2.779
 3418SOL     OW11152   4.146   0.970   3.953
 3418SOL    HW111153   4.190   1.032   3.889
 3418SOL    HW211154   4.101   1.024   4.025
 3419SOL     OW11155   4.010   5.069   6.289
 3419SOL    HW111156   3.925   5.017   6.293
 3419SOL    HW211157   4.068   5.033   6.216
 3420SOL     OW11158   5.292   1.829   3.436
 3420SOL    HW111159   5.192   1.820   3.439
 3420SOL    HW211160   5.330   1.749   3.389
 3421SOL     OW11161   6.469   0.615   5.739
 3421SOL    HW111162   6.551   0.631   5.684
 3421SOL    HW211163   6.496   0.585   5.830
 3422SOL     OW11164   3.434   0.180   0.836
 3422SOL    HW111165   3.392   0.270   0.848
 3422SOL    HW211166   3.513   0.187   0.776
 3423SOL     OW11167   2.185   1.023   0.075
 3423SOL    HW111168   2.265   0.968   0.051
 3423SOL    HW211169   2.159   1.079   7.023
 3424SOL     OW11170   3.942   0.819   2.371
 3424SOL    HW111171   3.905   0.734   2.409
 3424SOL    HW211172   3.922   0.895   2.433
 3425SOL     OW11173   4.800   4.166   2.473
 3425SOL    HW111174   4.749   4.252   2.479
 3425SOL    HW211175   4.879   4.171   2.534
 3426SOL     OW11176   3.507   3.748   0.388
 3426SOL    HW111177   3.546   3.839   0.376
 3426SOL    HW211178   3.450   3.725   0.309
 3427SOL     OW11179   6.487   6.684   0.280
 3427SOL    HW111180   6.571   6.668   0.226
 3427SOL    HW211181   6.422   6.736   0.225
 3428SOL     OW11182   3.960   5.256   2.072
 3428SOL    HW111183   3.970   5.326   2.144
 3428SOL    HW211184   3.900   5.183   2.105
 3429SOL     OW11185   0.747   2.347   6.968
 3429SOL    HW111186   0.730   2.297   0.027
 3429SOL    HW211187   0.834   2.316   6.929
 3430SOL     OW11188   1.297   6.440   6.424
 3430SOL    HW111189   1.375   6.503   6.414
 3430SOL    HW211190   1.213   6.493   6.436
 3431SOL     OW11191   2.336   6.856   1.343
 3431SOL    HW111192   2.430   6.885   1.325
 3431SOL    HW211193   2.317   6.771   1.295
 3432SOL     OW11194   2.713   2.164   5.316
 3432SOL    HW111195   2.793   2.138   5.263
 3432SOL    HW211196   2.639   2.099   5.299
 3433SOL     OW11197   2.420   1.096   6.769
 3433SOL    HW111198   2.392   1.051   6.684
 3433SOL    HW211199   2.462   1.184   6.748
 3434SOL     OW11200   3.171   2.740   0.380
 3434SOL    HW111201   3.240   2.813   0.373
 3434SOL    HW211202   3.209   2.663   0.430
 3435SOL     OW11203   0.012   2.472   1.173
 3435SOL    HW111204   0.074   2.515   1.237
 3435SOL    HW211205   0.043   2.379   1.153
 3436SOL     OW11206   4.681   7.003   5.072
 3436SOL    HW111207   4.596   7.000   5.125
 3436SOL    HW211208   4.758   6.977   5.130
 3437SOL     OW11209   4.441   0.788   6.352
 3437SOL    HW111210   4.471   0.808   6.445
 3437SOL    HW211211   4.504   0.722   6.310
 3438SOL     OW11212   1.444   2.917   6.369
 3438SOL    HW111213   1.518   2.876   6.315
 3438SOL    HW211214   1.465   3.013   6.388
 3439SOL     OW11215   2.788   0.058   4.699
 3439SOL    HW111216   2.877   0.016   4.682
 3439SOL    HW211217   2.721   0.020   4.637
 3440SOL     OW11218   4.445   3.365   1.312
 3440SOL    HW111219   4.452   3.347   1.411
 3440SOL    HW211220   4.537   3.374   1.273
 3441SOL     OW11221   5.073   0.450   3.196
 3441SOL    HW111222   5.132   0.522   3.158
 3441SOL    HW211223   5.059   0.467   3.293
 3442SOL     OW11224   2.187   4.789   3.633
 3442SOL    HW111225   2.212   4.804   3.538
 3442SOL    HW211226   2.112   4.722   3.638
 3443SOL     OW11227   5.584   1.130   3.300
 3443SOL    HW111228   5.510   1.155   3.362
 3443SOL    HW211229   5.567   1.038   3.263
 3444SOL     OW11230   5.326   5.458   6.789
 3444SOL    HW111231   5.266   5.412   6.724
 3444SOL    HW211232   5.420   5.424   6.778
 3445SOL     OW11233   6.480   3.814   4.305
 3445SOL    HW111234   6.550   3.882   4.330
 3445SOL    HW211235   6.397   3.832   4.358
 3446SOL     OW11236   4.989   0.747   3.028
 3446SOL    HW111237   5.034   0.698   2.953
 3446SOL    HW211238   4.898   0.709   3.042
 3447SOL     OW11239   5.464   4.997   0.246
 3447SOL    HW111240   5.400   4.924   0.222
 3447SOL    HW211241   5.506   4.978   0.334
 3448SOL     OW11242   3.738   6.664   0.996
 3448SOL    HW111243   3.766   6.569   1.010
 3448SOL    HW211244   3.810   6.713   0.946
 3449SOL     OW11245   6.475   6.275   2.502
 3449SOL    HW111246   6.539   6.210   2.543
 3449SOL    HW211247   6.504   6.369   2.525
 3450SOL     OW11248   1.026   2.210   0.669
 3450SOL    HW111249   1.087   2.288   0.683
 3450SOL    HW211250   0.980   2.219   0.580
 3451SOL     OW11251   0.814   5.501   3.681
 3451SOL    HW111252   0.810   5.403   3.701
 3451SOL    HW211253   0.831   5.551   3.766
 3452SOL     OW11254   6.591   0.990   0.028
 3452SOL    HW111255   6.672   0.946   0.067
 3452SOL    HW211256   6.536   1.030   0.101
 3453SOL     OW11257   5.715   5.909   5.138
 3453SOL    HW111258   5.673   5.820   5.121
 3453SOL    HW211259   5.725   5.957   5.051
 3454SOL     OW11260   2.029   0.966   6.344
 3454SOL    HW111261   1.992   0.989   6.434
 3454SOL    HW211262   2.104   1.029   6.322
 3455SOL     OW11263   1.047   2.820   4.613
 3455SOL    HW111264   1.054   2.732   4.565
 3455SOL    HW211265   1.031   2.893   4.546
 3456SOL     OW11266   5.769   5.706   2.215
 3456SOL    HW111267   5.699   5.639   2.191
 3456SOL    HW211268   5.844   5.660   2.263
 3457SOL     OW11269   2.718   5.070   4.283
 3457SOL    HW111270   2.788   5.063   4.354
 3457SOL    HW211271   2.639   5.014   4.307
 3458SOL     OW11272   5.250   6.868   0.020
 3458SOL    HW111273   5.349   6.878   0.015
 3458SOL    HW211274   5.211   6.883   6.956
 3459SOL     OW11275   0.314   3.693   3.099
 3459SOL    HW111276   0.340   3.758   3.027
 3459SOL    HW211277   0.395   3.666   3.150
 3460SOL     OW11278   3.581   3.355   0.743
 3460SOL    HW111279   3.570   3.413   0.662
 3460SOL    HW211280   3.529   3.394   0.819
 3461SOL     OW11281   3.794   5.367   4.443
 3461SOL    HW111282   3.698   5.350   4.465
 3461SOL    HW211283   3.845   5.386   4.527
 3462SOL     OW11284   6.165   3.286   2.364
 3462SOL    HW111285   6.145   3.197   2.322
 3462SOL    HW211286   6.123   3.290   2.454
 3463SOL     OW11287   0.878   3.165   2.813
 3463SOL    HW111288   0.830   3.194   2.896
 3463SOL    HW211289   0.816   3.170   2.735
 3464SOL     OW11290   5.559   2.125   6.878
 3464SOL    HW111291   5.493   2.142   6.804
 3464SOL    HW211292   5.547   2.194   6.949
 3465SOL     OW11293   1.536   3.236   1.964
 3465SOL    HW111294   1.475   3.209   1.889
 3465SOL    HW211295   1.590   3.315   1.937
 3466SOL     OW11296   5.567   5.484   5.663
 3466SOL    HW111297   5.629   5.524   5.730
 3466SOL    HW211298   5.472   5.506   5.687
 3467SOL     OW11299   2.974   1.578   0.676
 3467SOL    HW111300   2.887   1.600   0.633
 3467SOL    HW211301   3.016   1.500   0.630
 3468SOL     OW11302   5.625   1.815   2.609
 3468SOL    HW111303   5.643   1.854   2.520
 3468SOL    HW211304   5.594   1.886   2.672
 3469SOL     OW11305   5.176   0.911   6.109
 3469SOL    HW111306   5.227   0.903   6.194
 3469SOL    HW211307   5.215   0.985   6.053
 3470SOL     OW11308   0.630   2.481   1.822
 3470SOL    HW111309   0.728   2.498   1.821
 3470SOL    HW211310   0.602   2.438   1.736
 3471SOL     OW11311   4.871   4.431   3.585
 3471SOL    HW111312   4.845   4.472   3.672
 3471SOL    HW211313   4.798   4.371   3.552
 3472SOL     OW11314   3.538   1.146   2.518
 3472SOL    HW111315   3.535   1.061   2.466
 3472SOL    HW211316   3.448   1.190   2.514
 3473SOL     OW11317   6.993   3.168   3.685
 3473SOL    HW111318   6.938   3.230   3.628
 3473SOL    HW211319   0.048   3.215   3.716
 3474SOL     OW11320   0.337   4.276   3.916
 3474SOL    HW111321   0.282   4.235   3.989
 3474SOL    HW211322   0.389   4.353   3.952
 3475SOL     OW11323   0.685   4.724   4.110
 3475SOL    HW111324   0.765   4.706   4.052
 3475SOL    HW211325   0.714   4.727   4.205
 3476SOL     OW11326   1.295   1.549   3.257
 3476SOL    HW111327   1.353   1.630   3.268
 3476SOL    HW211328   1.199   1.577   3.259
 3477SOL     OW11329   1.022   3.657   0.620
 3477SOL    HW111330   0.989   3.715   0.694
 3477SOL    HW211331   0.949   3.646   0.552
 3478SOL     OW11332   2.933   6.947   6.734
 3478SOL    HW111333   2.880   6.891   6.798
 3478SOL    HW211334   2.943   0.012   6.771
 3479SOL     OW11335   1.131   1.524   3.624
 3479SOL    HW111336   1.057   1.524   3.557
 3479SOL    HW211337   1.219   1.522   3.576
 3480SOL     OW11338   0.853   5.792   6.091
 3480SOL    HW111339   0.842   5.710   6.034
 3480SOL    HW211340   0.851   5.873   6.033
 3481SOL     OW11341   5.063   0.872   1.057
 3481SOL    HW111342   4.988   0.823   1.100
 3481SOL    HW211343   5.136   0.807   1.034
 3482SOL     OW11344   6.121   1.778   2.569
 3482SOL    HW111345   6.198   1.827   2.609
 3482SOL    HW211346   6.152   1.730   2.487
 3483SOL     OW11347   5.642   1.886   3.010
 3483SOL    HW111348   5.724   1.830   3.004
 3483SOL    HW211349   5.660   1.967   3.066
 3484SOL     OW11350   1.487   3.371   6.810
 3484SOL    HW111351   1.489   3.431   6.890
 3484SOL    HW211352   1.482   3.425   6.727
 3485SOL     OW11353   0.814   2.096   5.076
 3485SOL    HW111354   0.825   2.195   5.077
 3485SOL    HW211355   0.734   2.070   5.130
 3486SOL     OW11356   1.981   0.414   3.963
 3486SOL    HW111357   2.069   0.372   3.942
 3486SOL    HW211358   1.942   0.453   3.879
 3487SOL     OW11359   6.405   2.856   7.014
 3487SOL    HW111360   6.452   2.851   0.075
 3487SOL    HW211361   6.472   2.862   6.940
 3488SOL     OW11362   5.650   0.949   4.734
 3488SOL    HW111363   5.636   1.030   4.677
 3488SOL    HW211364   5.730   0.963   4.792
 3489SOL     OW11365   3.273   0.118   1.789
 3489SOL    HW111366   3.190   0.173   1.780
 3489SOL    HW211367   3.328   0.128   1.705
 3490SOL     OW11368   3.423   4.940   1.468
 3490SOL    HW111369   3.328   4.943   1.498
 3490SOL    HW211370   3.476   4.882   1.530
 3491SOL     OW11371   3.903   3.244   5.975
 3491SOL    HW111372   3.902   3.344   5.973
 3491SOL    HW211373   3.812   3.210   5.994
 3492SOL     OW11374   6.365   4.343   1.523
 3492SOL    HW111375   6.455   4.377   1.495
 3492SOL    HW211376   6.366   4.321   1.620
 3493SOL     OW11377   6.533   3.734   4.051
 3493SOL    HW111378   6.493   3.758   4.139
 3493SOL    HW211379   6.466   3.685   3.995
 3494SOL     OW11380   2.367   1.190   1.950
 3494SOL    HW111381   2.399   1.175   2.044
 3494SOL    HW211382   2.412   1.126   1.888
 3495SOL     OW11383   0.843   4.026   2.669
 3495SOL    HW111384   0.862   4.124   2.663
 3495SOL    HW211385   0.827   3.990   2.577
 3496SOL     OW11386   5.587   5.109   1.262
 3496SOL    HW111387   5.573   5.083   1.166
 3496SOL    HW211388   5.511   5.165   1.292
 3497SOL     OW11389   2.741   0.945   4.043
 3497SOL    HW111390   2.768   0.862   3.994
 3497SOL    HW211391   2.642   0.954   4.042
 3498SOL     OW11392   3.034   1.321   2.387
 3498SOL    HW111393   2.957   1.356   2.441
 3498SOL    HW211394   3.090   1.261   2.444
 3499SOL     OW11395   6.630   4.937   4.468
 3499SOL    HW111396   6.722   4.933   4.506
 3499SOL    HW211397   6.586   4.848   4.479
 3500SOL     OW11398   2.172   3.106   3.636
 3500SOL    HW111399   2.096   3.117   3.700
 3500SOL    HW211400   2.155   3.161   3.554
 3501SOL     OW11401   3.165   0.087   6.344
 3501SOL    HW111402   3.145   0.020   6.416
 3501SOL    HW211403   3.102   0.164   6.352
 3502SOL     OW11404   6.336   3.384   1.485
 3502SOL    HW111405   6.339   3.483   1.470
 3502SOL    HW211406   6.357   3.337   1.399
 3503SOL     OW11407   0.367   6.657   5.551
 3503SOL    HW111408   0.398   6.583   5.611
 3503SOL    HW211409   0.438   6.678   5.484
 3504SOL     OW11410   1.930   1.090   2.142
 3504SOL    HW111411   1.842   1.056   2.112
 3504SOL    HW211412   1.917   1.161   2.212
 3505SOL     OW11413   5.613   5.034   5.046
 3505SOL    HW111414   5.636   5.121   5.089
 3505SOL    HW211415   5.588   4.967   5.116
 3506SOL     OW11416   5.666   4.532   5.037
 3506SOL    HW111417   5.753   4.494   5.006
 3506SOL    HW211418   5.625   4.587   4.964
 3507SOL     OW11419   2.451   0.283   0.139
 3507SOL    HW111420   2.476   0.379   0.122
 3507SOL    HW211421   2.445   0.235   0.052
 3508SOL     OW11422   2.945   2.417   6.279
 3508SOL    HW111423   2.849   2.438   6.260
 3508SOL    HW211424   2.954   2.382   6.372
 3509SOL     OW11425   5.917   6.688   6.875
 3509SOL    HW111426   5.947   6.783   6.867
 3509SOL    HW211427   5.869   6.675   6.961
 3510SOL     OW11428   1.596   0.652   1.695
 3510SOL    HW111429   1.606   0.750   1.714
 3510SOL    HW211430   1.536   0.610   1.763
 3511SOL     OW11431   2.094   4.392   1.706
 3511SOL    HW111432   2.141   4.447   1.776
 3511SOL    HW211433   2.052   4.312   1.749
 3512SOL     OW11434   0.741   4.021   0.981
 3512SOL    HW111435   0.690   3.934   0.977
 3512SOL    HW211436   0.690   4.086   1.037
 3513SOL     OW11437   6.059   1.907   1.300
 3513SOL    HW111438   6.072   1.814   1.334
 3513SOL    HW211439   6.060   1.906   1.200
 3514SOL     OW11440   6.215   0.600   2.356
 3514SOL    HW111441   6.261   0.681   2.321
 3514SOL    HW211442   6.157   0.561   2.284
 3515SOL     OW11443   5.330   6.472   3.142
 3515SOL    HW111444   5.353   6.536   3.215
 3515SOL    HW211445   5.249   6.506   3.093
 3516SOL     OW11446   4.876   6.264   1.645
 3516SOL    HW111447   4.972   6.240   1.631
 3516SOL    HW211448   4.826   6.254   1.559
 3517SOL     OW11449   0.066   1.866   1.094
 3517SOL    HW111450   0.048   1.851   1.192
 3517SOL    HW211451   0.153   1.914   1.083
 3518SOL     OW11452   5.130   2.274   4.818
 3518SOL    HW111453   5.151   2.178   4.803
 3518SOL    HW211454   5.143   2.297   4.915
 3519SOL     OW11455   2.008   0.939   5.816
 3519SOL    HW111456   2.048   1.008   5.755
 3519SOL    HW211457   2.078   0.906   5.880
 3520SOL     OW11458   2.845   6.820   0.583
 3520SOL    HW111459   2.843   6.916   0.611
 3520SOL    HW211460   2.931   6.801   0.537
 3521SOL     OW11461   4.178   2.683   0.218
 3521SOL    HW111462   4.116   2.758   0.240
 3521SOL    HW211463   4.272   2.715   0.222
 3522SOL     OW11464   6.459   5.599   6.760
 3522SOL    HW111465   6.431   5.504   6.777
 3522SOL    HW211466   6.541   5.599   6.703
 3523SOL     OW11467   1.921   4.600   5.105
 3523SOL    HW111468   1.858   4.656   5.052
 3523SOL    HW211469   2.010   4.596   5.058
 3524SOL     OW11470   5.105   1.883   1.930
 3524SOL    HW111471   5.199   1.898   1.899
 3524SOL    HW211472   5.077   1.959   1.990
 3525SOL     OW11473   6.538   3.493   4.600
 3525SOL    HW111474   6.620   3.440   4.578
 3525SOL    HW211475   6.462   3.430   4.618
 3526SOL     OW11476   2.003   0.072   3.171
 3526SOL    HW111477   1.957   0.140   3.228
 3526SOL    HW211478   2.062   0.118   3.105
 3527SOL     OW11479   5.399   3.625   6.545
 3527SOL    HW111480   5.418   3.719   6.515
 3527SOL    HW211481   5.300   3.611   6.550
 3528SOL     OW11482   2.463   6.109   5.080
 3528SOL    HW111483   2.458   6.133   4.983
 3528SOL    HW211484   2.385   6.149   5.129
 3529SOL     OW11485   4.127   6.368   0.986
 3529SOL    HW111486   4.028   6.376   0.994
 3529SOL    HW211487   4.169   6.456   1.010
 3530SOL     OW11488   6.629   5.360   1.992
 3530SOL    HW111489   6.570   5.331   1.917
 3530SOL    HW211490   6.720   5.384   1.955
 3531SOL     OW11491   5.328   2.867   0.700
 3531SOL    HW111492   5.230   2.884   0.695
 3531SOL    HW211493   5.377   2.954   0.704
 3532SOL     OW11494   2.699   0.858   1.584
 3532SOL    HW111495   2.647   0.898   1.509
 3532SOL    HW211496   2.672   0.762   1.595
 3533SOL     OW11497   0.627   0.914   2.750
 3533SOL    HW111498   0.661   1.000   2.787
 3533SOL    HW211499   0.537   0.929   2.708
 3534SOL     OW11500   0.637   2.216   0.992
 3534SOL    HW111501   0.611   2.309   1.017
 3534SOL    HW211502   0.712   2.218   0.926
 3535SOL     OW11503   2.062   5.336   6.329
 3535SOL    HW111504   2.157   5.305   6.327
 3535SOL    HW211505   2.010   5.278   6.392
 3536SOL     OW11506   3.359   2.043   3.104
 3536SOL    HW111507   3.347   2.070   3.008
 3536SOL    HW211508   3.363   1.943   3.110
 3537SOL     OW11509   1.919   5.349   2.161
 3537SOL    HW111510   1.925   5.448   2.173
 3537SOL    HW211511   1.932   5.327   2.064
 3538SOL     OW11512   2.699   5.869   5.489
 3538SOL    HW111513   2.718   5.831   5.579
 3538SOL    HW211514   2.737   5.961   5.482
 3539SOL     OW11515   3.384   3.682   4.774
 3539SOL    HW111516   3.411   3.616   4.704
 3539SOL    HW211517   3.355   3.767   4.731
 3540SOL     OW11518   2.131   2.333   4.528
 3540SOL    HW111519   2.080   2.270   4.470
 3540SOL    HW211520   2.146   2.291   4.618
 3541SOL     OW11521   2.858   2.655   5.764
 3541SOL    HW111522   2.830   2.635   5.670
 3541SOL    HW211523   2.778   2.654   5.824
 3542SOL     OW11524   1.439   4.922   2.955
 3542SOL    HW111525   1.492   4.840   2.935
 3542SOL    HW211526   1.496   4.989   3.002
 3543SOL     OW11527   6.540   2.455   4.019
 3543SOL    HW111528   6.598   2.410   3.951
 3543SOL    HW211529   6.521   2.549   3.990
 3544SOL     OW11530   1.534   4.404   6.482
 3544SOL    HW111531   1.492   4.334   6.424
 3544SOL    HW211532   1.632   4.385   6.491
 3545SOL     OW11533   3.838   6.134   6.934
 3545SOL    HW111534   3.777   6.198   6.888
 3545SOL    HW211535   3.925   6.130   6.885
 3546SOL     OW11536   0.792   4.531   3.269
 3546SOL    HW111537   0.725   4.535   3.195
 3546SOL    HW211538   0.751   4.486   3.348
 3547SOL     OW11539   5.169   4.477   3.903
 3547SOL    HW111540   5.124   4.555   3.947
 3547SOL    HW211541   5.264   4.502   3.881
 3548SOL     OW11542   5.568   1.628   6.304
 3548SOL    HW111543   5.667   1.624   6.314
 3548SOL    HW211544   5.525   1.601   6.391
 3549SOL     OW11545   6.811   4.649   4.972
 3549SOL    HW111546   6.872   4.722   5.004
 3549SOL    HW211547   6.865   4.580   4.923
 3550SOL     OW11548   5.343   2.733   2.414
 3550SOL    HW111549   5.253   2.752   2.375
 3550SOL    HW211550   5.332   2.686   2.502
 3551SOL     OW11551   4.201   5.999   2.828
 3551SOL    HW111552   4.156   5.985   2.915
 3551SOL    HW211553   4.179   5.924   2.766
 3552SOL     OW11554   5.102   5.978   2.387
 3552SOL    HW111555   5.100   6.010   2.293
 3552SOL    HW211556   5.015   5.933   2.409
 3553SOL     OW11557   5.938   3.009   1.587
 3553SOL    HW111558   5.954   3.105   1.563
 3553SOL    HW211559   5.870   2.970   1.526
 3554SOL     OW11560   3.614   3.221   1.292
 3554SOL    HW111561   3.668   3.207   1.209
 3554SOL    HW211562   3.579   3.315   1.293
 3555SOL     OW11563   1.014   3.166   3.100
 3555SOL    HW111564   1.069   3.234   3.149
 3555SOL    HW211565   0.975   3.102   3.166
 3556SOL     OW11566   3.894   0.866   4.921
 3556SOL    HW111567   3.804   0.854   4.964
 3556SOL    HW211568   3.884   0.857   4.821
 3557SOL     OW11569   0.792   0.746   3.557
 3557SOL    HW111570   0.811   0.840   3.584
 3557SOL    HW211571   0.778   0.691   3.640
 3558SOL     OW11572   0.371   6.005   1.593
 3558SOL    HW111573   0.293   5.974   1.539
 3558SOL    HW211574   0.344   6.085   1.647
 3559SOL     OW11575   6.994   0.203   4.721
 3559SOL    HW111576   6.954   0.284   4.679
 3559SOL    HW211577   0.048   0.175   4.670
 3560SOL     OW11578   1.533   5.343   0.865
 3560SOL    HW111579   1.617   5.362   0.814
 3560SOL    HW211580   1.522   5.410   0.938
 3561SOL     OW11581   4.227   5.147   5.717
 3561SOL    HW111582   4.147   5.114   5.667
 3561SOL    HW211583   4.279   5.068   5.751
 3562SOL     OW11584   4.508   0.962   4.122
 3562SOL    HW111585   4.541   0.880   4.168
 3562SOL    HW211586   4.426   0.995   4.168
 3563SOL     OW11587   5.488   0.969   1.510
 3563SOL    HW111588   5.568   0.914   1.533
 3563SOL    HW211589   5.476   0.972   1.411
 3564SOL     OW11590   1.513   4.368   4.189
 3564SOL    HW111591   1.563   4.320   4.117
 3564SOL    HW211592   1.521   4.316   4.274
 3565SOL     OW11593   3.746   6.746   4.553
 3565SOL    HW111594   3.724   6.843   4.565
 3565SOL    HW211595   3.682   6.706   4.487
 3566SOL     OW11596   0.318   3.114   6.216
 3566SOL    HW111597   0.267   3.095   6.132
 3566SOL    HW211598   0.328   3.213   6.227
 3567SOL     OW11599   1.188   2.438   7.017
 3567SOL    HW111600   1.242   2.402   6.942
 3567SOL    HW211601   1.242   2.504   0.043
 3568SOL     OW11602   5.457   4.982   3.172
 3568SOL    HW111603   5.405   4.968   3.256
 3568SOL    HW211604   5.395   4.983   3.094
 3569SOL     OW11605   2.828   2.903   5.382
 3569SOL    HW111606   2.900   2.940   5.324
 3569SOL    HW211607   2.845   2.805   5.398
 3570SOL     OW11608   5.415   0.420   5.271
 3570SOL    HW111609   5.483   0.356   5.306
 3570SOL    HW211610   5.337   0.422   5.333
 3571SOL     OW11611   1.384   1.047   4.974
 3571SOL    HW111612   1.389   1.136   4.928
 3571SOL    HW211613   1.346   0.979   4.912
 3572SOL     OW11614   5.330   3.362   2.691
 3572SOL    HW111615   5.241   3.408   2.692
 3572SOL    HW211616   5.374   3.373   2.780
 3573SOL     OW11617   6.603   4.395   2.264
 3573SOL    HW111618   6.634   4.378   2.358
 3573SOL    HW211619   6.661   4.344   2.200
 3574SOL     OW11620   1.977   3.378   0.104
 3574SOL    HW111621   1.955   3.284   0.080
 3574SOL    HW211622   1.893   3.429   0.122
 3575SOL     OW11623   5.170   5.725   1.490
 3575SOL    HW111624   5.103   5.798   1.480
 3575SOL    HW211625   5.228   5.744   1.570
 3576SOL     OW11626   0.124   2.227   0.222
 3576SOL    HW111627   0.084   2.145   0.182
 3576SOL    HW211628   0.075   2.308   0.189
 3577SOL     OW11629   2.458   3.112   5.640
 3577SOL    HW111630   2.549   3.153   5.641
 3577SOL    HW211631   2.449   3.051   5.561
 3578SOL     OW11632   4.097   2.800   0.992
 3578SOL    HW111633   4.108   2.896   1.017
 3578SOL    HW211634   4.127   2.742   1.067
 3579SOL     OW11635   0.016   3.129   3.313
 3579SOL    HW111636   6.950   3.109   3.344
 3579SOL    HW211637   0.031   3.088   3.224
 3580SOL     OW11638   6.868   3.954   1.201
 3580SOL    HW111639   6.781   4.003   1.193
 3580SOL    HW211640   6.900   3.928   1.110
 3581SOL     OW11641   1.226   6.830   3.267
 3581SOL    HW111642   1.131   6.862   3.270
 3581SOL    HW211643   1.282   6.895   3.215
 3582SOL     OW11644   3.528   5.400   5.444
 3582SOL    HW111645   3.622   5.408   5.413
 3582SOL    HW211646   3.475   5.345   5.379
 3583SOL     OW11647   1.468   4.140   0.155
 3583SOL    HW111648   1.440   4.129   0.250
 3583SOL    HW211649   1.533   4.216   0.148
 3584SOL     OW11650   5.798   5.010   5.577
 3584SOL    HW111651   5.844   5.061   5.650
 3584SOL    HW211652   5.706   5.047   5.565
 3585SOL     OW11653   3.412   2.157   4.614
 3585SOL    HW111654   3.387   2.250   4.645
 3585SOL    HW211655   3.329   2.105   4.597
 3586SOL     OW11656   6.642   2.778   4.427
 3586SOL    HW111657   6.642   2.828   4.340
 3586SOL    HW211658   6.598   2.689   4.414
 3587SOL     OW11659   3.376   5.778   6.528
 3587SOL    HW111660   3.355   5.684   6.556
 3587SOL    HW211661   3.467   5.782   6.487
 3588SOL     OW11662   6.571   4.659   4.301
 3588SOL    HW111663   6.500   4.618   4.358
 3588SOL    HW211664   6.644   4.695   4.359
 3589SOL     OW11665   6.747   7.013   6.093
 3589SOL    HW111666   6.702   6.933   6.054
 3589SOL    HW211667   6.844   7.012   6.067
 3590SOL     OW11668   0.242   3.950   0.723
 3590SOL    HW111669   0.270   4.012   0.649
 3590SOL    HW211670   0.312   3.948   0.794
 3591SOL     OW11671   5.658   2.763   0.393
 3591SOL    HW111672   5.597   2.836   0.364
 3591SOL    HW211673   5.634   2.733   0.485
 3592SOL     OW11674   0.536   0.284   2.302
 3592SOL    HW111675   0.522   0.229   2.385
 3592SOL    HW211676   0.632   0.308   2.295
 3593SOL     OW11677   0.322   4.700   5.673
 3593SOL    HW111678   0.420   4.683   5.685
 3593SOL    HW211679   0.295   4.780   5.727
 3594SOL     OW11680   4.441   0.116   4.999
 3594SOL    HW111681   4.520   0.056   4.990
 3594SOL    HW211682   4.468   0.210   4.977
 3595SOL     OW11683   6.322   6.137   0.165
 3595SOL    HW111684   6.330   6.224   0.116
 3595SOL    HW211685   6.265   6.074   0.112
 3596SOL     OW11686   4.257   2.248   3.168
 3596SOL    HW111687   4.283   2.325   3.225
 3596SOL    HW211688   4.285   2.163   3.213
 3597SOL     OW11689   1.832   3.260   5.392
 3597SOL    HW111690   1.844   3.254   5.293
 3597SOL    HW211691   1.854   3.171   5.433
 3598SOL     OW11692   1.956   6.185   5.668
 3598SOL    HW111693   2.027   6.151   5.606
 3598SOL    HW211694   1.870   6.197   5.618
 3599SOL     OW11695   4.947   1.833   6.169
 3599SOL    HW111696   4.954   1.782   6.083
 3599SOL    HW211697   4.884   1.910   6.157
 3600SOL     OW11698   1.925   3.653   1.270
 3600SOL    HW111699   2.005   3.597   1.248
 3600SOL    HW211700   1.931   3.685   1.365
 3601SOL     OW11701   5.246   1.866   5.327
 3601SOL    HW111702   5.324   1.915   5.366
 3601SOL    HW211703   5.179   1.847   5.398
 3602SOL     OW11704   2.328   2.469   1.791
 3602SOL    HW111705   2.415   2.459   1.840
 3602SOL    HW211706   2.345   2.472   1.693
 3603SOL     OW11707   3.468   1.111   6.207
 3603SOL    HW111708   3.494   1.208   6.208
 3603SOL    HW211709   3.423   1.090   6.120
 3604SOL     OW11710   6.363   0.771   3.671
 3604SOL    HW111711   6.398   0.789   3.763
 3604SOL    HW211712   6.432   0.720   3.619
 3605SOL     OW11713   1.581   5.226   3.995
 3605SOL    HW111714   1.572   5.138   4.041
 3605SOL    HW211715   1.673   5.234   3.955
 3606SOL     OW11716   1.841   6.406   1.548
 3606SOL    HW111717   1.883   6.368   1.630
 3606SOL    HW211718   1.899   6.389   1.468
 3607SOL     OW11719   4.965   2.610   2.755
 3607SOL    HW111720   4.875   2.652   2.748
 3607SOL    HW211721   4.958   2.512   2.738
 3608SOL     OW11722   4.929   2.061   4.001
 3608SOL    HW111723   4.930   2.128   4.075
 3608SOL    HW211724   5.024   2.040   3.974
 3609SOL     OW11725   2.355   6.496   4.563
 3609SOL    HW111726   2.373   6.468   4.658
 3609SOL    HW211727   2.440   6.529   4.521
 3610SOL     OW11728   2.208   0.448   5.589
 3610SOL    HW111729   2.144   0.511   5.634
 3610SOL    HW211730   2.241   0.489   5.504
 3611SOL     OW11731   4.603   4.342   4.312
 3611SOL    HW111732   4.513   4.316   4.347
 3611SOL    HW211733   4.660   4.260   4.303
 3612SOL     OW11734   6.497   1.474   6.929
 3612SOL    HW111735   6.450   1.430   7.006
 3612SOL    HW211736   6.504   1.572   6.946
 3613SOL     OW11737   4.687   5.353   2.002
 3613SOL    HW111738   4.680   5.302   1.917
 3613SOL    HW211739   4.721   5.292   2.074
 3614SOL     OW11740   3.340   3.426   6.742
 3614SOL    HW111741   3.248   3.417   6.782
 3614SOL    HW211742   3.368   3.521   6.744
 3615SOL     OW11743   5.858   3.423   5.687
 3615SOL    HW111744   5.782   3.368   5.721
 3615SOL    HW211745   5.858   3.512   5.732
 3616SOL     OW11746   1.611   2.028   5.998
 3616SOL    HW111747   1.688   2.053   5.938
 3616SOL    HW211748   1.526   2.061   5.958
 3617SOL     OW11749   4.526   6.659   5.495
 3617SOL    HW111750   4.446   6.712   5.466
 3617SOL    HW211751   4.505   6.611   5.580
 3618SOL     OW11752   2.222   3.732   5.104
 3618SOL    HW111753   2.246   3.826   5.081
 3618SOL    HW211754   2.280   3.700   5.178
 3619SOL     OW11755   5.490   3.523   0.645
 3619SOL    HW111756   5.474   3.620   0.662
 3619SOL    HW211757   5.441   3.468   0.712
 3620SOL     OW11758   6.339   6.006   4.560
 3620SOL    HW111759   6.253   6.042   4.522
 3620SOL    HW211760   6.318   5.951   4.640
 3621SOL     OW11761   3.959   3.225   4.232
 3621SOL    HW111762   3.873   3.207   4.185
 3621SOL    HW211763   3.978   3.149   4.295
 3622SOL     OW11764   0.838   0.829   0.821
 3622SOL    HW111765   0.742   0.810   0.841
 3622SOL    HW211766   0.887   0.743   0.806
 3623SOL     OW11767   0.820   5.482   5.157
 3623SOL    HW111768   0.779   5.401   5.115
 3623SOL    HW211769   0.749   5.541   5.194
 3624SOL     OW11770   1.731   0.236   1.475
 3624SOL    HW111771   1.829   0.229   1.495
 3624SOL    HW211772   1.708   0.332   1.457
 3625SOL     OW11773   0.140   2.999   6.883
 3625SOL    HW111774   0.230   3.000   6.841
 3625SOL    HW211775   0.089   2.918   6.852
 3626SOL     OW11776   0.443   3.756   4.659
 3626SOL    HW111777   0.347   3.765   4.632
 3626SOL    HW211778   0.473   3.840   4.705
 3627SOL     OW11779   4.647   2.799   1.373
 3627SOL    HW111780   4.632   2.886   1.419
 3627SOL    HW211781   4.592   2.728   1.417
 3628SOL     OW11782   1.309   1.970   1.741
 3628SOL    HW111783   1.298   1.900   1.812
 3628SOL    HW211784   1.402   2.007   1.745
 3629SOL     OW11785   1.366   0.444   3.668
 3629SOL    HW111786   1.377   0.518   3.735
 3629SOL    HW211787   1.315   0.369   3.710
 3630SOL     OW11788   6.875   2.295   2.724
 3630SOL    HW111789   6.834   2.384   2.702
 3630SOL    HW211790   6.969   2.293   2.691
 3631SOL     OW11791   2.170   6.858   3.120
 3631SOL    HW111792   2.119   6.775   3.098
 3631SOL    HW211793   2.149   6.928   3.052
 3632SOL     OW11794   4.209   3.798   0.820
 3632SOL    HW111795   4.288   3.738   0.831
 3632SOL    HW211796   4.153   3.764   0.743
 3633SOL     OW11797   3.533   2.763   5.603
 3633SOL    HW111798   3.560   2.739   5.510
 3633SOL    HW211799   3.491   2.684   5.647
 3634SOL     OW11800   2.512   6.213   5.889
 3634SOL    HW111801   2.440   6.240   5.825
 3634SOL    HW211802   2.510   6.114   5.902
 3635SOL     OW11803   2.581   1.167   1.141
 3635SOL    HW111804   2.534   1.112   1.072
 3635SOL    HW211805   2.513   1.217   1.195
 3636SOL     OW11806   6.898   5.505   0.456
 3636SOL    HW111807   6.853   5.466   0.537
 3636SOL    HW211808   6.977   5.449   0.432
 3637SOL     OW11809   0.811   3.332   0.068
 3637SOL    HW111810   0.800   3.429   0.091
 3637SOL    HW211811   0.853   3.323   7.005
 3638SOL     OW11812   6.724   3.864   2.832
 3638SOL    HW111813   6.799   3.832   2.889
 3638SOL    HW211814   6.699   3.957   2.859
 3639SOL     OW11815   3.938   4.144   5.063
 3639SOL    HW111816   3.997   4.221   5.039
 3639SOL    HW211817   3.963   4.065   5.007
 3640SOL     OW11818   5.519   2.977   0.225
 3640SOL    HW111819   5.474   2.975   0.137
 3640SOL    HW211820   5.607   3.026   0.217
 3641SOL     OW11821   6.235   3.815   1.239
 3641SOL    HW111822   6.145   3.812   1.196
 3641SOL    HW211823   6.305   3.789   1.172
 3642SOL     OW11824   5.631   2.333   6.537
 3642SOL    HW111825   5.681   2.360   6.619
 3642SOL    HW211826   5.557   2.271   6.562
 3643SOL     OW11827   3.942   6.563   6.624
 3643SOL    HW111828   3.860   6.528   6.669
 3643SOL    HW211829   3.930   6.661   6.605
 3644SOL     OW11830   2.341   0.739   1.788
 3644SOL    HW111831   2.355   0.836   1.808
 3644SOL    HW211832   2.321   0.728   1.691
 3645SOL     OW11833   1.117   3.378   4.028
 3645SOL    HW111834   1.085   3.435   4.104
 3645SOL    HW211835   1.038   3.334   3.985
 3646SOL     OW11836   2.856   4.825   4.562
 3646SOL    HW111837   2.955   4.826   4.552
 3646SOL    HW211838   2.831   4.782   4.650
 3647SOL     OW11839   2.369   6.762   6.767
 3647SOL    HW111840   2.293   6.772   6.831
 3647SOL    HW211841   2.447   6.814   6.800
 3648SOL     OW11842   4.890   6.140   3.464
 3648SOL    HW111843   4.884   6.144   3.364
 3648SOL    HW211844   4.985   6.121   3.491
 3649SOL     OW11845   5.674   3.638   6.913
 3649SOL    HW111846   5.715   3.697   6.982
 3649SOL    HW211847   5.657   3.691   6.830
 3650SOL     OW11848   4.784   4.032   0.463
 3650SOL    HW111849   4.794   4.119   0.415
 3650SOL    HW211850   4.688   4.007   0.469
 3651SOL     OW11851   1.906   2.376   5.472
 3651SOL    HW111852   1.923   2.411   5.381
 3651SOL    HW211853   1.860   2.445   5.527
 3652SOL     OW11854   5.335   1.150   2.479
 3652SOL    HW111855   5.380   1.239   2.474
 3652SOL    HW211856   5.403   1.080   2.498
 3653SOL     OW11857   0.741   0.779   2.301
 3653SOL    HW111858   0.663   0.730   2.340
 3653SOL    HW211859   0.822   0.720   2.302
 3654SOL     OW11860   4.874   5.932   1.009
 3654SOL    HW111861   4.794   5.966   0.960
 3654SOL    HW211862   4.915   5.857   0.958
 3655SOL     OW11863   3.061   1.305   4.297
 3655SOL    HW111864   3.078   1.263   4.386
 3655SOL    HW211865   3.039   1.235   4.230
 3656SOL     OW11866   0.984   5.777   2.303
 3656SOL    HW111867   0.994   5.700   2.367
 3656SOL    HW211868   0.950   5.743   2.215
 3657SOL     OW11869   4.684   5.974   5.235
 3657SOL    HW111870   4.775   5.941   5.260
 3657SOL    HW211871   4.639   6.012   5.316
 3658SOL     OW11872   1.553   5.629   6.738
 3658SOL    HW111873   1.646   5.639   6.774
 3658SOL    HW211874   1.556   5.582   6.650
 3659SOL     OW11875   0.102   1.493   6.353
 3659SOL    HW111876   0.179   1.462   6.409
 3659SOL    HW211877   0.019   1.447   6.385
 3660SOL     OW11878   5.547   5.907   5.753
 3660SOL    HW111879   5.463   5.900   5.698
 3660SOL    HW211880   5.624   5.872   5.699
 3661SOL     OW11881   0.134   0.855   4.746
 3661SOL    HW111882   0.143   0.953   4.725
 3661SOL    HW211883   0.139   0.802   4.661
 3662SOL     OW11884   3.918   0.769   5.773
 3662SOL    HW111885   4.001   0.803   5.817
 3662SOL    HW211886   3.845   0.762   5.841
 3663SOL     OW11887   2.154   3.030   7.021
 3663SOL    HW111888   2.123   2.944   6.982
 3663SOL    HW211889   2.082   3.069   0.052
 3664SOL     OW11890   4.511   1.598   2.473
 3664SOL    HW111891   4.514   1.677   2.534
 3664SOL    HW211892   4.594   1.595   2.417
 3665SOL     OW11893   0.572   6.647   5.370
 3665SOL    HW111894   0.598   6.604   5.283
 3665SOL    HW211895   0.647   6.638   5.435
 3666SOL     OW11896   1.522   2.327   3.427
 3666SOL    HW111897   1.501   2.334   3.524
 3666SOL    HW211898   1.446   2.364   3.373
 3667SOL     OW11899   1.308   1.922   2.721
 3667SOL    HW111900   1.278   1.903   2.814
 3667SOL    HW211901   1.407   1.935   2.720
 3668SOL     OW11902   1.242   0.218   1.811
 3668SOL    HW111903   1.319   0.282   1.805
 3668SOL    HW211904   1.276   0.125   1.799
 3669SOL     OW11905   6.242   2.251   4.253
 3669SOL    HW111906   6.326   2.242   4.200
 3669SOL    HW211907   6.257   2.311   4.331
 3670SOL     OW11908   3.612   5.064   1.713
 3670SOL    HW111909   3.515   5.047   1.728
 3670SOL    HW211910   3.624   5.147   1.659
 3671SOL     OW11911   6.688   0.529   3.282
 3671SOL    HW111912   6.647   0.444   3.248
 3671SOL    HW211913   6.778   0.542   3.240
 3672SOL     OW11914   5.111   1.062   2.611
 3672SOL    HW111915   5.038   1.129   2.621
 3672SOL    HW211916   5.183   1.099   2.552
 3673SOL     OW11917   4.920   6.133   0.424
 3673SOL    HW111918   4.844   6.188   0.458
 3673SOL    HW211919   4.917   6.129   0.324
 3674SOL     OW11920   1.744   5.965   6.045
 3674SOL    HW111921   1.659   5.914   6.046
 3674SOL    HW211922   1.793   5.949   6.131
 3675SOL     OW11923   0.442   1.957   3.878
 3675SOL    HW111924   0.418   2.036   3.822
 3675SOL    HW211925   0.534   1.925   3.852
 3676SOL     OW11926   4.559   2.496   3.121
 3676SOL    HW111927   4.627   2.556   3.078
 3676SOL    HW211928   4.512   2.444   3.050
 3677SOL     OW11929   1.697   0.919   4.372
 3677SOL    HW111930   1.755   0.905   4.292
 3677SOL    HW211931   1.754   0.951   4.448
 3678SOL     OW11932   1.203   0.247   3.789
 3678SOL    HW111933   1.145   0.246   3.708
 3678SOL    HW211934   1.242   0.156   3.803
 3679SOL     OW11935   5.301   0.477   2.832
 3679SOL    HW111936   5.318   0.385   2.867
 3679SOL    HW211937   5.337   0.544   2.896
 3680SOL     OW11938   4.694   1.276   3.396
 3680SOL    HW111939   4.666   1.184   3.423
 3680SOL    HW211940   4.666   1.294   3.302
 3681SOL     OW11941   1.433   0.557   5.005
 3681SOL    HW111942   1.527   0.543   5.036
 3681SOL    HW211943   1.397   0.470   4.970
 3682SOL     OW11944   5.454   2.748   1.095
 3682SOL    HW111945   5.387   2.692   1.046
 3682SOL    HW211946   5.528   2.774   1.032
 3683SOL     OW11947   0.203   0.413   4.552
 3683SOL    HW111948   0.287   0.366   4.577
 3683SOL    HW211949   0.151   0.436   4.634
 3684SOL     OW11950   2.095   6.513   5.595
 3684SOL    HW111951   2.063   6.604   5.623
 3684SOL    HW211952   2.191   6.519   5.569
 3685SOL     OW11953   2.438   5.943   5.388
 3685SOL    HW111954   2.529   5.902   5.384
 3685SOL    HW211955   2.447   6.043   5.388
 3686SOL     OW11956   6.424   3.453   3.673
 3686SOL    HW111957   6.507   3.488   3.630
 3686SOL    HW211958   6.367   3.409   3.603
 3687SOL     OW11959   4.780   6.283   3.707
 3687SOL    HW111960   4.788   6.230   3.792
 3687SOL    HW211961   4.787   6.221   3.628
 3688SOL     OW11962   6.162   3.118   0.321
 3688SOL    HW111963   6.154   3.059   0.241
 3688SOL    HW211964   6.085   3.182   0.323
 3689SOL     OW11965   2.583   1.574   5.011
 3689SOL    HW111966   2.672   1.559   5.056
 3689SOL    HW211967   2.560   1.495   4.955
 3690SOL     OW11968   5.014   5.446   1.031
 3690SOL    HW111969   5.099   5.496   1.016
 3690SOL    HW211970   5.033   5.348   1.037
 3691SOL     OW11971   2.891   1.712   6.315
 3691SOL    HW111972   2.888   1.804   6.278
 3691SOL    HW211973   2.797   1.679   6.331
 3692SOL     OW11974   7.006   3.747   6.090
 3692SOL    HW111975   0.056   3.781   6.036
 3692SOL    HW211976   0.014   3.707   6.175
 3693SOL     OW11977   0.529   1.639   2.465
 3693SOL    HW111978   0.575   1.728   2.468
 3693SOL    HW211979   0.469   1.630   2.544
 3694SOL     OW11980   0.980   0.726   1.530
 3694SOL    HW111981   1.010   0.814   1.566
 3694SOL    HW211982   0.899   0.695   1.580
 3695SOL     OW11983   6.653   2.501   2.324
 3695SOL    HW111984   6.673   2.594   2.294
 3695SOL    HW211985   6.736   2.460   2.362
 3696SOL     OW11986   4.954   0.799   4.635
 3696SOL    HW111987   4.909   0.785   4.724
 3696SOL    HW211988   4.982   0.894   4.627
 3697SOL     OW11989   6.584   6.083   3.369
 3697SOL    HW111990   6.633   6.092   3.282
 3697SOL    HW211991   6.637   6.127   3.442
 3698SOL     OW11992   1.688   0.551   3.403
 3698SOL    HW111993   1.663   0.576   3.310
 3698SOL    HW211994   1.720   0.632   3.452
 3699SOL     OW11995   2.649   2.001   4.101
 3699SOL    HW111996   2.562   2.012   4.149
 3699SOL    HW211997   2.642   2.041   4.009
 3700SOL     OW11998   1.991   5.205   5.010
 3700SOL    HW111999   2.082   5.225   5.047
 3700SOL    HW212000   1.926   5.273   5.043
 3701SOL     OW12001   0.968   6.667   2.815
 3701SOL    HW112002   1.056   6.650   2.859
 3701SOL    HW212003   0.973   6.751   2.761
 3702SOL     OW12004   5.871   5.585   4.100
 3702SOL    HW112005   5.895   5.550   4.009
 3702SOL    HW212006   5.947   5.640   4.135
 3703SOL     OW12007   1.164   1.254   5.677
 3703SOL    HW112008   1.201   1.200   5.601
 3703SOL    HW212009   1.134   1.193   5.750
 3704SOL     OW12010   5.946   2.737   1.055
 3704SOL    HW112011   5.926   2.814   1.115
 3704SOL    HW212012   6.014   2.764   0.987
 3705SOL     OW12013   5.036   5.006   3.733
 3705SOL    HW112014   5.034   4.916   3.778
 3705SOL    HW212015   4.961   5.062   3.768
 3706SOL     OW12016   0.964   3.804   0.855
 3706SOL    HW112017   1.057   3.821   0.821
 3706SOL    HW212018   0.922   3.891   0.880
 3707SOL     OW12019   3.017   4.971   3.538
 3707SOL    HW112020   3.105   4.980   3.584
 3707SOL    HW212021   2.943   4.990   3.602
 3708SOL     OW12022   3.569   6.832   1.127
 3708SOL    HW112023   3.633   6.784   1.067
 3708SOL    HW212024   3.620   6.879   1.199
 3709SOL     OW12025   2.144   0.604   1.960
 3709SOL    HW112026   2.134   0.628   2.057
 3709SOL    HW212027   2.187   0.680   1.911
 3710SOL     OW12028   0.596   5.373   5.438
 3710SOL    HW112029   0.671   5.326   5.391
 3710SOL    HW212030   0.620   5.384   5.535
 3711SOL     OW12031   1.864   6.178   5.376
 3711SOL    HW112032   1.927   6.155   5.302
 3711SOL    HW212033   1.799   6.103   5.389
 3712SOL     OW12034   2.206   5.645   5.971
 3712SOL    HW112035   2.184   5.742   5.982
 3712SOL    HW212036   2.305   5.632   5.980
 3713SOL     OW12037   6.852   6.485   4.528
 3713SOL    HW112038   6.882   6.398   4.566
 3713SOL    HW212039   6.752   6.484   4.517
 3714SOL     OW12040   1.033   4.782   0.181
 3714SOL    HW112041   1.131   4.771   0.168
 3714SOL    HW212042   0.995   4.837   0.107
 3715SOL     OW12043   0.074   6.076   3.718
 3715SOL    HW112044   0.019   6.018   3.777
 3715SOL    HW212045   0.164   6.091   3.759
 3716SOL     OW12046   6.396   5.665   4.193
 3716SOL    HW112047   6.303   5.699   4.175
 3716SOL    HW212048   6.447   5.662   4.107
 3717SOL     OW12049   4.779   1.271   1.116
 3717SOL    HW112050   4.719   1.250   1.193
 3717SOL    HW212051   4.725   1.317   1.044
 3718SOL     OW12052   0.471   6.666   6.565
 3718SOL    HW112053   0.373   6.689   6.564
 3718SOL    HW212054   0.487   6.589   6.627
 3719SOL     OW12055   4.213   3.201   6.403
 3719SOL    HW112056   4.132   3.180   6.348
 3719SOL    HW212057   4.236   3.122   6.460
 3720SOL     OW12058   6.308   3.443   0.985
 3720SOL    HW112059   6.311   3.542   0.998
 3720SOL    HW212060   6.330   3.420   0.890
 3721SOL     OW12061   6.353   5.321   6.854
 3721SOL    HW112062   6.408   5.338   6.936
 3721SOL    HW212063   6.260   5.355   6.869
 3722SOL     OW12064   4.186   7.025   2.014
 3722SOL    HW112065   4.095   0.026   1.981
 3722SOL    HW212066   4.187   6.926   2.027
 3723SOL     OW12067   4.518   5.349   0.517
 3723SOL    HW112068   4.581   5.426   0.517
 3723SOL    HW212069   4.530   5.296   0.432
 3724SOL     OW12070   1.543   4.988   5.419
 3724SOL    HW112071   1.540   4.964   5.516
 3724SOL    HW212072   1.637   4.976   5.385
 3725SOL     OW12073   0.434   6.039   6.999
 3725SOL    HW112074   0.410   6.014   0.066
 3725SOL    HW212075   0.531   6.066   6.995
 3726SOL     OW12076   4.999   4.528   4.290
 3726SOL    HW112077   5.021   4.459   4.360
 3726SOL    HW212078   5.009   4.619   4.329
 3727SOL     OW12079   0.375   3.061   4.173
 3727SOL    HW112080   0.432   3.012   4.240
 3727SOL    HW212081   0.301   3.108   4.220
 3728SOL     OW12082   3.262   3.415   0.695
 3728SOL    HW112083   3.205   3.495   0.677
 3728SOL    HW212084   3.257   3.390   0.791
 3729SOL     OW12085   0.355   0.248   5.642
 3729SOL    HW112086   0.285   0.318   5.639
 3729SOL    HW212087   0.438   0.281   5.596
 3730SOL     OW12088   4.265   6.572   5.975
 3730SOL    HW112089   4.197   6.530   5.915
 3730SOL    HW212090   4.289   6.508   6.048
 3731SOL     OW12091   0.371   1.455   6.451
 3731SOL    HW112092   0.345   1.545   6.415
 3731SOL    HW212093   0.439   1.466   6.523
 3732SOL     OW12094   2.400   1.353   0.480
 3732SOL    HW112095   2.370   1.440   0.441
 3732SOL    HW212096   2.451   1.302   0.410
 3733SOL     OW12097   1.794   2.783   3.773
 3733SOL    HW112098   1.757   2.734   3.694
 3733SOL    HW212099   1.865   2.727   3.817
 3734SOL     OW12100   3.887   0.372   1.548
 3734SOL    HW112101   3.849   0.456   1.586
 3734SOL    HW212102   3.826   0.296   1.566
 3735SOL     OW12103   4.175   6.484   2.274
 3735SOL    HW112104   4.114   6.506   2.351
 3735SOL    HW212105   4.239   6.559   2.260
 3736SOL     OW12106   6.514   1.065   1.083
 3736SOL    HW112107   6.602   1.075   1.038
 3736SOL    HW212108   6.503   0.971   1.115
 3737SOL     OW12109   6.739   2.273   3.238
 3737SOL    HW112110   6.676   2.222   3.295
 3737SOL    HW212111   6.690   2.345   3.188
 3738SOL     OW12112   6.813   5.972   0.875
 3738SOL    HW112113   6.859   6.042   0.930
 3738SOL    HW212114   6.805   5.888   0.929
 3739SOL     OW12115   3.100   4.867   1.902
 3739SOL    HW112116   3.128   4.776   1.871
 3739SOL    HW212117   3.008   4.863   1.940
 3740SOL     OW12118   5.931   5.775   6.635
 3740SOL    HW112119   5.939   5.875   6.637
 3740SOL    HW212120   6.018   5.735   6.606
 3741SOL     OW12121   5.355   2.527   0.189
 3741SOL    HW112122   5.264   2.516   0.229
 3741SOL    HW212123   5.419   2.464   0.232
 3742SOL     OW12124   4.535   5.738   0.357
 3742SOL    HW112125   4.528   5.828   0.401
 3742SOL    HW212126   4.624   5.698   0.377
 3743SOL     OW12127   4.264   4.094   1.149
 3743SOL    HW112128   4.246   4.132   1.240
 3743SOL    HW212129   4.349   4.042   1.152
 3744SOL     OW12130   1.162   6.638   2.082
 3744SOL    HW112131   1.166   6.628   2.182
 3744SOL    HW212132   1.066   6.640   2.053
 3745SOL     OW12133   4.886   3.385   2.276
 3745SOL    HW112134   4.867   3.308   2.216
 3745SOL    HW212135   4.878   3.355   2.372
 3746SOL     OW12136   6.734   0.058   3.573
 3746SOL    HW112137   6.782   0.076   3.487
 3746SOL    HW212138   6.744   6.989   3.598
 3747SOL     OW12139   4.321   6.455   6.229
 3747SOL    HW112140   4.258   6.454   6.307
 3747SOL    HW212141   4.404   6.406   6.253
 3748SOL     OW12142   5.625   0.984   2.527
 3748SOL    HW112143   5.627   0.990   2.626
 3748SOL    HW212144   5.612   0.889   2.499
 3749SOL     OW12145   1.004   5.263   2.816
 3749SOL    HW112146   0.982   5.277   2.912
 3749SOL    HW212147   0.925   5.288   2.759
 3750SOL     OW12148   5.938   4.302   0.673
 3750SOL    HW112149   5.840   4.283   0.659
 3750SOL    HW212150   5.977   4.233   0.734
 3751SOL     OW12151   1.752   3.213   1.084
 3751SOL    HW112152   1.848   3.187   1.068
 3751SOL    HW212153   1.697   3.186   1.004
 3752SOL     OW12154   0.138   0.035   6.784
 3752SOL    HW112155   0.096   0.100   6.847
 3752SOL    HW212156   0.090   0.037   6.696
 3753SOL     OW12157   0.951   6.791   4.554
 3753SOL    HW112158   1.033   6.806   4.498
 3753SOL    HW212159   0.978   6.756   4.643
 3754SOL     OW12160   5.592   6.533   1.116
 3754SOL    HW112161   5.635   6.536   1.025
 3754SOL    HW212162   5.496   6.558   1.109
 3755SOL     OW12163   5.279   5.127   4.013
 3755SOL    HW112164   5.286   5.214   4.062
 3755SOL    HW212165   5.370   5.087   4.002
 3756SOL     OW12166   2.035   1.651   6.151
 3756SOL    HW112167   2.080   1.673   6.064
 3756SOL    HW212168   1.962   1.718   6.168
 3757SOL     OW12169   3.428   5.891   5.532
 3757SOL    HW112170   3.425   5.954   5.455
 3757SOL    HW212171   3.418   5.797   5.499
 3758SOL     OW12172   2.277   0.898   4.776
 3758SOL    HW112173   2.302   0.994   4.788
 3758SOL    HW212174   2.222   0.867   4.853
 3759SOL     OW12175   4.923   5.467   5.538
 3759SOL    HW112176   4.921   5.497   5.634
 3759SOL    HW212177   4.902   5.369   5.535
 3760SOL     OW12178   1.305   3.134   3.793
 3760SOL    HW112179   1.223   3.117   3.847
 3760SOL    HW212180   1.381   3.079   3.829
 3761SOL     OW12181   0.635   6.930   5.262
 3761SOL    HW112182   0.582   6.847   5.249
 3761SOL    HW212183   0.590   6.989   5.329
 3762SOL     OW12184   1.142   4.222   0.158
 3762SOL    HW112185   1.209   4.148   0.152
 3762SOL    HW212186   1.051   4.183   0.174
 3763SOL     OW12187   6.701   3.935   6.682
 3763SOL    HW112188   6.765   3.971   6.750
 3763SOL    HW212189   6.677   3.841   6.706
 3764SOL     OW12190   2.013   0.352   4.611
 3764SOL    HW112191   1.962   0.430   4.576
 3764SOL    HW212192   2.068   0.380   4.690
 3765SOL     OW12193   4.776   0.640   3.503
 3765SOL    HW112194   4.770   0.676   3.410
 3765SOL    HW212195   4.691   0.593   3.527
 3766SOL     OW12196   0.799   1.139   3.928
 3766SOL    HW112197   0.725   1.120   3.992
 3766SOL    HW212198   0.887   1.129   3.974
 3767SOL     OW12199   1.604   5.273   0.339
 3767SOL    HW112200   1.678   5.215   0.375
 3767SOL    HW212201   1.518   5.222   0.342
 3768SOL     OW12202   4.476   6.409   6.621
 3768SOL    HW112203   4.424   6.345   6.677
 3768SOL    HW212204   4.474   6.379   6.526
 3769SOL     OW12205   5.725   5.989   4.875
 3769SOL    HW112206   5.767   6.079   4.862
 3769SOL    HW212207   5.720   5.941   4.788
 3770SOL     OW12208   2.169   1.345   5.812
 3770SOL    HW112209   2.167   1.367   5.909
 3770SOL    HW212210   2.209   1.422   5.761
 3771SOL     OW12211   5.308   2.240   0.485
 3771SOL    HW112212   5.241   2.286   0.544
 3771SOL    HW212213   5.339   2.156   0.529
 3772SOL     OW12214   6.306   0.748   0.978
 3772SOL    HW112215   6.384   0.790   1.025
 3772SOL    HW212216   6.285   0.800   0.895
 3773SOL     OW12217   5.787   3.259   5.443
 3773SOL    HW112218   5.834   3.172   5.458
 3773SOL    HW212219   5.792   3.314   5.526
 3774SOL     OW12220   1.372   0.111   6.441
 3774SOL    HW112221   1.352   0.204   6.410
 3774SOL    HW212222   1.396   0.055   6.362
 3775SOL     OW12223   5.383   3.974   3.077
 3775SOL    HW112224   5.329   4.057   3.064
 3775SOL    HW212225   5.469   3.981   3.026
 3776SOL     OW12226   2.492   2.126   1.159
 3776SOL    HW112227   2.460   2.198   1.221
 3776SOL    HW212228   2.451   2.039   1.186
 3777SOL     OW12229   2.980   5.173   4.686
 3777SOL    HW112230   2.971   5.091   4.743
 3777SOL    HW212231   3.075   5.203   4.685
 3778SOL     OW12232   2.250   5.698   2.897
 3778SOL    HW112233   2.216   5.723   2.987
 3778SOL    HW212234   2.272   5.781   2.845
 3779SOL     OW12235   2.517   4.611   0.038
 3779SOL    HW112236   2.460   4.607   0.120
 3779SOL    HW212237   2.507   4.526   7.013
 3780SOL     OW12238   3.793   5.482   4.949
 3780SOL    HW112239   3.798   5.539   5.031
 3780SOL    HW212240   3.788   5.386   4.976
 3781SOL     OW12241   2.403   6.729   3.919
 3781SOL    HW112242   2.326   6.674   3.886
 3781SOL    HW212243   2.423   6.801   3.852
 3782SOL     OW12244   3.069   1.929   4.133
 3782SOL    HW112245   3.126   1.875   4.071
 3782SOL    HW212246   3.058   2.021   4.096
 3783SOL     OW12247   6.498   6.672   5.123
 3783SOL    HW112248   6.571   6.678   5.191
 3783SOL    HW212249   6.498   6.580   5.083
 3784SOL     OW12250   5.746   1.609   3.666
 3784SOL    HW112251   5.664   1.608   3.724
 3784SOL    HW212252   5.770   1.515   3.640
 3785SOL     OW12253   2.575   1.811   0.414
 3785SOL    HW112254   2.551   1.907   0.400
 3785SOL    HW212255   2.562   1.761   0.328
 3786SOL     OW12256   2.827   4.829   3.363
 3786SOL    HW112257   2.846   4.822   3.265
 3786SOL    HW212258   2.905   4.871   3.409
 3787SOL     OW12259   5.499   1.109   4.307
 3787SOL    HW112260   5.418   1.050   4.302
 3787SOL    HW212261   5.579   1.056   4.280
 3788SOL     OW12262   6.269   2.975   3.587
 3788SOL    HW112263   6.238   2.916   3.512
 3788SOL    HW212264   6.219   3.061   3.586
 3789SOL     OW12265   1.002   4.116   4.251
 3789SOL    HW112266   1.031   4.036   4.199
 3789SOL    HW212267   0.932   4.089   4.317
 3790SOL     OW12268   2.179   3.702   4.602
 3790SOL    HW112269   2.210   3.634   4.536
 3790SOL    HW212270   2.156   3.657   4.688
 3791SOL     OW12271   5.332   6.668   1.070
 3791SOL    HW112272   5.360   6.746   1.126
 3791SOL    HW212273   5.288   6.701   0.987
 3792SOL     OW12274   6.323   0.344   5.365
 3792SOL    HW112275   6.267   0.427   5.355
 3792SOL    HW212276   6.420   0.368   5.360
 3793SOL     OW12277   2.080   1.326   2.627
 3793SOL    HW112278   2.091   1.422   2.602
 3793SOL    HW212279   2.044   1.319   2.720
 3794SOL     OW12280   3.899   5.466   2.228
 3794SOL    HW112281   3.839   5.505   2.159
 3794SOL    HW212282   3.938   5.540   2.284
 3795SOL     OW12283   5.098   0.215   6.801
 3795SOL    HW112284   5.025   0.157   6.838
 3795SOL    HW212285   5.062   0.307   6.785
 3796SOL     OW12286   1.353   1.988   1.376
 3796SOL    HW112287   1.334   1.921   1.448
 3796SOL    HW212288   1.300   1.964   1.294
 3797SOL     OW12289   6.905   5.471   2.108
 3797SOL    HW112290   6.848   5.411   2.164
 3797SOL    HW212291   6.972   5.416   2.058
 3798SOL     OW12292   2.482   4.776   3.235
 3798SOL    HW112293   2.551   4.810   3.170
 3798SOL    HW212294   2.417   4.717   3.188
 3799SOL     OW12295   1.317   1.888   5.163
 3799SOL    HW112296   1.256   1.885   5.083
 3799SOL    HW212297   1.308   1.802   5.214
 3800SOL     OW12298   5.135   2.592   4.971
 3800SOL    HW112299   5.158   2.495   4.964
 3800SOL    HW212300   5.064   2.614   4.903
 3801SOL     OW12301   6.435   6.273   5.314
 3801SOL    HW112302   6.390   6.255   5.226
 3801SOL    HW212303   6.378   6.334   5.368
 3802SOL     OW12304   1.200   2.361   5.355
 3802SOL    HW112305   1.213   2.264   5.377
 3802SOL    HW212306   1.220   2.416   5.436
 3803SOL     OW12307   4.382   0.687   1.951
 3803SOL    HW112308   4.398   0.618   1.881
 3803SOL    HW212309   4.348   0.771   1.908
 3804SOL     OW12310   4.744   1.644   4.783
 3804SOL    HW112311   4.693   1.649   4.697
 3804SOL    HW212312   4.841   1.628   4.763
 3805SOL     OW12313   3.097   4.186   1.615
 3805SOL    HW112314   3.126   4.097   1.652
 3805SOL    HW212315   3.058   4.241   1.688
 3806SOL     OW12316   2.982   2.721   6.782
 3806SOL    HW112317   3.042   2.799   6.799
 3806SOL    HW212318   3.010   2.645   6.840
 3807SOL     OW12319   1.590   0.172   4.531
 3807SOL    HW112320   1.646   0.120   4.467
 3807SOL    HW212321   1.496   0.174   4.499
 3808SOL     OW12322   3.262   0.601   2.299
 3808SOL    HW112323   3.253   0.528   2.231
 3808SOL    HW212324   3.350   0.647   2.288
 3809SOL     OW12325   6.014   2.113   6.722
 3809SOL    HW112326   5.939   2.088   6.661
 3809SOL    HW212327   6.016   2.212   6.733
 3810SOL     OW12328   3.317   3.280   5.647
 3810SOL    HW112329   3.407   3.240   5.628
 3810SOL    HW212330   3.269   3.295   5.561
 3811SOL     OW12331   0.658   3.986   4.773
 3811SOL    HW112332   0.758   3.975   4.767
 3811SOL    HW212333   0.632   3.995   4.869
 3812SOL     OW12334   6.375   2.312   5.903
 3812SOL    HW112335   6.415   2.306   5.994
 3812SOL    HW212336   6.399   2.231   5.850
 3813SOL     OW12337   3.806   5.257   1.086
 3813SOL    HW112338   3.802   5.294   1.178
 3813SOL    HW212339   3.778   5.160   1.088
 3814SOL     OW12340   6.939   6.018   1.167
 3814SOL    HW112341   7.018   6.019   1.228
 3814SOL    HW212342   6.897   5.927   1.169
 3815SOL     OW12343   5.071   1.948   1.019
 3815SOL    HW112344   5.105   1.954   0.925
 3815SOL    HW212345   5.055   2.041   1.054
 3816SOL     OW12346   6.819   6.589   2.277
 3816SOL    HW112347   6.891   6.570   2.344
 3816SOL    HW212348   6.732   6.602   2.324
 3817SOL     OW12349   4.629   2.518   4.206
 3817SOL    HW112350   4.658   2.579   4.280
 3817SOL    HW212351   4.651   2.559   4.118
 3818SOL     OW12352   4.542   6.544   2.867
 3818SOL    HW112353   4.629   6.567   2.911
 3818SOL    HW212354   4.520   6.448   2.887
 3819SOL     OW12355   5.816   5.535   0.367
 3819SOL    HW112356   5.739   5.520   0.430
 3819SOL    HW212357   5.799   5.617   0.312
 3820SOL     OW12358   5.697   6.080   4.010
 3820SOL    HW112359   5.618   6.133   4.040
 3820SOL    HW212360   5.764   6.142   3.967
 3821SOL     OW12361   1.661   3.619   1.811
 3821SOL    HW112362   1.593   3.684   1.845
 3821SOL    HW212363   1.746   3.666   1.792
 3822SOL     OW12364   2.042   5.199   1.473
 3822SOL    HW112365   2.069   5.149   1.555
 3822SOL    HW212366   1.944   5.184   1.456
 3823SOL     OW12367   3.721   2.140   5.241
 3823SOL    HW112368   3.659   2.115   5.166
 3823SOL    HW212369   3.688   2.224   5.284
 3824SOL     OW12370   5.954   2.178   5.780
 3824SOL    HW112371   5.944   2.096   5.837
 3824SOL    HW212372   5.989   2.253   5.836
 3825SOL     OW12373   6.717   0.307   6.998
 3825SOL    HW112374   6.708   0.307   6.899
 3825SOL    HW212375   6.734   0.400   0.004
 3826SOL     OW12376   0.283   3.526   0.322
 3826SOL    HW112377   0.309   3.579   0.403
 3826SOL    HW212378   0.360   3.519   0.260
 3827SOL     OW12379   3.781   4.134   0.548
 3827SOL    HW112380   3.760   4.194   0.625
 3827SOL    HW212381   3.871   4.093   0.560
 3828SOL     OW12382   4.572   1.930   0.957
 3828SOL    HW112383   4.500   1.903   0.893
 3828SOL    HW212384   4.606   2.021   0.932
 3829SOL     OW12385   2.496   5.172   3.430
 3829SOL    HW112386   2.397   5.164   3.419
 3829SOL    HW212387   2.535   5.082   3.452
 3830SOL     OW12388   2.251   0.175   5.605
 3830SOL    HW112389   2.346   0.155   5.584
 3830SOL    HW212390   2.236   0.274   5.605
 3831SOL     OW12391   3.861   1.756   2.537
 3831SOL    HW112392   3.782   1.800   2.495
 3831SOL    HW212393   3.910   1.702   2.468
 3832SOL     OW12394   6.315   0.900   1.744
 3832SOL    HW112395   6.321   0.800   1.750
 3832SOL    HW212396   6.400   0.940   1.778
 3833SOL     OW12397   0.774   4.595   0.624
 3833SOL    HW112398   0.704   4.605   0.695
 3833SOL    HW212399   0.757   4.661   0.551
 3834SOL     OW12400   2.837   1.949   0.474
 3834SOL    HW112401   2.843   2.031   0.418
 3834SOL    HW212402   2.787   1.878   0.424
 3835SOL     OW12403   3.690   5.732   5.582
 3835SOL    HW112404   3.594   5.724   5.610
 3835SOL    HW212405   3.730   5.641   5.576
 3836SOL     OW12406   1.898   4.259   6.154
 3836SOL    HW112407   1.836   4.196   6.107
 3836SOL    HW212408   1.922   4.334   6.092
 3837SOL     OW12409   4.454   3.464   0.204
 3837SOL    HW112410   4.362   3.500   0.187
 3837SOL    HW212411   4.497   3.515   0.278
 3838SOL     OW12412   5.159   2.192   4.133
 3838SOL    HW112413   5.242   2.191   4.077
 3838SOL    HW212414   5.147   2.283   4.173
 3839SOL     OW12415   5.765   7.021   5.066
 3839SOL    HW112416   5.857   6.992   5.092
 3839SOL    HW212417   5.708   6.940   5.049
 3840SOL     OW12418   1.544   1.073   4.646
 3840SOL    HW112419   1.516   1.135   4.719
 3840SOL    HW212420   1.572   1.126   4.566
 3841SOL     OW12421   0.867   4.007   5.298
 3841SOL    HW112422   0.964   3.993   5.320
 3841SOL    HW212423   0.849   3.977   5.204
 3842SOL     OW12424   0.686   5.322   0.014
 3842SOL    HW112425   0.619   5.361   0.076
 3842SOL    HW212426   0.769   5.299   0.065
 3843SOL     OW12427   6.195   3.390   0.691
 3843SOL    HW112428   6.256   3.347   0.625
 3843SOL    HW212429   6.175   3.324   0.764
 3844SOL     OW12430   1.899   5.112   5.734
 3844SOL    HW112431   1.824   5.132   5.672
 3844SOL    HW212432   1.878   5.029   5.786
 3845SOL     OW12433   3.425   3.210   3.258
 3845SOL    HW112434   3.470   3.239   3.174
 3845SOL    HW212435   3.346   3.269   3.275
 3846SOL     OW12436   6.988   4.223   4.642
 3846SOL    HW112437   6.966   4.217   4.544
 3846SOL    HW212438   7.010   4.133   4.677
 3847SOL     OW12439   6.894   0.251   6.434
 3847SOL    HW112440   6.819   0.246   6.367
 3847SOL    HW212441   6.887   0.337   6.485
 3848SOL     OW12442   2.135   5.004   2.124
 3848SOL    HW112443   2.148   5.053   2.211
 3848SOL    HW212444   2.224   4.991   2.080
 3849SOL     OW12445   0.739   1.523   5.764
 3849SOL    HW112446   0.698   1.571   5.687
 3849SOL    HW212447   0.815   1.466   5.731
 3850SOL     OW12448   3.027   3.980   2.274
 3850SOL    HW112449   2.988   3.890   2.257
 3850SOL    HW212450   2.978   4.048   2.219
 3851SOL     OW12451   2.185   3.775   3.196
 3851SOL    HW112452   2.198   3.867   3.232
 3851SOL    HW212453   2.190   3.778   3.096
 3852SOL     OW12454   4.385   0.720   4.956
 3852SOL    HW112455   4.481   0.691   4.950
 3852SOL    HW212456   4.348   0.694   5.045
 3853SOL     OW12457   1.059   3.349   1.969
 3853SOL    HW112458   1.003   3.407   1.910
 3853SOL    HW212459   1.112   3.286   1.912
 3854SOL     OW12460   0.988   3.313   4.301
 3854SOL    HW112461   0.952   3.376   4.369
 3854SOL    HW212462   0.932   3.230   4.298
 3855SOL     OW12463   6.140   4.166   5.853
 3855SOL    HW112464   6.126   4.072   5.823
 3855SOL    HW212465   6.104   4.228   5.784
 3856SOL     OW12466   6.710   0.169   5.623
 3856SOL    HW112467   6.711   0.259   5.666
 3856SOL    HW212468   6.701   0.179   5.524
 3857SOL     OW12469   1.187   6.238   4.931
 3857SOL    HW112470   1.149   6.279   4.848
 3857SOL    HW212471   1.176   6.138   4.927
 3858SOL     OW12472   1.570   5.978   6.374
 3858SOL    HW112473   1.602   6.073   6.376
 3858SOL    HW212474   1.649   5.917   6.369
 3859SOL     OW12475   0.071   2.993   3.101
 3859SOL    HW112476   0.021   2.989   3.014
 3859SOL    HW212477   0.125   2.910   3.113
 3860SOL     OW12478   2.187   5.927   6.049
 3860SOL    HW112479   2.176   5.966   6.140
 3860SOL    HW212480   2.112   5.958   5.990
 3861SOL     OW12481   4.853   4.421   1.403
 3861SOL    HW112482   4.919   4.474   1.456
 3861SOL    HW212483   4.899   4.341   1.362
 3862SOL     OW12484   1.012   6.336   6.068
 3862SOL    HW112485   1.065   6.286   6.136
 3862SOL    HW212486   0.933   6.281   6.040
 3863SOL     OW12487   3.530   3.831   1.167
 3863SOL    HW112488   3.460   3.821   1.096
 3863SOL    HW212489   3.486   3.857   1.253
 3864SOL     OW12490   3.258   2.018   6.600
 3864SOL    HW112491   3.208   2.071   6.532
 3864SOL    HW212492   3.325   2.077   6.646
 3865SOL     OW12493   4.134   0.314   2.071
 3865SOL    HW112494   4.161   0.407   2.096
 3865SOL    HW212495   4.215   0.261   2.046
 3866SOL     OW12496   3.738   0.126   0.822
 3866SOL    HW112497   3.732   0.188   0.744
 3866SOL    HW212498   3.762   0.034   0.790
 3867SOL     OW12499   2.105   3.508   3.176
 3867SOL    HW112500   2.111   3.594   3.226
 3867SOL    HW212501   2.112   3.432   3.240
 3868SOL     OW12502   2.774   6.734   2.214
 3868SOL    HW112503   2.689   6.697   2.175
 3868SOL    HW212504   2.794   6.823   2.172
 3869SOL     OW12505   0.442   2.870   3.502
 3869SOL    HW112506   0.365   2.933   3.494
 3869SOL    HW212507   0.458   2.848   3.599
 3870SOL     OW12508   3.103   5.541   0.068
 3870SOL    HW112509   3.047   5.559   7.014
 3870SOL    HW212510   3.200   5.546   0.044
 3871SOL     OW12511   3.111   0.292   3.138
 3871SOL    HW112512   3.130   0.227   3.212
 3871SOL    HW212513   3.133   0.385   3.169
 3872SOL     OW12514   4.022   3.627   1.197
 3872SOL    HW112515   4.019   3.702   1.131
 3872SOL    HW212516   4.027   3.664   1.290
 3873SOL     OW12517   5.457   4.860   1.546
 3873SOL    HW112518   5.380   4.832   1.488
 3873SOL    HW212519   5.454   4.809   1.632
 3874SOL     OW12520   4.383   6.914   0.413
 3874SOL    HW112521   4.397   6.850   0.337
 3874SOL    HW212522   4.349   7.001   0.378
 3875SOL     OW12523   1.689   4.492   1.716
 3875SOL    HW112524   1.781   4.462   1.741
 3875SOL    HW212525   1.622   4.448   1.776
 3876SOL     OW12526   5.843   3.995   4.190
 3876SOL    HW112527   5.853   3.955   4.099
 3876SOL    HW212528   5.760   4.051   4.193
 3877SOL     OW12529   6.215   0.992   2.017
 3877SOL    HW112530   6.240   1.076   1.969
 3877SOL    HW212531   6.219   0.915   1.953
 3878SOL     OW12532   3.863   6.807   6.516
 3878SOL    HW112533   3.794   6.880   6.523
 3878SOL    HW212534   3.938   6.838   6.458
 3879SOL     OW12535   4.290   5.441   1.703
 3879SOL    HW112536   4.197   5.478   1.702
 3879SOL    HW212537   4.304   5.386   1.621
 3880SOL     OW12538   5.694   2.982   3.343
 3880SOL    HW112539   5.704   2.886   3.369
 3880SOL    HW212540   5.763   3.006   3.275
 3881SOL     OW12541   0.787   4.472   1.013
 3881SOL    HW112542   0.712   4.502   0.955
 3881SOL    HW212543   0.776   4.512   1.104
 3882SOL     OW12544   6.904   1.384   5.754
 3882SOL    HW112545   6.995   1.425   5.769
 3882SOL    HW212546   6.863   1.424   5.672
 3883SOL     OW12547   4.200   0.849   4.771
 3883SOL    HW112548   4.280   0.835   4.830
 3883SOL    HW212549   4.138   0.772   4.781
 3884SOL     OW12550   1.975   6.021   5.894
 3884SOL    HW112551   1.977   6.069   5.806
 3884SOL    HW212552   1.884   5.982   5.909
 3885SOL     OW12553   6.613   0.981   3.619
 3885SOL    HW112554   6.706   0.946   3.607
 3885SOL    HW212555   6.579   0.954   3.709
 3886SOL     OW12556   0.024   6.706   4.788
 3886SOL    HW112557   6.955   6.720   4.766
 3886SOL    HW212558   0.033   6.665   4.878
 3887SOL     OW12559   4.399   2.060   5.665
 3887SOL    HW112560   4.392   1.973   5.617
 3887SOL    HW212561   4.484   2.107   5.638
 3888SOL     OW12562   0.068   1.715   0.696
 3888SOL    HW112563   0.058   1.717   0.597
 3888SOL    HW212564   7.006   1.697   0.738
 3889SOL     OW12565   0.901   6.157   6.482
 3889SOL    HW112566   0.992   6.162   6.441
 3889SOL    HW212567   0.860   6.068   6.463
 3890SOL     OW12568   5.962   4.981   3.105
 3890SOL    HW112569   5.998   5.034   3.028
 3890SOL    HW212570   6.025   4.906   3.126
 3891SOL     OW12571   5.330   5.136   5.101
 3891SOL    HW112572   5.327   5.148   5.002
 3891SOL    HW212573   5.353   5.223   5.144
 3892SOL     OW12574   5.542   6.988   2.957
 3892SOL    HW112575   5.563   6.950   2.867
 3892SOL    HW212576   5.536   0.061   2.950
 3893SOL     OW12577   3.443   5.660   4.291
 3893SOL    HW112578   3.538   5.635   4.310
 3893SOL    HW212579   3.428   5.661   4.192
 3894SOL     OW12580   4.698   3.533   7.009
 3894SOL    HW112581   4.728   3.609   6.951
 3894SOL    HW212582   4.668   3.568   0.070
 3895SOL     OW12583   2.682   1.638   5.876
 3895SOL    HW112584   2.623   1.566   5.838
 3895SOL    HW212585   2.631   1.723   5.882
 3896SOL     OW12586   6.448   3.222   5.186
 3896SOL    HW112587   6.374   3.164   5.220
 3896SOL    HW212588   6.526   3.166   5.160
 3897SOL     OW12589   3.803   0.105   1.860
 3897SOL    HW112590   3.724   0.077   1.914
 3897SOL    HW212591   3.773   0.164   1.785
 3898SOL     OW12592   3.967   3.952   3.996
 3898SOL    HW112593   4.020   3.899   4.063
 3898SOL    HW212594   3.878   3.975   4.035
 3899SOL     OW12595   4.754   1.715   5.661
 3899SOL    HW112596   4.700   1.776   5.603
 3899SOL    HW212597   4.848   1.748   5.665
 3900SOL     OW12598   6.548   2.429   2.911
 3900SOL    HW112599   6.593   2.458   2.995
 3900SOL    HW212600   6.554   2.501   2.842
 3901SOL     OW12601   1.454   6.779   5.720
 3901SOL    HW112602   1.403   6.821   5.795
 3901SOL    HW212603   1.416   6.688   5.701
 3902SOL     OW12604   3.960   4.907   1.310
 3902SOL    HW112605   4.000   4.967   1.378
 3902SOL    HW212606   3.906   4.836   1.356
 3903SOL     OW12607   4.442   2.738   6.862
 3903SOL    HW112608   4.472   2.787   6.944
 3903SOL    HW212609   4.431   2.641   6.883
 3904SOL     OW12610   1.204   6.428   0.474
 3904SOL    HW112611   1.142   6.366   0.427
 3904SOL    HW212612   1.275   6.459   0.410
 3905SOL     OW12613   6.842   0.474   5.398
 3905SOL    HW112614   6.928   0.424   5.386
 3905SOL    HW212615   6.862   0.565   5.434
 3906SOL     OW12616   1.863   4.622   4.099
 3906SOL    HW112617   1.812   4.635   4.014
 3906SOL    HW212618   1.941   4.686   4.100
 3907SOL     OW12619   0.161   0.913   3.861
 3907SOL    HW112620   0.171   1.011   3.845
 3907SOL    HW212621   0.066   0.886   3.846
 3908SOL     OW12622   1.142   0.418   5.017
 3908SOL    HW112623   1.151   0.453   4.924
 3908SOL    HW212624   1.177   0.324   5.020
 3909SOL     OW12625   5.672   2.785   6.295
 3909SOL    HW112626   5.699   2.876   6.265
 3909SOL    HW212627   5.572   2.777   6.290
 3910SOL     OW12628   3.597   1.474   0.254
 3910SOL    HW112629   3.616   1.435   0.345
 3910SOL    HW212630   3.632   1.412   0.184
 3911SOL     OW12631   6.755   0.863   0.835
 3911SOL    HW112632   6.751   0.891   0.739
 3911SOL    HW212633   6.847   0.827   0.855
 3912SOL     OW12634   4.001   1.562   0.712
 3912SOL    HW112635   3.996   1.573   0.612
 3912SOL    HW212636   4.016   1.651   0.754
 3913SOL     OW12637   5.128   5.181   0.848
 3913SOL    HW112638   5.172   5.091   0.849
 3913SOL    HW212639   5.198   5.252   0.840
 3914SOL     OW12640   6.317   1.607   0.524
 3914SOL    HW112641   6.225   1.572   0.544
 3914SOL    HW212642   6.321   1.705   0.545
 3915SOL     OW12643   4.588   5.625   6.834
 3915SOL    HW112644   4.516   5.565   6.868
 3915SOL    HW212645   4.588   5.711   6.886
 3916SOL     OW12646   2.072   1.744   1.815
 3916SOL    HW112647   1.987   1.795   1.832
 3916SOL    HW212648   2.057   1.681   1.739
 3917SOL     OW12649   3.057   5.232   1.453
 3917SOL    HW112650   3.038   5.148   1.504
 3917SOL    HW212651   3.111   5.294   1.510
 3918SOL     OW12652   5.395   1.175   0.755
 3918SOL    HW112653   5.323   1.109   0.777
 3918SOL    HW212654   5.471   1.127   0.712
 3919SOL     OW12655   3.426   0.325   1.896
 3919SOL    HW112656   3.419   0.348   1.993
 3919SOL    HW212657   3.396   0.230   1.882
 3920SOL     OW12658   3.029   1.439   5.656
 3920SOL    HW112659   3.060   1.372   5.588
 3920SOL    HW212660   3.023   1.529   5.614
 3921SOL     OW12661   0.221   2.686   6.139
 3921SOL    HW112662   0.310   2.722   6.168
 3921SOL    HW212663   0.151   2.710   6.206
 3922SOL     OW12664   5.459   4.537   3.264
 3922SOL    HW112665   5.472   4.617   3.205
 3922SOL    HW212666   5.442   4.456   3.207
 3923SOL     OW12667   5.592   1.326   1.426
 3923SOL    HW112668   5.610   1.267   1.505
 3923SOL    HW212669   5.644   1.294   1.348
 3924SOL     OW12670   5.773   4.974   4.707
 3924SOL    HW112671   5.826   4.889   4.716
 3924SOL    HW212672   5.678   4.952   4.688
 3925SOL     OW12673   4.740   3.758   0.659
 3925SOL    HW112674   4.698   3.679   0.704
 3925SOL    HW212675   4.838   3.741   0.645
 3926SOL     OW12676   0.634   6.596   6.238
 3926SOL    HW112677   0.686   6.609   6.322
 3926SOL    HW212678   0.606   6.685   6.201
 3927SOL     OW12679   5.588   2.715   5.069
 3927SOL    HW112680   5.592   2.764   5.157
 3927SOL    HW212681   5.524   2.762   5.008
 3928SOL     OW12682   2.619   6.041   2.799
 3928SOL    HW112683   2.635   6.078   2.708
 3928SOL    HW212684   2.656   6.104   2.868
 3929SOL     OW12685   0.170   2.304   5.112
 3929SOL    HW112686   0.242   2.239   5.088
 3929SOL    HW212687   0.170   2.320   5.211
 3930SOL     OW12688   0.380   4.029   3.837
 3930SOL    HW112689   0.383   4.126   3.859
 3930SOL    HW212690   0.473   3.991   3.839
 3931SOL     OW12691   2.081   2.382   1.390
 3931SOL    HW112692   2.031   2.388   1.304
 3931SOL    HW212693   2.075   2.469   1.439
 3932SOL     OW12694   2.445   5.331   4.151
 3932SOL    HW112695   2.528   5.379   4.178
 3932SOL    HW212696   2.432   5.340   4.053
 3933SOL     OW12697   2.174   5.496   0.696
 3933SOL    HW112698   2.271   5.510   0.713
 3933SOL    HW212699   2.134   5.579   0.657
 3934SOL     OW12700   0.222   1.329   1.117
 3934SOL    HW112701   0.159   1.397   1.081
 3934SOL    HW212702   0.306   1.374   1.148
 3935SOL     OW12703   6.367   3.268   6.360
 3935SOL    HW112704   6.336   3.350   6.312
 3935SOL    HW212705   6.371   3.191   6.296
 3936SOL     OW12706   0.807   4.968   5.371
 3936SOL    HW112707   0.859   5.004   5.449
 3936SOL    HW212708   0.775   5.045   5.315
 3937SOL     OW12709   6.969   6.887   1.996
 3937SOL    HW112710   0.010   6.934   1.939
 3937SOL    HW212711   6.881   6.885   1.949
 3938SOL     OW12712   0.547   4.151   3.063
 3938SOL    HW112713   0.618   4.106   3.009
 3938SOL    HW212714   0.578   4.162   3.157
 3939SOL     OW12715   1.293   1.206   2.104
 3939SOL    HW112716   1.313   1.294   2.060
 3939SOL    HW212717   1.220   1.217   2.171
 3940SOL     OW12718   3.670   5.273   1.556
 3940SOL    HW112719   3.649   5.351   1.615
 3940SOL    HW212720   3.604   5.268   1.482
 3941SOL     OW12721   5.072   6.507   3.386
 3941SOL    HW112722   5.009   6.506   3.464
 3941SOL    HW212723   5.103   6.413   3.367
 3942SOL     OW12724   6.699   5.800   5.843
 3942SOL    HW112725   6.789   5.843   5.833
 3942SOL    HW212726   6.653   5.799   5.754
 3943SOL     OW12727   1.420   2.939   6.846
 3943SOL    HW112728   1.390   2.865   6.786
 3943SOL    HW212729   1.497   2.987   6.805
 3944SOL     OW12730   5.746   2.471   6.764
 3944SOL    HW112731   5.804   2.439   6.838
 3944SOL    HW212732   5.650   2.461   6.790
 3945SOL     OW12733   6.407   0.054   3.582
 3945SOL    HW112734   6.320   0.083   3.623
 3945SOL    HW212735   6.482   0.077   3.644
 3946SOL     OW12736   1.180   3.206   0.325
 3946SOL    HW112737   1.148   3.119   0.362
 3946SOL    HW212738   1.223   3.259   0.399
 3947SOL     OW12739   5.510   4.681   2.361
 3947SOL    HW112740   5.585   4.746   2.363
 3947SOL    HW212741   5.424   4.729   2.347
 3948SOL     OW12742   0.877   2.583   6.321
 3948SOL    HW112743   0.893   2.640   6.241
 3948SOL    HW212744   0.964   2.562   6.366
 3949SOL     OW12745   5.570   6.989   2.025
 3949SOL    HW112746   5.620   6.915   1.980
 3949SOL    HW212747   5.617   7.016   2.108
 3950SOL     OW12748   3.063   4.512   1.726
 3950SOL    HW112749   2.999   4.526   1.801
 3950SOL    HW212750   3.021   4.542   1.640
 3951SOL     OW12751   0.593   2.290   5.196
 3951SOL    HW112752   0.681   2.297   5.243
 3951SOL    HW212753   0.522   2.264   5.262
 3952SOL     OW12754   5.934   3.708   6.148
 3952SOL    HW112755   5.898   3.794   6.112
 3952SOL    HW212756   5.859   3.643   6.160
 3953SOL     OW12757   3.353   4.077   6.193
 3953SOL    HW112758   3.420   4.012   6.229
 3953SOL    HW212759   3.272   4.077   6.252
 3954SOL     OW12760   0.461   3.318   5.132
 3954SOL    HW112761   0.532   3.265   5.085
 3954SOL    HW212762   0.461   3.294   5.229
 3955SOL     OW12763   6.629   4.721   0.531
 3955SOL    HW112764   6.646   4.813   0.567
 3955SOL    HW212765   6.701   4.659   0.563
 3956SOL     OW12766   0.976   2.540   5.323
 3956SOL    HW112767   1.037   2.470   5.286
 3956SOL    HW212768   1.027   2.624   5.338
 3957SOL     OW12769   1.255   1.260   2.586
 3957SOL    HW112770   1.204   1.183   2.623
 3957SOL    HW212771   1.211   1.291   2.501
 3958SOL     OW12772   5.666   6.629   5.530
 3958SOL    HW112773   5.661   6.641   5.629
 3958SOL    HW212774   5.740   6.567   5.508
 3959SOL     OW12775   2.421   4.714   0.556
 3959SOL    HW112776   2.468   4.800   0.579
 3959SOL    HW212777   2.398   4.666   0.641
 3960SOL     OW12778   4.370   3.507   0.572
 3960SOL    HW112779   4.398   3.585   0.516
 3960SOL    HW212780   4.349   3.539   0.665
 3961SOL     OW12781   5.696   0.781   2.161
 3961SOL    HW112782   5.669   0.686   2.149
 3961SOL    HW212783   5.760   0.788   2.238
 3962SOL     OW12784   0.713   7.015   6.367
 3962SOL    HW112785   0.724   6.931   6.420
 3962SOL    HW212786   0.619   7.019   6.332
 3963SOL     OW12787   5.424   5.572   3.384
 3963SOL    HW112788   5.342   5.629   3.386
 3963SOL    HW212789   5.397   5.476   3.394
 3964SOL     OW12790   5.616   6.221   5.381
 3964SOL    HW112791   5.639   6.208   5.478
 3964SOL    HW212792   5.701   6.231   5.329
 3965SOL     OW12793   3.818   3.478   0.020
 3965SOL    HW112794   3.722   3.500   0.004
 3965SOL    HW212795   3.872   3.501   6.965
 3966SOL     OW12796   5.640   3.915   5.103
 3966SOL    HW112797   5.567   3.850   5.085
 3966SOL    HW212798   5.602   4.008   5.105
 3967SOL     OW12799   0.927   5.540   6.480
 3967SOL    HW112800   0.846   5.560   6.426
 3967SOL    HW212801   1.008   5.543   6.421
 3968SOL     OW12802   5.938   0.433   1.749
 3968SOL    HW112803   5.887   0.502   1.801
 3968SOL    HW212804   5.922   0.342   1.788
 3969SOL     OW12805   0.310   5.617   1.675
 3969SOL    HW112806   0.377   5.605   1.602
 3969SOL    HW212807   0.283   5.528   1.711
 3970SOL     OW12808   4.650   4.981   3.152
 3970SOL    HW112809   4.606   4.999   3.240
 3970SOL    HW212810   4.642   4.884   3.130
 3971SOL     OW12811   1.715   5.479   3.649
 3971SOL    HW112812   1.647   5.481   3.576
 3971SOL    HW212813   1.715   5.388   3.691
 3972SOL     OW12814   1.491   6.895   0.494
 3972SOL    HW112815   1.571   6.836   0.485
 3972SOL    HW212816   1.410   6.838   0.509
 3973SOL     OW12817   3.012   3.229   3.668
 3973SOL    HW112818   3.006   3.327   3.648
 3973SOL    HW212819   3.004   3.177   3.584
 3974SOL     OW12820   6.111   2.007   6.414
 3974SOL    HW112821   6.088   1.967   6.326
 3974SOL    HW212822   6.211   2.008   6.425
 3975SOL     OW12823   6.628   1.210   5.719
 3975SOL    HW112824   6.633   1.290   5.780
 3975SOL    HW212825   6.719   1.193   5.679
 3976SOL     OW12826   0.778   3.594   0.137
 3976SOL    HW112827   0.785   3.690   0.110
 3976SOL    HW212828   0.804   3.585   0.233
 3977SOL     OW12829   4.135   6.496   6.830
 3977SOL    HW112830   4.079   6.485   6.748
 3977SOL    HW212831   4.076   6.518   6.908
 3978SOL     OW12832   5.658   3.605   6.316
 3978SOL    HW112833   5.655   3.518   6.365
 3978SOL    HW212834   5.665   3.680   6.381
 3979SOL     OW12835   1.082   0.106   3.472
 3979SOL    HW112836   1.030   0.042   3.528
 3979SOL    HW212837   1.032   0.192   3.463
 3980SOL     OW12838   5.694   2.704   3.843
 3980SOL    HW112839   5.694   2.689   3.942
 3980SOL    HW212840   5.600   2.706   3.810
 3981SOL     OW12841   6.883   1.896   6.213
 3981SOL    HW112842   6.870   1.828   6.284
 3981SOL    HW212843   6.973   1.884   6.171
 3982SOL     OW12844   2.702   2.102   3.850
 3982SOL    HW112845   2.714   2.189   3.899
 3982SOL    HW212846   2.791   2.062   3.830
 3983SOL     OW12847   3.261   6.407   3.936
 3983SOL    HW112848   3.241   6.341   4.008
 3983SOL    HW212849   3.330   6.472   3.968
 3984SOL     OW12850   1.567   6.678   1.917
 3984SOL    HW112851   1.621   6.664   1.834
 3984SOL    HW212852   1.475   6.707   1.891
 3985SOL     OW12853   1.791   3.052   1.341
 3985SOL    HW112854   1.764   3.144   1.313
 3985SOL    HW212855   1.801   3.049   1.440
 3986SOL     OW12856   0.650   2.589   2.089
 3986SOL    HW112857   0.599   2.570   2.173
 3986SOL    HW212858   0.609   2.538   2.013
 3987SOL     OW12859   2.619   4.689   6.825
 3987SOL    HW112860   2.606   4.781   6.788
 3987SOL    HW212861   2.553   4.673   6.898
 3988SOL     OW12862   3.897   2.739   0.560
 3988SOL    HW112863   3.908   2.644   0.530
 3988SOL    HW212864   3.894   2.742   0.660
 3989SOL     OW12865   4.641   6.807   6.305
 3989SOL    HW112866   4.621   6.720   6.259
 3989SOL    HW212867   4.555   6.856   6.321
 3990SOL     OW12868   0.975   2.866   3.621
 3990SOL    HW112869   0.951   2.963   3.614
 3990SOL    HW212870   0.992   2.843   3.716
 3991SOL     OW12871   0.355   2.043   4.479
 3991SOL    HW112872   0.271   2.094   4.498
 3991SOL    HW212873   0.348   2.001   4.388
 3992SOL     OW12874   4.395   3.650   6.481
 3992SOL    HW112875   4.420   3.704   6.561
 3992SOL    HW212876   4.335   3.575   6.509
 3993SOL     OW12877   2.615   2.487   2.637
 3993SOL    HW112878   2.533   2.506   2.692
 3993SOL    HW212879   2.626   2.389   2.627
 3994SOL     OW12880   2.281   2.446   3.468
 3994SOL    HW112881   2.230   2.528   3.494
 3994SOL    HW212882   2.218   2.368   3.462
 3995SOL     OW12883   1.906   3.767   2.442
 3995SOL    HW112884   2.004   3.751   2.453
 3995SOL    HW212885   1.859   3.680   2.431
 3996SOL     OW12886   6.230   0.368   3.153
 3996SOL    HW112887   6.279   0.356   3.239
 3996SOL    HW212888   6.171   0.448   3.159
 3997SOL     OW12889   5.753   3.531   2.677
 3997SOL    HW112890   5.681   3.593   2.710
 3997SOL    HW212891   5.715   3.469   2.608
 3998SOL     OW12892   6.423   1.805   2.770
 3998SOL    HW112893   6.467   1.817   2.858
 3998SOL    HW212894   6.403   1.895   2.730
 3999SOL     OW12895   5.592   2.892   2.425
 3999SOL    HW112896   5.498   2.859   2.435
 3999SOL    HW212897   5.591   2.985   2.388
 4000SOL     OW12898   2.968   6.106   1.847
 4000SOL    HW112899   2.909   6.088   1.925
 4000SOL    HW212900   3.064   6.099   1.876
 4001SOL     OW12901   2.254   4.189   5.268
 4001SOL    HW112902   2.304   4.274   5.285
 4001SOL    HW212903   2.318   4.119   5.237
 4002SOL     OW12904   3.509   2.862   4.005
 4002SOL    HW112905   3.526   2.779   4.060
 4002SOL    HW212906   3.589   2.881   3.948
 4003SOL     OW12907   1.961   0.443   5.296
 4003SOL    HW112908   1.919   0.368   5.246
 4003SOL    HW212909   1.944   0.432   5.393
 4004SOL     OW12910   0.232   3.950   3.348
 4004SOL    HW112911   0.213   3.914   3.439
 4004SOL    HW212912   0.176   3.901   3.280
 4005SOL     OW12913   4.537   3.722   1.260
 4005SOL    HW112914   4.463   3.657   1.243
 4005SOL    HW212915   4.541   3.743   1.358
 4006SOL     OW12916   5.339   5.317   3.446
 4006SOL    HW112917   5.246   5.331   3.411
 4006SOL    HW212918   5.339   5.243   3.513
 4007SOL     OW12919   6.883   1.086   2.514
 4007SOL    HW112920   6.914   1.169   2.561
 4007SOL    HW212921   6.884   1.101   2.415
 4008SOL     OW12922   1.720   0.344   1.074
 4008SOL    HW112923   1.675   0.367   0.989
 4008SOL    HW212924   1.748   0.428   1.122
 4009SOL     OW12925   4.029   2.087   0.953
 4009SOL    HW112926   4.066   2.169   0.909
 4009SOL    HW212927   3.936   2.106   0.986
 4010SOL     OW12928   2.627   5.180   1.614
 4010SOL    HW112929   2.658   5.121   1.688
 4010SOL    HW212930   2.694   5.178   1.539
 4011SOL     OW12931   6.258   5.977   0.509
 4011SOL    HW112932   6.302   5.934   0.430
 4011SOL    HW212933   6.234   6.072   0.486
 4012SOL     OW12934   3.973   6.798   2.256
 4012SOL    HW112935   3.976   6.719   2.318
 4012SOL    HW212936   4.066   6.829   2.237
 4013SOL     OW12937   1.183   0.792   0.118
 4013SOL    HW112938   1.099   0.845   0.127
 4013SOL    HW212939   1.240   0.830   0.045
 4014SOL     OW12940   2.749   5.478   4.049
 4014SOL    HW112941   2.709   5.556   4.002
 4014SOL    HW212942   2.800   5.422   3.984
 4015SOL     OW12943   4.533   5.366   6.478
 4015SOL    HW112944   4.454   5.366   6.540
 4015SOL    HW212945   4.586   5.283   6.493
 4016SOL     OW12946   3.980   5.956   5.980
 4016SOL    HW112947   3.938   5.932   6.067
 4016SOL    HW212948   4.060   5.899   5.964
 4017SOL     OW12949   1.335   5.353   5.882
 4017SOL    HW112950   1.260   5.401   5.836
 4017SOL    HW212951   1.300   5.306   5.963
 4018SOL     OW12952   4.214   6.043   1.997
 4018SOL    HW112953   4.265   6.094   1.927
 4018SOL    HW212954   4.117   6.066   1.990
 4019SOL     OW12955   4.909   3.016   2.753
 4019SOL    HW112956   4.897   3.107   2.792
 4019SOL    HW212957   4.980   3.018   2.684
 4020SOL     OW12958   6.546   4.643   5.200
 4020SOL    HW112959   6.513   4.605   5.286
 4020SOL    HW212960   6.640   4.613   5.184
 4021SOL     OW12961   3.447   3.750   5.835
 4021SOL    HW112962   3.505   3.670   5.817
 4021SOL    HW212963   3.474   3.826   5.776
 4022SOL     OW12964   2.366   0.558   0.591
 4022SOL    HW112965   2.387   0.461   0.593
 4022SOL    HW212966   2.448   0.610   0.569
 4023SOL     OW12967   0.090   2.575   5.515
 4023SOL    HW112968   0.033   2.638   5.569
 4023SOL    HW212969   0.059   2.575   5.420
 4024SOL     OW12970   0.894   4.770   3.907
 4024SOL    HW112971   0.874   4.746   3.812
 4024SOL    HW212972   0.993   4.763   3.923
 4025SOL     OW12973   1.314   6.188   3.655
 4025SOL    HW112974   1.414   6.179   3.665
 4025SOL    HW212975   1.275   6.098   3.635
 4026SOL     OW12976   0.033   6.284   3.965
 4026SOL    HW112977   0.076   6.234   4.040
 4026SOL    HW212978   0.031   6.227   3.883
 4027SOL     OW12979   2.274   3.388   5.985
 4027SOL    HW112980   2.247   3.348   5.897
 4027SOL    HW212981   2.361   3.435   5.976
 4028SOL     OW12982   4.758   1.659   2.322
 4028SOL    HW112983   4.744   1.669   2.224
 4028SOL    HW212984   4.752   1.749   2.366
 4029SOL     OW12985   2.735   4.449   6.730
 4029SOL    HW112986   2.697   4.518   6.791
 4029SOL    HW212987   2.667   4.425   6.660
 4030SOL     OW12988   6.913   0.812   1.960
 4030SOL    HW112989   6.837   0.789   2.021
 4030SOL    HW212990   6.989   0.750   1.977
 4031SOL     OW12991   5.616   0.162   1.542
 4031SOL    HW112992   5.584   0.126   1.454
 4031SOL    HW212993   5.683   0.235   1.525
 4032SOL     OW12994   6.028   0.087   1.455
 4032SOL    HW112995   5.963   0.102   1.381
 4032SOL    HW212996   6.121   0.101   1.421
 4033SOL     OW12997   3.219   2.113   2.389
 4033SOL    HW112998   3.264   2.080   2.306
 4033SOL    HW212999   3.136   2.162   2.365
 4034SOL     OW13000   0.326   3.132   4.681
 4034SOL    HW113001   0.373   3.067   4.740
 4034SOL    HW213002   0.241   3.161   4.725
 4035SOL     OW13003   6.301   2.396   1.112
 4035SOL    HW113004   6.276   2.313   1.162
 4035SOL    HW213005   6.399   2.414   1.123
 4036SOL     OW13006   3.250   5.487   3.587
 4036SOL    HW113007   3.199   5.533   3.659
 4036SOL    HW213008   3.241   5.538   3.501
 4037SOL     OW13009   2.059   1.140   5.646
 4037SOL    HW113010   2.092   1.216   5.702
 4037SOL    HW213011   2.028   1.175   5.558
 4038SOL     OW13012   3.859   4.048   6.131
 4038SOL    HW113013   3.955   4.025   6.147
 4038SOL    HW213014   3.818   3.979   6.070
 4039SOL     OW13015   5.148   4.699   2.031
 4039SOL    HW113016   5.236   4.705   1.985
 4039SOL    HW213017   5.081   4.756   1.983
 4040SOL     OW13018   3.894   5.580   5.508
 4040SOL    HW113019   3.953   5.515   5.461
 4040SOL    HW213020   3.931   5.601   5.598
 4041SOL     OW13021   2.025   6.757   1.709
 4041SOL    HW113022   2.083   6.839   1.715
 4041SOL    HW213023   2.011   6.733   1.613
 4042SOL     OW13024   6.217   0.352   2.833
 4042SOL    HW113025   6.147   0.403   2.782
 4042SOL    HW213026   6.211   0.375   2.930
 4043SOL     OW13027   6.002   3.612   6.958
 4043SOL    HW113028   5.988   3.522   6.916
 4043SOL    HW213029   6.027   3.678   6.888
 4044SOL     OW13030   4.186   4.844   3.096
 4044SOL    HW113031   4.258   4.914   3.098
 4044SOL    HW213032   4.129   4.853   3.178
 4045SOL     OW13033   4.993   6.911   6.390
 4045SOL    HW113034   4.951   6.837   6.442
 4045SOL    HW213035   5.030   6.875   6.304
 4046SOL     OW13036   0.714   1.322   3.286
 4046SOL    HW113037   0.625   1.343   3.245
 4046SOL    HW213038   0.731   1.385   3.362
 4047SOL     OW13039   2.426   2.922   6.670
 4047SOL    HW113040   2.421   3.015   6.709
 4047SOL    HW213041   2.416   2.927   6.571
 4048SOL     OW13042   4.796   0.978   2.137
 4048SOL    HW113043   4.831   0.924   2.213
 4048SOL    HW213044   4.862   0.975   2.061
 4049SOL     OW13045   3.625   5.908   6.920
 4049SOL    HW113046   3.546   5.967   6.907
 4049SOL    HW213047   3.705   5.963   6.945
 4050SOL     OW13048   0.746   5.984   2.415
 4050SOL    HW113049   0.734   5.890   2.446
 4050SOL    HW213050   0.809   5.985   2.337
 4051SOL     OW13051   5.456   1.086   6.100
 4051SOL    HW113052   5.552   1.097   6.124
 4051SOL    HW213053   5.414   1.175   6.085
 4052SOL     OW13054   6.688   1.485   2.791
 4052SOL    HW113055   6.687   1.451   2.885
 4052SOL    HW213056   6.770   1.451   2.744
 4053SOL     OW13057   1.136   5.916   4.543
 4053SOL    HW113058   1.230   5.882   4.541
 4053SOL    HW213059   1.136   6.012   4.570
 4054SOL     OW13060   4.495   3.959   1.102
 4054SOL    HW113061   4.558   4.023   1.146
 4054SOL    HW213062   4.528   3.865   1.116
 4055SOL     OW13063   1.630   4.025   2.093
 4055SOL    HW113064   1.587   3.974   2.019
 4055SOL    HW213065   1.559   4.068   2.149
 4056SOL     OW13066   5.630   3.686   1.320
 4056SOL    HW113067   5.711   3.631   1.303
 4056SOL    HW213068   5.635   3.726   1.412
 4057SOL     OW13069   6.535   3.194   6.545
 4057SOL    HW113070   6.472   3.208   6.468
 4057SOL    HW213071   6.490   3.139   6.615
 4058SOL     OW13072   2.371   5.605   5.406
 4058SOL    HW113073   2.383   5.542   5.329
 4058SOL    HW213074   2.425   5.688   5.390
 4059SOL     OW13075   0.995   2.462   4.133
 4059SOL    HW113076   1.038   2.528   4.194
 4059SOL    HW213077   1.046   2.376   4.136
 4060SOL     OW13078   6.314   5.827   4.761
 4060SOL    HW113079   6.360   5.794   4.843
 4060SOL    HW213080   6.268   5.751   4.715
 4061SOL     OW13081   2.423   4.975   2.036
 4061SOL    HW113082   2.479   4.892   2.042
 4061SOL    HW213083   2.451   5.040   2.107
 4062SOL     OW13084   2.245   1.418   1.802
 4062SOL    HW113085   2.291   1.364   1.872
 4062SOL    HW213086   2.314   1.456   1.739
 4063SOL     OW13087   5.721   6.934   1.180
 4063SOL    HW113088   5.708   6.850   1.234
 4063SOL    HW213089   5.663   7.006   1.217
 4064SOL     OW13090   2.227   1.902   4.808
 4064SOL    HW113091   2.171   1.983   4.792
 4064SOL    HW213092   2.167   1.823   4.821
 4065SOL     OW13093   1.311   6.700   0.161
 4065SOL    HW113094   1.338   6.784   0.208
 4065SOL    HW213095   1.215   6.681   0.180
 4066SOL     OW13096   6.331   3.901   2.921
 4066SOL    HW113097   6.302   3.997   2.927
 4066SOL    HW213098   6.370   3.884   2.831
 4067SOL     OW13099   6.027   3.924   2.678
 4067SOL    HW113100   5.970   3.973   2.745
 4067SOL    HW213101   5.976   3.914   2.593
 4068SOL     OW13102   1.663   2.694   4.613
 4068SOL    HW113103   1.749   2.743   4.625
 4068SOL    HW213104   1.587   2.750   4.647
 4069SOL     OW13105   3.537   6.220   6.892
 4069SOL    HW113106   3.569   6.273   6.814
 4069SOL    HW213107   3.453   6.171   6.866
 4070SOL     OW13108   1.114   2.980   2.877
 4070SOL    HW113109   1.174   2.994   2.797
 4070SOL    HW213110   1.034   3.039   2.869
 4071SOL     OW13111   1.612   0.417   4.115
 4071SOL    HW113112   1.612   0.512   4.147
 4071SOL    HW213113   1.524   0.396   4.072
 4072SOL     OW13114   1.477   5.287   4.365
 4072SOL    HW113115   1.459   5.341   4.283
 4072SOL    HW213116   1.575   5.270   4.373
 4073SOL     OW13117   2.172   5.302   0.197
 4073SOL    HW113118   2.223   5.388   0.203
 4073SOL    HW213119   2.134   5.292   0.105
 4074SOL     OW13120   1.368   4.938   1.399
 4074SOL    HW113121   1.399   4.987   1.317
 4074SOL    HW213122   1.371   4.840   1.382
 4075SOL     OW13123   5.386   1.335   0.447
 4075SOL    HW113124   5.293   1.367   0.467
 4075SOL    HW213125   5.411   1.262   0.511
 4076SOL     OW13126   3.520   3.462   5.353
 4076SOL    HW113127   3.441   3.434   5.299
 4076SOL    HW213128   3.604   3.446   5.300
 4077SOL     OW13129   4.538   1.364   1.245
 4077SOL    HW113130   4.485   1.448   1.255
 4077SOL    HW213131   4.475   1.287   1.233
 4078SOL     OW13132   3.032   4.814   2.667
 4078SOL    HW113133   3.077   4.735   2.627
 4078SOL    HW213134   3.068   4.898   2.625
 4079SOL     OW13135   1.707   1.705   4.055
 4079SOL    HW113136   1.691   1.770   4.129
 4079SOL    HW213137   1.737   1.618   4.093
 4080SOL     OW13138   4.870   2.274   4.801
 4080SOL    HW113139   4.812   2.355   4.800
 4080SOL    HW213140   4.964   2.301   4.821
 4081SOL     OW13141   1.869   2.931   4.289
 4081SOL    HW113142   1.927   2.990   4.344
 4081SOL    HW213143   1.773   2.945   4.315
 4082SOL     OW13144   1.029   3.295   0.840
 4082SOL    HW113145   1.018   3.307   0.939
 4082SOL    HW213146   0.941   3.272   0.799
 4083SOL     OW13147   5.923   2.747   3.366
 4083SOL    HW113148   5.922   2.687   3.286
 4083SOL    HW213149   5.939   2.693   3.448
 4084SOL     OW13150   6.336   1.854   3.982
 4084SOL    HW113151   6.303   1.896   3.897
 4084SOL    HW213152   6.283   1.889   4.059
 4085SOL     OW13153   4.222   6.235   0.741
 4085SOL    HW113154   4.130   6.256   0.708
 4085SOL    HW213155   4.255   6.311   0.797
 4086SOL     OW13156   2.070   5.678   1.368
 4086SOL    HW113157   2.040   5.622   1.445
 4086SOL    HW213158   2.089   5.620   1.290
 4087SOL     OW13159   2.558   2.538   3.092
 4087SOL    HW113160   2.562   2.547   3.192
 4087SOL    HW213161   2.483   2.595   3.056
 4088SOL     OW13162   6.620   2.013   1.184
 4088SOL    HW113163   6.642   1.916   1.180
 4088SOL    HW213164   6.533   2.026   1.231
 4089SOL     OW13165   0.488   6.658   3.248
 4089SOL    HW113166   0.416   6.727   3.252
 4089SOL    HW213167   0.577   6.703   3.260
 4090SOL     OW13168   2.802   4.538   6.021
 4090SOL    HW113169   2.850   4.453   5.999
 4090SOL    HW213170   2.823   4.565   6.115
 4091SOL     OW13171   5.764   6.401   6.960
 4091SOL    HW113172   5.765   6.440   6.868
 4091SOL    HW213173   5.750   6.474   0.000
 4092SOL     OW13174   0.079   2.667   5.208
 4092SOL    HW113175   0.136   2.678   5.127
 4092SOL    HW213176   0.031   2.752   5.227
 4093SOL     OW13177   4.752   0.413   3.717
 4093SOL    HW113178   4.808   0.339   3.680
 4093SOL    HW213179   4.676   0.432   3.656
 4094SOL     OW13180   2.167   4.946   5.191
 4094SOL    HW113181   2.071   4.944   5.161
 4094SOL    HW213182   2.218   4.876   5.142
 4095SOL     OW13183   1.085   3.873   6.218
 4095SOL    HW113184   1.093   3.811   6.139
 4095SOL    HW213185   1.012   3.841   6.278
 4096SOL     OW13186   4.625   5.820   1.225
 4096SOL    HW113187   4.701   5.770   1.266
 4096SOL    HW213188   4.542   5.805   1.279
 4097SOL     OW13189   2.933   4.291   5.950
 4097SOL    HW113190   2.969   4.308   5.859
 4097SOL    HW213191   2.954   4.198   5.978
 4098SOL     OW13192   0.354   2.820   2.537
 4098SOL    HW113193   0.293   2.866   2.472
 4098SOL    HW213194   0.449   2.842   2.515
 4099SOL     OW13195   3.057   5.167   1.872
 4099SOL    HW113196   3.055   5.247   1.932
 4099SOL    HW213197   3.087   5.088   1.925
 4100SOL     OW13198   5.477   5.686   3.759
 4100SOL    HW113199   5.577   5.682   3.757
 4100SOL    HW213200   5.441   5.593   3.768
 4101SOL     OW13201   5.526   0.727   0.020
 4101SOL    HW113202   5.570   0.772   0.098
 4101SOL    HW213203   5.493   0.796   6.983
 4102SOL     OW13204   6.482   0.425   1.367
 4102SOL    HW113205   6.554   0.392   1.428
 4102SOL    HW213206   6.520   0.440   1.276
 4103SOL     OW13207   0.685   1.113   1.951
 4103SOL    HW113208   0.704   1.211   1.942
 4103SOL    HW213209   0.768   1.061   1.933
 4104SOL     OW13210   1.455   4.516   2.686
 4104SOL    HW113211   1.551   4.516   2.658
 4104SOL    HW213212   1.417   4.424   2.674
 4105SOL     OW13213   4.167   5.909   1.148
 4105SOL    HW113214   4.092   5.973   1.162
 4105SOL    HW213215   4.254   5.951   1.175
 4106SOL     OW13216   0.284   3.771   5.087
 4106SOL    HW113217   0.283   3.810   5.179
 4106SOL    HW213218   0.377   3.768   5.053
 4107SOL     OW13219   0.648   6.175   0.708
 4107SOL    HW113220   0.694   6.192   0.795
 4107SOL    HW213221   0.714   6.147   0.639
 4108SOL     OW13222   6.825   4.987   5.922
 4108SOL    HW113223   6.831   5.033   6.010
 4108SOL    HW213224   6.855   5.049   5.850
 4109SOL     OW13225   4.340   6.695   4.460
 4109SOL    HW113226   4.396   6.714   4.541
 4109SOL    HW213227   4.281   6.774   4.441
 4110SOL     OW13228   4.259   4.102   6.740
 4110SOL    HW113229   4.250   4.004   6.723
 4110SOL    HW213230   4.327   4.140   6.678
 4111SOL     OW13231   3.272   3.060   0.049
 4111SOL    HW113232   3.332   3.133   0.080
 4111SOL    HW213233   3.299   2.973   0.091
 4112SOL     OW13234   5.079   1.824   5.520
 4112SOL    HW113235   5.106   1.848   5.614
 4112SOL    HW213236   5.036   1.733   5.520
 4113SOL     OW13237   4.043   6.108   4.722
 4113SOL    HW113238   4.003   6.018   4.706
 4113SOL    HW213239   4.140   6.097   4.744
 4114SOL     OW13240   3.169   2.177   3.519
 4114SOL    HW113241   3.266   2.184   3.543
 4114SOL    HW213242   3.152   2.089   3.475
 4115SOL     OW13243   5.395   6.185   2.547
 4115SOL    HW113244   5.311   6.218   2.591
 4115SOL    HW213245   5.464   6.166   2.617
 4116SOL     OW13246   4.156   2.130   1.440
 4116SOL    HW113247   4.140   2.166   1.531
 4116SOL    HW213248   4.217   2.191   1.390
 4117SOL     OW13249   0.472   5.144   1.351
 4117SOL    HW113250   0.559   5.178   1.317
 4117SOL    HW213251   0.398   5.179   1.293
 4118SOL     OW13252   1.319   6.511   1.155
 4118SOL    HW113253   1.255   6.434   1.154
 4118SOL    HW213254   1.377   6.507   1.073
 4119SOL     OW13255   4.104   1.303   4.092
 4119SOL    HW113256   4.085   1.297   3.994
 4119SOL    HW213257   4.044   1.239   4.141
 4120SOL     OW13258   4.465   6.499   1.738
 4120SOL    HW113259   4.415   6.585   1.729
 4120SOL    HW213260   4.485   6.482   1.835
 4121SOL     OW13261   6.276   2.089   4.590
 4121SOL    HW113262   6.248   2.137   4.673
 4121SOL    HW213263   6.216   2.116   4.515
 4122SOL     OW13264   0.841   6.416   5.400
 4122SOL    HW113265   0.782   6.414   5.319
 4122SOL    HW213266   0.839   6.327   5.445
 4123SOL     OW13267   5.686   4.721   5.954
 4123SOL    HW113268   5.714   4.732   5.859
 4123SOL    HW213269   5.633   4.801   5.983
 4124SOL     OW13270   5.872   5.631   5.019
 4124SOL    HW113271   5.872   5.547   4.964
 4124SOL    HW213272   5.813   5.619   5.098
 4125SOL     OW13273   4.860   0.741   1.442
 4125SOL    HW113274   4.930   0.673   1.462
 4125SOL    HW213275   4.872   0.820   1.502
 4126SOL     OW13276   1.018   3.887   4.085
 4126SOL    HW113277   0.923   3.858   4.077
 4126SOL    HW213278   1.078   3.811   4.061
 4127SOL     OW13279   5.396   3.737   4.335
 4127SOL    HW113280   5.352   3.659   4.291
 4127SOL    HW213281   5.333   3.815   4.335
 4128SOL     OW13282   1.852   4.179   2.268
 4128SOL    HW113283   1.949   4.156   2.269
 4128SOL    HW213284   1.797   4.097   2.283
 4129SOL     OW13285   5.338   1.739   6.166
 4129SOL    HW113286   5.249   1.757   6.208
 4129SOL    HW213287   5.391   1.680   6.226
 4130SOL     OW13288   6.874   3.563   5.646
 4130SOL    HW113289   6.952   3.522   5.599
 4130SOL    HW213290   6.806   3.592   5.578
 4131SOL     OW13291   0.958   5.902   3.860
 4131SOL    HW113292   0.970   5.808   3.893
 4131SOL    HW213293   1.046   5.949   3.862
 4132SOL     OW13294   6.009   3.734   3.922
 4132SOL    HW113295   5.964   3.669   3.861
 4132SOL    HW213296   5.961   3.736   4.010
 4133SOL     OW13297   3.089   0.024   1.120
 4133SOL    HW113298   3.066   0.114   1.082
 4133SOL    HW213299   3.091   6.983   1.047
 4134SOL     OW13300   1.302   2.252   0.352
 4134SOL    HW113301   1.252   2.322   0.300
 4134SOL    HW213302   1.249   2.167   0.351
 4135SOL     OW13303   2.165   0.928   2.195
 4135SOL    HW113304   2.089   0.986   2.165
 4135SOL    HW213305   2.133   0.835   2.209
 4136SOL     OW13306   0.453   1.999   4.155
 4136SOL    HW113307   0.520   2.073   4.166
 4136SOL    HW213308   0.442   1.978   4.058
 4137SOL     OW13309   2.535   3.814   0.745
 4137SOL    HW113310   2.546   3.719   0.716
 4137SOL    HW213311   2.479   3.864   0.678
 4138SOL     OW13312   3.651   4.928   3.881
 4138SOL    HW113313   3.738   4.895   3.917
 4138SOL    HW213314   3.595   4.963   3.956
 4139SOL     OW13315   2.392   2.197   5.871
 4139SOL    HW113316   2.329   2.153   5.806
 4139SOL    HW213317   2.399   2.142   5.954
 4140SOL     OW13318   3.688   0.418   5.132
 4140SOL    HW113319   3.624   0.389   5.061
 4140SOL    HW213320   3.781   0.393   5.105
 4141SOL     OW13321   5.080   5.026   1.354
 4141SOL    HW113322   5.100   5.090   1.428
 4141SOL    HW213323   5.121   5.059   1.269
 4142SOL     OW13324   6.743   5.566   1.220
 4142SOL    HW113325   6.789   5.496   1.164
 4142SOL    HW213326   6.648   5.577   1.188
 4143SOL     OW13327   6.921   3.374   0.551
 4143SOL    HW113328   6.950   3.346   0.642
 4143SOL    HW213329   7.001   3.402   0.498
 4144SOL     OW13330   5.699   2.303   0.923
 4144SOL    HW113331   5.660   2.309   0.831
 4144SOL    HW213332   5.745   2.389   0.945
 4145SOL     OW13333   6.723   6.369   1.943
 4145SOL    HW113334   6.684   6.278   1.928
 4145SOL    HW213335   6.764   6.373   2.034
 4146SOL     OW13336   5.992   0.599   5.716
 4146SOL    HW113337   6.066   0.567   5.657
 4146SOL    HW213338   5.998   0.552   5.805
 4147SOL     OW13339   3.456   1.962   5.383
 4147SOL    HW113340   3.384   2.028   5.361
 4147SOL    HW213341   3.533   2.010   5.424
 4148SOL     OW13342   0.518   0.116   3.866
 4148SOL    HW113343   0.563   0.189   3.918
 4148SOL    HW213344   0.498   0.039   3.928
 4149SOL     OW13345   0.548   3.651   6.849
 4149SOL    HW113346   0.535   3.552   6.844
 4149SOL    HW213347   0.637   3.675   6.809
 4150SOL     OW13348   5.653   0.842   6.110
 4150SOL    HW113349   5.603   0.924   6.084
 4150SOL    HW213350   5.694   0.800   6.029
 4151SOL     OW13351   5.611   6.025   6.888
 4151SOL    HW113352   5.586   6.079   6.808
 4151SOL    HW213353   5.623   6.085   6.966
 4152SOL     OW13354   3.314   5.086   1.710
 4152SOL    HW113355   3.229   5.093   1.657
 4152SOL    HW213356   3.294   5.041   1.797
 4153SOL     OW13357   5.257   5.293   5.668
 4153SOL    HW113358   5.219   5.386   5.665
 4153SOL    HW213359   5.347   5.292   5.624
 4154SOL     OW13360   6.613   4.018   5.343
 4154SOL    HW113361   6.529   3.971   5.369
 4154SOL    HW213362   6.595   4.116   5.333
 4155SOL     OW13363   0.043   3.417   3.304
 4155SOL    HW113364   0.032   3.322   3.333
 4155SOL    HW213365   0.060   3.420   3.205
 4156SOL     OW13366   5.509   0.140   5.057
 4156SOL    HW113367   5.595   0.094   5.078
 4156SOL    HW213368   5.439   0.072   5.036
 4157SOL     OW13369   3.383   0.272   3.952
 4157SOL    HW113370   3.430   0.311   3.873
 4157SOL    HW213371   3.310   0.211   3.921
 4158SOL     OW13372   1.207   4.966   4.015
 4158SOL    HW113373   1.257   4.892   4.060
 4158SOL    HW213374   1.226   4.965   3.917
 4159SOL     OW13375   1.666   3.128   3.736
 4159SOL    HW113376   1.760   3.103   3.757
 4159SOL    HW213377   1.607   3.106   3.814
 4160SOL     OW13378   6.241   0.344   1.157
 4160SOL    HW113379   6.241   0.293   1.243
 4160SOL    HW213380   6.188   0.428   1.168
 4161SOL     OW13381   2.168   0.325   6.481
 4161SOL    HW113382   2.085   0.380   6.485
 4161SOL    HW213383   2.172   0.264   6.560
 4162SOL     OW13384   5.780   0.463   4.804
 4162SOL    HW113385   5.684   0.490   4.799
 4162SOL    HW213386   5.795   0.408   4.887
 4163SOL     OW13387   6.041   1.569   3.113
 4163SOL    HW113388   5.973   1.522   3.170
 4163SOL    HW213389   6.123   1.512   3.106
 4164SOL     OW13390   1.678   0.311   6.895
 4164SOL    HW113391   1.621   0.362   6.832
 4164SOL    HW213392   1.763   0.361   6.911
 4165SOL     OW13393   4.355   6.514   1.330
 4165SOL    HW113394   4.277   6.574   1.350
 4165SOL    HW213395   4.384   6.527   1.235
 4166SOL     OW13396   3.932   2.441   1.316
 4166SOL    HW113397   3.993   2.417   1.241
 4166SOL    HW213398   3.878   2.521   1.291
 4167SOL     OW13399   2.254   2.919   0.888
 4167SOL    HW113400   2.158   2.905   0.912
 4167SOL    HW213401   2.269   3.015   0.864
 4168SOL     OW13402   0.123   4.907   1.061
 4168SOL    HW113403   0.212   4.869   1.087
 4168SOL    HW213404   0.124   4.928   0.963
 4169SOL     OW13405   5.519   4.063   4.645
 4169SOL    HW113406   5.592   4.009   4.604
 4169SOL    HW213407   5.438   4.006   4.657
 4170SOL     OW13408   4.082   2.694   5.558
 4170SOL    HW113409   4.060   2.696   5.460
 4170SOL    HW213410   4.044   2.775   5.602
 4171SOL     OW13411   5.041   3.749   1.049
 4171SOL    HW113412   4.983   3.807   0.991
 4171SOL    HW213413   4.986   3.705   1.119
 4172SOL     OW13414   0.076   2.396   7.015
 4172SOL    HW113415   0.026   2.321   6.971
 4172SOL    HW213416   0.174   2.380   7.006
 4173SOL     OW13417   5.525   3.279   5.151
 4173SOL    HW113418   5.622   3.295   5.135
 4173SOL    HW213419   5.505   3.181   5.145
 4174SOL     OW13420   4.743   1.161   4.049
 4174SOL    HW113421   4.818   1.209   4.096
 4174SOL    HW213422   4.728   1.073   4.093
 4175SOL     OW13423   3.165   6.883   4.185
 4175SOL    HW113424   3.156   6.862   4.088
 4175SOL    HW213425   3.181   6.981   4.196
 4176SOL     OW13426   4.176   6.963   2.347
 4176SOL    HW113427   4.153   0.033   2.341
 4176SOL    HW213428   4.189   6.937   2.442
 4177SOL     OW13429   0.457   5.010   5.039
 4177SOL    HW113430   0.404   5.084   5.082
 4177SOL    HW213431   0.441   5.011   4.941
 4178SOL     OW13432   3.334   1.090   5.531
 4178SOL    HW113433   3.426   1.092   5.491
 4178SOL    HW213434   3.321   1.003   5.579
 4179SOL     OW13435   6.190   3.009   4.254
 4179SOL    HW113436   6.145   2.993   4.342
 4179SOL    HW213437   6.175   2.931   4.195
 4180SOL     OW13438   5.458   4.211   2.291
 4180SOL    HW113439   5.417   4.299   2.315
 4180SOL    HW213440   5.558   4.218   2.297
 4181SOL     OW13441   1.321   2.042   6.174
 4181SOL    HW113442   1.235   2.013   6.218
 4181SOL    HW213443   1.396   1.984   6.205
 4182SOL     OW13444   0.549   0.272   2.595
 4182SOL    HW113445   0.524   0.337   2.667
 4182SOL    HW213446   0.611   0.203   2.632
 4183SOL     OW13447   2.414   1.835   1.396
 4183SOL    HW113448   2.327   1.873   1.364
 4183SOL    HW213449   2.426   1.743   1.360
 4184SOL     OW13450   3.865   5.410   1.330
 4184SOL    HW113451   3.834   5.335   1.389
 4184SOL    HW213452   3.964   5.415   1.332
 4185SOL     OW13453   0.907   5.858   3.386
 4185SOL    HW113454   0.903   5.878   3.288
 4185SOL    HW213455   0.960   5.774   3.400
 4186SOL     OW13456   1.971   4.061   6.794
 4186SOL    HW113457   2.070   4.064   6.807
 4186SOL    HW213458   1.927   4.112   6.868
 4187SOL     OW13459   3.655   3.454   5.601
 4187SOL    HW113460   3.646   3.358   5.625
 4187SOL    HW213461   3.641   3.465   5.502
 4188SOL     OW13462   4.598   0.745   4.665
 4188SOL    HW113463   4.547   0.791   4.592
 4188SOL    HW213464   4.655   0.672   4.624
 4189SOL     OW13465   3.162   1.797   4.356
 4189SOL    HW113466   3.106   1.845   4.289
 4189SOL    HW213467   3.125   1.705   4.370
 4190SOL     OW13468   2.384   0.397   6.314
 4190SOL    HW113469   2.358   0.360   6.224
 4190SOL    HW213470   2.307   0.385   6.377
 4191SOL     OW13471   5.765   3.054   2.969
 4191SOL    HW113472   5.825   3.073   2.891
 4191SOL    HW213473   5.820   3.038   3.051
 4192SOL     OW13474   6.213   1.382   3.035
 4192SOL    HW113475   6.158   1.385   2.952
 4192SOL    HW213476   6.309   1.371   3.011
 4193SOL     OW13477   2.328   6.591   2.054
 4193SOL    HW113478   2.326   6.611   2.152
 4193SOL    HW213479   2.256   6.524   2.032
 4194SOL     OW13480   6.794   1.939   4.397
 4194SOL    HW113481   6.868   2.006   4.400
 4194SOL    HW213482   6.713   1.976   4.441
 4195SOL     OW13483   4.157   0.537   1.389
 4195SOL    HW113484   4.256   0.541   1.401
 4195SOL    HW213485   4.115   0.500   1.472
 4196SOL     OW13486   5.841   2.511   4.064
 4196SOL    HW113487   5.810   2.469   3.979
 4196SOL    HW213488   5.776   2.580   4.093
 4197SOL     OW13489   5.175   4.388   4.471
 4197SOL    HW113490   5.183   4.467   4.531
 4197SOL    HW213491   5.264   4.369   4.428
 4198SOL     OW13492   6.063   3.584   0.207
 4198SOL    HW113493   6.022   3.589   0.116
 4198SOL    HW213494   5.993   3.561   0.274
 4199SOL     OW13495   3.036   3.000   5.229
 4199SOL    HW113496   3.025   3.099   5.232
 4199SOL    HW213497   3.065   2.972   5.137
 4200SOL     OW13498   2.361   6.748   6.030
 4200SOL    HW113499   2.446   6.792   6.003
 4200SOL    HW213500   2.319   6.705   5.949
 4201SOL     OW13501   6.272   6.491   3.180
 4201SOL    HW113502   6.319   6.555   3.240
 4201SOL    HW213503   6.312   6.400   3.192
 4202SOL     OW13504   5.063   4.757   5.721
 4202SOL    HW113505   4.972   4.741   5.681
 4202SOL    HW213506   5.133   4.739   5.651
 4203SOL     OW13507   4.811   6.205   2.887
 4203SOL    HW113508   4.845   6.295   2.915
 4203SOL    HW213509   4.727   6.216   2.834
 4204SOL     OW13510   3.257   3.002   1.980
 4204SOL    HW113511   3.181   2.938   1.965
 4204SOL    HW213512   3.312   2.969   2.057
 4205SOL     OW13513   3.431   4.933   4.389
 4205SOL    HW113514   3.520   4.939   4.433
 4205SOL    HW213515   3.392   5.025   4.378
 4206SOL     OW13516   4.472   0.395   5.752
 4206SOL    HW113517   4.552   0.429   5.703
 4206SOL    HW213518   4.391   0.402   5.693
 4207SOL     OW13519   1.794   1.162   1.855
 4207SOL    HW113520   1.866   1.217   1.898
 4207SOL    HW213521   1.766   1.205   1.770
 4208SOL     OW13522   1.868   2.588   1.406
 4208SOL    HW113523   1.770   2.605   1.417
 4208SOL    HW213524   1.886   2.564   1.310
 4209SOL     OW13525   1.187   0.159   4.951
 4209SOL    HW113526   1.271   0.108   4.970
 4209SOL    HW213527   1.133   0.110   4.883
 4210SOL     OW13528   3.848   3.681   1.707
 4210SOL    HW113529   3.929   3.667   1.765
 4210SOL    HW213530   3.798   3.595   1.699
 4211SOL     OW13531   4.702   4.903   5.236
 4211SOL    HW113532   4.655   4.927   5.151
 4211SOL    HW213533   4.769   4.831   5.219
 4212SOL     OW13534   6.409   1.366   2.504
 4212SOL    HW113535   6.331   1.320   2.545
 4212SOL    HW213536   6.423   1.455   2.547
 4213SOL     OW13537   1.970   0.843   1.832
 4213SOL    HW113538   2.019   0.930   1.839
 4213SOL    HW213539   1.951   0.809   1.924
 4214SOL     OW13540   0.892   3.524   6.018
 4214SOL    HW113541   0.935   3.521   6.108
 4214SOL    HW213542   0.921   3.445   5.964
 4215SOL     OW13543   0.736   5.818   4.436
 4215SOL    HW113544   0.793   5.793   4.515
 4215SOL    HW213545   0.794   5.829   4.356
 4216SOL     OW13546   1.059   1.999   3.849
 4216SOL    HW113547   1.126   1.939   3.893
 4216SOL    HW213548   0.983   2.016   3.912
 4217SOL     OW13549   0.414   6.959   2.441
 4217SOL    HW113550   0.340   6.891   2.444
 4217SOL    HW213551   0.427   6.991   2.348
 4218SOL     OW13552   4.923   0.363   1.900
 4218SOL    HW113553   5.018   0.394   1.898
 4218SOL    HW213554   4.867   0.430   1.947
 4219SOL     OW13555   3.654   4.925   5.146
 4219SOL    HW113556   3.585   4.858   5.173
 4219SOL    HW213557   3.668   4.920   5.047
 4220SOL     OW13558   6.246   3.621   3.352
 4220SOL    HW113559   6.311   3.688   3.390
 4220SOL    HW213560   6.225   3.645   3.258
 4221SOL     OW13561   5.336   5.577   6.136
 4221SOL    HW113562   5.295   5.630   6.210
 4221SOL    HW213563   5.392   5.503   6.173
 4222SOL     OW13564   6.018   2.354   1.937
 4222SOL    HW113565   6.079   2.408   1.878
 4222SOL    HW213566   5.945   2.413   1.973
 4223SOL     OW13567   3.515   3.804   2.620
 4223SOL    HW113568   3.563   3.793   2.707
 4223SOL    HW213569   3.497   3.715   2.580
 4224SOL     OW13570   4.953   2.645   4.774
 4224SOL    HW113571   4.918   2.737   4.788
 4224SOL    HW213572   4.877   2.582   4.758
 4225SOL     OW13573   5.969   0.876   4.709
 4225SOL    HW113574   6.000   0.947   4.772
 4225SOL    HW213575   5.964   0.788   4.756
 4226SOL     OW13576   1.182   1.027   3.624
 4226SOL    HW113577   1.111   0.988   3.567
 4226SOL    HW213578   1.151   1.114   3.663
 4227SOL     OW13579   4.075   4.600   0.322
 4227SOL    HW113580   3.987   4.564   0.294
 4227SOL    HW213581   4.128   4.529   0.369
 4228SOL     OW13582   5.831   6.314   3.898
 4228SOL    HW113583   5.829   6.244   3.826
 4228SOL    HW213584   5.747   6.368   3.894
 4229SOL     OW13585   4.424   5.103   6.640
 4229SOL    HW113586   4.522   5.113   6.659
 4229SOL    HW213587   4.374   5.100   6.726
 4230SOL     OW13588   2.796   0.142   4.953
 4230SOL    HW113589   2.788   0.114   4.857
 4230SOL    HW213590   2.827   0.065   5.008
 4231SOL     OW13591   5.165   6.339   5.221
 4231SOL    HW113592   5.189   6.271   5.151
 4231SOL    HW213593   5.243   6.353   5.282
 4232SOL     OW13594   1.028   5.404   2.180
 4232SOL    HW113595   1.035   5.372   2.086
 4232SOL    HW213596   0.947   5.462   2.190
 4233SOL     OW13597   5.887   0.335   6.446
 4233SOL    HW113598   5.831   0.255   6.466
 4233SOL    HW213599   5.968   0.334   6.504
 4234SOL     OW13600   3.089   5.413   6.246
 4234SOL    HW113601   3.003   5.366   6.229
 4234SOL    HW213602   3.160   5.347   6.270
 4235SOL     OW13603   6.356   4.702   6.030
 4235SOL    HW113604   6.354   4.678   6.127
 4235SOL    HW213605   6.335   4.622   5.975
 4236SOL     OW13606   0.296   2.496   3.588
 4236SOL    HW113607   0.233   2.549   3.532
 4236SOL    HW213608   0.294   2.531   3.682
 4237SOL     OW13609   5.051   3.989   4.581
 4237SOL    HW113610   5.056   4.071   4.639
 4237SOL    HW213611   5.135   3.935   4.592
 4238SOL     OW13612   4.073   5.063   3.655
 4238SOL    HW113613   4.002   4.994   3.670
 4238SOL    HW213614   4.163   5.023   3.672
 4239SOL     OW13615   4.889   6.457   5.068
 4239SOL    HW113616   4.930   6.385   5.013
 4239SOL    HW213617   4.912   6.546   5.030
 4240SOL     OW13618   3.146   5.107   0.081
 4240SOL    HW113619   3.146   5.111   7.008
 4240SOL    HW213620   3.109   5.019   0.110
 4241SOL     OW13621   5.364   6.892   1.215
 4241SOL    HW113622   5.344   6.959   1.143
 4241SOL    HW213623   5.279   6.861   1.256
 4242SOL     OW13624   2.511   6.852   2.765
 4242SOL    HW113625   2.519   6.785   2.691
 4242SOL    HW213626   2.511   6.806   2.853
 4243SOL     OW13627   0.670   3.519   2.153
 4243SOL    HW113628   0.708   3.611   2.149
 4243SOL    HW213629   0.572   3.524   2.175
 4244SOL     OW13630   4.932   6.158   1.159
 4244SOL    HW113631   4.921   6.061   1.135
 4244SOL    HW213632   4.881   6.177   1.243
 4245SOL     OW13633   6.494   2.902   0.255
 4245SOL    HW113634   6.444   2.973   0.304
 4245SOL    HW213635   6.545   2.846   0.321
 4246SOL     OW13636   5.190   2.199   2.753
 4246SOL    HW113637   5.101   2.193   2.707
 4246SOL    HW213638   5.249   2.262   2.702
 4247SOL     OW13639   2.413   4.863   4.843
 4247SOL    HW113640   2.397   4.786   4.905
 4247SOL    HW213641   2.369   4.845   4.755
 4248SOL     OW13642   1.872   0.996   2.557
 4248SOL    HW113643   1.818   1.038   2.484
 4248SOL    HW213644   1.821   0.998   2.642
 4249SOL     OW13645   0.235   0.910   4.339
 4249SOL    HW113646   0.148   0.952   4.313
 4249SOL    HW213647   0.218   0.838   4.407
 4250SOL     OW13648   0.322   6.062   4.459
 4250SOL    HW113649   0.237   6.083   4.412
 4250SOL    HW213650   0.311   5.981   4.516
 4251SOL     OW13651   5.813   2.449   6.367
 4251SOL    HW113652   5.749   2.403   6.429
 4251SOL    HW213653   5.906   2.430   6.396
 4252SOL     OW13654   6.277   6.413   5.479
 4252SOL    HW113655   6.197   6.472   5.478
 4252SOL    HW213656   6.276   6.357   5.563
 4253SOL     OW13657   4.456   6.175   2.414
 4253SOL    HW113658   4.471   6.269   2.445
 4253SOL    HW213659   4.406   6.176   2.328
 4254SOL     OW13660   2.158   3.238   6.605
 4254SOL    HW113661   2.113   3.152   6.582
 4254SOL    HW213662   2.198   3.231   6.697
 4255SOL     OW13663   0.592   4.162   2.757
 4255SOL    HW113664   0.641   4.246   2.781
 4255SOL    HW213665   0.648   4.083   2.779
 4256SOL     OW13666   0.543   4.928   2.054
 4256SOL    HW113667   0.560   5.022   2.081
 4256SOL    HW213668   0.492   4.881   2.126
 4257SOL     OW13669   6.197   1.222   5.245
 4257SOL    HW113670   6.259   1.300   5.249
 4257SOL    HW213671   6.112   1.249   5.200
 4258SOL     OW13672   3.561   5.644   0.587
 4258SOL    HW113673   3.623   5.613   0.515
 4258SOL    HW213674   3.474   5.671   0.546
 4259SOL     OW13675   1.086   6.416   1.430
 4259SOL    HW113676   1.183   6.420   1.404
 4259SOL    HW213677   1.063   6.495   1.487
 4260SOL     OW13678   5.166   6.767   4.990
 4260SOL    HW113679   5.077   6.789   4.950
 4260SOL    HW213680   5.153   6.714   5.074
 4261SOL     OW13681   1.860   0.120   4.827
 4261SOL    HW113682   1.882   0.213   4.859
 4261SOL    HW213683   1.763   0.116   4.801
 4262SOL     OW13684   1.379   4.710   6.472
 4262SOL    HW113685   1.429   4.655   6.406
 4262SOL    HW213686   1.283   4.714   6.447
 4263SOL     OW13687   2.725   2.375   3.613
 4263SOL    HW113688   2.658   2.301   3.616
 4263SOL    HW213689   2.808   2.343   3.567
 4264SOL     OW13690   5.575   1.375   4.345
 4264SOL    HW113691   5.660   1.401   4.301
 4264SOL    HW213692   5.563   1.276   4.339
 4265SOL     OW13693   2.582   0.401   0.897
 4265SOL    HW113694   2.511   0.354   0.844
 4265SOL    HW213695   2.552   0.410   0.992
 4266SOL     OW13696   1.075   6.659   0.275
 4266SOL    HW113697   1.096   6.595   0.349
 4266SOL    HW213698   1.052   6.748   0.312
 4267SOL     OW13699   1.707   4.039   4.150
 4267SOL    HW113700   1.783   4.068   4.208
 4267SOL    HW213701   1.693   4.107   4.078
 4268SOL     OW13702   1.505   4.925   6.347
 4268SOL    HW113703   1.592   4.916   6.395
 4268SOL    HW213704   1.443   4.852   6.375
 4269SOL     OW13705   3.451   1.768   4.411
 4269SOL    HW113706   3.496   1.855   4.389
 4269SOL    HW213707   3.358   1.769   4.374
 4270SOL     OW13708   4.005   2.865   0.323
 4270SOL    HW113709   4.001   2.848   0.422
 4270SOL    HW213710   3.922   2.913   0.294
 4271SOL     OW13711   6.489   0.220   1.037
 4271SOL    HW113712   6.424   0.277   0.986
 4271SOL    HW213713   6.441   0.178   1.114
 4272SOL     OW13714   6.461   3.064   5.471
 4272SOL    HW113715   6.405   2.981   5.471
 4272SOL    HW213716   6.403   3.144   5.457
 4273SOL     OW13717   4.517   5.864   4.592
 4273SOL    HW113718   4.549   5.953   4.624
 4273SOL    HW213719   4.432   5.876   4.541
 4274SOL     OW13720   6.261   6.809   1.933
 4274SOL    HW113721   6.239   6.887   1.992
 4274SOL    HW213722   6.182   6.748   1.928
 4275SOL     OW13723   0.865   2.508   3.633
 4275SOL    HW113724   0.913   2.504   3.720
 4275SOL    HW213725   0.895   2.432   3.575
 4276SOL     OW13726   2.803   5.776   4.146
 4276SOL    HW113727   2.757   5.772   4.057
 4276SOL    HW213728   2.750   5.725   4.213
 4277SOL     OW13729   6.045   5.538   4.375
 4277SOL    HW113730   6.032   5.597   4.295
 4277SOL    HW213731   5.994   5.453   4.362
 4278SOL     OW13732   0.632   0.030   1.913
 4278SOL    HW113733   0.667   0.038   2.007
 4278SOL    HW213734   0.544   0.077   1.907
 4279SOL     OW13735   1.508   2.202   2.618
 4279SOL    HW113736   1.567   2.158   2.550
 4279SOL    HW213737   1.558   2.275   2.663
 4280SOL     OW13738   6.861   6.882   6.330
 4280SOL    HW113739   6.861   6.914   6.235
 4280SOL    HW213740   6.792   6.810   6.341
 4281SOL     OW13741   4.579   5.570   3.811
 4281SOL    HW113742   4.637   5.652   3.804
 4281SOL    HW213743   4.635   5.488   3.796
 4282SOL     OW13744   3.425   4.132   0.759
 4282SOL    HW113745   3.358   4.203   0.784
 4282SOL    HW213746   3.431   4.125   0.660
 4283SOL     OW13747   4.875   0.838   3.656
 4283SOL    HW113748   4.841   0.744   3.650
 4283SOL    HW213749   4.810   0.900   3.612
 4284SOL     OW13750   5.048   6.031   6.635
 4284SOL    HW113751   5.044   6.006   6.732
 4284SOL    HW213752   5.110   5.968   6.588
 4285SOL     OW13753   3.162   0.669   6.284
 4285SOL    HW113754   3.065   0.649   6.300
 4285SOL    HW213755   3.210   0.584   6.263
 4286SOL     OW13756   6.560   1.058   6.516
 4286SOL    HW113757   6.618   1.062   6.435
 4286SOL    HW213758   6.596   1.121   6.585
 4287SOL     OW13759   4.515   0.591   0.250
 4287SOL    HW113760   4.495   0.620   0.343
 4287SOL    HW213761   4.430   0.577   0.200
 4288SOL     OW13762   6.799   6.003   2.418
 4288SOL    HW113763   6.888   6.048   2.414
 4288SOL    HW213764   6.754   6.009   2.329
 4289SOL     OW13765   0.855   2.662   4.777
 4289SOL    HW113766   0.827   2.566   4.773
 4289SOL    HW213767   0.931   2.677   4.713
 4290SOL     OW13768   0.448   0.817   3.234
 4290SOL    HW113769   0.457   0.909   3.272
 4290SOL    HW213770   0.538   0.780   3.214
 4291SOL     OW13771   4.788   3.226   5.887
 4291SOL    HW113772   4.689   3.240   5.884
 4291SOL    HW213773   4.818   3.179   5.804
 4292SOL     OW13774   5.461   1.737   0.319
 4292SOL    HW113775   5.447   1.807   0.250
 4292SOL    HW213776   5.478   1.648   0.275
 4293SOL     OW13777   4.721   3.550   6.380
 4293SOL    HW113778   4.654   3.573   6.451
 4293SOL    HW213779   4.715   3.616   6.306
 4294SOL     OW13780   3.230   1.923   6.120
 4294SOL    HW113781   3.208   1.828   6.098
 4294SOL    HW213782   3.274   1.966   6.042
 4295SOL     OW13783   4.406   6.609   2.630
 4295SOL    HW113784   4.414   6.589   2.728
 4295SOL    HW213785   4.347   6.541   2.587
 4296SOL     OW13786   2.362   6.792   0.727
 4296SOL    HW113787   2.298   6.727   0.766
 4296SOL    HW213788   2.387   6.860   0.796
 4297SOL     OW13789   5.966   5.445   0.774
 4297SOL    HW113790   5.976   5.473   0.870
 4297SOL    HW213791   5.974   5.525   0.715
 4298SOL     OW13792   3.413   6.356   1.324
 4298SOL    HW113793   3.350   6.327   1.252
 4298SOL    HW213794   3.402   6.454   1.342
 4299SOL     OW13795   0.581   2.756   6.941
 4299SOL    HW113796   0.634   2.835   6.910
 4299SOL    HW213797   0.643   2.683   6.969
 4300SOL     OW13798   4.281   0.432   0.723
 4300SOL    HW113799   4.263   0.356   0.660
 4300SOL    HW213800   4.355   0.407   0.785
 4301SOL     OW13801   3.072   6.722   2.047
 4301SOL    HW113802   3.009   6.700   2.121
 4301SOL    HW213803   3.022   6.723   1.960
 4302SOL     OW13804   1.673   6.254   6.456
 4302SOL    HW113805   1.651   6.339   6.504
 4302SOL    HW213806   1.731   6.274   6.377
 4303SOL     OW13807   6.156   4.279   4.478
 4303SOL    HW113808   6.223   4.298   4.550
 4303SOL    HW213809   6.063   4.294   4.514
 4304SOL     OW13810   3.501   3.701   1.694
 4304SOL    HW113811   3.462   3.691   1.786
 4304SOL    HW213812   3.488   3.616   1.643
 4305SOL     OW13813   0.191   0.056   5.502
 4305SOL    HW113814   0.219   0.053   5.406
 4305SOL    HW213815   0.234   0.134   5.547
 4306SOL     OW13816   4.851   3.861   4.461
 4306SOL    HW113817   4.918   3.917   4.510
 4306SOL    HW213818   4.875   3.858   4.364
 4307SOL     OW13819   5.862   2.362   5.335
 4307SOL    HW113820   5.873   2.295   5.409
 4307SOL    HW213821   5.772   2.404   5.341
 4308SOL     OW13822   4.996   4.619   1.546
 4308SOL    HW113823   4.945   4.585   1.625
 4308SOL    HW213824   4.950   4.700   1.510
 4309SOL     OW13825   0.736   3.399   0.599
 4309SOL    HW113826   0.798   3.361   0.531
 4309SOL    HW213827   0.753   3.355   0.688
 4310SOL     OW13828   0.103   1.725   2.215
 4310SOL    HW113829   0.142   1.635   2.200
 4310SOL    HW213830   0.071   1.733   2.309
 4311SOL     OW13831   1.145   6.418   2.533
 4311SOL    HW113832   1.131   6.354   2.457
 4311SOL    HW213833   1.071   6.406   2.600
 4312SOL     OW13834   0.483   5.067   2.443
 4312SOL    HW113835   0.426   5.142   2.477
 4312SOL    HW213836   0.431   4.982   2.444
 4313SOL     OW13837   6.218   1.683   6.894
 4313SOL    HW113838   6.298   1.697   6.953
 4313SOL    HW213839   6.209   1.761   6.832
 4314SOL     OW13840   6.630   3.042   5.118
 4314SOL    HW113841   6.588   2.964   5.166
 4314SOL    HW213842   6.723   3.019   5.092
 4315SOL     OW13843   2.539   1.137   4.262
 4315SOL    HW113844   2.586   1.225   4.252
 4315SOL    HW213845   2.561   1.078   4.184
 4316SOL     OW13846   5.876   0.235   2.305
 4316SOL    HW113847   5.856   0.328   2.337
 4316SOL    HW213848   5.909   0.239   2.210
 4317SOL     OW13849   4.838   0.963   5.657
 4317SOL    HW113850   4.784   0.980   5.575
 4317SOL    HW213851   4.810   1.027   5.729
 4318SOL     OW13852   0.837   1.337   3.720
 4318SOL    HW113853   0.902   1.295   3.656
 4318SOL    HW213854   0.854   1.301   3.812
 4319SOL     OW13855   1.102   3.796   1.991
 4319SOL    HW113856   1.150   3.709   1.994
 4319SOL    HW213857   1.012   3.783   1.950
 4320SOL     OW13858   3.515   6.450   0.637
 4320SOL    HW113859   3.599   6.441   0.583
 4320SOL    HW213860   3.458   6.369   0.626
 4321SOL     OW13861   6.578   6.573   2.460
 4321SOL    HW113862   6.602   6.619   2.546
 4321SOL    HW213863   6.512   6.628   2.410
 4322SOL     OW13864   0.376   2.778   5.163
 4322SOL    HW113865   0.333   2.745   5.079
 4322SOL    HW213866   0.398   2.700   5.222
 4323SOL     OW13867   4.511   5.437   0.097
 4323SOL    HW113868   4.585   5.501   0.115
 4323SOL    HW213869   4.527   5.351   0.146
 4324SOL     OW13870   0.072   3.372   5.977
 4324SOL    HW113871   7.011   3.406   5.945
 4324SOL    HW213872   0.079   3.383   6.076
 4325SOL     OW13873   3.010   0.954   2.751
 4325SOL    HW113874   2.918   0.947   2.713
 4325SOL    HW213875   3.031   1.050   2.772
 4326SOL     OW13876   5.103   2.769   2.113
 4326SOL    HW113877   5.075   2.679   2.079
 4326SOL    HW213878   5.136   2.825   2.037
 4327SOL     OW13879   3.755   5.622   4.286
 4327SOL    HW113880   3.801   5.618   4.197
 4327SOL    HW213881   3.755   5.531   4.328
 4328SOL     OW13882   6.027   5.581   5.369
 4328SOL    HW113883   5.998   5.596   5.464
 4328SOL    HW213884   6.004   5.662   5.314
 4329SOL     OW13885   5.982   3.262   5.905
 4329SOL    HW113886   6.035   3.246   5.822
 4329SOL    HW213887   5.948   3.357   5.905
 4330SOL     OW13888   2.633   5.155   5.264
 4330SOL    HW113889   2.720   5.167   5.313
 4330SOL    HW213890   2.578   5.238   5.275
 4331SOL     OW13891   6.303   0.585   1.756
 4331SOL    HW113892   6.212   0.544   1.753
 4331SOL    HW213893   6.362   0.533   1.818
 4332SOL     OW13894   0.021   4.469   2.545
 4332SOL    HW113895   6.983   4.395   2.562
 4332SOL    HW213896   7.005   4.539   2.487
 4333SOL     OW13897   4.234   2.130   5.036
 4333SOL    HW113898   4.140   2.161   5.026
 4333SOL    HW213899   4.255   2.064   4.963
 4334SOL     OW13900   1.231   3.024   3.542
 4334SOL    HW113901   1.169   2.945   3.543
 4334SOL    HW213902   1.256   3.048   3.635
 4335SOL     OW13903   3.290   3.512   1.171
 4335SOL    HW113904   3.192   3.523   1.189
 4335SOL    HW213905   3.339   3.503   1.257
 4336SOL     OW13906   2.166   5.672   6.230
 4336SOL    HW113907   2.156   5.656   6.131
 4336SOL    HW213908   2.257   5.645   6.258
 4337SOL     OW13909   1.295   5.656   2.564
 4337SOL    HW113910   1.270   5.568   2.604
 4337SOL    HW213911   1.376   5.691   2.611
 4338SOL     OW13912   5.472   0.652   5.450
 4338SOL    HW113913   5.431   0.656   5.542
 4338SOL    HW213914   5.451   0.564   5.408
 4339SOL     OW13915   4.246   2.540   5.716
 4339SOL    HW113916   4.204   2.593   5.642
 4339SOL    HW213917   4.218   2.577   5.804
 4340SOL     OW13918   6.624   4.036   1.107
 4340SOL    HW113919   6.540   4.082   1.136
 4340SOL    HW213920   6.631   4.037   1.008
 4341SOL     OW13921   1.170   6.284   2.279
 4341SOL    HW113922   1.152   6.373   2.238
 4341SOL    HW213923   1.130   6.212   2.223
 4342SOL     OW13924   4.837   3.866   2.778
 4342SOL    HW113925   4.860   3.778   2.736
 4342SOL    HW213926   4.804   3.929   2.708
 4343SOL     OW13927   3.996   0.405   6.196
 4343SOL    HW113928   4.056   0.471   6.151
 4343SOL    HW213929   4.043   0.316   6.201
 4344SOL     OW13930   0.084   2.561   3.873
 4344SOL    HW113931   0.046   2.491   3.811
 4344SOL    HW213932   0.181   2.540   3.890
 4345SOL     OW13933   2.959   3.265   2.553
 4345SOL    HW113934   3.021   3.218   2.615
 4345SOL    HW213935   2.935   3.204   2.477
 4346SOL     OW13936   2.216   2.926   2.178
 4346SOL    HW113937   2.212   2.826   2.178
 4346SOL    HW213938   2.302   2.956   2.221
 4347SOL     OW13939   5.469   4.983   2.049
 4347SOL    HW113940   5.548   4.928   2.076
 4347SOL    HW213941   5.457   5.058   2.114
 4348SOL     OW13942   6.788   5.969   4.103
 4348SOL    HW113943   6.787   6.064   4.134
 4348SOL    HW213944   6.753   5.910   4.175
 4349SOL     OW13945   0.169   3.923   3.653
 4349SOL    HW113946   0.233   3.952   3.724
 4349SOL    HW213947   0.122   4.004   3.615
 4350SOL     OW13948   5.043   1.384   4.902
 4350SOL    HW113949   5.091   1.297   4.901
 4350SOL    HW213950   5.043   1.422   4.994
 4351SOL     OW13951   1.222   6.766   0.984
 4351SOL    HW113952   1.262   6.699   1.046
 4351SOL    HW213953   1.294   6.809   0.929
 4352SOL     OW13954   4.003   4.024   0.707
 4352SOL    HW113955   4.050   3.939   0.683
 4352SOL    HW213956   4.047   4.066   0.786
 4353SOL     OW13957   3.126   3.361   6.871
 4353SOL    HW113958   3.060   3.301   6.825
 4353SOL    HW213959   3.094   3.379   6.964
 4354SOL     OW13960   6.270   0.241   4.054
 4354SOL    HW113961   6.251   0.200   4.143
 4354SOL    HW213962   6.219   0.327   4.045
 4355SOL     OW13963   1.758   6.815   3.587
 4355SOL    HW113964   1.847   6.853   3.563
 4355SOL    HW213965   1.770   6.732   3.640
 4356SOL     OW13966   5.265   2.714   6.331
 4356SOL    HW113967   5.331   2.786   6.352
 4356SOL    HW213968   5.268   2.644   6.402
 4357SOL     OW13969   6.550   0.501   1.909
 4357SOL    HW113970   6.648   0.510   1.889
 4357SOL    HW213971   6.531   0.545   1.997
 4358SOL     OW13972   0.655   0.503   0.238
 4358SOL    HW113973   0.578   0.562   0.215
 4358SOL    HW213974   0.713   0.492   0.157
 4359SOL     OW13975   2.425   0.673   6.848
 4359SOL    HW113976   2.355   0.617   6.893
 4359SOL    HW213977   2.393   0.698   6.757
 4360SOL     OW13978   1.477   2.859   3.474
 4360SOL    HW113979   1.456   2.801   3.395
 4360SOL    HW213980   1.400   2.920   3.492
 4361SOL     OW13981   1.007   1.951   0.745
 4361SOL    HW113982   0.914   1.940   0.708
 4361SOL    HW213983   1.035   2.047   0.738
 4362SOL     OW13984   1.475   6.151   4.109
 4362SOL    HW113985   1.416   6.125   4.032
 4362SOL    HW213986   1.562   6.185   4.074
 4363SOL     OW13987   4.250   0.731   2.469
 4363SOL    HW113988   4.315   0.790   2.518
 4363SOL    HW213989   4.178   0.787   2.429
 4364SOL     OW13990   3.462   3.838   3.118
 4364SOL    HW113991   3.509   3.794   3.195
 4364SOL    HW213992   3.524   3.841   3.039
 4365SOL     OW13993   3.075   2.184   1.789
 4365SOL    HW113994   3.030   2.267   1.823
 4365SOL    HW213995   3.027   2.150   1.709
 4366SOL     OW13996   5.230   5.952   5.087
 4366SOL    HW113997   5.324   5.936   5.057
 4366SOL    HW213998   5.230   5.988   5.180
 4367SOL     OW13999   3.072   5.586   3.809
 4367SOL    HW114000   3.025   5.498   3.805
 4367SOL    HW214001   3.062   5.625   3.901
 4368SOL     OW14002   5.104   4.642   2.518
 4368SOL    HW114003   5.039   4.619   2.590
 4368SOL    HW214004   5.080   4.593   2.434
 4369SOL     OW14005   4.774   5.094   2.917
 4369SOL    HW114006   4.838   5.161   2.953
 4369SOL    HW214007   4.700   5.080   2.984
 4370SOL     OW14008   4.003   4.772   1.937
 4370SOL    HW114009   3.906   4.790   1.920
 4370SOL    HW214010   4.027   4.805   2.029
 4371SOL     OW14011   2.149   0.386   1.285
 4371SOL    HW114012   2.186   0.372   1.377
 4371SOL    HW214013   2.071   0.448   1.289
 4372SOL     OW14014   1.951   2.790   4.669
 4372SOL    HW114015   2.028   2.806   4.607
 4372SOL    HW214016   1.970   2.711   4.727
 4373SOL     OW14017   4.471   1.096   5.980
 4373SOL    HW114018   4.446   1.076   5.885
 4373SOL    HW214019   4.417   1.039   6.041
 4374SOL     OW14020   2.710   1.694   1.193
 4374SOL    HW114021   2.699   1.721   1.288
 4374SOL    HW214022   2.642   1.740   1.136
 4375SOL     OW14023   3.293   0.545   3.499
 4375SOL    HW114024   3.326   0.638   3.483
 4375SOL    HW214025   3.207   0.531   3.449
 4376SOL     OW14026   6.528   6.554   1.307
 4376SOL    HW114027   6.467   6.633   1.318
 4376SOL    HW214028   6.621   6.580   1.335
 4377SOL     OW14029   6.334   6.180   6.799
 4377SOL    HW114030   6.319   6.095   6.849
 4377SOL    HW214031   6.312   6.166   6.702
 4378SOL     OW14032   1.885   5.934   2.864
 4378SOL    HW114033   1.865   5.905   2.771
 4378SOL    HW214034   1.960   5.879   2.901
 4379SOL     OW14035   1.231   1.055   1.438
 4379SOL    HW114036   1.300   1.079   1.370
 4379SOL    HW214037   1.160   0.998   1.395
 4380SOL     OW14038   1.695   5.969   5.372
 4380SOL    HW114039   1.595   5.970   5.372
 4380SOL    HW214040   1.728   5.914   5.449
 4381SOL     OW14041   3.494   0.173   4.733
 4381SOL    HW114042   3.394   0.171   4.742
 4381SOL    HW214043   3.533   0.231   4.805
 4382SOL     OW14044   5.233   3.953   4.325
 4382SOL    HW114045   5.218   3.994   4.235
 4382SOL    HW214046   5.154   3.972   4.384
 4383SOL     OW14047   1.229   2.716   5.875
 4383SOL    HW114048   1.273   2.801   5.904
 4383SOL    HW214049   1.287   2.670   5.807
 4384SOL     OW14050   3.842   6.400   1.002
 4384SOL    HW114051   3.802   6.393   1.094
 4384SOL    HW214052   3.786   6.350   0.937
 4385SOL     OW14053   0.295   1.232   3.446
 4385SOL    HW114054   0.200   1.202   3.431
 4385SOL    HW214055   0.319   1.299   3.376
 4386SOL     OW14056   0.822   4.018   6.729
 4386SOL    HW114057   0.810   4.073   6.646
 4386SOL    HW214058   0.900   3.955   6.716
 4387SOL     OW14059   6.939   3.198   1.449
 4387SOL    HW114060   7.010   3.255   1.491
 4387SOL    HW214061   6.860   3.255   1.425
 4388SOL     OW14062   3.348   0.659   5.722
 4388SOL    HW114063   3.417   0.596   5.687
 4388SOL    HW214064   3.314   0.625   5.809
 4389SOL     OW14065   5.757   2.999   1.834
 4389SOL    HW114066   5.804   3.024   1.749
 4389SOL    HW214067   5.809   2.928   1.881
 4390SOL     OW14068   4.658   2.036   1.814
 4390SOL    HW114069   4.687   2.121   1.860
 4390SOL    HW214070   4.736   1.975   1.805
 4391SOL     OW14071   0.834   5.886   0.322
 4391SOL    HW114072   0.932   5.881   0.305
 4391SOL    HW214073   0.786   5.894   0.234
 4392SOL     OW14074   5.175   3.206   4.168
 4392SOL    HW114075   5.122   3.216   4.252
 4392SOL    HW214076   5.272   3.221   4.188
 4393SOL     OW14077   5.046   6.957   3.406
 4393SOL    HW114078   5.021   6.982   3.499
 4393SOL    HW214079   4.964   6.928   3.356
 4394SOL     OW14080   5.569   6.593   2.569
 4394SOL    HW114081   5.482   6.604   2.616
 4394SOL    HW214082   5.566   6.640   2.481
 4395SOL     OW14083   4.351   1.309   1.679
 4395SOL    HW114084   4.287   1.236   1.704
 4395SOL    HW214085   4.323   1.394   1.724
 4396SOL     OW14086   0.922   1.072   4.347
 4396SOL    HW114087   0.859   1.008   4.391
 4396SOL    HW214088   0.883   1.164   4.350
 4397SOL     OW14089   6.715   1.058   4.912
 4397SOL    HW114090   6.660   1.133   4.876
 4397SOL    HW214091   6.811   1.086   4.918
 4398SOL     OW14092   0.927   4.125   4.787
 4398SOL    HW114093   1.023   4.131   4.815
 4398SOL    HW214094   0.922   4.097   4.691
 4399SOL     OW14095   1.763   1.378   0.591
 4399SOL    HW114096   1.768   1.438   0.511
 4399SOL    HW214097   1.851   1.334   0.605
 4400SOL     OW14098   2.435   6.769   4.201
 4400SOL    HW114099   2.433   6.772   4.101
 4400SOL    HW214100   2.342   6.784   4.237
 4401SOL     OW14101   5.891   5.904   4.212
 4401SOL    HW114102   5.837   5.939   4.288
 4401SOL    HW214103   5.852   5.937   4.126
 4402SOL     OW14104   1.177   5.885   2.852
 4402SOL    HW114105   1.142   5.884   2.759
 4402SOL    HW214106   1.268   5.843   2.854
 4403SOL     OW14107   0.081   0.066   3.161
 4403SOL    HW114108   0.058   0.163   3.150
 4403SOL    HW214109   0.134   0.053   3.244
 4404SOL     OW14110   0.381   4.340   3.476
 4404SOL    HW114111   0.303   4.363   3.418
 4404SOL    HW214112   0.422   4.254   3.445
 4405SOL     OW14113   3.054   5.013   5.832
 4405SOL    HW114114   3.106   5.044   5.753
 4405SOL    HW214115   2.975   4.960   5.801
 4406SOL     OW14116   5.279   4.405   1.816
 4406SOL    HW114117   5.211   4.338   1.844
 4406SOL    HW214118   5.358   4.399   1.877
 4407SOL     OW14119   6.808   6.098   0.157
 4407SOL    HW114120   6.752   6.177   0.136
 4407SOL    HW214121   6.750   6.017   0.168
 4408SOL     OW14122   4.913   0.418   0.560
 4408SOL    HW114123   4.985   0.480   0.529
 4408SOL    HW214124   4.909   0.338   0.500
 4409SOL     OW14125   3.642   1.231   1.834
 4409SOL    HW114126   3.542   1.220   1.830
 4409SOL    HW214127   3.666   1.285   1.915
 4410SOL     OW14128   2.139   5.526   1.143
 4410SOL    HW114129   2.057   5.497   1.094
 4410SOL    HW214130   2.219   5.481   1.103
 4411SOL     OW14131   3.884   3.010   3.039
 4411SOL    HW114132   3.897   2.996   2.940
 4411SOL    HW214133   3.800   2.964   3.068
 4412SOL     OW14134   3.877   1.157   6.418
 4412SOL    HW114135   3.816   1.231   6.448
 4412SOL    HW214136   3.824   1.089   6.368
 4413SOL     OW14137   4.033   5.327   4.298
 4413SOL    HW114138   4.032   5.248   4.238
 4413SOL    HW214139   3.942   5.338   4.338
 4414SOL     OW14140   4.228   4.771   2.340
 4414SOL    HW114141   4.282   4.830   2.400
 4414SOL    HW214142   4.132   4.774   2.368
 4415SOL     OW14143   5.116   3.919   6.344
 4415SOL    HW114144   5.092   4.007   6.303
 4415SOL    HW214145   5.074   3.845   6.292
 4416SOL     OW14146   2.899   1.264   4.603
 4416SOL    HW114147   2.903   1.174   4.561
 4416SOL    HW214148   2.831   1.320   4.556
 4417SOL     OW14149   0.092   5.353   1.938
 4417SOL    HW114150   0.123   5.446   1.959
 4417SOL    HW214151   0.166   5.303   1.894
 4418SOL     OW14152   4.409   6.203   4.244
 4418SOL    HW114153   4.503   6.192   4.275
 4418SOL    HW214154   4.378   6.118   4.200
 4419SOL     OW14155   6.465   5.038   0.634
 4419SOL    HW114156   6.454   5.039   0.534
 4419SOL    HW214157   6.386   4.993   0.675
 4420SOL     OW14158   4.493   0.877   0.452
 4420SOL    HW114159   4.571   0.899   0.511
 4420SOL    HW214160   4.408   0.903   0.497
 4421SOL     OW14161   1.995   1.614   2.852
 4421SOL    HW114162   1.926   1.642   2.785
 4421SOL    HW214163   2.086   1.620   2.810
 4422SOL     OW14164   2.783   3.896   6.458
 4422SOL    HW114165   2.683   3.901   6.463
 4422SOL    HW214166   2.814   3.938   6.373
 4423SOL     OW14167   1.208   2.270   6.303
 4423SOL    HW114168   1.270   2.206   6.257
 4423SOL    HW214169   1.138   2.300   6.238
 4424SOL     OW14170   5.536   6.351   3.276
 4424SOL    HW114171   5.441   6.373   3.252
 4424SOL    HW214172   5.596   6.373   3.199
 4425SOL     OW14173   3.904   5.720   6.160
 4425SOL    HW114174   3.839   5.744   6.231
 4425SOL    HW214175   3.862   5.654   6.097
 4426SOL     OW14176   0.161   0.676   5.406
 4426SOL    HW114177   0.237   0.705   5.465
 4426SOL    HW214178   0.120   0.755   5.363
 4427SOL     OW14179   0.444   0.533   3.461
 4427SOL    HW114180   0.512   0.556   3.391
 4427SOL    HW214181   0.491   0.509   3.546
 4428SOL     OW14182   2.205   5.035   4.631
 4428SOL    HW114183   2.222   4.936   4.631
 4428SOL    HW214184   2.283   5.083   4.593
 4429SOL     OW14185   2.672   6.629   3.512
 4429SOL    HW114186   2.765   6.599   3.533
 4429SOL    HW214187   2.633   6.676   3.591
 4430SOL     OW14188   3.483   1.744   2.868
 4430SOL    HW114189   3.489   1.647   2.891
 4430SOL    HW214190   3.560   1.793   2.909
 4431SOL     OW14191   2.901   1.625   3.793
 4431SOL    HW114192   2.954   1.589   3.870
 4431SOL    HW214193   2.804   1.627   3.817
 4432SOL     OW14194   3.188   3.437   2.673
 4432SOL    HW114195   3.227   3.452   2.582
 4432SOL    HW214196   3.090   3.458   2.672
 4433SOL     OW14197   5.907   6.432   2.861
 4433SOL    HW114198   5.983   6.369   2.847
 4433SOL    HW214199   5.873   6.464   2.773
 4434SOL     OW14200   5.129   1.146   3.577
 4434SOL    HW114201   5.129   1.101   3.666
 4434SOL    HW214202   5.057   1.216   3.574
 4435SOL     OW14203   3.482   2.799   1.382
 4435SOL    HW114204   3.450   2.721   1.329
 4435SOL    HW214205   3.434   2.802   1.470
 4436SOL     OW14206   3.438   1.819   0.369
 4436SOL    HW114207   3.515   1.774   0.323
 4436SOL    HW214208   3.473   1.873   0.445
 4437SOL     OW14209   4.110   0.656   4.536
 4437SOL    HW114210   4.179   0.680   4.604
 4437SOL    HW214211   4.029   0.619   4.581
 4438SOL     OW14212   4.086   2.209   6.842
 4438SOL    HW114213   4.141   2.229   6.761
 4438SOL    HW214214   4.087   2.110   6.859
 4439SOL     OW14215   0.633   5.209   2.020
 4439SOL    HW114216   0.667   5.143   1.952
 4439SOL    HW214217   0.667   5.300   1.997
 4440SOL     OW14218   1.586   6.213   0.108
 4440SOL    HW114219   1.573   6.189   0.205
 4440SOL    HW214220   1.642   6.296   0.102
 4441SOL     OW14221   5.996   2.639   2.287
 4441SOL    HW114222   6.044   2.681   2.210
 4441SOL    HW214223   6.053   2.566   2.325
 4442SOL     OW14224   3.966   5.995   3.863
 4442SOL    HW114225   3.881   6.045   3.851
 4442SOL    HW214226   3.960   5.938   3.945
 4443SOL     OW14227   2.458   2.466   5.831
 4443SOL    HW114228   2.502   2.470   5.741
 4443SOL    HW214229   2.416   2.376   5.844
 4444SOL     OW14230   4.736   6.280   1.374
 4444SOL    HW114231   4.673   6.335   1.428
 4444SOL    HW214232   4.686   6.235   1.299
 4445SOL     OW14233   1.233   0.689   6.216
 4445SOL    HW114234   1.307   0.658   6.156
 4445SOL    HW214235   1.258   0.778   6.255
 4446SOL     OW14236   6.072   6.907   2.799
 4446SOL    HW114237   6.043   6.910   2.894
 4446SOL    HW214238   6.139   6.980   2.782
 4447SOL     OW14239   5.499   2.948   5.985
 4447SOL    HW114240   5.406   2.924   5.959
 4447SOL    HW214241   5.562   2.879   5.948
 4448SOL     OW14242   2.324   3.540   0.871
 4448SOL    HW114243   2.369   3.505   0.953
 4448SOL    HW214244   2.388   3.540   0.795
 4449SOL     OW14245   2.513   0.487   5.079
 4449SOL    HW114246   2.436   0.520   5.025
 4449SOL    HW214247   2.589   0.464   5.017
 4450SOL     OW14248   3.297   3.005   3.368
 4450SOL    HW114249   3.338   2.956   3.445
 4450SOL    HW214250   3.362   3.072   3.333
 4451SOL     OW14251   6.293   4.391   2.715
 4451SOL    HW114252   6.332   4.348   2.633
 4451SOL    HW214253   6.201   4.424   2.695
 4452SOL     OW14254   6.268   6.182   5.661
 4452SOL    HW114255   6.199   6.156   5.594
 4452SOL    HW214256   6.354   6.137   5.639
 4453SOL     OW14257   5.499   2.669   1.867
 4453SOL    HW114258   5.425   2.616   1.825
 4453SOL    HW214259   5.581   2.613   1.872
 4454SOL     OW14260   5.188   3.115   0.809
 4454SOL    HW114261   5.111   3.054   0.790
 4454SOL    HW214262   5.205   3.117   0.908
 4455SOL     OW14263   3.814   6.925   2.421
 4455SOL    HW114264   3.856   6.872   2.348
 4455SOL    HW214265   3.883   6.984   2.463
 4456SOL     OW14266   1.727   5.126   2.212
 4456SOL    HW114267   1.762   5.186   2.283
 4456SOL    HW214268   1.766   5.153   2.124
 4457SOL     OW14269   4.310   2.370   6.236
 4457SOL    HW114270   4.350   2.422   6.162
 4457SOL    HW214271   4.374   2.365   6.313
 4458SOL     OW14272   2.563   2.248   6.247
 4458SOL    HW114273   2.567   2.330   6.191
 4458SOL    HW214274   2.478   2.248   6.300
 4459SOL     OW14275   4.768   6.668   4.934
 4459SOL    HW114276   4.773   6.639   4.839
 4459SOL    HW214277   4.676   6.651   4.970
 4460SOL     OW14278   2.546   3.540   6.643
 4460SOL    HW114279   2.490   3.492   6.576
 4460SOL    HW214280   2.488   3.601   6.697
 4461SOL     OW14281   1.192   0.216   2.455
 4461SOL    HW114282   1.111   0.167   2.486
 4461SOL    HW214283   1.168   0.272   2.376
 4462SOL     OW14284   6.258   5.081   0.982
 4462SOL    HW114285   6.247   5.057   0.886
 4462SOL    HW214286   6.285   5.176   0.991
 4463SOL     OW14287   1.957   3.571   6.386
 4463SOL    HW114288   2.000   3.607   6.469
 4463SOL    HW214289   2.027   3.547   6.319
 4464SOL     OW14290   5.628   4.008   6.183
 4464SOL    HW114291   5.623   4.096   6.136
 4464SOL    HW214292   5.701   3.952   6.142
 4465SOL     OW14293   1.959   6.287   2.037
 4465SOL    HW114294   1.898   6.367   2.039
 4465SOL    HW214295   1.905   6.204   2.050
 4466SOL     OW14296   0.863   1.788   2.417
 4466SOL    HW114297   0.783   1.843   2.439
 4466SOL    HW214298   0.941   1.819   2.472
 4467SOL     OW14299   1.392   7.024   3.161
 4467SOL    HW114300   1.340   0.081   3.178
 4467SOL    HW214301   1.457   7.009   3.236
 4468SOL     OW14302   1.001   2.640   6.927
 4468SOL    HW114303   1.068   2.574   6.961
 4468SOL    HW214304   0.909   2.614   6.958
 4469SOL     OW14305   3.188   0.333   1.312
 4469SOL    HW114306   3.165   0.418   1.361
 4469SOL    HW214307   3.111   0.306   1.255
 4470SOL     OW14308   4.876   3.640   1.674
 4470SOL    HW114309   4.843   3.731   1.650
 4470SOL    HW214310   4.953   3.616   1.615
 4471SOL     OW14311   0.251   2.398   1.372
 4471SOL    HW114312   0.165   2.387   1.422
 4471SOL    HW214313   0.306   2.471   1.414
 4472SOL     OW14314   2.109   4.350   2.069
 4472SOL    HW114315   2.182   4.294   2.108
 4472SOL    HW214316   2.149   4.421   2.011
 4473SOL     OW14317   0.202   0.092   4.601
 4473SOL    HW114318   0.265   0.017   4.581
 4473SOL    HW214319   0.252   0.179   4.597
 4474SOL     OW14320   3.935   6.825   2.722
 4474SOL    HW114321   3.891   6.786   2.803
 4474SOL    HW214322   3.904   6.919   2.709
 4475SOL     OW14323   1.704   3.996   1.142
 4475SOL    HW114324   1.619   4.011   1.092
 4475SOL    HW214325   1.736   4.083   1.180
 4476SOL     OW14326   4.978   6.488   1.994
 4476SOL    HW114327   4.992   6.401   2.042
 4476SOL    HW214328   4.917   6.472   1.916
 4477SOL     OW14329   1.554   1.174   6.606
 4477SOL    HW114330   1.608   1.254   6.579
 4477SOL    HW214331   1.566   1.156   6.703
 4478SOL     OW14332   2.598   6.749   2.526
 4478SOL    HW114333   2.560   6.776   2.438
 4478SOL    HW214334   2.672   6.811   2.551
 4479SOL     OW14335   0.972   0.347   5.622
 4479SOL    HW114336   0.903   0.325   5.553
 4479SOL    HW214337   0.973   0.446   5.637
 4480SOL     OW14338   1.336   4.311   4.707
 4480SOL    HW114339   1.325   4.214   4.730
 4480SOL    HW214340   1.349   4.363   4.791
 4481SOL     OW14341   1.129   6.541   4.056
 4481SOL    HW114342   1.206   6.515   4.114
 4481SOL    HW214343   1.045   6.545   4.111
 4482SOL     OW14344   0.750   4.460   4.205
 4482SOL    HW114345   0.755   4.549   4.251
 4482SOL    HW214346   0.839   4.437   4.167
 4483SOL     OW14347   6.454   2.798   1.048
 4483SOL    HW114348   6.539   2.772   1.096
 4483SOL    HW214349   6.376   2.756   1.094
 4484SOL     OW14350   3.986   2.749   5.287
 4484SOL    HW114351   3.887   2.736   5.280
 4484SOL    HW214352   4.033   2.668   5.250
 4485SOL     OW14353   4.930   1.836   6.851
 4485SOL    HW114354   5.014   1.876   6.888
 4485SOL    HW214355   4.933   1.737   6.861
 4486SOL     OW14356   7.020   4.314   5.531
 4486SOL    HW114357   6.951   4.255   5.572
 4486SOL    HW214358   0.084   4.288   5.565
 4487SOL     OW14359   2.799   3.637   6.576
 4487SOL    HW114360   2.709   3.608   6.611
 4487SOL    HW214361   2.795   3.734   6.551
 4488SOL     OW14362   5.943   2.011   5.315
 4488SOL    HW114363   5.995   2.047   5.393
 4488SOL    HW214364   5.918   1.916   5.332
 4489SOL     OW14365   5.405   5.170   4.839
 4489SOL    HW114366   5.396   5.259   4.795
 4489SOL    HW214367   5.481   5.120   4.797
 4490SOL     OW14368   5.836   1.260   2.147
 4490SOL    HW114369   5.869   1.187   2.087
 4490SOL    HW214370   5.736   1.259   2.147
 4491SOL     OW14371   1.462   3.822   2.751
 4491SOL    HW114372   1.460   3.861   2.659
 4491SOL    HW214373   1.557   3.809   2.779
 4492SOL     OW14374   5.137   2.342   0.082
 4492SOL    HW114375   5.180   2.278   0.145
 4492SOL    HW214376   5.128   2.431   0.125
 4493SOL     OW14377   4.690   5.437   5.140
 4493SOL    HW114378   4.591   5.444   5.134
 4493SOL    HW214379   4.716   5.344   5.166
 4494SOL     OW14380   0.095   3.910   5.454
 4494SOL    HW114381   0.125   3.975   5.524
 4494SOL    HW214382   0.003   3.879   5.476
 4495SOL     OW14383   5.328   6.584   2.089
 4495SOL    HW114384   5.286   6.532   2.163
 4495SOL    HW214385   5.321   6.682   2.108
 4496SOL     OW14386   5.867   4.370   6.500
 4496SOL    HW114387   5.880   4.445   6.435
 4496SOL    HW214388   5.798   4.395   6.567
 4497SOL     OW14389   5.101   5.583   6.407
 4497SOL    HW114390   5.035   5.604   6.335
 4497SOL    HW214391   5.073   5.628   6.492
 4498SOL     OW14392   0.190   4.186   6.464
 4498SOL    HW114393   0.264   4.251   6.445
 4498SOL    HW214394   0.219   4.124   6.536
 4499SOL     OW14395   0.021   3.391   4.876
 4499SOL    HW114396   6.987   3.374   4.953
 4499SOL    HW214397   0.058   3.483   4.881
 4500SOL     OW14398   3.073   3.902   4.285
 4500SOL    HW114399   3.017   3.871   4.209
 4500SOL    HW214400   3.132   3.976   4.255
 4501SOL     OW14401   0.961   4.031   5.588
 4501SOL    HW114402   0.984   4.118   5.545
 4501SOL    HW214403   0.928   4.048   5.681
 4502SOL     OW14404   1.599   2.557   6.633
 4502SOL    HW114405   1.564   2.504   6.555
 4502SOL    HW214406   1.613   2.496   6.711
 4503SOL     OW14407   2.156   1.596   3.408
 4503SOL    HW114408   2.069   1.559   3.376
 4503SOL    HW214409   2.198   1.531   3.472
 4504SOL     OW14410   6.049   2.604   5.302
 4504SOL    HW114411   6.064   2.507   5.320
 4504SOL    HW214412   6.007   2.615   5.212
 4505SOL     OW14413   0.855   6.147   5.362
 4505SOL    HW114414   0.866   6.089   5.443
 4505SOL    HW214415   0.863   6.090   5.280
 4506SOL     OW14416   3.925   1.458   5.059
 4506SOL    HW114417   3.873   1.373   5.066
 4506SOL    HW214418   3.966   1.480   5.147
 4507SOL     OW14419   4.726   4.808   1.211
 4507SOL    HW114420   4.710   4.710   1.199
 4507SOL    HW214421   4.777   4.843   1.133
 4508SOL     OW14422   1.742   3.749   0.299
 4508SOL    HW114423   1.717   3.801   0.380
 4508SOL    HW214424   1.839   3.724   0.303
 4509SOL     OW14425   4.379   2.070   4.788
 4509SOL    HW114426   4.478   2.069   4.786
 4509SOL    HW214427   4.344   2.040   4.699
 4510SOL     OW14428   5.794   0.743   5.183
 4510SOL    HW114429   5.773   0.646   5.171
 4510SOL    HW214430   5.766   0.772   5.274
 4511SOL     OW14431   6.843   2.962   0.602
 4511SOL    HW114432   6.775   2.918   0.543
 4511SOL    HW214433   6.798   3.000   0.682
 4512SOL     OW14434   2.689   6.646   0.021
 4512SOL    HW114435   2.685   6.576   0.092
 4512SOL    HW214436   2.770   6.703   0.035
 4513SOL     OW14437   4.593   6.481   1.494
 4513SOL    HW114438   4.538   6.483   1.578
 4513SOL    HW214439   4.534   6.501   1.415
 4514SOL     OW14440   3.742   0.927   4.299
 4514SOL    HW114441   3.708   0.996   4.363
 4514SOL    HW214442   3.689   0.843   4.310
 4515SOL     OW14443   6.672   4.858   0.295
 4515SOL    HW114444   6.639   4.782   0.352
 4515SOL    HW214445   6.706   4.822   0.208
 4516SOL     OW14446   1.261   1.650   5.294
 4516SOL    HW114447   1.262   1.621   5.390
 4516SOL    HW214448   1.304   1.580   5.237
 4517SOL     OW14449   3.618   6.950   6.749
 4517SOL    HW114450   3.594   0.003   6.804
 4517SOL    HW214451   3.647   6.980   6.658
 4518SOL     OW14452   0.862   1.937   4.053
 4518SOL    HW114453   0.887   1.865   4.117
 4518SOL    HW214454   0.794   1.997   4.095
 4519SOL     OW14455   0.256   2.340   3.348
 4519SOL    HW114456   0.279   2.412   3.413
 4519SOL    HW214457   0.165   2.355   3.310
 4520SOL     OW14458   6.004   4.658   2.401
 4520SOL    HW114459   6.049   4.608   2.475
 4520SOL    HW214460   6.028   4.616   2.313
 4521SOL     OW14461   5.045   2.300   6.262
 4521SOL    HW114462   5.013   2.263   6.175
 4521SOL    HW214463   5.136   2.263   6.282
 4522SOL     OW14464   5.600   6.720   3.869
 4522SOL    HW114465   5.574   6.723   3.772
 4522SOL    HW214466   5.672   6.788   3.886
 4523SOL     OW14467   2.990   4.953   0.497
 4523SOL    HW114468   2.918   4.909   0.444
 4523SOL    HW214469   3.056   4.995   0.435
 4524SOL     OW14470   5.630   1.529   5.504
 4524SOL    HW114471   5.588   1.440   5.523
 4524SOL    HW214472   5.722   1.516   5.468
 4525SOL     OW14473   6.483   1.871   4.348
 4525SOL    HW114474   6.464   1.936   4.421
 4525SOL    HW214475   6.473   1.778   4.382
 4526SOL     OW14476   4.553   6.702   1.165
 4526SOL    HW114477   4.471   6.663   1.125
 4526SOL    HW214478   4.552   6.802   1.152
 4527SOL     OW14479   4.920   1.016   3.084
 4527SOL    HW114480   4.999   1.078   3.082
 4527SOL    HW214481   4.951   0.922   3.076
 4528SOL     OW14482   5.484   0.331   0.446
 4528SOL    HW114483   5.461   0.242   0.407
 4528SOL    HW214484   5.413   0.398   0.422
 4529SOL     OW14485   2.550   0.703   2.846
 4529SOL    HW114486   2.568   0.801   2.849
 4529SOL    HW214487   2.609   0.660   2.777
 4530SOL     OW14488   0.779   2.994   5.650
 4530SOL    HW114489   0.768   3.076   5.706
 4530SOL    HW214490   0.719   2.922   5.685
 4531SOL     OW14491   1.080   3.364   3.493
 4531SOL    HW114492   1.098   3.356   3.395
 4531SOL    HW214493   1.024   3.445   3.510
 4532SOL     OW14494   6.384   1.720   1.044
 4532SOL    HW114495   6.292   1.683   1.038
 4532SOL    HW214496   6.433   1.678   1.121
 4533SOL     OW14497   1.667   5.974   3.042
 4533SOL    HW114498   1.737   5.963   2.971
 4533SOL    HW214499   1.586   6.017   3.003
 4534SOL     OW14500   5.306   3.906   5.203
 4534SOL    HW114501   5.379   3.940   5.261
 4534SOL    HW214502   5.296   3.807   5.216
 4535SOL     OW14503   4.971   2.909   1.870
 4535SOL    HW114504   5.066   2.923   1.896
 4535SOL    HW214505   4.911   2.936   1.946
 4536SOL     OW14506   5.447   0.746   4.733
 4536SOL    HW114507   5.525   0.807   4.718
 4536SOL    HW214508   5.387   0.786   4.802
 4537SOL     OW14509   3.926   3.209   6.761
 4537SOL    HW114510   3.872   3.182   6.841
 4537SOL    HW214511   3.932   3.131   6.697
 4538SOL     OW14512   3.538   1.704   3.367
 4538SOL    HW114513   3.602   1.654   3.309
 4538SOL    HW214514   3.507   1.646   3.442
 4539SOL     OW14515   2.566   2.183   3.584
 4539SOL    HW114516   2.599   2.120   3.655
 4539SOL    HW214517   2.489   2.140   3.536
 4540SOL     OW14518   3.614   3.318   4.807
 4540SOL    HW114519   3.583   3.328   4.713
 4540SOL    HW214520   3.569   3.387   4.865
 4541SOL     OW14521   5.130   1.319   0.171
 4541SOL    HW114522   5.166   1.284   0.258
 4541SOL    HW214523   5.035   1.290   0.161
 4542SOL     OW14524   5.951   5.933   1.776
 4542SOL    HW114525   5.910   5.865   1.717
 4542SOL    HW214526   5.995   5.887   1.854
 4543SOL     OW14527   5.151   1.915   0.736
 4543SOL    HW114528   5.136   1.822   0.769
 4543SOL    HW214529   5.102   1.929   0.651
 4544SOL     OW14530   2.611   5.908   6.878
 4544SOL    HW114531   2.616   5.852   6.796
 4544SOL    HW214532   2.532   5.881   6.933
 4545SOL     OW14533   4.343   2.089   5.347
 4545SOL    HW114534   4.340   2.009   5.287
 4545SOL    HW214535   4.309   2.063   5.438
 4546SOL     OW14536   1.159   6.178   6.385
 4546SOL    HW114537   1.227   6.250   6.399
 4546SOL    HW214538   1.201   6.089   6.403
 4547SOL     OW14539   5.584   2.734   1.329
 4547SOL    HW114540   5.628   2.644   1.323
 4547SOL    HW214541   5.529   2.750   1.247
 4548SOL     OW14542   0.398   4.827   3.751
 4548SOL    HW114543   0.442   4.839   3.840
 4548SOL    HW214544   0.382   4.729   3.736
 4549SOL     OW14545   6.748   3.427   2.709
 4549SOL    HW114546   6.817   3.383   2.767
 4549SOL    HW214547   6.789   3.503   2.660
 4550SOL     OW14548   1.188   5.944   3.635
 4550SOL    HW114549   1.100   5.981   3.667
 4550SOL    HW214550   1.178   5.911   3.542
 4551SOL     OW14551   0.482   2.285   4.959
 4551SOL    HW114552   0.490   2.382   4.933
 4551SOL    HW214553   0.507   2.275   5.055
 4552SOL     OW14554   0.691   3.245   4.993
 4552SOL    HW114555   0.779   3.197   4.986
 4552SOL    HW214556   0.665   3.278   4.903
 4553SOL     OW14557   4.664   5.293   0.271
 4553SOL    HW114558   4.714   5.245   0.343
 4553SOL    HW214559   4.721   5.366   0.234
 4554SOL     OW14560   4.207   6.830   2.601
 4554SOL    HW114561   4.137   6.837   2.671
 4554SOL    HW214562   4.251   6.740   2.606
 4555SOL     OW14563   4.403   2.039   6.701
 4555SOL    HW114564   4.425   2.012   6.795
 4555SOL    HW214565   4.478   2.094   6.664
 4556SOL     OW14566   3.964   0.750   3.981
 4556SOL    HW114567   3.992   0.695   3.902
 4556SOL    HW214568   4.023   0.830   3.988
 4557SOL     OW14569   5.318   6.985   5.559
 4557SOL    HW114570   5.383   0.002   5.497
 4557SOL    HW214571   5.232   0.009   5.557
 4558SOL     OW14572   5.873   3.397   6.593
 4558SOL    HW114573   5.952   3.444   6.554
 4558SOL    HW214574   5.884   3.391   6.692
 4559SOL     OW14575   1.134   6.292   1.097
 4559SOL    HW114576   1.128   6.227   1.173
 4559SOL    HW214577   1.201   6.260   1.030
 4560SOL     OW14578   4.953   2.881   3.008
 4560SOL    HW114579   5.042   2.911   3.042
 4560SOL    HW214580   4.942   2.908   2.913
 4561SOL     OW14581   3.107   1.523   0.064
 4561SOL    HW114582   3.125   1.452   0.131
 4561SOL    HW214583   3.045   1.591   0.103
 4562SOL     OW14584   3.595   5.860   6.054
 4562SOL    HW114585   3.502   5.837   6.026
 4562SOL    HW214586   3.657   5.852   5.976
 4563SOL     OW14587   5.684   2.094   0.349
 4563SOL    HW114588   5.634   2.024   0.400
 4563SOL    HW214589   5.695   2.064   0.254
 4564SOL     OW14590   0.904   5.198   0.575
 4564SOL    HW114591   1.001   5.222   0.577
 4564SOL    HW214592   0.892   5.113   0.524
 4565SOL     OW14593   0.537   1.448   5.206
 4565SOL    HW114594   0.459   1.470   5.265
 4565SOL    HW214595   0.542   1.515   5.132
 4566SOL     OW14596   0.237   6.800   6.927
 4566SOL    HW114597   0.273   6.752   6.847
 4566SOL    HW214598   0.203   6.890   6.899
 4567SOL     OW14599   0.025   1.052   0.577
 4567SOL    HW114600   7.017   1.136   0.619
 4567SOL    HW214601   0.114   1.030   0.615
 4568SOL     OW14602   3.214   4.714   5.635
 4568SOL    HW114603   3.247   4.808   5.621
 4568SOL    HW214604   3.114   4.714   5.630
 4569SOL     OW14605   0.775   1.652   4.399
 4569SOL    HW114606   0.811   1.628   4.309
 4569SOL    HW214607   0.768   1.752   4.406
 4570SOL     OW14608   0.061   5.618   3.295
 4570SOL    HW114609   0.083   5.560   3.216
 4570SOL    HW214610   0.138   5.617   3.360
 4571SOL     OW14611   2.958   3.560   4.816
 4571SOL    HW114612   2.974   3.571   4.718
 4571SOL    HW214613   2.898   3.633   4.847
 4572SOL     OW14614   0.187   0.004   1.233
 4572SOL    HW114615   0.211   0.012   1.330
 4572SOL    HW214616   0.095   0.042   1.219
 4573SOL     OW14617   6.052   6.107   1.350
 4573SOL    HW114618   5.976   6.172   1.343
 4573SOL    HW214619   6.082   6.100   1.445
 4574SOL     OW14620   6.946   4.851   1.347
 4574SOL    HW114621   6.908   4.769   1.389
 4574SOL    HW214622   6.916   4.857   1.252
 4575SOL     OW14623   6.441   1.757   0.768
 4575SOL    HW114624   6.456   1.753   0.867
 4575SOL    HW214625   6.387   1.837   0.745
 4576SOL     OW14626   2.721   5.715   6.698
 4576SOL    HW114627   2.725   5.627   6.651
 4576SOL    HW214628   2.781   5.714   6.777
 4577SOL     OW14629   0.796   3.378   3.117
 4577SOL    HW114630   0.725   3.382   3.047
 4577SOL    HW214631   0.851   3.296   3.104
 4578SOL     OW14632   0.377   3.728   3.810
 4578SOL    HW114633   0.376   3.822   3.776
 4578SOL    HW214634   0.293   3.710   3.862
 4579SOL     OW14635   4.808   1.671   2.746
 4579SOL    HW114636   4.723   1.705   2.705
 4579SOL    HW214637   4.839   1.591   2.696
 4580SOL     OW14638   5.839   5.209   0.738
 4580SOL    HW114639   5.893   5.290   0.760
 4580SOL    HW214640   5.830   5.151   0.819
 4581SOL     OW14641   3.254   4.998   3.019
 4581SOL    HW114642   3.294   4.930   3.080
 4581SOL    HW214643   3.327   5.058   2.985
 4582SOL     OW14644   4.962   0.007   3.666
 4582SOL    HW114645   5.051   7.017   3.710
 4582SOL    HW214646   4.889   7.027   3.734
 4583SOL     OW14647   2.882   1.930   5.024
 4583SOL    HW114648   2.859   1.891   5.113
 4583SOL    HW214649   2.955   1.876   4.982
 4584SOL     OW14650   6.950   5.928   6.099
 4584SOL    HW114651   6.944   5.955   6.003
 4584SOL    HW214652   7.013   5.851   6.109
 4585SOL     OW14653   3.150   6.506   2.975
 4585SOL    HW114654   3.114   6.596   3.001
 4585SOL    HW214655   3.093   6.435   3.015
 4586SOL     OW14656   3.296   5.360   1.559
 4586SOL    HW114657   3.363   5.370   1.633
 4586SOL    HW214658   3.339   5.320   1.479
 4587SOL     OW14659   4.050   3.340   1.416
 4587SOL    HW114660   4.047   3.433   1.453
 4587SOL    HW214661   4.027   3.275   1.489
 4588SOL     OW14662   3.974   3.919   4.918
 4588SOL    HW114663   3.888   3.868   4.918
 4588SOL    HW214664   4.051   3.856   4.930
 4589SOL     OW14665   6.336   2.268   2.856
 4589SOL    HW114666   6.260   2.331   2.870
 4589SOL    HW214667   6.422   2.317   2.864
 4590SOL     OW14668   4.083   5.302   2.801
 4590SOL    HW114669   3.984   5.294   2.787
 4590SOL    HW214670   4.121   5.212   2.820
 4591SOL     OW14671   6.352   5.826   5.761
 4591SOL    HW114672   6.310   5.891   5.824
 4591SOL    HW214673   6.373   5.741   5.809
 4592SOL     OW14674   4.233   2.947   0.644
 4592SOL    HW114675   4.160   3.002   0.684
 4592SOL    HW214676   4.260   2.987   0.556
 4593SOL     OW14677   4.285   5.509   2.880
 4593SOL    HW114678   4.240   5.424   2.852
 4593SOL    HW214679   4.229   5.556   2.948
 4594SOL     OW14680   3.522   1.405   2.054
 4594SOL    HW114681   3.526   1.488   1.999
 4594SOL    HW214682   3.435   1.403   2.104
 4595SOL     OW14683   3.642   3.015   6.335
 4595SOL    HW114684   3.688   2.964   6.407
 4595SOL    HW214685   3.685   2.995   6.247
 4596SOL     OW14686   5.966   6.306   2.576
 4596SOL    HW114687   6.058   6.279   2.550
 4596SOL    HW214688   5.953   6.403   2.557
 4597SOL     OW14689   5.129   4.870   6.443
 4597SOL    HW114690   5.208   4.828   6.487
 4597SOL    HW214691   5.143   4.872   6.344
 4598SOL     OW14692   1.897   5.324   6.557
 4598SOL    HW114693   1.976   5.325   6.619
 4598SOL    HW214694   1.819   5.283   6.604
 4599SOL     OW14695   1.505   4.177   1.444
 4599SOL    HW114696   1.605   4.176   1.439
 4599SOL    HW214697   1.468   4.113   1.377
 4600SOL     OW14698   3.307   5.509   6.637
 4600SOL    HW114699   3.305   5.555   6.726
 4600SOL    HW214700   3.399   5.476   6.618
 4601SOL     OW14701   1.827   1.089   4.949
 4601SOL    HW114702   1.779   1.019   4.896
 4601SOL    HW214703   1.835   1.058   5.044
 4602SOL     OW14704   1.521   6.905   1.546
 4602SOL    HW114705   1.579   6.833   1.585
 4602SOL    HW214706   1.571   6.952   1.474
 4603SOL     OW14707   3.311   6.616   2.057
 4603SOL    HW114708   3.316   6.545   2.127
 4603SOL    HW214709   3.227   6.669   2.069
 4604SOL     OW14710   3.877   0.231   2.096
 4604SOL    HW114711   3.837   0.179   2.021
 4604SOL    HW214712   3.975   0.245   2.078
 4605SOL     OW14713   4.644   0.748   4.204
 4605SOL    HW114714   4.597   0.667   4.238
 4605SOL    HW214715   4.699   0.724   4.124
 4606SOL     OW14716   6.851   6.492   4.222
 4606SOL    HW114717   6.941   6.491   4.177
 4606SOL    HW214718   6.861   6.525   4.316
 4607SOL     OW14719   2.742   2.289   1.359
 4607SOL    HW114720   2.646   2.269   1.376
 4607SOL    HW214721   2.785   2.319   1.444
 4608SOL     OW14722   1.406   5.096   5.048
 4608SOL    HW114723   1.386   5.014   4.994
 4608SOL    HW214724   1.495   5.132   5.020
 4609SOL     OW14725   4.375   5.955   6.698
 4609SOL    HW114726   4.443   5.927   6.766
 4609SOL    HW214727   4.419   5.966   6.609
 4610SOL     OW14728   6.708   2.799   6.931
 4610SOL    HW114729   6.704   2.885   6.980
 4610SOL    HW214730   6.788   2.747   6.961
 4611SOL     OW14731   0.102   3.912   7.021
 4611SOL    HW114732   0.122   3.919   0.091
 4611SOL    HW214733   0.156   3.837   6.981
 4612SOL     OW14734   1.902   6.012   6.846
 4612SOL    HW114735   1.909   6.021   6.946
 4612SOL    HW214736   1.994   6.011   6.806
 4613SOL     OW14737   2.799   5.231   2.923
 4613SOL    HW114738   2.879   5.172   2.908
 4613SOL    HW214739   2.763   5.216   3.014
 4614SOL     OW14740   1.934   5.857   0.048
 4614SOL    HW114741   1.835   5.853   0.063
 4614SOL    HW214742   1.981   5.847   0.136
 4615SOL     OW14743   1.348   1.735   7.018
 4615SOL    HW114744   1.353   1.835   7.015
 4615SOL    HW214745   1.283   1.703   6.949
 4616SOL     OW14746   6.119   0.280   6.527
 4616SOL    HW114747   6.212   0.306   6.549
 4616SOL    HW214748   6.114   0.251   6.432
 4617SOL     OW14749   0.965   2.443   2.923
 4617SOL    HW114750   0.957   2.538   2.952
 4617SOL    HW214751   0.874   2.405   2.908
 4618SOL     OW14752   1.012   2.668   5.711
 4618SOL    HW114753   0.971   2.577   5.715
 4618SOL    HW214754   1.070   2.682   5.792
 4619SOL     OW14755   4.224   0.246   3.588
 4619SOL    HW114756   4.181   0.186   3.656
 4619SOL    HW214757   4.242   0.193   3.504
 4620SOL     OW14758   3.539   4.511   6.797
 4620SOL    HW114759   3.529   4.566   6.880
 4620SOL    HW214760   3.591   4.429   6.818
 4621SOL     OW14761   6.554   1.732   4.676
 4621SOL    HW114762   6.459   1.718   4.650
 4621SOL    HW214763   6.564   1.819   4.724
 4622SOL     OW14764   1.651   2.973   0.921
 4622SOL    HW114765   1.696   2.942   1.004
 4622SOL    HW214766   1.552   2.972   0.934
 4623SOL     OW14767   0.132   4.979   0.732
 4623SOL    HW114768   0.085   5.038   0.798
 4623SOL    HW214769   0.064   4.929   0.678
 4624SOL     OW14770   4.457   0.990   3.660
 4624SOL    HW114771   4.386   1.040   3.710
 4624SOL    HW214772   4.508   0.932   3.723
 4625SOL     OW14773   1.531   4.381   0.040
 4625SOL    HW114774   1.539   4.481   0.034
 4625SOL    HW214775   1.441   4.353   0.005
 4626SOL     OW14776   6.383   4.821   1.869
 4626SOL    HW114777   6.379   4.919   1.851
 4626SOL    HW214778   6.476   4.788   1.850
 4627SOL     OW14779   3.766   6.191   5.650
 4627SOL    HW114780   3.794   6.242   5.731
 4627SOL    HW214781   3.719   6.107   5.678
 4628SOL     OW14782   6.029   4.908   2.272
 4628SOL    HW114783   6.022   4.824   2.325
 4628SOL    HW214784   6.125   4.935   2.264
 4629SOL     OW14785   2.133   5.036   5.931
 4629SOL    HW114786   2.083   5.121   5.917
 4629SOL    HW214787   2.146   4.989   5.843
 4630SOL     OW14788   2.646   5.902   3.296
 4630SOL    HW114789   2.597   5.830   3.345
 4630SOL    HW214790   2.745   5.888   3.305
 4631SOL     OW14791   2.179   6.358   3.602
 4631SOL    HW114792   2.139   6.450   3.603
 4631SOL    HW214793   2.146   6.309   3.521
 4632SOL     OW14794   4.527   5.353   4.445
 4632SOL    HW114795   4.446   5.335   4.389
 4632SOL    HW214796   4.513   5.437   4.498
 4633SOL     OW14797   6.485   2.000   5.264
 4633SOL    HW114798   6.582   2.022   5.279
 4633SOL    HW214799   6.458   2.031   5.173
 4634SOL     OW14800   2.839   4.582   0.349
 4634SOL    HW114801   2.919   4.557   0.402
 4634SOL    HW214802   2.865   4.593   0.253
 4635SOL     OW14803   5.981   3.098   2.785
 4635SOL    HW114804   5.943   3.070   2.697
 4635SOL    HW214805   5.974   3.197   2.795
 4636SOL     OW14806   3.096   5.262   0.332
 4636SOL    HW114807   3.090   5.201   0.253
 4636SOL    HW214808   3.005   5.278   0.370
 4637SOL     OW14809   1.190   0.665   5.905
 4637SOL    HW114810   1.128   0.720   5.961
 4637SOL    HW214811   1.165   0.568   5.914
 4638SOL     OW14812   4.018   3.116   6.220
 4638SOL    HW114813   3.984   3.168   6.141
 4638SOL    HW214814   3.941   3.090   6.278
 4639SOL     OW14815   0.596   3.978   5.795
 4639SOL    HW114816   0.604   3.883   5.764
 4639SOL    HW214817   0.509   3.990   5.842
 4640SOL     OW14818   4.723   4.580   4.144
 4640SOL    HW114819   4.781   4.570   4.226
 4640SOL    HW214820   4.702   4.676   4.130
 4641SOL     OW14821   2.510   4.888   4.346
 4641SOL    HW114822   2.572   4.810   4.343
 4641SOL    HW214823   2.433   4.873   4.284
 4642SOL     OW14824   6.580   5.344   4.626
 4642SOL    HW114825   6.518   5.417   4.596
 4642SOL    HW214826   6.535   5.256   4.615
 4643SOL     OW14827   4.055   2.385   1.074
 4643SOL    HW114828   3.981   2.421   1.017
 4643SOL    HW214829   4.142   2.422   1.043
 4644SOL     OW14830   1.398   5.882   4.652
 4644SOL    HW114831   1.397   5.979   4.675
 4644SOL    HW214832   1.389   5.828   4.737
 4645SOL     OW14833   2.194   6.395   4.377
 4645SOL    HW114834   2.138   6.464   4.332
 4645SOL    HW214835   2.260   6.440   4.437
 4646SOL     OW14836   2.671   0.443   2.063
 4646SOL    HW114837   2.750   0.505   2.057
 4646SOL    HW214838   2.685   0.378   2.137
 4647SOL     OW14839   0.746   6.957   3.415
 4647SOL    HW114840   0.767   0.026   3.393
 4647SOL    HW214841   0.788   6.897   3.347
 4648SOL     OW14842   3.149   6.469   2.720
 4648SOL    HW114843   3.058   6.493   2.688
 4648SOL    HW214844   3.155   6.486   2.819
 4649SOL     OW14845   5.051   0.796   5.576
 4649SOL    HW114846   4.985   0.745   5.520
 4649SOL    HW214847   5.013   0.886   5.597
 4650SOL     OW14848   4.199   6.274   3.489
 4650SOL    HW114849   4.197   6.307   3.394
 4650SOL    HW214850   4.244   6.342   3.547
 4651SOL     OW14851   0.099   2.137   2.002
 4651SOL    HW114852   0.180   2.115   1.949
 4651SOL    HW214853   0.023   2.159   1.941
 4652SOL     OW14854   0.626   0.443   3.704
 4652SOL    HW114855   0.652   0.530   3.746
 4652SOL    HW214856   0.529   0.427   3.718
 4653SOL     OW14857   6.676   6.339   0.137
 4653SOL    HW114858   6.620   6.316   0.216
 4653SOL    HW214859   6.688   6.438   0.132
 4654SOL     OW14860   0.802   6.781   0.452
 4654SOL    HW114861   0.789   6.716   0.527
 4654SOL    HW214862   0.735   6.763   0.380
 4655SOL     OW14863   0.619   4.547   3.077
 4655SOL    HW114864   0.565   4.628   3.100
 4655SOL    HW214865   0.564   4.484   3.022
 4656SOL     OW14866   0.824   0.709   3.092
 4656SOL    HW114867   0.839   0.807   3.102
 4656SOL    HW214868   0.911   0.661   3.098
 4657SOL     OW14869   4.681   7.012   1.149
 4657SOL    HW114870   4.689   0.076   1.107
 4657SOL    HW214871   4.674   7.021   1.248
 4658SOL     OW14872   4.387   0.229   3.188
 4658SOL    HW114873   4.358   0.324   3.205
 4658SOL    HW214874   4.485   0.227   3.170
 4659SOL     OW14875   1.438   3.174   5.044
 4659SOL    HW114876   1.436   3.259   4.991
 4659SOL    HW214877   1.502   3.110   5.002
 4660SOL     OW14878   0.414   1.594   5.399
 4660SOL    HW114879   0.387   1.513   5.452
 4660SOL    HW214880   0.488   1.642   5.446
 4661SOL     OW14881   3.729   4.162   4.408
 4661SOL    HW114882   3.732   4.257   4.437
 4661SOL    HW214883   3.779   4.106   4.475
 4662SOL     OW14884   5.215   0.393   5.502
 4662SOL    HW114885   5.163   0.309   5.517
 4662SOL    HW214886   5.169   0.470   5.547
 4663SOL     OW14887   6.905   1.711   2.019
 4663SOL    HW114888   6.874   1.621   1.990
 4663SOL    HW214889   6.988   1.702   2.073
 4664SOL     OW14890   2.190   2.795   6.379
 4664SOL    HW114891   2.267   2.856   6.397
 4664SOL    HW214892   2.104   2.840   6.402
 4665SOL     OW14893   5.177   6.923   6.151
 4665SOL    HW114894   5.224   6.977   6.081
 4665SOL    HW214895   5.238   6.851   6.185
 4666SOL     OW14896   2.461   2.084   0.000
 4666SOL    HW114897   2.367   2.107   7.003
 4666SOL    HW214898   2.506   2.164   0.040
 4667SOL     OW14899   6.630   5.274   6.501
 4667SOL    HW114900   6.548   5.226   6.532
 4667SOL    HW214901   6.700   5.271   6.573
 4668SOL     OW14902   6.696   1.663   4.368
 4668SOL    HW114903   6.692   1.686   4.465
 4668SOL    HW214904   6.681   1.745   4.313
 4669SOL     OW14905   1.738   6.078   0.373
 4669SOL    HW114906   1.715   5.989   0.334
 4669SOL    HW214907   1.655   6.133   0.382
 4670SOL     OW14908   2.932   1.102   4.815
 4670SOL    HW114909   2.841   1.069   4.791
 4670SOL    HW214910   2.953   1.184   4.761
 4671SOL     OW14911   6.174   3.275   1.671
 4671SOL    HW114912   6.103   3.251   1.604
 4671SOL    HW214913   6.251   3.317   1.624
 4672SOL     OW14914   1.787   4.349   6.409
 4672SOL    HW114915   1.839   4.298   6.478
 4672SOL    HW214916   1.804   4.309   6.319
 4673SOL     OW14917   3.670   0.190   1.602
 4673SOL    HW114918   3.572   0.208   1.612
 4673SOL    HW214919   3.683   0.107   1.548
 4674SOL     OW14920   5.133   5.554   5.384
 4674SOL    HW114921   5.087   5.638   5.355
 4674SOL    HW214922   5.080   5.510   5.456
 4675SOL     OW14923   1.393   4.005   1.242
 4675SOL    HW114924   1.429   4.011   1.150
 4675SOL    HW214925   1.306   3.954   1.241
 4676SOL     OW14926   1.771   6.284   3.589
 4676SOL    HW114927   1.807   6.363   3.639
 4676SOL    HW214928   1.757   6.308   3.493
 4677SOL     OW14929   1.609   1.792   0.312
 4677SOL    HW114930   1.700   1.774   0.276
 4677SOL    HW214931   1.560   1.706   0.324
 4678SOL     OW14932   2.047   3.992   2.555
 4678SOL    HW114933   1.958   3.964   2.591
 4678SOL    HW214934   2.102   3.911   2.534
 4679SOL     OW14935   5.446   6.249   1.873
 4679SOL    HW114936   5.520   6.185   1.890
 4679SOL    HW214937   5.479   6.325   1.817
 4680SOL     OW14938   2.989   1.792   1.828
 4680SOL    HW114939   2.984   1.692   1.826
 4680SOL    HW214940   3.082   1.820   1.855
 4681SOL     OW14941   5.028   4.379   0.553
 4681SOL    HW114942   4.963   4.455   0.560
 4681SOL    HW214943   5.023   4.324   0.636
 4682SOL     OW14944   4.514   3.333   6.408
 4682SOL    HW114945   4.427   3.364   6.371
 4682SOL    HW214946   4.584   3.336   6.337
 4683SOL     OW14947   5.965   4.277   3.444
 4683SOL    HW114948   6.010   4.361   3.413
 4683SOL    HW214949   6.035   4.207   3.462
 4684SOL     OW14950   4.154   6.067   0.441
 4684SOL    HW114951   4.106   6.022   0.516
 4684SOL    HW214952   4.163   6.165   0.461
 4685SOL     OW14953   2.505   3.945   6.168
 4685SOL    HW114954   2.534   3.919   6.076
 4685SOL    HW214955   2.406   3.960   6.168
 4686SOL     OW14956   2.737   6.123   0.858
 4686SOL    HW114957   2.663   6.189   0.850
 4686SOL    HW214958   2.723   6.067   0.939
 4687SOL     OW14959   3.337   1.741   3.188
 4687SOL    HW114960   3.313   1.647   3.163
 4687SOL    HW214961   3.403   1.740   3.263
 4688SOL     OW14962   5.643   2.356   5.772
 4688SOL    HW114963   5.637   2.275   5.714
 4688SOL    HW214964   5.694   2.334   5.855
 4689SOL     OW14965   5.243   0.377   0.984
 4689SOL    HW114966   5.259   0.355   0.888
 4689SOL    HW214967   5.236   0.476   0.995
 4690SOL     OW14968   2.023   1.549   0.703
 4690SOL    HW114969   2.001   1.589   0.614
 4690SOL    HW214970   2.028   1.449   0.694
 4691SOL     OW14971   5.257   4.536   0.201
 4691SOL    HW114972   5.277   4.461   0.139
 4691SOL    HW214973   5.175   4.584   0.170
 4692SOL     OW14974   6.686   4.334   2.554
 4692SOL    HW114975   6.775   4.290   2.557
 4692SOL    HW214976   6.614   4.264   2.548
 4693SOL     OW14977   1.527   0.847   3.902
 4693SOL    HW114978   1.610   0.856   3.848
 4693SOL    HW214979   1.454   0.901   3.861
 4694SOL     OW14980   2.012   1.277   0.695
 4694SOL    HW114981   1.995   1.230   0.781
 4694SOL    HW214982   2.056   1.214   0.630
 4695SOL     OW14983   1.464   5.964   1.014
 4695SOL    HW114984   1.558   5.949   0.983
 4695SOL    HW214985   1.433   6.053   0.983
 4696SOL     OW14986   1.239   5.296   6.145
 4696SOL    HW114987   1.301   5.367   6.177
 4696SOL    HW214988   1.144   5.325   6.160
 4697SOL     OW14989   1.905   3.932   1.571
 4697SOL    HW114990   1.906   3.845   1.620
 4697SOL    HW214991   1.984   3.937   1.511
 4698SOL     OW14992   4.741   0.204   3.343
 4698SOL    HW114993   4.814   0.248   3.396
 4698SOL    HW214994   4.666   0.179   3.404
 4699SOL     OW14995   0.405   0.755   1.946
 4699SOL    HW114996   0.491   0.777   1.993
 4699SOL    HW214997   0.414   0.667   1.899
 4700SOL     OW14998   6.697   2.090   2.594
 4700SOL    HW114999   6.658   2.033   2.522
 4700SOL    HW215000   6.772   2.144   2.556
 4701SOL     OW15001   3.255   1.548   1.984
 4701SOL    HW115002   3.186   1.498   1.931
 4701SOL    HW215003   3.261   1.642   1.951
 4702SOL     OW15004   4.699   5.046   6.991
 4702SOL    HW115005   4.622   4.993   6.956
 4702SOL    HW215006   4.699   5.136   6.947
 4703SOL     OW15007   0.925   5.105   2.578
 4703SOL    HW115008   0.949   5.119   2.482
 4703SOL    HW215009   0.847   5.042   2.583
 4704SOL     OW15010   0.262   6.171   5.887
 4704SOL    HW115011   0.232   6.266   5.896
 4704SOL    HW215012   0.263   6.146   5.790
 4705SOL     OW15013   2.955   2.584   1.042
 4705SOL    HW115014   2.885   2.636   1.092
 4705SOL    HW215015   3.032   2.644   1.021
 4706SOL     OW15016   1.061   6.990   0.856
 4706SOL    HW115017   1.048   6.895   0.883
 4706SOL    HW215018   1.137   0.003   0.909
 4707SOL     OW15019   1.690   6.734   1.245
 4707SOL    HW115020   1.667   6.647   1.289
 4707SOL    HW215021   1.624   6.804   1.271
 4708SOL     OW15022   1.544   1.984   5.270
 4708SOL    HW115023   1.494   1.949   5.192
 4708SOL    HW215024   1.558   1.910   5.337
 4709SOL     OW15025   5.041   5.080   5.031
 4709SOL    HW115026   4.991   5.156   5.072
 4709SOL    HW215027   5.138   5.087   5.055
 4710SOL     OW15028   5.470   6.717   4.573
 4710SOL    HW115029   5.487   6.805   4.528
 4710SOL    HW215030   5.443   6.649   4.505
 4711SOL     OW15031   6.203   2.843   3.350
 4711SOL    HW115032   6.105   2.836   3.367
 4711SOL    HW215033   6.238   2.754   3.319
 4712SOL     OW15034   4.586   4.536   5.612
 4712SOL    HW115035   4.681   4.518   5.637
 4712SOL    HW215036   4.526   4.469   5.656
 4713SOL     OW15037   5.268   4.540   1.320
 4713SOL    HW115038   5.245   4.574   1.229
 4713SOL    HW215039   5.274   4.616   1.384
 4714SOL     OW15040   6.515   1.806   6.594
 4714SOL    HW115041   6.497   1.864   6.674
 4714SOL    HW215042   6.481   1.714   6.612
 4715SOL     OW15043   6.425   1.807   1.748
 4715SOL    HW115044   6.343   1.778   1.699
 4715SOL    HW215045   6.417   1.780   1.844
 4716SOL     OW15046   4.044   5.458   5.273
 4716SOL    HW115047   4.092   5.372   5.259
 4716SOL    HW215048   4.109   5.533   5.276
 4717SOL     OW15049   2.835   5.530   5.307
 4717SOL    HW115050   2.804   5.469   5.379
 4717SOL    HW215051   2.930   5.510   5.285
 4718SOL     OW15052   5.484   3.149   0.929
 4718SOL    HW115053   5.566   3.154   0.986
 4718SOL    HW215054   5.507   3.106   0.841
 4719SOL     OW15055   5.759   3.247   3.456
 4719SOL    HW115056   5.711   3.304   3.522
 4719SOL    HW215057   5.728   3.152   3.465
 4720SOL     OW15058   3.294   4.989   0.371
 4720SOL    HW115059   3.303   5.018   0.275
 4720SOL    HW215060   3.373   4.934   0.396
 4721SOL     OW15061   6.369   3.596   1.871
 4721SOL    HW115062   6.273   3.595   1.844
 4721SOL    HW215063   6.403   3.690   1.871
 4722SOL     OW15064   1.106   4.746   6.728
 4722SOL    HW115065   1.158   4.715   6.808
 4722SOL    HW215066   1.037   4.677   6.705
 4723SOL     OW15067   3.579   4.825   5.968
 4723SOL    HW115068   3.589   4.907   5.912
 4723SOL    HW215069   3.663   4.810   6.021
 4724SOL     OW15070   0.264   6.693   4.009
 4724SOL    HW115071   0.244   6.738   4.096
 4724SOL    HW215072   0.201   6.617   3.995
 4725SOL     OW15073   5.619   5.335   0.681
 4725SOL    HW115074   5.548   5.311   0.747
 4725SOL    HW215075   5.702   5.283   0.701
 4726SOL     OW15076   1.651   2.983   5.448
 4726SOL    HW115077   1.578   2.949   5.506
 4726SOL    HW215078   1.724   3.022   5.505
 4727SOL     OW15079   0.961   5.568   0.379
 4727SOL    HW115080   0.871   5.603   0.406
 4727SOL    HW215081   0.998   5.511   0.453
 4728SOL     OW15082   6.293   1.062   3.168
 4728SOL    HW115083   6.330   1.111   3.246
 4728SOL    HW215084   6.355   1.071   3.090
 4729SOL     OW15085   4.947   0.656   7.016
 4729SOL    HW115086   5.039   0.640   6.981
 4729SOL    HW215087   4.951   0.671   0.088
 4730SOL     OW15088   3.743   0.277   4.838
 4730SOL    HW115089   3.736   0.354   4.775
 4730SOL    HW215090   3.836   0.270   4.874
 4731SOL     OW15091   2.622   0.584   0.448
 4731SOL    HW115092   2.657   0.490   0.445
 4731SOL    HW215093   2.658   0.631   0.528
 4732SOL     OW15094   0.739   3.452   5.348
 4732SOL    HW115095   0.755   3.353   5.355
 4732SOL    HW215096   0.813   3.494   5.295
 4733SOL     OW15097   2.334   4.296   3.039
 4733SOL    HW115098   2.296   4.249   2.959
 4733SOL    HW215099   2.316   4.242   3.121
 4734SOL     OW15100   5.210   3.052   6.019
 4734SOL    HW115101   5.177   3.021   5.930
 4734SOL    HW215102   5.164   3.136   6.045
 4735SOL     OW15103   0.435   6.174   4.108
 4735SOL    HW115104   0.535   6.178   4.112
 4735SOL    HW215105   0.400   6.264   4.083
 4736SOL     OW15106   6.877   2.117   3.640
 4736SOL    HW115107   6.861   2.056   3.718
 4736SOL    HW215108   6.933   2.070   3.572
 4737SOL     OW15109   2.135   4.858   0.957
 4737SOL    HW115110   2.160   4.911   1.038
 4737SOL    HW215111   2.062   4.794   0.981
 4738SOL     OW15112   2.819   0.120   3.829
 4738SOL    HW115113   2.895   0.177   3.861
 4738SOL    HW215114   2.794   0.056   3.902
 4739SOL     OW15115   6.230   2.784   4.962
 4739SOL    HW115116   6.159   2.785   5.032
 4739SOL    HW215117   6.260   2.878   4.944
 4740SOL     OW15118   0.729   0.956   1.244
 4740SOL    HW115119   0.696   1.045   1.214
 4740SOL    HW215120   0.660   0.912   1.301
 4741SOL     OW15121   4.203   4.499   0.807
 4741SOL    HW115122   4.232   4.465   0.897
 4741SOL    HW215123   4.107   4.527   0.812
 4742SOL     OW15124   2.506   6.003   1.509
 4742SOL    HW115125   2.604   5.994   1.523
 4742SOL    HW215126   2.457   5.958   1.584
 4743SOL     OW15127   2.582   1.234   5.799
 4743SOL    HW115128   2.624   1.280   5.877
 4743SOL    HW215129   2.615   1.140   5.794
 4744SOL     OW15130   1.826   3.291   5.131
 4744SOL    HW115131   1.871   3.205   5.104
 4744SOL    HW215132   1.825   3.354   5.054
 4745SOL     OW15133   3.218   5.352   5.506
 4745SOL    HW115134   3.240   5.442   5.544
 4745SOL    HW215135   3.190   5.290   5.580
 4746SOL     OW15136   5.976   5.852   0.519
 4746SOL    HW115137   5.903   5.915   0.493
 4746SOL    HW215138   6.065   5.897   0.506
 4747SOL     OW15139   0.144   2.910   0.196
 4747SOL    HW115140   0.115   2.983   0.134
 4747SOL    HW215141   0.100   2.922   0.285
 4748SOL     OW15142   0.998   0.989   1.270
 4748SOL    HW115143   0.902   0.963   1.280
 4748SOL    HW215144   1.050   0.914   1.230
 4749SOL     OW15145   2.136   6.528   0.020
 4749SOL    HW115146   2.235   6.522   0.005
 4749SOL    HW215147   2.119   6.552   0.115
 4750SOL     OW15148   0.324   1.614   4.239
 4750SOL    HW115149   0.318   1.516   4.221
 4750SOL    HW215150   0.232   1.652   4.249
 4751SOL     OW15151   1.843   4.368   0.157
 4751SOL    HW115152   1.909   4.415   0.099
 4751SOL    HW215153   1.785   4.435   0.203
 4752SOL     OW15154   2.259   6.391   1.091
 4752SOL    HW115155   2.167   6.424   1.070
 4752SOL    HW215156   2.253   6.306   1.142
 4753SOL     OW15157   5.285   7.013   5.028
 4753SOL    HW115158   5.261   6.916   5.019
 4753SOL    HW215159   5.252   0.036   4.948
 4754SOL     OW15160   6.583   0.095   6.408
 4754SOL    HW115161   6.633   0.135   6.331
 4754SOL    HW215162   6.508   0.039   6.374
 4755SOL     OW15163   2.257   1.108   6.323
 4755SOL    HW115164   2.265   1.187   6.384
 4755SOL    HW215165   2.325   1.116   6.250
 4756SOL     OW15166   5.281   2.263   1.729
 4756SOL    HW115167   5.337   2.251   1.648
 4756SOL    HW215168   5.185   2.246   1.707
 4757SOL     OW15169   2.486   2.520   2.113
 4757SOL    HW115170   2.461   2.434   2.157
 4757SOL    HW215171   2.529   2.501   2.025
 4758SOL     OW15172   4.267   5.728   5.610
 4758SOL    HW115173   4.214   5.769   5.536
 4758SOL    HW215174   4.323   5.654   5.574
 4759SOL     OW15175   5.451   5.769   4.889
 4759SOL    HW115176   5.543   5.734   4.869
 4759SOL    HW215177   5.457   5.868   4.904
 4760SOL     OW15178   1.945   1.067   1.582
 4760SOL    HW115179   1.854   1.076   1.623
 4760SOL    HW215180   2.014   1.091   1.651
 4761SOL     OW15181   6.458   0.215   0.008
 4761SOL    HW115182   6.448   0.194   0.105
 4761SOL    HW215183   6.554   0.234   7.015
 4762SOL     OW15184   2.387   4.615   2.414
 4762SOL    HW115185   2.357   4.552   2.486
 4762SOL    HW215186   2.399   4.564   2.329
 4763SOL     OW15187   6.432   5.926   3.000
 4763SOL    HW115188   6.424   5.854   3.068
 4763SOL    HW215189   6.348   5.981   2.999
 4764SOL     OW15190   4.580   3.739   5.407
 4764SOL    HW115191   4.564   3.673   5.334
 4764SOL    HW215192   4.628   3.819   5.370
 4765SOL     OW15193   4.645   6.321   5.128
 4765SOL    HW115194   4.737   6.358   5.111
 4765SOL    HW215195   4.607   6.365   5.210
 4766SOL     OW15196   3.214   1.040   3.373
 4766SOL    HW115197   3.193   1.137   3.364
 4766SOL    HW215198   3.129   0.988   3.386
 4767SOL     OW15199   4.130   6.720   1.080
 4767SOL    HW115200   4.135   6.736   1.178
 4767SOL    HW215201   4.152   6.804   1.031
 4768SOL     OW15202   4.973   1.559   4.680
 4768SOL    HW115203   5.047   1.557   4.613
 4768SOL    HW215204   4.979   1.478   4.739
 4769SOL     OW15205   3.917   5.649   1.430
 4769SOL    HW115206   3.836   5.708   1.435
 4769SOL    HW215207   3.890   5.560   1.394
 4770SOL     OW15208   2.326   0.544   2.899
 4770SOL    HW115209   2.299   0.546   2.996
 4770SOL    HW215210   2.408   0.600   2.886
 4771SOL     OW15211   3.369   5.196   5.986
 4771SOL    HW115212   3.283   5.161   6.022
 4771SOL    HW215213   3.379   5.292   6.012
 4772SOL     OW15214   2.854   0.103   0.935
 4772SOL    HW115215   2.769   0.060   0.965
 4772SOL    HW215216   2.929   0.037   0.945
 4773SOL     OW15217   0.078   5.239   4.263
 4773SOL    HW115218   0.023   5.322   4.260
 4773SOL    HW215219   0.025   5.163   4.225
 4774SOL     OW15220   0.712   3.251   2.122
 4774SOL    HW115221   0.694   3.348   2.139
 4774SOL    HW215222   0.797   3.224   2.167
 4775SOL     OW15223   5.080   0.628   2.796
 4775SOL    HW115224   4.996   0.574   2.788
 4775SOL    HW215225   5.159   0.566   2.792
 4776SOL     OW15226   2.337   6.152   2.629
 4776SOL    HW115227   2.306   6.230   2.685
 4776SOL    HW215228   2.437   6.148   2.630
 4777SOL     OW15229   2.420   4.604   1.079
 4777SOL    HW115230   2.412   4.505   1.094
 4777SOL    HW215231   2.382   4.653   1.157
 4778SOL     OW15232   5.340   3.150   1.723
 4778SOL    HW115233   5.377   3.060   1.745
 4778SOL    HW215234   5.288   3.185   1.802
 4779SOL     OW15235   6.462   7.012   2.980
 4779SOL    HW115236   6.549   6.963   2.989
 4779SOL    HW215237   6.398   6.977   3.048
 4780SOL     OW15238   0.845   0.826   5.872
 4780SOL    HW115239   0.913   0.801   5.941
 4780SOL    HW215240   0.770   0.759   5.873
 4781SOL     OW15241   2.213   6.131   1.214
 4781SOL    HW115242   2.267   6.159   1.293
 4781SOL    HW215243   2.183   6.036   1.225
 4782SOL     OW15244   5.016   6.957   0.178
 4782SOL    HW115245   4.960   6.970   0.096
 4782SOL    HW215246   5.095   6.899   0.156
 4783SOL     OW15247   4.371   4.559   0.613
 4783SOL    HW115248   4.304   4.537   0.684
 4783SOL    HW215249   4.336   4.531   0.524
 4784SOL     OW15250   6.085   4.727   5.695
 4784SOL    HW115251   6.098   4.823   5.717
 4784SOL    HW215252   6.134   4.704   5.611
 4785SOL     OW15253   6.752   6.551   0.876
 4785SOL    HW115254   6.820   6.478   0.887
 4785SOL    HW215255   6.720   6.554   0.782
 4786SOL     OW15256   2.034   2.774   2.570
 4786SOL    HW115257   2.045   2.709   2.645
 4786SOL    HW215258   2.120   2.784   2.521
 4787SOL     OW15259   2.900   2.245   3.455
 4787SOL    HW115260   2.879   2.222   3.360
 4787SOL    HW215261   2.997   2.227   3.473
 4788SOL     OW15262   1.571   5.721   6.070
 4788SOL    HW115263   1.573   5.652   5.998
 4788SOL    HW215264   1.488   5.777   6.061
 4789SOL     OW15265   4.869   0.698   0.269
 4789SOL    HW115266   4.800   0.626   0.268
 4789SOL    HW215267   4.920   0.695   0.355
 4790SOL     OW15268   5.417   2.957   6.328
 4790SOL    HW115269   5.384   3.028   6.391
 4790SOL    HW215270   5.434   2.997   6.239
 4791SOL     OW15271   6.053   0.513   2.145
 4791SOL    HW115272   6.015   0.429   2.106
 4791SOL    HW215273   6.029   0.590   2.086
 4792SOL     OW15274   2.192   3.199   2.763
 4792SOL    HW115275   2.195   3.139   2.843
 4792SOL    HW215276   2.236   3.155   2.686
 4793SOL     OW15277   1.574   0.412   5.883
 4793SOL    HW115278   1.644   0.447   5.820
 4793SOL    HW215279   1.574   0.312   5.879
 4794SOL     OW15280   3.814   0.036   2.725
 4794SOL    HW115281   3.822   0.126   2.769
 4794SOL    HW215282   3.725   0.029   2.680
 4795SOL     OW15283   6.853   3.054   4.619
 4795SOL    HW115284   6.766   3.083   4.658
 4795SOL    HW215285   6.851   3.066   4.520
 4796SOL     OW15286   5.059   2.557   0.257
 4796SOL    HW115287   5.064   2.593   0.350
 4796SOL    HW215288   4.969   2.578   0.218
 4797SOL     OW15289   1.823   5.626   6.121
 4797SOL    HW115290   1.858   5.639   6.213
 4797SOL    HW215291   1.743   5.684   6.107
 4798SOL     OW15292   0.343   4.503   5.451
 4798SOL    HW115293   0.398   4.522   5.370
 4798SOL    HW215294   0.349   4.580   5.514
 4799SOL     OW15295   5.670   1.604   4.941
 4799SOL    HW115296   5.611   1.566   4.870
 4799SOL    HW215297   5.620   1.672   4.994
 4800SOL     OW15298   2.838   2.849   6.391
 4800SOL    HW115299   2.819   2.888   6.300
 4800SOL    HW215300   2.822   2.919   6.461
 4801SOL     OW15301   1.938   2.158   0.057
 4801SOL    HW115302   1.912   2.141   0.152
 4801SOL    HW215303   1.919   2.254   0.034
 4802SOL     OW15304   1.780   6.646   2.301
 4802SOL    HW115305   1.702   6.681   2.353
 4802SOL    HW215306   1.862   6.699   2.324
 4803SOL     OW15307   0.533   6.901   1.263
 4803SOL    HW115308   0.443   6.863   1.283
 4803SOL    HW215309   0.597   6.875   1.335
 4804SOL     OW15310   4.138   5.825   6.746
 4804SOL    HW115311   4.237   5.836   6.735
 4804SOL    HW215312   4.119   5.750   6.809
 4805SOL     OW15313   6.633   0.027   0.625
 4805SOL    HW115314   6.725   7.021   0.647
 4805SOL    HW215315   6.617   0.114   0.671
 4806SOL     OW15316   6.922   3.920   3.250
 4806SOL    HW115317   6.975   3.849   3.295
 4806SOL    HW215318   6.825   3.908   3.270
 4807SOL     OW15319   0.816   5.872   1.623
 4807SOL    HW115320   0.734   5.859   1.567
 4807SOL    HW215321   0.814   5.963   1.664
 4808SOL     OW15322   5.682   3.394   0.945
 4808SOL    HW115323   5.625   3.402   1.026
 4808SOL    HW215324   5.778   3.410   0.970
 4809SOL     OW15325   3.339   4.567   7.019
 4809SOL    HW115326   3.310   4.540   6.927
 4809SOL    HW215327   3.269   4.624   0.034
 4810SOL     OW15328   0.868   5.145   1.092
 4810SOL    HW115329   0.953   5.138   1.039
 4810SOL    HW215330   0.879   5.096   1.179
 4811SOL     OW15331   2.487   5.224   2.154
 4811SOL    HW115332   2.565   5.281   2.129
 4811SOL    HW215333   2.402   5.272   2.134
 4812SOL     OW15334   6.656   5.385   4.871
 4812SOL    HW115335   6.675   5.378   4.773
 4812SOL    HW215336   6.664   5.295   4.913
 4813SOL     OW15337   5.251   1.493   3.041
 4813SOL    HW115338   5.264   1.589   3.067
 4813SOL    HW215339   5.154   1.470   3.047
 4814SOL     OW15340   6.497   4.923   0.988
 4814SOL    HW115341   6.474   4.854   0.920
 4814SOL    HW215342   6.414   4.956   1.032
 4815SOL     OW15343   5.032   4.889   2.724
 4815SOL    HW115344   4.957   4.876   2.789
 4815SOL    HW215345   5.119   4.894   2.773
 4816SOL     OW15346   5.530   5.251   3.101
 4816SOL    HW115347   5.538   5.231   3.004
 4816SOL    HW215348   5.544   5.166   3.153
 4817SOL     OW15349   0.934   2.157   5.737
 4817SOL    HW115350   0.932   2.097   5.656
 4817SOL    HW215351   0.964   2.104   5.816
 4818SOL     OW15352   0.591   6.772   3.557
 4818SOL    HW115353   0.513   6.819   3.598
 4818SOL    HW215354   0.649   6.838   3.509
 4819SOL     OW15355   1.444   3.176   0.231
 4819SOL    HW115356   1.350   3.170   0.264
 4819SOL    HW215357   1.444   3.174   0.131
 4820SOL     OW15358   6.906   2.927   1.447
 4820SOL    HW115359   6.877   2.897   1.539
 4820SOL    HW215360   6.925   3.025   1.448
 4821SOL     OW15361   0.297   6.199   1.807
 4821SOL    HW115362   0.288   6.282   1.862
 4821SOL    HW215363   0.290   6.119   1.866
 4822SOL     OW15364   1.272   3.836   4.312
 4822SOL    HW115365   1.223   3.816   4.397
 4822SOL    HW215366   1.219   3.902   4.258
 4823SOL     OW15367   1.023   2.231   2.374
 4823SOL    HW115368   1.104   2.247   2.430
 4823SOL    HW215369   0.995   2.317   2.331
 4824SOL     OW15370   5.055   1.136   5.315
 4824SOL    HW115371   4.957   1.155   5.301
 4824SOL    HW215372   5.108   1.217   5.290
 4825SOL     OW15373   1.069   0.762   4.343
 4825SOL    HW115374   1.016   0.753   4.427
 4825SOL    HW215375   1.047   0.686   4.281
 4826SOL     OW15376   4.602   0.327   1.476
 4826SOL    HW115377   4.613   0.331   1.575
 4826SOL    HW215378   4.692   0.317   1.433
 4827SOL     OW15379   6.700   1.710   0.163
 4827SOL    HW115380   6.774   1.753   0.215
 4827SOL    HW215381   6.614   1.720   0.213
 4828SOL     OW15382   4.633   0.109   1.890
 4828SOL    HW115383   4.628   0.173   1.813
 4828SOL    HW215384   4.724   0.068   1.894
 4829SOL     OW15385   4.433   0.141   6.134
 4829SOL    HW115386   4.401   0.222   6.183
 4829SOL    HW215387   4.529   0.124   6.156
 4830SOL     OW15388   4.232   5.674   3.941
 4830SOL    HW115389   4.168   5.689   4.017
 4830SOL    HW215390   4.234   5.755   3.882
 4831SOL     OW15391   3.335   5.777   5.957
 4831SOL    HW115392   3.283   5.725   6.024
 4831SOL    HW215393   3.297   5.870   5.949
 4832SOL     OW15394   3.165   3.607   4.977
 4832SOL    HW115395   3.081   3.586   4.926
 4832SOL    HW215396   3.225   3.664   4.921
 4833SOL     OW15397   6.001   2.382   4.518
 4833SOL    HW115398   5.954   2.454   4.466
 4833SOL    HW215399   6.099   2.389   4.504
 4834SOL     OW15400   2.469   5.550   2.354
 4834SOL    HW115401   2.392   5.609   2.330
 4834SOL    HW215402   2.441   5.484   2.423
 4835SOL     OW15403   6.761   3.589   6.087
 4835SOL    HW115404   6.841   3.598   6.146
 4835SOL    HW215405   6.781   3.528   6.011
 4836SOL     OW15406   4.768   0.807   5.087
 4836SOL    HW115407   4.718   0.873   5.143
 4836SOL    HW215408   4.866   0.823   5.095
 4837SOL     OW15409   6.854   3.217   3.953
 4837SOL    HW115410   6.892   3.130   3.923
 4837SOL    HW215411   6.762   3.229   3.914
 4838SOL     OW15412   1.157   4.690   6.062
 4838SOL    HW115413   1.173   4.601   6.019
 4838SOL    HW215414   1.218   4.758   6.020
 4839SOL     OW15415   1.421   2.620   0.030
 4839SOL    HW115416   1.383   2.711   0.012
 4839SOL    HW215417   1.491   2.627   0.102
 4840SOL     OW15418   4.995   3.840   5.386
 4840SOL    HW115419   4.936   3.915   5.415
 4840SOL    HW215420   4.941   3.755   5.383
 4841SOL     OW15421   2.896   5.385   3.604
 4841SOL    HW115422   2.893   5.286   3.587
 4841SOL    HW215423   2.928   5.432   3.522
 4842SOL     OW15424   2.159   5.218   2.671
 4842SOL    HW115425   2.218   5.224   2.590
 4842SOL    HW215426   2.215   5.210   2.753
 4843SOL     OW15427   0.234   2.687   2.210
 4843SOL    HW115428   0.230   2.780   2.246
 4843SOL    HW215429   0.142   2.650   2.199
 4844SOL     OW15430   1.310   4.951   5.254
 4844SOL    HW115431   1.347   5.010   5.183
 4844SOL    HW215432   1.372   4.949   5.332
 4845SOL     OW15433   4.399   4.231   5.364
 4845SOL    HW115434   4.480   4.286   5.386
 4845SOL    HW215435   4.351   4.272   5.287
 4846SOL     OW15436   0.639   2.598   4.193
 4846SOL    HW115437   0.570   2.527   4.208
 4846SOL    HW215438   0.617   2.649   4.110
 4847SOL     OW15439   2.764   6.815   5.722
 4847SOL    HW115440   2.860   6.838   5.702
 4847SOL    HW215441   2.734   6.868   5.802
 4848SOL     OW15442   2.512   1.398   3.972
 4848SOL    HW115443   2.586   1.332   3.985
 4848SOL    HW215444   2.466   1.415   4.059
 4849SOL     OW15445   2.200   0.676   0.368
 4849SOL    HW115446   2.236   0.600   0.422
 4849SOL    HW215447   2.120   0.715   0.414
 4850SOL     OW15448   4.640   0.943   1.168
 4850SOL    HW115449   4.544   0.969   1.175
 4850SOL    HW215450   4.679   0.932   1.260
 4851SOL     OW15451   3.433   6.124   0.331
 4851SOL    HW115452   3.438   6.170   0.242
 4851SOL    HW215453   3.463   6.029   0.321
 4852SOL     OW15454   4.076   5.434   4.958
 4852SOL    HW115455   4.040   5.482   5.038
 4852SOL    HW215456   4.154   5.485   4.921
 4853SOL     OW15457   3.452   0.541   3.268
 4853SOL    HW115458   3.398   0.515   3.348
 4853SOL    HW215459   3.460   0.640   3.263
 4854SOL     OW15460   5.821   5.742   1.633
 4854SOL    HW115461   5.840   5.683   1.554
 4854SOL    HW215462   5.741   5.798   1.614
 4855SOL     OW15463   6.928   4.396   5.271
 4855SOL    HW115464   6.839   4.357   5.246
 4855SOL    HW215465   6.954   4.364   5.362
 4856SOL     OW15466   0.502   3.785   2.649
 4856SOL    HW115467   0.489   3.876   2.608
 4856SOL    HW215468   0.584   3.743   2.611
 4857SOL     OW15469   3.152   2.153   4.344
 4857SOL    HW115470   3.142   2.102   4.429
 4857SOL    HW215471   3.068   2.204   4.326
 4858SOL     OW15472   0.634   0.107   5.056
 4858SOL    HW115473   0.648   0.031   5.119
 4858SOL    HW215474   0.661   0.078   4.964
 4859SOL     OW15475   0.884   5.707   2.037
 4859SOL    HW115476   0.974   5.710   1.994
 4859SOL    HW215477   0.840   5.619   2.017
 4860SOL     OW15478   4.947   5.227   0.656
 4860SOL    HW115479   4.984   5.208   0.747
 4860SOL    HW215480   4.991   5.309   0.618
 4861SOL     OW15481   6.525   4.894   5.880
 4861SOL    HW115482   6.479   4.834   5.945
 4861SOL    HW215483   6.624   4.891   5.896
 4862SOL     OW15484   2.671   4.742   4.834
 4862SOL    HW115485   2.598   4.802   4.866
 4862SOL    HW215486   2.711   4.694   4.911
 4863SOL     OW15487   4.765   2.790   2.712
 4863SOL    HW115488   4.756   2.776   2.614
 4863SOL    HW215489   4.821   2.871   2.730
 4864SOL     OW15490   3.103   1.223   1.921
 4864SOL    HW115491   3.075   1.308   1.877
 4864SOL    HW215492   3.049   1.209   2.005
 4865SOL     OW15493   3.767   5.030   5.628
 4865SOL    HW115494   3.698   5.036   5.700
 4865SOL    HW215495   3.732   4.975   5.552
 4866SOL     OW15496   5.901   5.022   1.774
 4866SOL    HW115497   5.897   4.991   1.869
 4866SOL    HW215498   5.861   5.113   1.767
 4867SOL     OW15499   5.185   5.172   2.783
 4867SOL    HW115500   5.119   5.225   2.837
 4867SOL    HW215501   5.155   5.172   2.687
 4868SOL     OW15502   0.475   5.568   1.199
 4868SOL    HW115503   0.449   5.647   1.143
 4868SOL    HW215504   0.395   5.535   1.249
 4869SOL     OW15505   6.648   1.456   0.194
 4869SOL    HW115506   6.725   1.402   0.229
 4869SOL    HW215507   6.678   1.550   0.177
 4870SOL     OW15508   4.319   6.164   1.772
 4870SOL    HW115509   4.270   6.172   1.685
 4870SOL    HW215510   4.320   6.252   1.818
 4871SOL     OW15511   1.060   2.342   3.482
 4871SOL    HW115512   1.029   2.387   3.398
 4871SOL    HW215513   1.145   2.292   3.462
 4872SOL     OW15514   1.029   0.163   2.801
 4872SOL    HW115515   0.991   0.106   2.729
 4872SOL    HW215516   1.000   0.128   2.890
 4873SOL     OW15517   0.218   5.258   4.511
 4873SOL    HW115518   0.280   5.335   4.524
 4873SOL    HW215519   0.177   5.264   4.420
 4874SOL     OW15520   5.163   3.704   3.695
 4874SOL    HW115521   5.213   3.774   3.644
 4874SOL    HW215522   5.149   3.623   3.638
 4875SOL     OW15523   5.530   1.824   0.591
 4875SOL    HW115524   5.519   1.821   0.491
 4875SOL    HW215525   5.503   1.736   0.630
 4876SOL     OW15526   6.330   0.834   6.195
 4876SOL    HW115527   6.249   0.791   6.236
 4876SOL    HW215528   6.341   0.926   6.232
 4877SOL     OW15529   6.135   1.625   1.041
 4877SOL    HW115530   6.060   1.675   0.998
 4877SOL    HW215531   6.116   1.616   1.139
 4878SOL     OW15532   0.099   1.478   1.831
 4878SOL    HW115533   0.115   1.466   1.929
 4878SOL    HW215534   0.102   1.576   1.808
 4879SOL     OW15535   4.213   4.764   3.525
 4879SOL    HW115536   4.301   4.736   3.488
 4879SOL    HW215537   4.228   4.823   3.605
 4880SOL     OW15538   5.929   1.026   0.383
 4880SOL    HW115539   5.880   1.106   0.417
 4880SOL    HW215540   5.929   0.954   0.453
 4881SOL     OW15541   3.258   6.738   6.203
 4881SOL    HW115542   3.168   6.763   6.238
 4881SOL    HW215543   3.251   6.652   6.152
 4882SOL     OW15544   5.923   1.231   5.171
 4882SOL    HW115545   5.846   1.213   5.108
 4882SOL    HW215546   5.929   1.157   5.238
 4883SOL     OW15547   6.061   4.593   2.142
 4883SOL    HW115548   5.976   4.541   2.147
 4883SOL    HW215549   6.089   4.602   2.046
 4884SOL     OW15550   3.679   6.362   1.555
 4884SOL    HW115551   3.720   6.287   1.607
 4884SOL    HW215552   3.703   6.352   1.458
 4885SOL     OW15553   1.949   6.946   1.301
 4885SOL    HW115554   1.864   6.947   1.354
 4885SOL    HW215555   2.026   6.933   1.363
 4886SOL     OW15556   6.434   0.734   0.375
 4886SOL    HW115557   6.380   0.816   0.396
 4886SOL    HW215558   6.382   0.676   0.312
 4887SOL     OW15559   0.455   2.169   3.731
 4887SOL    HW115560   0.518   2.140   3.659
 4887SOL    HW215561   0.501   2.235   3.790
 4888SOL     OW15562   1.515   5.912   2.674
 4888SOL    HW115563   1.611   5.915   2.647
 4888SOL    HW215564   1.479   6.005   2.683
 4889SOL     OW15565   1.047   1.956   0.030
 4889SOL    HW115566   1.023   1.859   0.027
 4889SOL    HW215567   1.142   1.968   0.004
 4890SOL     OW15568   0.944   0.752   4.612
 4890SOL    HW115569   0.911   0.682   4.676
 4890SOL    HW215570   0.868   0.811   4.585
 4891SOL     OW15571   0.838   4.794   0.880
 4891SOL    HW115572   0.845   4.889   0.851
 4891SOL    HW215573   0.759   4.751   0.836
 4892SOL     OW15574   1.153   5.583   1.563
 4892SOL    HW115575   1.058   5.583   1.593
 4892SOL    HW215576   1.194   5.673   1.579
 4893SOL     OW15577   0.025   3.692   6.417
 4893SOL    HW115578   0.104   3.722   6.470
 4893SOL    HW215579   6.974   3.753   6.434
 4894SOL     OW15580   1.560   0.758   2.940
 4894SOL    HW115581   1.568   0.701   2.859
 4894SOL    HW215582   1.464   0.761   2.969
 4895SOL     OW15583   0.600   3.073   0.432
 4895SOL    HW115584   0.659   3.154   0.437
 4895SOL    HW215585   0.553   3.071   0.344
 4896SOL     OW15586   3.713   4.930   4.868
 4896SOL    HW115587   3.616   4.928   4.845
 4896SOL    HW215588   3.768   4.935   4.785
 4897SOL     OW15589   3.527   5.594   0.235
 4897SOL    HW115590   3.602   5.572   0.297
 4897SOL    HW215591   3.453   5.527   0.245
 4898SOL     OW15592   5.455   2.025   5.459
 4898SOL    HW115593   5.535   1.997   5.512
 4898SOL    HW215594   5.406   2.097   5.508
 4899SOL     OW15595   6.104   4.529   3.405
 4899SOL    HW115596   6.188   4.510   3.354
 4899SOL    HW215597   6.127   4.578   3.489
 4900SOL     OW15598   0.422   6.414   5.960
 4900SOL    HW115599   0.504   6.470   5.944
 4900SOL    HW215600   0.375   6.448   6.042
 4901SOL     OW15601   0.681   6.503   4.090
 4901SOL    HW115602   0.659   6.410   4.118
 4901SOL    HW215603   0.660   6.515   3.993
 4902SOL     OW15604   2.700   5.024   1.830
 4902SOL    HW115605   2.770   4.971   1.879
 4902SOL    HW215606   2.621   5.038   1.891
 4903SOL     OW15607   4.322   0.231   6.738
 4903SOL    HW115608   4.347   0.157   6.676
 4903SOL    HW215609   4.227   0.220   6.766
 4904SOL     OW15610   1.860   6.090   4.336
 4904SOL    HW115611   1.833   6.169   4.282
 4904SOL    HW215612   1.935   6.115   4.397
 4905SOL     OW15613   4.877   2.769   1.662
 4905SOL    HW115614   4.895   2.798   1.756
 4905SOL    HW215615   4.785   2.800   1.635
 4906SOL     OW15616   4.927   0.039   0.507
 4906SOL    HW115617   4.958   0.079   0.420
 4906SOL    HW215618   4.828   0.048   0.514
 4907SOL     OW15619   4.002   7.013   3.844
 4907SOL    HW115620   3.926   6.948   3.848
 4907SOL    HW215621   3.972   0.069   3.798
 4908SOL     OW15622   3.347   6.009   6.869
 4908SOL    HW115623   3.266   5.973   6.915
 4908SOL    HW215624   3.348   5.979   6.774
 4909SOL     OW15625   6.459   6.590   5.417
 4909SOL    HW115626   6.531   6.529   5.382
 4909SOL    HW215627   6.389   6.535   5.463
 4910SOL     OW15628   5.061   0.611   5.211
 4910SOL    HW115629   5.048   0.710   5.205
 4910SOL    HW215630   5.104   0.579   5.127
 4911SOL     OW15631   0.225   2.399   5.716
 4911SOL    HW115632   0.306   2.456   5.732
 4911SOL    HW215633   0.161   2.449   5.656
 4912SOL     OW15634   3.567   1.927   2.360
 4912SOL    HW115635   3.510   1.858   2.404
 4912SOL    HW215636   3.510   1.986   2.303
 4913SOL     OW15637   3.443   3.658   3.363
 4913SOL    HW115638   3.461   3.564   3.393
 4913SOL    HW215639   3.347   3.667   3.338
 4914SOL     OW15640   2.159   0.039   3.389
 4914SOL    HW115641   2.113   0.096   3.456
 4914SOL    HW215642   2.098   0.024   3.310
 4915SOL     OW15643   4.054   6.515   4.001
 4915SOL    HW115644   4.048   6.462   4.086
 4915SOL    HW215645   4.031   6.456   3.924
 4916SOL     OW15646   2.917   2.114   3.215
 4916SOL    HW115647   2.874   2.181   3.154
 4916SOL    HW215648   2.975   2.052   3.161
 4917SOL     OW15649   1.969   4.184   0.863
 4917SOL    HW115650   1.882   4.142   0.837
 4917SOL    HW215651   1.971   4.279   0.830
 4918SOL     OW15652   2.491   0.208   2.059
 4918SOL    HW115653   2.532   0.268   2.128
 4918SOL    HW215654   2.523   0.235   1.968
 4919SOL     OW15655   1.829   2.421   2.535
 4919SOL    HW115656   1.797   2.412   2.630
 4919SOL    HW215657   1.770   2.484   2.486
 4920SOL     OW15658   4.160   0.801   0.502
 4920SOL    HW115659   4.131   0.800   0.598
 4920SOL    HW215660   4.180   0.896   0.476
 4921SOL     OW15661   2.334   3.923   1.602
 4921SOL    HW115662   2.427   3.902   1.573
 4921SOL    HW215663   2.323   3.901   1.699
 4922SOL     OW15664   1.477   3.348   5.543
 4922SOL    HW115665   1.554   3.323   5.601
 4922SOL    HW215666   1.502   3.335   5.447
 4923SOL     OW15667   5.045   0.585   1.712
 4923SOL    HW115668   5.076   0.677   1.739
 4923SOL    HW215669   5.091   0.517   1.770
 4924SOL     OW15670   0.777   3.755   4.133
 4924SOL    HW115671   0.810   3.714   4.218
 4924SOL    HW215672   0.700   3.816   4.152
 4925SOL     OW15673   4.842   6.384   0.692
 4925SOL    HW115674   4.884   6.328   0.764
 4925SOL    HW215675   4.811   6.471   0.731
 4926SOL     OW15676   5.038   2.492   1.977
 4926SOL    HW115677   5.099   2.441   2.037
 4926SOL    HW215678   5.009   2.434   1.901
 4927SOL     OW15679   3.284   2.936   3.102
 4927SOL    HW115680   3.228   2.998   3.049
 4927SOL    HW215681   3.286   2.967   3.198
 4928SOL     OW15682   0.648   6.619   0.025
 4928SOL    HW115683   0.611   6.704   7.014
 4928SOL    HW215684   0.696   6.569   6.980
 4929SOL     OW15685   1.154   5.048   4.698
 4929SOL    HW115686   1.067   5.030   4.651
 4929SOL    HW215687   1.173   4.975   4.762
 4930SOL     OW15688   0.532   1.867   0.453
 4930SOL    HW115689   0.442   1.882   0.411
 4930SOL    HW215690   0.548   1.768   0.461
 4931SOL     OW15691   0.513   0.055   0.595
 4931SOL    HW115692   0.585   0.083   0.532
 4931SOL    HW215693   0.515   0.114   0.676
 4932SOL     OW15694   2.510   2.360   1.454
 4932SOL    HW115695   2.423   2.314   1.473
 4932SOL    HW215696   2.495   2.432   1.386
 4933SOL     OW15697   2.768   1.320   4.162
 4933SOL    HW115698   2.838   1.250   4.148
 4933SOL    HW215699   2.812   1.410   4.170
 4934SOL     OW15700   0.296   5.228   4.102
 4934SOL    HW115701   0.220   5.198   4.159
 4934SOL    HW215702   0.323   5.321   4.129
 4935SOL     OW15703   1.939   1.632   0.018
 4935SOL    HW115704   1.919   1.681   6.960
 4935SOL    HW215705   1.912   1.536   0.009
 4936SOL     OW15706   3.603   6.039   1.625
 4936SOL    HW115707   3.530   6.090   1.580
 4936SOL    HW215708   3.642   6.094   1.699
 4937SOL     OW15709   1.172   3.136   6.024
 4937SOL    HW115710   1.110   3.075   5.975
 4937SOL    HW215711   1.136   3.152   6.116
 4938SOL     OW15712   3.241   4.716   1.187
 4938SOL    HW115713   3.218   4.806   1.153
 4938SOL    HW215714   3.198   4.702   1.277
 4939SOL     OW15715   1.079   1.571   1.620
 4939SOL    HW115716   0.987   1.608   1.625
 4939SOL    HW215717   1.075   1.474   1.596
 4940SOL     OW15718   0.102   2.821   3.897
 4940SOL    HW115719   0.013   2.854   3.928
 4940SOL    HW215720   0.091   2.730   3.858
 4941SOL     OW15721   4.123   2.314   5.326
 4941SOL    HW115722   4.123   2.311   5.426
 4941SOL    HW215723   4.129   2.409   5.296
 4942SOL     OW15724   5.475   2.822   3.719
 4942SOL    HW115725   5.379   2.830   3.692
 4942SOL    HW215726   5.530   2.791   3.642
 4943SOL     OW15727   5.240   3.079   6.482
 4943SOL    HW115728   5.206   2.998   6.435
 4943SOL    HW215729   5.199   3.084   6.573
 4944SOL     OW15730   1.689   4.793   1.286
 4944SOL    HW115731   1.600   4.750   1.301
 4944SOL    HW215732   1.752   4.765   1.358
 4945SOL     OW15733   1.980   0.607   5.088
 4945SOL    HW115734   1.903   0.669   5.077
 4945SOL    HW215735   1.967   0.551   5.170
 4946SOL     OW15736   1.471   4.611   0.887
 4946SOL    HW115737   1.402   4.582   0.821
 4946SOL    HW215738   1.464   4.710   0.901
 4947SOL     OW15739   1.710   0.890   1.744
 4947SOL    HW115740   1.724   0.980   1.784
 4947SOL    HW215741   1.795   0.837   1.751
 4948SOL     OW15742   1.459   2.225   1.283
 4948SOL    HW115743   1.421   2.145   1.329
 4948SOL    HW215744   1.415   2.307   1.318
 4949SOL     OW15745   6.396   2.846   6.280
 4949SOL    HW115746   6.480   2.835   6.333
 4949SOL    HW215747   6.380   2.765   6.224
 4950SOL     OW15748   2.616   4.369   5.486
 4950SOL    HW115749   2.651   4.418   5.406
 4950SOL    HW215750   2.643   4.417   5.569
 4951SOL     OW15751   5.503   6.247   3.833
 4951SOL    HW115752   5.495   6.254   3.734
 4951SOL    HW215753   5.547   6.330   3.869
 4952SOL     OW15754   0.170   0.158   6.107
 4952SOL    HW115755   0.244   0.179   6.044
 4952SOL    HW215756   0.104   0.233   6.108
 4953SOL     OW15757   1.219   2.076   5.380
 4953SOL    HW115758   1.241   2.013   5.305
 4953SOL    HW215759   1.303   2.107   5.423
 4954SOL     OW15760   2.963   4.003   5.346
 4954SOL    HW115761   3.010   3.959   5.269
 4954SOL    HW215762   2.866   4.011   5.325
 4955SOL     OW15763   3.126   5.890   0.208
 4955SOL    HW115764   3.144   5.963   0.275
 4955SOL    HW215765   3.117   5.803   0.256
 4956SOL     OW15766   2.441   0.276   4.607
 4956SOL    HW115767   2.393   0.228   4.681
 4956SOL    HW215768   2.434   0.223   4.523
 4957SOL     OW15769   6.507   4.067   6.542
 4957SOL    HW115770   6.552   4.114   6.467
 4957SOL    HW215771   6.577   4.032   6.605
 4958SOL     OW15772   2.720   0.303   6.192
 4958SOL    HW115773   2.751   0.390   6.229
 4958SOL    HW215774   2.787   0.269   6.125
 4959SOL     OW15775   0.080   2.646   1.601
 4959SOL    HW115776   0.003   2.583   1.600
 4959SOL    HW215777   0.082   2.696   1.688
 4960SOL     OW15778   3.923   4.783   3.734
 4960SOL    HW115779   3.999   4.763   3.672
 4960SOL    HW215780   3.842   4.805   3.681
 4961SOL     OW15781   2.970   0.923   6.834
 4961SOL    HW115782   2.946   0.923   6.931
 4961SOL    HW215783   2.934   0.841   6.791
 4962SOL     OW15784   6.541   3.603   1.159
 4962SOL    HW115785   6.601   3.549   1.099
 4962SOL    HW215786   6.462   3.635   1.106
 4963SOL     OW15787   0.502   4.260   0.337
 4963SOL    HW115788   0.491   4.197   0.260
 4963SOL    HW215789   0.581   4.319   0.321
 4964SOL     OW15790   2.705   6.713   4.606
 4964SOL    HW115791   2.796   6.744   4.580
 4964SOL    HW215792   2.661   6.669   4.527
 4965SOL     OW15793   1.349   6.409   2.849
 4965SOL    HW115794   1.271   6.347   2.854
 4965SOL    HW215795   1.344   6.476   2.923
 4966SOL     OW15796   3.080   6.471   4.285
 4966SOL    HW115797   3.074   6.477   4.384
 4966SOL    HW215798   3.030   6.390   4.253
 4967SOL     OW15799   4.171   4.688   5.369
 4967SOL    HW115800   4.214   4.710   5.457
 4967SOL    HW215801   4.160   4.589   5.362
 4968SOL     OW15802   0.564   1.099   3.776
 4968SOL    HW115803   0.649   1.094   3.828
 4968SOL    HW215804   0.520   1.010   3.775
 4969SOL     OW15805   0.710   6.342   2.127
 4969SOL    HW115806   0.619   6.301   2.139
 4969SOL    HW215807   0.747   6.366   2.217
 4970SOL     OW15808   1.674   1.239   1.621
 4970SOL    HW115809   1.603   1.227   1.552
 4970SOL    HW215810   1.735   1.313   1.594
 4971SOL     OW15811   6.827   5.926   2.992
 4971SOL    HW115812   6.730   5.950   2.995
 4971SOL    HW215813   6.863   5.924   3.085
 4972SOL     OW15814   1.795   4.240   1.398
 4972SOL    HW115815   1.873   4.179   1.380
 4972SOL    HW215816   1.745   4.255   1.313
 4973SOL     OW15817   7.019   0.847   0.898
 4973SOL    HW115818   0.006   0.854   0.997
 4973SOL    HW215819   0.044   0.769   0.863
 4974SOL     OW15820   3.884   4.251   6.300
 4974SOL    HW115821   3.794   4.285   6.327
 4974SOL    HW215822   3.873   4.170   6.242
 4975SOL     OW15823   5.770   3.486   0.299
 4975SOL    HW115824   5.843   3.420   0.315
 4975SOL    HW215825   5.683   3.438   0.292
 4976SOL     OW15826   0.945   0.153   4.472
 4976SOL    HW115827   1.029   0.108   4.442
 4976SOL    HW215828   0.877   0.084   4.494
 4977SOL     OW15829   2.816   5.274   6.187
 4977SOL    HW115830   2.782   5.181   6.176
 4977SOL    HW215831   2.847   5.309   6.098
 4978SOL     OW15832   5.037   4.414   5.529
 4978SOL    HW115833   5.120   4.465   5.507
 4978SOL    HW215834   4.989   4.392   5.444
 4979SOL     OW15835   1.834   0.172   6.678
 4979SOL    HW115836   1.765   0.134   6.740
 4979SOL    HW215837   1.899   0.101   6.653
 4980SOL     OW15838   6.639   3.854   3.241
 4980SOL    HW115839   6.586   3.937   3.256
 4980SOL    HW215840   6.616   3.815   3.152
 4981SOL     OW15841   3.390   4.927   1.927
 4981SOL    HW115842   3.313   4.866   1.907
 4981SOL    HW215843   3.475   4.886   1.892
 4982SOL     OW15844   4.660   1.425   6.835
 4982SOL    HW115845   4.603   1.343   6.828
 4982SOL    HW215846   4.625   1.495   6.772
 4983SOL     OW15847   6.586   5.235   3.960
 4983SOL    HW115848   6.616   5.170   4.030
 4983SOL    HW215849   6.571   5.188   3.873
 4984SOL     OW15850   4.890   4.519   3.257
 4984SOL    HW115851   4.915   4.589   3.324
 4984SOL    HW215852   4.810   4.469   3.290
 4985SOL     OW15853   5.761   5.948   2.582
 4985SOL    HW115854   5.808   5.959   2.669
 4985SOL    HW215855   5.828   5.923   2.511
 4986SOL     OW15856   0.333   4.760   1.929
 4986SOL    HW115857   0.415   4.817   1.940
 4986SOL    HW215858   0.283   4.788   1.847
 4987SOL     OW15859   0.923   0.035   2.490
 4987SOL    HW115860   0.926   0.022   2.391
 4987SOL    HW215861   0.828   0.048   2.519
 4988SOL     OW15862   5.840   0.486   3.823
 4988SOL    HW115863   5.855   0.389   3.839
 4988SOL    HW215864   5.925   0.536   3.838
 4989SOL     OW15865   5.240   1.039   2.232
 4989SOL    HW115866   5.191   1.103   2.173
 4989SOL    HW215867   5.270   1.088   2.315
 4990SOL     OW15868   4.183   1.469   6.506
 4990SOL    HW115869   4.206   1.382   6.550
 4990SOL    HW215870   4.123   1.522   6.565
 4991SOL     OW15871   0.866   6.133   4.640
 4991SOL    HW115872   0.856   6.063   4.711
 4991SOL    HW215873   0.819   6.103   4.557
 4992SOL     OW15874   6.831   0.654   3.641
 4992SOL    HW115875   6.738   0.616   3.649
 4992SOL    HW215876   6.889   0.589   3.594
 4993SOL     OW15877   4.557   6.446   5.341
 4993SOL    HW115878   4.582   6.534   5.382
 4993SOL    HW215879   4.502   6.394   5.405
 4994SOL     OW15880   2.852   5.333   5.524
 4994SOL    HW115881   2.942   5.337   5.567
 4994SOL    HW215882   2.796   5.263   5.569
 4995SOL     OW15883   0.591   0.634   4.497
 4995SOL    HW115884   0.508   0.626   4.442
 4995SOL    HW215885   0.610   0.548   4.544
 4996SOL     OW15886   0.056   1.958   4.226
 4996SOL    HW115887   0.076   2.021   4.151
 4996SOL    HW215888   0.050   2.008   4.312
 4997SOL     OW15889   3.477   2.205   1.362
 4997SOL    HW115890   3.450   2.296   1.394
 4997SOL    HW215891   3.445   2.191   1.268
 4998SOL     OW15892   1.351   3.182   3.350
 4998SOL    HW115893   1.296   3.122   3.408
 4998SOL    HW215894   1.415   3.234   3.408
 4999SOL     OW15895   1.066   3.300   5.120
 4999SOL    HW115896   1.061   3.292   5.220
 4999SOL    HW215897   1.029   3.388   5.092
 5000SOL     OW15898   3.206   5.939   3.230
 5000SOL    HW115899   3.245   6.020   3.187
 5000SOL    HW215900   3.125   5.964   3.282
 5001SOL     OW15901   0.683   5.369   2.749
 5001SOL    HW115902   0.671   5.400   2.844
 5001SOL    HW215903   0.627   5.289   2.733
 5002SOL     OW15904   0.728   4.891   2.612
 5002SOL    HW115905   0.663   4.847   2.675
 5002SOL    HW215906   0.800   4.827   2.588
 5003SOL     OW15907   4.023   5.736   3.401
 5003SOL    HW115908   4.098   5.674   3.425
 5003SOL    HW215909   4.001   5.725   3.304
 5004SOL     OW15910   3.468   5.966   6.285
 5004SOL    HW115911   3.371   5.986   6.297
 5004SOL    HW215912   3.482   5.923   6.196
 5005SOL     OW15913   2.657   3.225   6.650
 5005SOL    HW115914   2.660   3.126   6.632
 5005SOL    HW215915   2.694   3.274   6.571
 5006SOL     OW15916   5.502   1.595   2.070
 5006SOL    HW115917   5.573   1.558   2.131
 5006SOL    HW215918   5.440   1.653   2.123
 5007SOL     OW15919   6.341   0.401   0.872
 5007SOL    HW115920   6.295   0.437   0.953
 5007SOL    HW215921   6.328   0.465   0.796
 5008SOL     OW15922   6.443   6.604   1.794
 5008SOL    HW115923   6.462   6.692   1.751
 5008SOL    HW215924   6.497   6.533   1.749
 5009SOL     OW15925   0.980   3.015   0.660
 5009SOL    HW115926   1.041   2.977   0.730
 5009SOL    HW215927   0.898   3.052   0.704
 5010SOL     OW15928   3.725   2.623   0.268
 5010SOL    HW115929   3.676   2.685   0.328
 5010SOL    HW215930   3.783   2.563   0.322
 5011SOL     OW15931   1.735   3.508   0.202
 5011SOL    HW115932   1.659   3.467   0.253
 5011SOL    HW215933   1.748   3.602   0.232
 5012SOL     OW15934   5.608   2.477   5.388
 5012SOL    HW115935   5.517   2.435   5.385
 5012SOL    HW215936   5.607   2.556   5.449
 5013SOL     OW15937   6.241   0.503   5.646
 5013SOL    HW115938   6.248   0.515   5.547
 5013SOL    HW215939   6.322   0.539   5.691
 5014SOL     OW15940   6.623   4.504   0.358
 5014SOL    HW115941   6.536   4.550   0.374
 5014SOL    HW215942   6.672   4.493   0.445
 5015SOL     OW15943   5.490   0.501   4.797
 5015SOL    HW115944   5.466   0.484   4.892
 5015SOL    HW215945   5.458   0.591   4.770
 5016SOL     OW15946   0.918   3.071   4.979
 5016SOL    HW115947   0.982   3.040   4.909
 5016SOL    HW215948   0.951   3.156   5.019
 5017SOL     OW15949   0.701   2.888   0.992
 5017SOL    HW115950   0.793   2.854   1.011
 5017SOL    HW215951   0.665   2.934   1.073
 5018SOL     OW15952   0.407   5.352   1.984
 5018SOL    HW115953   0.426   5.421   2.054
 5018SOL    HW215954   0.469   5.275   1.996
 5019SOL     OW15955   1.783   5.577   5.350
 5019SOL    HW115956   1.821   5.556   5.440
 5019SOL    HW215957   1.827   5.660   5.315
 5020SOL     OW15958   0.339   6.989   4.889
 5020SOL    HW115959   0.397   7.017   4.812
 5020SOL    HW215960   0.381   6.913   4.937
 5021SOL     OW15961   1.497   0.243   1.228
 5021SOL    HW115962   1.485   0.144   1.228
 5021SOL    HW215963   1.580   0.267   1.178
 5022SOL     OW15964   0.337   2.601   1.519
 5022SOL    HW115965   0.253   2.627   1.566
 5022SOL    HW215966   0.408   2.670   1.535
 5023SOL     OW15967   0.236   3.941   1.629
 5023SOL    HW115968   0.282   3.925   1.541
 5023SOL    HW215969   0.140   3.914   1.622
 5024SOL     OW15970   5.233   4.216   0.889
 5024SOL    HW115971   5.157   4.171   0.843
 5024SOL    HW215972   5.261   4.162   0.969
 5025SOL     OW15973   4.192   1.564   4.153
 5025SOL    HW115974   4.174   1.467   4.138
 5025SOL    HW215975   4.189   1.585   4.251
 5026SOL     OW15976   6.416   5.470   4.934
 5026SOL    HW115977   6.502   5.452   4.887
 5026SOL    HW215978   6.340   5.449   4.873
 5027SOL     OW15979   5.291   0.747   1.006
 5027SOL    HW115980   5.338   0.830   0.974
 5027SOL    HW215981   5.348   0.701   1.074
 5028SOL     OW15982   0.288   1.710   3.026
 5028SOL    HW115983   0.287   1.763   3.111
 5028SOL    HW215984   0.381   1.702   2.992
 5029SOL     OW15985   6.720   3.105   2.382
 5029SOL    HW115986   6.690   3.131   2.473
 5029SOL    HW215987   6.707   3.181   2.319
 5030SOL     OW15988   6.878   5.547   6.108
 5030SOL    HW115989   6.928   5.601   6.176
 5030SOL    HW215990   6.811   5.489   6.153
 5031SOL     OW15991   0.025   1.372   5.039
 5031SOL    HW115992   0.094   1.416   4.981
 5031SOL    HW215993   0.057   1.372   5.134
 5032SOL     OW15994   3.283   2.362   6.340
 5032SOL    HW115995   3.210   2.430   6.337
 5032SOL    HW215996   3.311   2.338   6.247
 5033SOL     OW15997   1.978   1.338   0.295
 5033SOL    HW115998   2.066   1.378   0.268
 5033SOL    HW215999   1.984   1.238   0.294
 5034SOL     OW16000   4.717   6.913   4.126
 5034SOL    HW116001   4.768   6.972   4.189
 5034SOL    HW216002   4.620   6.935   4.131
 5035SOL     OW16003   0.268   4.260   5.558
 5035SOL    HW116004   0.289   4.343   5.506
 5035SOL    HW216005   0.309   4.267   5.649
 5036SOL     OW16006   6.820   4.593   5.791
 5036SOL    HW116007   6.768   4.517   5.828
 5036SOL    HW216008   6.899   4.559   5.740
 5037SOL     OW16009   4.487   4.319   1.450
 5037SOL    HW116010   4.544   4.262   1.391
 5037SOL    HW216011   4.452   4.397   1.398
 5038SOL     OW16012   3.686   3.540   4.286
 5038SOL    HW116013   3.776   3.566   4.253
 5038SOL    HW216014   3.618   3.605   4.254
 5039SOL     OW16015   1.911   3.482   6.052
 5039SOL    HW116016   1.979   3.481   6.125
 5039SOL    HW216017   1.918   3.397   5.999
 5040SOL     OW16018   1.170   5.579   5.734
 5040SOL    HW116019   1.181   5.677   5.751
 5040SOL    HW216020   1.226   5.552   5.655
 5041SOL     OW16021   1.056   2.879   2.206
 5041SOL    HW116022   0.977   2.835   2.164
 5041SOL    HW216023   1.035   2.975   2.225
 5042SOL     OW16024   6.641   3.700   6.823
 5042SOL    HW116025   6.606   3.608   6.842
 5042SOL    HW216026   6.740   3.701   6.835
 5043SOL     OW16027   4.405   0.889   0.178
 5043SOL    HW116028   4.430   0.888   0.275
 5043SOL    HW216029   4.359   0.804   0.154
 5044SOL     OW16030   0.086   6.220   1.504
 5044SOL    HW116031   0.000   6.264   1.477
 5044SOL    HW216032   0.073   6.175   1.593
 5045SOL     OW16033   6.127   4.990   5.750
 5045SOL    HW116034   6.061   5.058   5.782
 5045SOL    HW216035   6.218   5.030   5.749
 5046SOL     OW16036   3.927   3.899   3.746
 5046SOL    HW116037   3.953   3.912   3.842
 5046SOL    HW216038   3.953   3.807   3.717
 5047SOL     OW16039   2.114   3.571   2.906
 5047SOL    HW116040   2.119   3.546   3.003
 5047SOL    HW216041   2.149   3.664   2.894
 5048SOL     OW16042   1.485   0.920   5.200
 5048SOL    HW116043   1.409   0.855   5.210
 5048SOL    HW216044   1.464   0.985   5.127
 5049SOL     OW16045   5.730   1.169   6.252
 5049SOL    HW116046   5.679   1.154   6.337
 5049SOL    HW216047   5.790   1.249   6.263
 5050SOL     OW16048   1.575   1.715   6.843
 5050SOL    HW116049   1.489   1.697   6.890
 5050SOL    HW216050   1.650   1.668   6.889
 5051SOL     OW16051   4.376   4.549   1.335
 5051SOL    HW116052   4.367   4.612   1.258
 5051SOL    HW216053   4.300   4.562   1.399
 5052SOL     OW16054   3.778   2.261   6.259
 5052SOL    HW116055   3.706   2.208   6.304
 5052SOL    HW216056   3.851   2.199   6.230
 5053SOL     OW16057   0.985   5.186   3.106
 5053SOL    HW116058   1.042   5.268   3.104
 5053SOL    HW216059   0.952   5.171   3.199
 5054SOL     OW16060   3.893   4.771   5.880
 5054SOL    HW116061   3.888   4.678   5.845
 5054SOL    HW216062   3.954   4.825   5.822
 5055SOL     OW16063   0.989   2.714   6.078
 5055SOL    HW116064   1.084   2.685   6.070
 5055SOL    HW216065   0.929   2.645   6.038
 5056SOL     OW16066   5.204   3.973   5.552
 5056SOL    HW116067   5.136   3.914   5.509
 5056SOL    HW216068   5.162   4.061   5.576
 5057SOL     OW16069   0.755   0.040   2.169
 5057SOL    HW116070   0.819   6.996   2.196
 5057SOL    HW216071   0.758   0.115   2.235
 5058SOL     OW16072   3.391   4.669   6.654
 5058SOL    HW116073   3.407   4.669   6.555
 5058SOL    HW216074   3.451   4.602   6.698
 5059SOL     OW16075   0.037   0.125   3.533
 5059SOL    HW116076   0.016   0.044   3.588
 5059SOL    HW216077   0.113   0.104   3.471
 5060SOL     OW16078   6.948   2.043   6.588
 5060SOL    HW116079   7.026   1.985   6.564
 5060SOL    HW216080   6.874   1.985   6.624
 5061SOL     OW16081   4.485   2.152   7.004
 5061SOL    HW116082   4.456   2.060   6.977
 5061SOL    HW216083   4.574   2.172   6.962
 5062SOL     OW16084   0.320   0.202   2.132
 5062SOL    HW116085   0.346   0.107   2.142
 5062SOL    HW216086   0.358   0.256   2.207
 5063SOL     OW16087   0.286   6.674   1.580
 5063SOL    HW116088   0.377   6.683   1.620
 5063SOL    HW216089   0.217   6.679   1.652
 5064SOL     OW16090   4.767   2.965   0.157
 5064SOL    HW116091   4.712   3.048   0.152
 5064SOL    HW216092   4.834   2.964   0.083
 5065SOL     OW16093   3.088   0.345   5.561
 5065SOL    HW116094   3.171   0.391   5.529
 5065SOL    HW216095   3.099   0.246   5.550
 5066SOL     OW16096   5.368   3.764   1.894
 5066SOL    HW116097   5.466   3.745   1.896
 5066SOL    HW216098   5.321   3.707   1.962
 5067SOL     OW16099   5.603   1.203   0.158
 5067SOL    HW116100   5.702   1.206   0.171
 5067SOL    HW216101   5.562   1.284   0.199
 5068SOL     OW16102   2.856   4.169   1.160
 5068SOL    HW116103   2.947   4.171   1.201
 5068SOL    HW216104   2.857   4.222   1.075
 5069SOL     OW16105   1.299   4.293   2.684
 5069SOL    HW116106   1.230   4.245   2.630
 5069SOL    HW216107   1.265   4.308   2.777
 5070SOL     OW16108   4.936   3.626   4.044
 5070SOL    HW116109   4.895   3.542   4.080
 5070SOL    HW216110   5.022   3.605   3.997
 5071SOL     OW16111   4.347   2.335   4.810
 5071SOL    HW116112   4.346   2.236   4.823
 5071SOL    HW216113   4.308   2.379   4.891
 5072SOL     OW16114   0.735   5.482   0.581
 5072SOL    HW116115   0.700   5.550   0.517
 5072SOL    HW216116   0.796   5.419   0.532
 5073SOL     OW16117   6.730   6.394   2.662
 5073SOL    HW116118   6.713   6.299   2.687
 5073SOL    HW216119   6.799   6.398   2.590
 5074SOL     OW16120   3.119   3.929   7.003
 5074SOL    HW116121   3.200   3.975   0.013
 5074SOL    HW216122   3.121   3.933   6.904
 5075SOL     OW16123   0.221   0.895   5.699
 5075SOL    HW116124   0.159   0.817   5.690
 5075SOL    HW216125   0.252   0.902   5.794
 5076SOL     OW16126   3.503   0.959   0.895
 5076SOL    HW116127   3.537   1.042   0.939
 5076SOL    HW216128   3.403   0.956   0.901
 5077SOL     OW16129   1.497   2.175   3.747
 5077SOL    HW116130   1.534   2.268   3.740
 5077SOL    HW216131   1.572   2.109   3.747
 5078SOL     OW16132   1.273   2.173   3.455
 5078SOL    HW116133   1.291   2.090   3.508
 5078SOL    HW216134   1.328   2.173   3.372
 5079SOL     OW16135   2.652   5.438   5.988
 5079SOL    HW116136   2.710   5.359   5.971
 5079SOL    HW216137   2.709   5.517   6.011
 5080SOL     OW16138   5.671   6.455   5.004
 5080SOL    HW116139   5.753   6.449   5.061
 5080SOL    HW216140   5.614   6.531   5.036
 5081SOL     OW16141   3.150   3.730   2.776
 5081SOL    HW116142   3.101   3.655   2.731
 5081SOL    HW216143   3.213   3.691   2.844
 5082SOL     OW16144   6.117   6.650   5.509
 5082SOL    HW116145   6.170   6.727   5.474
 5082SOL    HW216146   6.112   6.655   5.608
 5083SOL     OW16147   1.481   6.753   2.185
 5083SOL    HW116148   1.536   6.836   2.193
 5083SOL    HW216149   1.503   6.706   2.100
 5084SOL     OW16150   1.176   4.396   4.284
 5084SOL    HW116151   1.236   4.439   4.352
 5084SOL    HW216152   1.122   4.324   4.328
 5085SOL     OW16153   5.612   1.377   6.730
 5085SOL    HW116154   5.657   1.318   6.797
 5085SOL    HW216155   5.517   1.392   6.758
 5086SOL     OW16156   6.301   4.887   4.260
 5086SOL    HW116157   6.367   4.961   4.261
 5086SOL    HW216158   6.234   4.903   4.187
 5087SOL     OW16159   6.750   6.222   4.214
 5087SOL    HW116160   6.781   6.316   4.225
 5087SOL    HW216161   6.661   6.211   4.259
 5088SOL     OW16162   6.333   1.104   6.232
 5088SOL    HW116163   6.254   1.133   6.179
 5088SOL    HW216164   6.382   1.184   6.266
 5089SOL     OW16165   6.529   3.721   3.009
 5089SOL    HW116166   6.582   3.726   2.924
 5089SOL    HW216167   6.455   3.788   3.006
 5090SOL     OW16168   2.255   4.651   1.282
 5090SOL    HW116169   2.269   4.654   1.381
 5090SOL    HW216170   2.177   4.593   1.261
 5091SOL     OW16171   1.270   6.112   2.668
 5091SOL    HW116172   1.303   6.168   2.592
 5091SOL    HW216173   1.207   6.043   2.634
 5092SOL     OW16174   3.563   2.543   1.707
 5092SOL    HW116175   3.480   2.489   1.720
 5092SOL    HW216176   3.627   2.526   1.782
 5093SOL     OW16177   0.936   2.518   1.773
 5093SOL    HW116178   1.006   2.447   1.770
 5093SOL    HW216179   0.965   2.592   1.833
 5094SOL     OW16180   1.098   0.019   6.010
 5094SOL    HW116181   1.060   7.013   6.097
 5094SOL    HW216182   1.029   0.070   5.960
 5095SOL     OW16183   1.495   0.714   4.686
 5095SOL    HW116184   1.429   0.641   4.666
 5095SOL    HW216185   1.587   0.677   4.680
 5096SOL     OW16186   4.767   3.224   0.767
 5096SOL    HW116187   4.815   3.192   0.685
 5096SOL    HW216188   4.830   3.223   0.845
 5097SOL     OW16189   1.669   0.776   6.106
 5097SOL    HW116190   1.715   0.765   6.194
 5097SOL    HW216191   1.737   0.792   6.034
 5098SOL     OW16192   0.988   0.992   1.638
 5098SOL    HW116193   1.040   1.061   1.587
 5098SOL    HW216194   0.952   1.032   1.722
 5099SOL     OW16195   1.316   0.577   5.424
 5099SOL    HW116196   1.238   0.539   5.375
 5099SOL    HW216197   1.297   0.575   5.522
 5100SOL     OW16198   4.969   0.128   6.291
 5100SOL    HW116199   5.056   0.178   6.293
 5100SOL    HW216200   4.978   0.043   6.343
 5101SOL     OW16201   4.719   6.535   0.028
 5101SOL    HW116202   4.781   6.601   0.072
 5101SOL    HW216203   4.773   6.464   7.009
 5102SOL     OW16204   5.402   0.821   5.843
 5102SOL    HW116205   5.467   0.889   5.809
 5102SOL    HW216206   5.322   0.867   5.881
 5103SOL     OW16207   0.224   0.634   4.127
 5103SOL    HW116208   0.164   0.618   4.049
 5103SOL    HW216209   0.201   0.722   4.170
 5104SOL     OW16210   1.678   0.496   1.493
 5104SOL    HW116211   1.684   0.555   1.412
 5104SOL    HW216212   1.656   0.552   1.573
 5105SOL     OW16213   4.439   4.251   6.547
 5105SOL    HW116214   4.491   4.219   6.468
 5105SOL    HW216215   4.365   4.311   6.516
 5106SOL     OW16216   3.691   0.350   2.523
 5106SOL    HW116217   3.687   0.338   2.622
 5106SOL    HW216218   3.704   0.261   2.479
 5107SOL     OW16219   2.628   0.639   0.077
 5107SOL    HW116220   2.607   0.699   0.154
 5107SOL    HW216221   2.553   0.642   0.011
 5108SOL     OW16222   2.918   3.645   4.112
 5108SOL    HW116223   2.913   3.612   4.017
 5108SOL    HW216224   2.889   3.740   4.116
 5109SOL     OW16225   0.379   1.516   1.257
 5109SOL    HW116226   0.470   1.494   1.291
 5109SOL    HW216227   0.384   1.596   1.197
 5110SOL     OW16228   2.042   6.470   6.048
 5110SOL    HW116229   2.048   6.502   5.954
 5110SOL    HW216230   2.110   6.398   6.063
 5111SOL     OW16231   1.094   1.098   6.149
 5111SOL    HW116232   1.129   1.164   6.083
 5111SOL    HW216233   1.019   1.138   6.200
 5112SOL     OW16234   0.283   6.548   3.560
 5112SOL    HW116235   0.212   6.504   3.614
 5112SOL    HW216236   0.344   6.478   3.523
 5113SOL     OW16237   0.721   0.611   0.566
 5113SOL    HW116238   0.706   0.710   0.566
 5113SOL    HW216239   0.735   0.580   0.472
 5114SOL     OW16240   3.348   4.450   0.449
 5114SOL    HW116241   3.422   4.399   0.405
 5114SOL    HW216242   3.386   4.533   0.491
 5115SOL     OW16243   1.579   4.093   6.510
 5115SOL    HW116244   1.656   4.028   6.509
 5115SOL    HW216245   1.534   4.091   6.421
 5116SOL     OW16246   4.882   4.862   6.569
 5116SOL    HW116247   4.908   4.854   6.665
 5116SOL    HW216248   4.964   4.855   6.512
 5117SOL     OW16249   2.632   4.888   3.868
 5117SOL    HW116250   2.568   4.854   3.799
 5117SOL    HW216251   2.659   4.813   3.928
 5118SOL     OW16252   4.709   6.298   0.474
 5118SOL    HW116253   4.740   6.317   0.567
 5118SOL    HW216254   4.622   6.343   0.458
 5119SOL     OW16255   5.468   0.907   1.788
 5119SOL    HW116256   5.506   0.970   1.857
 5119SOL    HW216257   5.468   0.952   1.699
 5120SOL     OW16258   6.033   0.979   3.184
 5120SOL    HW116259   5.995   0.945   3.098
 5120SOL    HW216260   6.133   0.986   3.176
 5121SOL     OW16261   0.246   3.477   5.781
 5121SOL    HW116262   0.264   3.574   5.795
 5121SOL    HW216263   0.210   3.437   5.866
 5122SOL     OW16264   2.564   0.658   3.125
 5122SOL    HW116265   2.465   0.672   3.133
 5122SOL    HW216266   2.587   0.640   3.029
 5123SOL     OW16267   5.287   3.917   3.581
 5123SOL    HW116268   5.288   3.939   3.483
 5123SOL    HW216269   5.381   3.915   3.615
 5124SOL     OW16270   2.830   6.389   6.622
 5124SOL    HW116271   2.813   6.299   6.582
 5124SOL    HW216272   2.749   6.420   6.672
 5125SOL     OW16273   0.128   3.936   3.978
 5125SOL    HW116274   0.150   3.840   3.967
 5125SOL    HW216275   0.200   3.992   3.938
 5126SOL     OW16276   5.996   5.071   6.572
 5126SOL    HW116277   6.087   5.064   6.530
 5126SOL    HW216278   5.928   5.028   6.512
 5127SOL     OW16279   5.753   3.796   0.111
 5127SOL    HW116280   5.841   3.838   0.091
 5127SOL    HW216281   5.739   3.791   0.210
 5128SOL     OW16282   1.312   0.635   6.804
 5128SOL    HW116283   1.399   0.628   6.756
 5128SOL    HW216284   1.314   0.579   6.887
 5129SOL     OW16285   5.281   0.139   2.184
 5129SOL    HW116286   5.182   0.153   2.177
 5129SOL    HW216287   5.318   0.115   2.094
 5130SOL     OW16288   1.107   5.304   4.714
 5130SOL    HW116289   1.106   5.320   4.615
 5130SOL    HW216290   1.122   5.207   4.732
 5131SOL     OW16291   3.439   4.892   3.454
 5131SOL    HW116292   3.344   4.876   3.430
 5131SOL    HW216293   3.489   4.926   3.374
 5132SOL     OW16294   3.319   1.581   6.488
 5132SOL    HW116295   3.292   1.535   6.572
 5132SOL    HW216296   3.250   1.650   6.464
 5133SOL     OW16297   3.783   5.839   6.670
 5133SOL    HW116298   3.715   5.843   6.742
 5133SOL    HW216299   3.875   5.850   6.709
 5134SOL     OW16300   6.363   6.777   1.376
 5134SOL    HW116301   6.276   6.733   1.352
 5134SOL    HW216302   6.359   6.810   1.470
 5135SOL     OW16303   6.453   3.508   2.441
 5135SOL    HW116304   6.436   3.420   2.396
 5135SOL    HW216305   6.520   3.560   2.389
 5136SOL     OW16306   0.654   0.640   6.278
 5136SOL    HW116307   0.753   0.635   6.268
 5136SOL    HW216308   0.615   0.548   6.275
 5137SOL     OW16309   5.125   2.295   5.242
 5137SOL    HW116310   5.052   2.295   5.173
 5137SOL    HW216311   5.092   2.252   5.326
 5138SOL     OW16312   3.737   3.982   4.191
 5138SOL    HW116313   3.818   3.925   4.207
 5138SOL    HW216314   3.741   4.063   4.250
 5139SOL     OW16315   1.570   6.969   5.383
 5139SOL    HW116316   1.481   7.013   5.392
 5139SOL    HW216317   1.566   6.899   5.312
 5140SOL     OW16318   4.186   1.924   5.768
 5140SOL    HW116319   4.190   1.860   5.691
 5140SOL    HW216320   4.271   1.976   5.773
 5141SOL     OW16321   6.990   2.876   2.066
 5141SOL    HW116322   0.022   2.936   2.120
 5141SOL    HW216323   6.896   2.908   2.070
 5142SOL     OW16324   0.073   6.739   3.450
 5142SOL    HW116325   0.134   6.666   3.480
 5142SOL    HW216326   0.069   6.810   3.520
 5143SOL     OW16327   0.798   4.743   4.337
 5143SOL    HW116328   0.738   4.757   4.415
 5143SOL    HW216329   0.866   4.817   4.334
 5144SOL     OW16330   1.847   3.362   6.731
 5144SOL    HW116331   1.938   3.390   6.700
 5144SOL    HW216332   1.818   3.422   6.806
 5145SOL     OW16333   3.006   6.598   6.556
 5145SOL    HW116334   2.930   6.535   6.572
 5145SOL    HW216335   3.041   6.631   6.644
 5146SOL     OW16336   4.371   4.701   5.549
 5146SOL    HW116337   4.348   4.742   5.637
 5146SOL    HW216338   4.464   4.666   5.551
 5147SOL     OW16339   5.081   3.243   3.190
 5147SOL    HW116340   5.017   3.234   3.266
 5147SOL    HW216341   5.146   3.167   3.192
 5148SOL     OW16342   0.552   1.047   1.726
 5148SOL    HW116343   0.606   1.070   1.807
 5148SOL    HW216344   0.455   1.043   1.751
 5149SOL     OW16345   5.878   4.386   3.681
 5149SOL    HW116346   5.945   4.375   3.608
 5149SOL    HW216347   5.914   4.348   3.766
 5150SOL     OW16348   1.351   4.549   4.016
 5150SOL    HW116349   1.407   4.479   4.060
 5150SOL    HW216350   1.355   4.633   4.068
 5151SOL     OW16351   5.704   4.864   2.182
 5151SOL    HW116352   5.786   4.889   2.131
 5151SOL    HW216353   5.725   4.788   2.243
 5152SOL     OW16354   1.420   0.413   6.287
 5152SOL    HW116355   1.412   0.496   6.232
 5152SOL    HW216356   1.492   0.355   6.249
 5153SOL     OW16357   1.424   1.680   0.625
 5153SOL    HW116358   1.468   1.627   0.698
 5153SOL    HW216359   1.334   1.710   0.655
 5154SOL     OW16360   0.944   2.910   6.531
 5154SOL    HW116361   0.974   2.910   6.436
 5154SOL    HW216362   0.941   2.816   6.565
 5155SOL     OW16363   1.970   1.835   0.508
 5155SOL    HW116364   2.025   1.885   0.441
 5155SOL    HW216365   1.893   1.790   0.462
 5156SOL     OW16366   5.530   5.209   5.636
 5156SOL    HW116367   5.484   5.172   5.717
 5156SOL    HW216368   5.569   5.298   5.658
 5157SOL     OW16369   3.764   0.946   2.140
 5157SOL    HW116370   3.817   0.966   2.058
 5157SOL    HW216371   3.724   1.030   2.176
 5158SOL     OW16372   3.939   1.074   2.504
 5158SOL    HW116373   4.031   1.113   2.497
 5158SOL    HW216374   3.875   1.143   2.537
 5159SOL     OW16375   5.677   3.861   6.461
 5159SOL    HW116376   5.768   3.903   6.457
 5159SOL    HW216377   5.631   3.873   6.374
 5160SOL     OW16378   0.327   6.071   3.263
 5160SOL    HW116379   0.343   6.063   3.165
 5160SOL    HW216380   0.233   6.098   3.280
 5161SOL     OW16381   0.422   3.046   0.206
 5161SOL    HW116382   0.411   2.950   0.179
 5161SOL    HW216383   0.503   3.084   0.162
 5162SOL     OW16384   0.055   6.343   2.718
 5162SOL    HW116385   0.001   6.315   2.797
 5162SOL    HW216386   7.022   6.386   2.651
 5163SOL     OW16387   3.404   6.167   1.517
 5163SOL    HW116388   3.307   6.182   1.531
 5163SOL    HW216389   3.436   6.221   1.440
 5164SOL     OW16390   3.012   3.670   1.269
 5164SOL    HW116391   3.001   3.667   1.169
 5164SOL    HW216392   2.926   3.644   1.313
 5165SOL     OW16393   1.595   5.118   0.053
 5165SOL    HW116394   1.528   5.076   7.019
 5165SOL    HW216395   1.687   5.095   0.023
 5166SOL     OW16396   1.977   5.454   1.589
 5166SOL    HW116397   1.968   5.367   1.539
 5166SOL    HW216398   2.069   5.460   1.628
 5167SOL     OW16399   5.324   3.135   5.366
 5167SOL    HW116400   5.307   3.234   5.370
 5167SOL    HW216401   5.245   3.090   5.325
 5168SOL     OW16402   4.340   2.005   2.123
 5168SOL    HW116403   4.336   1.949   2.040
 5168SOL    HW216404   4.250   2.046   2.140
 5169SOL     OW16405   3.888   0.658   4.236
 5169SOL    HW116406   3.897   0.717   4.156
 5169SOL    HW216407   3.970   0.602   4.246
 5170SOL     OW16408   1.495   3.813   6.421
 5170SOL    HW116409   1.508   3.714   6.420
 5170SOL    HW216410   1.531   3.850   6.507
 5171SOL     OW16411   1.802   5.856   5.618
 5171SOL    HW116412   1.738   5.797   5.666
 5171SOL    HW216413   1.887   5.862   5.671
 5172SOL     OW16414   0.809   5.047   3.841
 5172SOL    HW116415   0.841   4.952   3.837
 5172SOL    HW216416   0.736   5.055   3.908
 5173SOL     OW16417   4.579   3.773   5.969
 5173SOL    HW116418   4.542   3.797   5.879
 5173SOL    HW216419   4.540   3.686   5.999
 5174SOL     OW16420   1.987   6.807   3.387
 5174SOL    HW116421   1.894   6.834   3.361
 5174SOL    HW216422   2.052   6.877   3.356
 5175SOL     OW16423   2.804   4.274   0.164
 5175SOL    HW116424   2.880   4.285   0.229
 5175SOL    HW216425   2.828   4.206   0.095
 5176SOL     OW16426   5.582   5.383   6.785
 5176SOL    HW116427   5.610   5.386   6.880
 5176SOL    HW216428   5.640   5.318   6.735
 5177SOL     OW16429   4.894   0.711   0.885
 5177SOL    HW116430   4.892   0.810   0.872
 5177SOL    HW216431   4.899   0.690   0.983
 5178SOL     OW16432   0.949   3.519   1.806
 5178SOL    HW116433   0.890   3.600   1.809
 5178SOL    HW216434   1.004   3.521   1.722
 5179SOL     OW16435   5.857   4.661   3.414
 5179SOL    HW116436   5.944   4.619   3.390
 5179SOL    HW216437   5.835   4.732   3.347
 5180SOL     OW16438   2.854   7.003   1.366
 5180SOL    HW116439   2.883   0.072   1.357
 5180SOL    HW216440   2.850   6.978   1.462
 5181SOL     OW16441   0.315   0.665   6.610
 5181SOL    HW116442   0.391   0.601   6.595
 5181SOL    HW216443   0.341   0.756   6.578
 5182SOL     OW16444   4.409   5.044   3.026
 5182SOL    HW116445   4.485   4.990   3.062
 5182SOL    HW216446   4.416   5.139   3.059
 5183SOL     OW16447   4.183   1.801   3.721
 5183SOL    HW116448   4.146   1.888   3.689
 5183SOL    HW216449   4.283   1.804   3.715
 5184SOL     OW16450   2.137   1.549   4.154
 5184SOL    HW116451   2.080   1.473   4.124
 5184SOL    HW216452   2.132   1.623   4.086
 5185SOL     OW16453   5.460   0.639   1.797
 5185SOL    HW116454   5.456   0.739   1.794
 5185SOL    HW216455   5.493   0.604   1.710
 5186SOL     OW16456   6.987   2.925   5.963
 5186SOL    HW116457   0.035   2.983   5.995
 5186SOL    HW216458   6.957   2.956   5.873
 5187SOL     OW16459   2.321   4.693   5.078
 5187SOL    HW116460   2.259   4.655   5.009
 5187SOL    HW216461   2.395   4.628   5.095
 5188SOL     OW16462   6.468   6.888   1.786
 5188SOL    HW116463   6.393   6.839   1.832
 5188SOL    HW216464   6.431   6.938   1.708
 5189SOL     OW16465   5.949   0.555   6.090
 5189SOL    HW116466   5.942   0.476   6.030
 5189SOL    HW216467   5.861   0.574   6.132
 5190SOL     OW16468   1.734   2.972   1.656
 5190SOL    HW116469   1.695   2.982   1.747
 5190SOL    HW216470   1.833   2.961   1.664
 5191SOL     OW16471   3.016   5.836   2.197
 5191SOL    HW116472   2.973   5.795   2.278
 5191SOL    HW216473   2.968   5.920   2.173
 5192SOL     OW16474   2.251   5.506   1.636
 5192SOL    HW116475   2.295   5.416   1.637
 5192SOL    HW216476   2.253   5.545   1.728
 5193SOL     OW16477   5.415   0.458   6.920
 5193SOL    HW116478   5.377   0.395   6.988
 5193SOL    HW216479   5.490   0.414   6.872
 5194SOL     OW16480   4.240   1.706   0.024
 5194SOL    HW116481   4.155   1.676   0.068
 5194SOL    HW216482   4.274   1.633   6.991
 5195SOL     OW16483   0.481   0.859   4.209
 5195SOL    HW116484   0.405   0.873   4.273
 5195SOL    HW216485   0.490   0.761   4.190
 5196SOL     OW16486   4.538   0.085   3.505
 5196SOL    HW116487   4.536   0.119   3.599
 5196SOL    HW216488   4.445   0.073   3.473
 5197SOL     OW16489   1.360   4.265   5.892
 5197SOL    HW116490   1.443   4.305   5.854
 5197SOL    HW216491   1.371   4.165   5.896
 5198SOL     OW16492   5.289   5.820   3.019
 5198SOL    HW116493   5.325   5.736   2.978
 5198SOL    HW216494   5.328   5.831   3.111
 5199SOL     OW16495   6.746   5.256   1.608
 5199SOL    HW116496   6.753   5.352   1.578
 5199SOL    HW216497   6.806   5.199   1.551
 5200SOL     OW16498   0.115   4.022   5.701
 5200SOL    HW116499   0.032   3.967   5.708
 5200SOL    HW216500   0.098   4.112   5.741
 5201SOL     OW16501   1.720   5.939   3.769
 5201SOL    HW116502   1.779   6.018   3.785
 5201SOL    HW216503   1.678   5.911   3.856
 5202SOL     OW16504   6.592   3.427   6.848
 5202SOL    HW116505   6.643   3.387   6.771
 5202SOL    HW216506   6.599   3.367   6.927
 5203SOL     OW16507   0.317   2.715   6.838
 5203SOL    HW116508   0.373   2.794   6.859
 5203SOL    HW216509   0.284   2.673   6.923
 5204SOL     OW16510   4.573   5.007   0.265
 5204SOL    HW116511   4.489   5.006   0.211
 5204SOL    HW216512   4.620   5.095   0.251
 5205SOL     OW16513   1.473   0.765   2.002
 5205SOL    HW116514   1.460   0.770   2.101
 5205SOL    HW216515   1.413   0.694   1.964
 5206SOL     OW16516   0.250   4.314   6.759
 5206SOL    HW116517   0.207   4.355   6.840
 5206SOL    HW216518   0.261   4.383   6.688
 5207SOL     OW16519   2.035   5.354   4.369
 5207SOL    HW116520   2.033   5.440   4.421
 5207SOL    HW216521   2.023   5.374   4.272
 5208SOL     OW16522   4.108   0.606   0.335
 5208SOL    HW116523   4.009   0.616   0.323
 5208SOL    HW216524   4.139   0.666   0.409
 5209SOL     OW16525   6.030   6.019   3.568
 5209SOL    HW116526   6.007   6.080   3.492
 5209SOL    HW216527   6.117   6.047   3.608
 5210SOL     OW16528   4.911   3.865   4.168
 5210SOL    HW116529   4.887   3.933   4.099
 5210SOL    HW216530   4.934   3.779   4.124
 5211SOL     OW16531   3.183   3.613   3.604
 5211SOL    HW116532   3.255   3.560   3.560
 5211SOL    HW216533   3.095   3.566   3.591
 5212SOL     OW16534   0.543   2.358   0.366
 5212SOL    HW116535   0.472   2.427   0.382
 5212SOL    HW216536   0.499   2.271   0.343
 5213SOL     OW16537   4.994   2.616   5.633
 5213SOL    HW116538   5.002   2.670   5.549
 5213SOL    HW216539   4.980   2.520   5.609
 5214SOL     OW16540   5.553   1.753   5.148
 5214SOL    HW116541   5.529   1.837   5.100
 5214SOL    HW216542   5.640   1.765   5.195
 5215SOL     OW16543   5.481   4.676   3.627
 5215SOL    HW116544   5.547   4.751   3.637
 5215SOL    HW216545   5.530   4.590   3.611
 5216SOL     OW16546   5.276   4.587   1.612
 5216SOL    HW116547   5.178   4.609   1.615
 5216SOL    HW216548   5.298   4.525   1.688
 5217SOL     OW16549   3.401   5.390   3.992
 5217SOL    HW116550   3.301   5.394   3.994
 5217SOL    HW216551   3.433   5.318   4.054
 5218SOL     OW16552   1.891   6.762   3.953
 5218SOL    HW116553   1.937   6.705   4.020
 5218SOL    HW216554   1.866   6.850   3.995
 5219SOL     OW16555   3.464   0.261   6.531
 5219SOL    HW116556   3.471   0.189   6.600
 5219SOL    HW216557   3.533   0.331   6.549
 5220SOL     OW16558   1.142   5.659   1.954
 5220SOL    HW116559   1.216   5.699   2.009
 5220SOL    HW216560   1.181   5.591   1.892
 5221SOL     OW16561   5.364   1.318   4.561
 5221SOL    HW116562   5.330   1.412   4.560
 5221SOL    HW216563   5.417   1.300   4.478
 5222SOL     OW16564   2.387   0.576   4.007
 5222SOL    HW116565   2.356   0.487   4.039
 5222SOL    HW216566   2.417   0.631   4.085
 5223SOL     OW16567   4.853   0.198   1.262
 5223SOL    HW116568   4.800   0.208   1.177
 5223SOL    HW216569   4.950   0.189   1.240
 5224SOL     OW16570   6.913   2.407   2.475
 5224SOL    HW116571   7.000   2.447   2.506
 5224SOL    HW216572   6.931   2.342   2.401
 5225SOL     OW16573   6.844   0.352   3.674
 5225SOL    HW116574   6.796   0.271   3.640
 5225SOL    HW216575   6.942   0.341   3.659
 5226SOL     OW16576   1.116   6.348   4.400
 5226SOL    HW116577   1.023   6.382   4.383
 5226SOL    HW216578   1.132   6.345   4.499
 5227SOL     OW16579   6.865   5.079   3.597
 5227SOL    HW116580   6.851   4.983   3.574
 5227SOL    HW216581   6.881   5.131   3.513
 5228SOL     OW16582   5.756   1.943   0.711
 5228SOL    HW116583   5.676   1.897   0.673
 5228SOL    HW216584   5.727   2.006   0.784
 5229SOL     OW16585   0.743   4.566   6.571
 5229SOL    HW116586   0.725   4.598   6.664
 5229SOL    HW216587   0.837   4.590   6.545
 5230SOL     OW16588   0.056   0.846   1.168
 5230SOL    HW116589   0.134   0.907   1.152
 5230SOL    HW216590   7.009   0.897   1.212
 5231SOL     OW16591   3.871   2.992   4.313
 5231SOL    HW116592   3.776   2.972   4.291
 5231SOL    HW216593   3.883   2.995   4.412
 5232SOL     OW16594   4.370   1.794   6.537
 5232SOL    HW116595   4.434   1.820   6.465
 5232SOL    HW216596   4.374   1.861   6.611
 5233SOL     OW16597   6.202   6.547   1.685
 5233SOL    HW116598   6.291   6.576   1.720
 5233SOL    HW216599   6.213   6.463   1.631
 5234SOL     OW16600   3.330   0.781   0.771
 5234SOL    HW116601   3.417   0.831   0.770
 5234SOL    HW216602   3.313   0.747   0.864
 5235SOL     OW16603   1.362   3.146   0.738
 5235SOL    HW116604   1.290   3.080   0.760
 5235SOL    HW216605   1.402   3.181   0.822
 5236SOL     OW16606   5.699   2.951   1.442
 5236SOL    HW116607   5.655   2.865   1.415
 5236SOL    HW216608   5.631   3.024   1.444
 5237SOL     OW16609   2.695   2.221   5.591
 5237SOL    HW116610   2.695   2.194   5.494
 5237SOL    HW216611   2.683   2.320   5.598
 5238SOL     OW16612   1.170   5.208   0.469
 5238SOL    HW116613   1.227   5.290   0.466
 5238SOL    HW216614   1.168   5.165   0.379
 5239SOL     OW16615   2.991   3.501   4.313
 5239SOL    HW116616   2.961   3.548   4.230
 5239SOL    HW216617   2.989   3.402   4.298
 5240SOL     OW16618   2.961   2.402   5.362
 5240SOL    HW116619   2.918   2.315   5.340
 5240SOL    HW216620   3.043   2.415   5.306
 5241SOL     OW16621   0.689   5.867   6.746
 5241SOL    HW116622   0.643   5.953   6.728
 5241SOL    HW216623   0.736   5.836   6.662
 5242SOL     OW16624   6.233   1.552   5.605
 5242SOL    HW116625   6.197   1.524   5.695
 5242SOL    HW216626   6.292   1.480   5.569
 5243SOL     OW16627   1.106   6.027   0.973
 5243SOL    HW116628   1.152   5.997   0.890
 5243SOL    HW216629   1.167   6.012   1.052
 5244SOL     OW16630   3.934   4.087   5.696
 5244SOL    HW116631   3.877   4.162   5.730
 5244SOL    HW216632   4.017   4.081   5.751
 5245SOL     OW16633   4.144   4.110   5.886
 5245SOL    HW116634   4.119   4.205   5.905
 5245SOL    HW216635   4.237   4.107   5.850
 5246SOL     OW16636   0.176   3.991   2.887
 5246SOL    HW116637   0.129   3.907   2.858
 5246SOL    HW216638   0.275   3.974   2.889
 5247SOL     OW16639   0.367   5.680   0.324
 5247SOL    HW116640   0.349   5.755   0.260
 5247SOL    HW216641   0.418   5.714   0.403
 5248SOL     OW16642   5.251   0.643   5.681
 5248SOL    HW116643   5.303   0.714   5.730
 5248SOL    HW216644   5.167   0.682   5.645
 5249SOL     OW16645   1.007   5.282   4.129
 5249SOL    HW116646   1.046   5.201   4.173
 5249SOL    HW216647   0.910   5.266   4.110
 5250SOL     OW16648   0.478   1.492   6.144
 5250SOL    HW116649   0.418   1.414   6.152
 5250SOL    HW216650   0.427   1.570   6.108
 5251SOL     OW16651   6.927   3.322   1.088
 5251SOL    HW116652   6.990   3.365   1.153
 5251SOL    HW216653   6.972   3.315   0.999
 5252SOL     OW16654   2.466   6.198   1.017
 5252SOL    HW116655   2.385   6.161   0.970
 5252SOL    HW216656   2.461   6.298   1.018
 5253SOL     OW16657   5.845   3.383   4.511
 5253SOL    HW116658   5.886   3.363   4.422
 5253SOL    HW216659   5.892   3.462   4.551
 5254SOL     OW16660   4.669   1.191   3.778
 5254SOL    HW116661   4.707   1.203   3.870
 5254SOL    HW216662   4.605   1.114   3.779
 5255SOL     OW16663   3.599   0.513   4.690
 5255SOL    HW116664   3.644   0.566   4.619
 5255SOL    HW216665   3.515   0.472   4.653
 5256SOL     OW16666   4.893   1.563   3.259
 5256SOL    HW116667   4.882   1.613   3.173
 5256SOL    HW216668   4.804   1.526   3.287
 5257SOL     OW16669   4.114   6.718   1.372
 5257SOL    HW116670   4.022   6.680   1.372
 5257SOL    HW216671   4.112   6.810   1.412
 5258SOL     OW16672   5.008   3.792   1.870
 5258SOL    HW116673   4.942   3.724   1.839
 5258SOL    HW216674   4.965   3.852   1.937
 5259SOL     OW16675   4.897   6.166   2.259
 5259SOL    HW116676   4.916   6.155   2.162
 5259SOL    HW216677   4.835   6.093   2.289
 5260SOL     OW16678   5.357   3.386   0.864
 5260SOL    HW116679   5.370   3.287   0.863
 5260SOL    HW216680   5.324   3.415   0.954
 5261SOL     OW16681   0.322   2.017   5.214
 5261SOL    HW116682   0.419   2.022   5.237
 5261SOL    HW216683   0.280   1.941   5.263
 5262SOL     OW16684   2.864   6.840   2.508
 5262SOL    HW116685   2.862   6.874   2.413
 5262SOL    HW216686   2.868   6.917   2.571
 5263SOL     OW16687   1.836   0.371   6.290
 5263SOL    HW116688   1.750   0.340   6.248
 5263SOL    HW216689   1.818   0.406   6.382
 5264SOL     OW16690   6.364   1.732   1.394
 5264SOL    HW116691   6.430   1.783   1.449
 5264SOL    HW216692   6.383   1.634   1.399
 5265SOL     OW16693   5.361   3.954   2.386
 5265SOL    HW116694   5.398   4.046   2.375
 5265SOL    HW216695   5.298   3.934   2.312
 5266SOL     OW16696   2.393   6.475   1.747
 5266SOL    HW116697   2.340   6.560   1.751
 5266SOL    HW216698   2.429   6.454   1.838
 5267SOL     OW16699   4.731   4.979   6.052
 5267SOL    HW116700   4.712   4.976   5.954
 5267SOL    HW216701   4.657   5.028   6.099
 5268SOL     OW16702   6.657   5.777   5.336
 5268SOL    HW116703   6.574   5.812   5.293
 5268SOL    HW216704   6.699   5.708   5.276
 5269SOL     OW16705   2.141   5.393   3.887
 5269SOL    HW116706   2.119   5.482   3.847
 5269SOL    HW216707   2.222   5.355   3.842
 5270SOL     OW16708   5.335   2.247   1.078
 5270SOL    HW116709   5.315   2.325   1.138
 5270SOL    HW216710   5.324   2.162   1.130
 5271SOL     OW16711   4.142   5.102   5.389
 5271SOL    HW116712   4.097   5.153   5.462
 5271SOL    HW216713   4.081   5.028   5.358
 5272SOL     OW16714   0.999   5.626   4.874
 5272SOL    HW116715   1.018   5.645   4.970
 5272SOL    HW216716   0.975   5.529   4.863
 5273SOL     OW16717   0.769   2.165   3.871
 5273SOL    HW116718   0.721   2.085   3.837
 5273SOL    HW216719   0.830   2.200   3.800
 5274SOL     OW16720   6.609   5.061   3.750
 5274SOL    HW116721   6.703   5.092   3.737
 5274SOL    HW216722   6.606   4.961   3.749
 5275SOL     OW16723   3.400   0.169   6.287
 5275SOL    HW116724   3.448   0.196   6.370
 5275SOL    HW216725   3.312   0.128   6.311
 5276SOL     OW16726   0.061   6.880   0.786
 5276SOL    HW116727   7.022   6.954   0.773
 5276SOL    HW216728   0.082   6.872   0.883
 5277SOL     OW16729   1.632   2.036   3.497
 5277SOL    HW116730   1.624   1.936   3.498
 5277SOL    HW216731   1.631   2.069   3.403
 5278SOL     OW16732   6.154   6.409   6.230
 5278SOL    HW116733   6.117   6.419   6.138
 5278SOL    HW216734   6.198   6.495   6.258
 5279SOL     OW16735   1.365   5.497   6.274
 5279SOL    HW116736   1.459   5.462   6.265
 5279SOL    HW216737   1.369   5.593   6.302
 5280SOL     OW16738   3.866   6.199   5.039
 5280SOL    HW116739   3.883   6.212   4.941
 5280SOL    HW216740   3.842   6.103   5.055
 5281SOL     OW16741   1.176   0.370   4.749
 5281SOL    HW116742   1.205   0.421   4.668
 5281SOL    HW216743   1.249   0.307   4.776
 5282SOL     OW16744   2.199   0.221   2.533
 5282SOL    HW116745   2.177   0.188   2.441
 5282SOL    HW216746   2.230   0.145   2.590
 5283SOL     OW16747   1.347   0.637   3.863
 5283SOL    HW116748   1.257   0.664   3.828
 5283SOL    HW216749   1.392   0.716   3.904
 5284SOL     OW16750   4.951   2.333   2.675
 5284SOL    HW116751   4.911   2.247   2.708
 5284SOL    HW216752   4.929   2.344   2.578
 5285SOL     OW16753   0.632   3.042   3.411
 5285SOL    HW116754   0.603   2.952   3.444
 5285SOL    HW216755   0.640   3.105   3.489
 5286SOL     OW16756   6.374   3.968   0.814
 5286SOL    HW116757   6.290   3.949   0.763
 5286SOL    HW216758   6.453   3.936   0.762
 5287SOL     OW16759   3.244   5.355   2.150
 5287SOL    HW116760   3.154   5.363   2.106
 5287SOL    HW216761   3.269   5.443   2.190
 5288SOL     OW16762   4.746   0.241   2.111
 5288SOL    HW116763   4.702   0.198   2.032
 5288SOL    HW216764   4.736   0.340   2.105
 5289SOL     OW16765   2.131   5.208   6.978
 5289SOL    HW116766   2.176   5.122   7.001
 5289SOL    HW216767   2.156   5.235   6.886
 5290SOL     OW16768   1.898   4.310   5.391
 5290SOL    HW116769   1.803   4.289   5.414
 5290SOL    HW216770   1.910   4.307   5.291
 5291SOL     OW16771   2.673   4.503   5.727
 5291SOL    HW116772   2.621   4.526   5.809
 5291SOL    HW216773   2.760   4.553   5.728
 5292SOL     OW16774   6.261   4.172   6.232
 5292SOL    HW116775   6.192   4.224   6.181
 5292SOL    HW216776   6.244   4.074   6.222
 5293SOL     OW16777   2.100   5.629   4.763
 5293SOL    HW116778   2.165   5.699   4.734
 5293SOL    HW216779   2.149   5.557   4.812
 5294SOL     OW16780   4.412   1.053   5.715
 5294SOL    HW116781   4.430   0.960   5.684
 5294SOL    HW216782   4.359   1.101   5.645
 5295SOL     OW16783   3.962   0.977   3.387
 5295SOL    HW116784   4.046   0.932   3.357
 5295SOL    HW216785   3.971   1.003   3.483
 5296SOL     OW16786   3.895   3.892   0.264
 5296SOL    HW116787   3.878   3.805   0.310
 5296SOL    HW216788   3.969   3.940   0.310
 5297SOL     OW16789   2.295   3.194   0.813
 5297SOL    HW116790   2.371   3.237   0.764
 5297SOL    HW216791   2.264   3.255   0.886
 5298SOL     OW16792   2.420   6.123   6.927
 5298SOL    HW116793   2.348   6.170   6.977
 5298SOL    HW216794   2.432   6.030   6.964
 5299SOL     OW16795   3.278   2.424   0.779
 5299SOL    HW116796   3.239   2.476   0.855
 5299SOL    HW216797   3.208   2.363   0.741
 5300SOL     OW16798   0.744   5.062   0.815
 5300SOL    HW116799   0.745   5.081   0.913
 5300SOL    HW216800   0.815   5.116   0.770
 5301SOL     OW16801   4.394   0.491   6.616
 5301SOL    HW116802   4.375   0.398   6.649
 5301SOL    HW216803   4.482   0.491   6.568
 5302SOL     OW16804   5.120   6.469   3.952
 5302SOL    HW116805   5.174   6.394   3.913
 5302SOL    HW216806   5.116   6.459   4.052
 5303SOL     OW16807   0.330   5.274   5.429
 5303SOL    HW116808   0.416   5.326   5.431
 5303SOL    HW216809   0.280   5.289   5.514
 5304SOL     OW16810   6.199   0.884   0.761
 5304SOL    HW116811   6.101   0.875   0.776
 5304SOL    HW216812   6.226   0.980   0.770
 5305SOL     OW16813   1.473   5.213   2.666
 5305SOL    HW116814   1.427   5.232   2.580
 5305SOL    HW216815   1.493   5.299   2.713
 5306SOL     OW16816   0.191   4.510   5.827
 5306SOL    HW116817   0.262   4.443   5.808
 5306SOL    HW216818   0.198   4.586   5.762
 5307SOL     OW16819   4.755   1.968   0.303
 5307SOL    HW116820   4.704   2.046   0.340
 5307SOL    HW216821   4.781   1.907   0.378
 5308SOL     OW16822   1.144   4.858   2.242
 5308SOL    HW116823   1.061   4.836   2.191
 5308SOL    HW216824   1.145   4.806   2.328
 5309SOL     OW16825   3.375   5.701   2.310
 5309SOL    HW116826   3.475   5.705   2.305
 5309SOL    HW216827   3.337   5.790   2.285
 5310SOL     OW16828   6.453   3.824   2.705
 5310SOL    HW116829   6.475   3.727   2.701
 5310SOL    HW216830   6.533   3.876   2.735
 5311SOL     OW16831   5.619   0.094   6.903
 5311SOL    HW116832   5.595   0.158   6.830
 5311SOL    HW216833   5.717   0.101   6.923
 5312SOL     OW16834   0.330   5.959   1.984
 5312SOL    HW116835   0.377   5.930   1.900
 5312SOL    HW216836   0.397   5.967   2.058
 5313SOL     OW16837   0.632   4.261   5.770
 5313SOL    HW116838   0.619   4.162   5.764
 5313SOL    HW216839   0.668   4.296   5.684
 5314SOL     OW16840   4.409   0.006   0.674
 5314SOL    HW116841   4.344   0.081   0.683
 5314SOL    HW216842   4.411   7.002   0.579
 5315SOL     OW16843   4.721   2.680   2.978
 5315SOL    HW116844   4.712   2.693   2.879
 5315SOL    HW216845   4.760   2.763   3.019
 5316SOL     OW16846   1.223   3.955   5.656
 5316SOL    HW116847   1.126   3.934   5.639
 5316SOL    HW216848   1.230   4.040   5.707
 5317SOL     OW16849   6.408   1.705   5.823
 5317SOL    HW116850   6.324   1.755   5.800
 5317SOL    HW216851   6.487   1.762   5.802
 5318SOL     OW16852   0.394   2.785   0.422
 5318SOL    HW116853   0.456   2.846   0.471
 5318SOL    HW216854   0.402   2.802   0.323
 5319SOL     OW16855   4.592   6.109   1.173
 5319SOL    HW116856   4.605   6.014   1.203
 5319SOL    HW216857   4.606   6.114   1.074
 5320SOL     OW16858   4.141   5.421   1.334
 5320SOL    HW116859   4.200   5.484   1.285
 5320SOL    HW216860   4.194   5.371   1.402
 5321SOL     OW16861   2.374   4.441   4.827
 5321SOL    HW116862   2.314   4.382   4.881
 5321SOL    HW216863   2.350   4.436   4.731
 5322SOL     OW16864   5.375   6.761   0.249
 5322SOL    HW116865   5.314   6.802   0.181
 5322SOL    HW216866   5.464   6.743   0.208
 5323SOL     OW16867   4.137   1.332   5.727
 5323SOL    HW116868   4.074   1.304   5.799
 5323SOL    HW216869   4.151   1.256   5.663
 5324SOL     OW16870   3.135   2.396   0.249
 5324SOL    HW116871   3.176   2.441   0.328
 5324SOL    HW216872   3.088   2.463   0.192
 5325SOL     OW16873   3.195   1.098   4.840
 5325SOL    HW116874   3.097   1.120   4.841
 5325SOL    HW216875   3.238   1.145   4.763
 5326SOL     OW16876   6.844   5.547   3.357
 5326SOL    HW116877   6.863   5.450   3.371
 5326SOL    HW216878   6.928   5.593   3.328
 5327SOL     OW16879   5.973   2.337   5.030
 5327SOL    HW116880   5.959   2.323   4.932
 5327SOL    HW216881   5.913   2.410   5.062
 5328SOL     OW16882   3.127   3.805   6.102
 5328SOL    HW116883   3.098   3.834   6.011
 5328SOL    HW216884   3.215   3.758   6.096
 5329SOL     OW16885   0.565   5.279   6.598
 5329SOL    HW116886   0.640   5.336   6.629
 5329SOL    HW216887   0.480   5.331   6.599
 5330SOL     OW16888   3.720   4.324   6.833
 5330SOL    HW116889   3.716   4.224   6.830
 5330SOL    HW216890   3.800   4.355   6.781
 5331SOL     OW16891   5.888   2.150   6.345
 5331SOL    HW116892   5.921   2.219   6.280
 5331SOL    HW216893   5.966   2.108   6.391
 5332SOL     OW16894   1.116   3.383   1.446
 5332SOL    HW116895   1.193   3.378   1.509
 5332SOL    HW216896   1.045   3.318   1.474
 5333SOL     OW16897   0.941   1.121   2.926
 5333SOL    HW116898   1.002   1.109   2.847
 5333SOL    HW216899   0.969   1.202   2.977
 5334SOL     OW16900   2.992   0.794   4.492
 5334SOL    HW116901   2.944   0.754   4.571
 5334SOL    HW216902   3.021   0.721   4.430
 5335SOL     OW16903   0.122   6.005   0.970
 5335SOL    HW116904   0.142   6.051   0.884
 5335SOL    HW216905   0.061   6.061   1.025
 5336SOL     OW16906   2.105   3.470   2.383
 5336SOL    HW116907   2.101   3.372   2.365
 5336SOL    HW216908   2.127   3.487   2.479
 5337SOL     OW16909   5.161   4.004   1.151
 5337SOL    HW116910   5.166   3.915   1.105
 5337SOL    HW216911   5.113   3.994   1.238
 5338SOL     OW16912   5.865   1.255   0.105
 5338SOL    HW116913   5.944   1.197   0.120
 5338SOL    HW216914   5.812   1.220   0.028
 5339SOL     OW16915   6.928   1.193   3.741
 5339SOL    HW116916   6.967   1.269   3.793
 5339SOL    HW216917   6.844   1.161   3.785
 5340SOL     OW16918   5.596   4.007   0.770
 5340SOL    HW116919   5.548   4.027   0.856
 5340SOL    HW216920   5.560   4.067   0.698
 5341SOL     OW16921   3.745   2.567   6.637
 5341SOL    HW116922   3.789   2.479   6.620
 5341SOL    HW216923   3.728   2.577   6.735
 5342SOL     OW16924   3.790   0.818   4.620
 5342SOL    HW116925   3.696   0.807   4.653
 5342SOL    HW216926   3.813   0.915   4.616
 5343SOL     OW16927   3.310   3.787   4.046
 5343SOL    HW116928   3.278   3.713   3.988
 5343SOL    HW216929   3.236   3.852   4.062
 5344SOL     OW16930   2.061   2.274   2.501
 5344SOL    HW116931   2.132   2.330   2.458
 5344SOL    HW216932   1.977   2.327   2.509
 5345SOL     OW16933   4.136   6.485   1.633
 5345SOL    HW116934   4.071   6.473   1.558
 5345SOL    HW216935   4.196   6.562   1.612
 5346SOL     OW16936   3.059   6.377   3.738
 5346SOL    HW116937   3.124   6.404   3.809
 5346SOL    HW216938   2.977   6.338   3.780
 5347SOL     OW16939   0.071   2.382   1.799
 5347SOL    HW116940   0.001   2.319   1.834
 5347SOL    HW216941   0.061   2.470   1.844
 5348SOL     OW16942   0.924   1.395   0.410
 5348SOL    HW116943   0.981   1.419   0.332
 5348SOL    HW216944   0.958   1.311   0.453
 5349SOL     OW16945   1.056   2.426   0.248
 5349SOL    HW116946   0.980   2.489   0.264
 5349SOL    HW216947   1.077   2.423   0.150
 5350SOL     OW16948   2.267   0.368   6.066
 5350SOL    HW116949   2.361   0.396   6.045
 5350SOL    HW216950   2.212   0.449   6.085
 5351SOL     OW16951   5.109   5.627   1.968
 5351SOL    HW116952   5.131   5.636   2.065
 5351SOL    HW216953   5.041   5.555   1.956
 5352SOL     OW16954   1.796   5.843   4.448
 5352SOL    HW116955   1.828   5.937   4.438
 5352SOL    HW216956   1.756   5.812   4.362
 5353SOL     OW16957   3.144   5.883   4.731
 5353SOL    HW116958   3.135   5.870   4.830
 5353SOL    HW216959   3.157   5.794   4.687
 5354SOL     OW16960   1.492   5.056   2.045
 5354SOL    HW116961   1.472   5.120   2.118
 5354SOL    HW216962   1.489   5.104   1.957
 5355SOL     OW16963   4.876   2.525   3.864
 5355SOL    HW116964   4.942   2.504   3.935
 5355SOL    HW216965   4.862   2.444   3.806
 5356SOL     OW16966   5.919   4.365   1.904
 5356SOL    HW116967   5.998   4.393   1.850
 5356SOL    HW216968   5.938   4.278   1.949
 5357SOL     OW16969   3.282   0.430   0.751
 5357SOL    HW116970   3.361   0.487   0.773
 5357SOL    HW216971   3.210   0.444   0.820
 5358SOL     OW16972   4.042   1.828   0.810
 5358SOL    HW116973   4.113   1.836   0.740
 5358SOL    HW216974   4.026   1.918   0.851
 5359SOL     OW16975   1.846   1.978   6.882
 5359SOL    HW116976   1.886   2.018   6.965
 5359SOL    HW216977   1.767   2.031   6.854
 5360SOL     OW16978   4.014   6.882   4.734
 5360SOL    HW116979   3.944   6.812   4.748
 5360SOL    HW216980   4.101   6.850   4.772
 5361SOL     OW16981   2.218   6.892   4.567
 5361SOL    HW116982   2.255   6.851   4.650
 5361SOL    HW216983   2.144   6.955   4.592
 5362SOL     OW16984   5.093   4.217   3.805
 5362SOL    HW116985   5.015   4.194   3.862
 5362SOL    HW216986   5.119   4.312   3.820
 5363SOL     OW16987   0.816   5.883   6.355
 5363SOL    HW116988   0.871   5.836   6.424
 5363SOL    HW216989   0.814   5.828   6.272
 5364SOL     OW16990   6.831   5.847   1.454
 5364SOL    HW116991   6.766   5.920   1.473
 5364SOL    HW216992   6.819   5.815   1.360
 5365SOL     OW16993   3.778   3.119   6.991
 5365SOL    HW116994   3.856   3.056   6.998
 5365SOL    HW216995   3.718   3.107   0.043
 5366SOL     OW16996   5.168   5.028   1.984
 5366SOL    HW116997   5.252   4.983   1.953
 5366SOL    HW216998   5.091   4.994   1.930
 5367SOL     OW16999   0.222   5.431   0.682
 5367SOL    HW117000   0.186   5.342   0.710
 5367SOL    HW217001   0.312   5.445   0.723
 5368SOL     OW17002   5.186   1.159   3.163
 5368SOL    HW117003   5.230   1.159   3.253
 5368SOL    HW217004   5.108   1.222   3.164
 5369SOL     OW17005   2.923   6.205   3.520
 5369SOL    HW117006   2.841   6.225   3.572
 5369SOL    HW217007   2.903   6.205   3.422
 5370SOL     OW17008   3.965   3.175   1.611
 5370SOL    HW117009   3.875   3.173   1.654
 5370SOL    HW217010   3.991   3.081   1.586
 5371SOL     OW17011   1.697   3.413   3.764
 5371SOL    HW117012   1.658   3.468   3.691
 5371SOL    HW217013   1.700   3.317   3.736
 5372SOL     OW17014   1.975   5.528   2.851
 5372SOL    HW117015   1.943   5.478   2.931
 5372SOL    HW217016   2.048   5.591   2.878
 5373SOL     OW17017   3.042   4.954   4.051
 5373SOL    HW117018   2.966   4.998   4.004
 5373SOL    HW217019   3.007   4.884   4.113
 5374SOL     OW17020   1.091   3.862   6.624
 5374SOL    HW117021   1.070   3.767   6.601
 5374SOL    HW217022   1.123   3.867   6.719
 5375SOL     OW17023   1.501   4.617   5.044
 5375SOL    HW117024   1.547   4.568   4.969
 5375SOL    HW217025   1.426   4.560   5.079
 5376SOL     OW17026   1.752   2.768   1.151
 5376SOL    HW117027   1.770   2.829   1.227
 5376SOL    HW217028   1.681   2.702   1.177
 5377SOL     OW17029   6.722   0.137   1.652
 5377SOL    HW117030   6.625   0.147   1.633
 5377SOL    HW217031   6.738   0.053   1.704
 5378SOL     OW17032   6.807   0.313   1.249
 5378SOL    HW117033   6.751   0.386   1.209
 5378SOL    HW217034   6.790   0.309   1.347
 5379SOL     OW17035   0.870   5.379   4.852
 5379SOL    HW117036   0.950   5.336   4.808
 5379SOL    HW217037   0.824   5.312   4.910
 5380SOL     OW17038   2.131   1.336   3.209
 5380SOL    HW117039   2.105   1.264   3.274
 5380SOL    HW217040   2.223   1.369   3.231
 5381SOL     OW17041   6.552   4.084   0.603
 5381SOL    HW117042   6.573   4.158   0.539
 5381SOL    HW217043   6.511   4.008   0.554
 5382SOL     OW17044   3.029   0.241   1.805
 5382SOL    HW117045   3.037   0.341   1.798
 5382SOL    HW217046   3.035   0.201   1.714
 5383SOL     OW17047   2.571   2.403   5.194
 5383SOL    HW117048   2.591   2.332   5.262
 5383SOL    HW217049   2.614   2.489   5.223
 5384SOL     OW17050   6.149   0.500   4.077
 5384SOL    HW117051   6.075   0.507   4.144
 5384SOL    HW217052   6.121   0.546   3.992
 5385SOL     OW17053   2.899   3.503   2.989
 5385SOL    HW117054   2.869   3.596   3.012
 5385SOL    HW217055   2.933   3.502   2.895
 5386SOL     OW17056   4.508   6.989   4.368
 5386SOL    HW117057   4.497   7.014   4.272
 5386SOL    HW217058   4.604   6.967   4.386
 5387SOL     OW17059   2.502   5.739   3.454
 5387SOL    HW117060   2.528   5.672   3.523
 5387SOL    HW217061   2.403   5.744   3.448
 5388SOL     OW17062   5.319   6.891   3.328
 5388SOL    HW117063   5.340   6.958   3.257
 5388SOL    HW217064   5.228   6.909   3.365
 5389SOL     OW17065   5.217   0.855   1.692
 5389SOL    HW117066   5.310   0.849   1.659
 5389SOL    HW217067   5.215   0.912   1.774
 5390SOL     OW17068   4.299   4.660   3.919
 5390SOL    HW117069   4.341   4.750   3.918
 5390SOL    HW217070   4.202   4.669   3.942
 5391SOL     OW17071   1.991   2.322   0.467
 5391SOL    HW117072   2.080   2.354   0.435
 5391SOL    HW217073   1.996   2.299   0.564
 5392SOL     OW17074   5.947   3.421   1.007
 5392SOL    HW117075   5.977   3.341   0.955
 5392SOL    HW217076   5.987   3.503   0.968
 5393SOL     OW17077   6.048   6.504   6.724
 5393SOL    HW117078   6.017   6.574   6.789
 5393SOL    HW217079   5.968   6.467   6.676
 5394SOL     OW17080   6.859   3.872   6.452
 5394SOL    HW117081   6.816   3.851   6.540
 5394SOL    HW217082   6.795   3.852   6.378
 5395SOL     OW17083   4.886   0.875   1.882
 5395SOL    HW117084   4.838   0.896   1.797
 5395SOL    HW217085   4.977   0.915   1.880
 5396SOL     OW17086   5.321   3.760   2.815
 5396SOL    HW117087   5.268   3.839   2.784
 5396SOL    HW217088   5.311   3.751   2.915
 5397SOL     OW17089   6.684   2.666   1.736
 5397SOL    HW117090   6.620   2.689   1.662
 5397SOL    HW217091   6.639   2.683   1.824
 5398SOL     OW17092   3.469   1.671   2.142
 5398SOL    HW117093   3.403   1.644   2.072
 5398SOL    HW217094   3.554   1.702   2.099
 5399SOL     OW17095   2.222   6.396   0.296
 5399SOL    HW117096   2.197   6.301   0.312
 5399SOL    HW217097   2.292   6.401   0.224
 5400SOL     OW17098   2.860   3.739   0.619
 5400SOL    HW117099   2.815   3.731   0.708
 5400SOL    HW217100   2.810   3.804   0.562
 5401SOL     OW17101   5.714   3.361   1.476
 5401SOL    HW117102   5.704   3.433   1.545
 5401SOL    HW217103   5.652   3.285   1.498
 5402SOL     OW17104   2.326   5.611   1.873
 5402SOL    HW117105   2.288   5.652   1.956
 5402SOL    HW217106   2.412   5.566   1.894
 5403SOL     OW17107   5.920   3.194   6.392
 5403SOL    HW117108   5.970   3.230   6.313
 5403SOL    HW217109   5.887   3.269   6.449
 5404SOL     OW17110   0.927   1.523   3.415
 5404SOL    HW117111   0.974   1.572   3.342
 5404SOL    HW217112   0.843   1.570   3.439
 5405SOL     OW17113   6.262   5.388   0.521
 5405SOL    HW117114   6.328   5.396   0.446
 5405SOL    HW217115   6.180   5.441   0.499
 5406SOL     OW17116   2.196   1.639   6.535
 5406SOL    HW117117   2.232   1.698   6.607
 5406SOL    HW217118   2.139   1.568   6.576
 5407SOL     OW17119   4.474   3.175   0.851
 5407SOL    HW117120   4.571   3.200   0.855
 5407SOL    HW217121   4.466   3.075   0.845
 5408SOL     OW17122   2.900   1.436   6.267
 5408SOL    HW117123   2.920   1.529   6.239
 5408SOL    HW217124   2.851   1.388   6.194
 5409SOL     OW17125   5.187   0.565   3.675
 5409SOL    HW117126   5.251   0.596   3.744
 5409SOL    HW217127   5.238   0.529   3.596
 5410SOL     OW17128   2.782   2.435   1.654
 5410SOL    HW117129   2.866   2.431   1.709
 5410SOL    HW217130   2.740   2.345   1.649
 5411SOL     OW17131   6.507   5.448   5.485
 5411SOL    HW117132   6.531   5.441   5.389
 5411SOL    HW217133   6.414   5.415   5.499
 5412SOL     OW17134   5.220   1.696   0.466
 5412SOL    HW117135   5.233   1.695   0.566
 5412SOL    HW217136   5.306   1.724   0.422
 5413SOL     OW17137   3.099   1.891   1.363
 5413SOL    HW117138   3.042   1.923   1.288
 5413SOL    HW217139   3.044   1.835   1.426
 5414SOL     OW17140   5.243   2.060   4.631
 5414SOL    HW117141   5.265   1.968   4.597
 5414SOL    HW217142   5.303   2.083   4.707
 5415SOL     OW17143   0.962   5.784   1.363
 5415SOL    HW117144   0.955   5.780   1.462
 5415SOL    HW217145   0.876   5.754   1.322
 5416SOL     OW17146   4.962   5.338   5.968
 5416SOL    HW117147   5.012   5.251   5.966
 5416SOL    HW217148   4.914   5.347   6.055
 5417SOL     OW17149   3.885   6.934   5.253
 5417SOL    HW117150   3.803   6.890   5.216
 5417SOL    HW217151   3.863   0.002   5.277
 5418SOL     OW17152   3.444   6.651   3.853
 5418SOL    HW117153   3.355   6.695   3.842
 5418SOL    HW217154   3.454   6.577   3.787
 5419SOL     OW17155   3.991   5.311   0.537
 5419SOL    HW117156   3.962   5.248   0.465
 5419SOL    HW217157   4.091   5.312   0.542
 5420SOL     OW17158   1.731   3.041   2.556
 5420SOL    HW117159   1.674   2.959   2.561
 5420SOL    HW217160   1.804   3.036   2.623
 5421SOL     OW17161   2.125   3.052   1.966
 5421SOL    HW117162   2.031   3.088   1.969
 5421SOL    HW217163   2.143   3.001   2.050
 5422SOL     OW17164   0.412   5.132   0.513
 5422SOL    HW117165   0.447   5.186   0.590
 5422SOL    HW217166   0.432   5.179   0.427
 5423SOL     OW17167   6.450   3.202   0.220
 5423SOL    HW117168   6.414   3.273   0.281
 5423SOL    HW217169   6.376   3.161   0.168
 5424SOL     OW17170   5.881   2.983   3.640
 5424SOL    HW117171   5.904   2.885   3.643
 5424SOL    HW217172   5.788   2.994   3.606
 5425SOL     OW17173   4.517   0.983   4.488
 5425SOL    HW117174   4.595   0.978   4.426
 5425SOL    HW217175   4.434   1.001   4.435
 5426SOL     OW17176   6.600   5.842   4.326
 5426SOL    HW117177   6.525   5.777   4.318
 5426SOL    HW217178   6.565   5.935   4.316
 5427SOL     OW17179   4.800   5.269   6.801
 5427SOL    HW117180   4.887   5.311   6.829
 5427SOL    HW217181   4.724   5.326   6.832
 5428SOL     OW17182   6.776   6.666   1.352
 5428SOL    HW117183   6.803   6.756   1.317
 5428SOL    HW217184   6.813   6.654   1.444
 5429SOL     OW17185   2.228   2.207   6.343
 5429SOL    HW117186   2.246   2.199   6.441
 5429SOL    HW217187   2.192   2.298   6.323
 5430SOL     OW17188   0.554   3.017   6.104
 5430SOL    HW117189   0.644   3.053   6.126
 5430SOL    HW217190   0.484   3.067   6.156
 5431SOL     OW17191   2.498   6.042   0.644
 5431SOL    HW117192   2.597   6.046   0.646
 5431SOL    HW217193   2.462   6.116   0.587
 5432SOL     OW17194   5.330   0.191   6.950
 5432SOL    HW117195   5.242   0.187   6.902
 5432SOL    HW217196   5.399   0.143   6.897
 5433SOL     OW17197   0.432   1.802   5.065
 5433SOL    HW117198   0.450   1.898   5.085
 5433SOL    HW217199   0.404   1.755   5.149
 5434SOL     OW17200   3.310   0.711   5.340
 5434SOL    HW117201   3.224   0.730   5.388
 5434SOL    HW217202   3.387   0.733   5.399
 5435SOL     OW17203   5.984   0.199   2.052
 5435SOL    HW117204   5.926   0.165   1.978
 5435SOL    HW217205   6.052   0.130   2.075
 5436SOL     OW17206   5.239   3.532   4.183
 5436SOL    HW117207   5.162   3.531   4.248
 5436SOL    HW217208   5.205   3.507   4.092
 5437SOL     OW17209   2.636   4.092   0.280
 5437SOL    HW117210   2.567   4.052   0.220
 5437SOL    HW217211   2.683   4.165   0.232
 5438SOL     OW17212   6.782   2.868   2.628
 5438SOL    HW117213   6.756   2.897   2.720
 5438SOL    HW217214   6.707   2.884   2.564
 5439SOL     OW17215   0.703   2.239   0.698
 5439SOL    HW117216   0.762   2.211   0.622
 5439SOL    HW217217   0.743   2.320   0.742
 5440SOL     OW17218   1.108   1.430   1.071
 5440SOL    HW117219   1.086   1.333   1.065
 5440SOL    HW217220   1.162   1.448   1.154
 5441SOL     OW17221   4.581   2.128   2.952
 5441SOL    HW117222   4.536   2.043   2.925
 5441SOL    HW217223   4.585   2.134   3.052
 5442SOL     OW17224   3.220   6.199   4.098
 5442SOL    HW117225   3.198   6.135   4.024
 5442SOL    HW217226   3.211   6.152   4.186
 5443SOL     OW17227   3.157   0.479   3.920
 5443SOL    HW117228   3.227   0.473   3.991
 5443SOL    HW217229   3.176   0.559   3.862
 5444SOL     OW17230   1.352   0.401   4.008
 5444SOL    HW117231   1.345   0.491   3.966
 5444SOL    HW217232   1.302   0.334   3.953
 5445SOL     OW17233   6.163   4.029   3.271
 5445SOL    HW117234   6.161   4.043   3.370
 5445SOL    HW217235   6.082   3.977   3.243
 5446SOL     OW17236   6.563   4.820   4.991
 5446SOL    HW117237   6.652   4.779   4.972
 5446SOL    HW217238   6.527   4.785   5.078
 5447SOL     OW17239   3.198   2.584   6.909
 5447SOL    HW117240   3.263   2.619   6.843
 5447SOL    HW217241   3.207   2.485   6.916
 5448SOL     OW17242   4.402   2.978   5.342
 5448SOL    HW117243   4.318   3.023   5.374
 5448SOL    HW217244   4.384   2.881   5.326
 5449SOL     OW17245   1.546   3.272   6.204
 5449SOL    HW117246   1.466   3.277   6.143
 5449SOL    HW217247   1.629   3.267   6.149
 5450SOL     OW17248   1.699   0.394   1.841
 5450SOL    HW117249   1.686   0.295   1.834
 5450SOL    HW217250   1.769   0.423   1.776
 5451SOL     OW17251   1.916   6.250   3.213
 5451SOL    HW117252   1.888   6.159   3.243
 5451SOL    HW217253   1.854   6.318   3.252
 5452SOL     OW17254   2.238   4.953   0.002
 5452SOL    HW117255   2.331   4.937   6.995
 5452SOL    HW217256   2.218   4.887   0.074
 5453SOL     OW17257   5.907   3.820   1.185
 5453SOL    HW117258   5.814   3.843   1.156
 5453SOL    HW217259   5.909   3.728   1.223
 5454SOL     OW17260   0.202   4.062   6.703
 5454SOL    HW117261   0.257   4.020   6.775
 5454SOL    HW217262   0.212   4.162   6.707
 5455SOL     OW17263   6.514   3.659   0.171
 5455SOL    HW117264   6.555   3.699   0.253
 5455SOL    HW217265   6.462   3.577   0.196
 5456SOL     OW17266   3.573   6.522   0.113
 5456SOL    HW117267   3.528   6.433   0.106
 5456SOL    HW217268   3.516   6.592   0.070
 5457SOL     OW17269   5.510   2.338   0.341
 5457SOL    HW117270   5.583   2.329   0.409
 5457SOL    HW217271   5.422   2.320   0.385
 5458SOL     OW17272   0.118   4.451   6.974
 5458SOL    HW117273   0.142   4.548   6.980
 5458SOL    HW217274   0.140   4.406   0.034
 5459SOL     OW17275   2.113   4.472   0.001
 5459SOL    HW117276   2.177   4.431   6.963
 5459SOL    HW217277   2.136   4.443   0.094
 5460SOL     OW17278   2.914   6.600   2.647
 5460SOL    HW117279   2.889   6.662   2.721
 5460SOL    HW217280   2.902   6.647   2.559
 5461SOL     OW17281   6.162   6.521   5.072
 5461SOL    HW117282   6.208   6.600   5.114
 5461SOL    HW217283   6.065   6.523   5.095
 5462SOL     OW17284   0.808   0.480   0.026
 5462SOL    HW117285   0.846   0.404   6.999
 5462SOL    HW217286   0.797   0.560   6.994
 5463SOL     OW17287   6.442   2.452   0.097
 5463SOL    HW117288   6.436   2.478   0.000
 5463SOL    HW217289   6.352   2.428   0.131
 5464SOL     OW17290   1.447   0.873   4.454
 5464SOL    HW117291   1.538   0.913   4.446
 5464SOL    HW217292   1.439   0.821   4.539
 5465SOL     OW17293   3.802   6.336   3.481
 5465SOL    HW117294   3.877   6.287   3.526
 5465SOL    HW217295   3.715   6.292   3.505
 5466SOL     OW17296   5.660   4.133   5.451
 5466SOL    HW117297   5.572   4.092   5.427
 5466SOL    HW217298   5.646   4.228   5.476
 5467SOL     OW17299   5.244   2.469   3.067
 5467SOL    HW117300   5.257   2.370   3.058
 5467SOL    HW217301   5.147   2.490   3.059
 5468SOL     OW17302   5.167   1.969   4.290
 5468SOL    HW117303   5.253   1.917   4.288
 5468SOL    HW217304   5.173   2.046   4.227
 5469SOL     OW17305   3.914   5.329   0.235
 5469SOL    HW117306   3.926   5.234   0.265
 5469SOL    HW217307   3.832   5.336   0.179
 5470SOL     OW17308   2.573   5.450   3.517
 5470SOL    HW117309   2.598   5.469   3.422
 5470SOL    HW217310   2.554   5.352   3.527
 5471SOL     OW17311   5.306   0.003   1.936
 5471SOL    HW117312   5.405   0.014   1.942
 5471SOL    HW217313   5.283   6.933   1.935
 5472SOL     OW17314   3.708   3.532   6.104
 5472SOL    HW117315   3.722   3.544   6.202
 5472SOL    HW217316   3.750   3.608   6.055
 5473SOL     OW17317   0.760   3.602   3.273
 5473SOL    HW117318   0.780   3.516   3.225
 5473SOL    HW217319   0.661   3.609   3.288
 5474SOL     OW17320   0.979   4.354   4.082
 5474SOL    HW117321   0.986   4.260   4.115
 5474SOL    HW217322   1.053   4.409   4.120
 5475SOL     OW17323   2.382   2.432   6.787
 5475SOL    HW117324   2.452   2.362   6.775
 5475SOL    HW217325   2.384   2.495   6.709
 5476SOL     OW17326   2.520   3.910   6.422
 5476SOL    HW117327   2.522   3.902   6.322
 5476SOL    HW217328   2.433   3.876   6.456
 5477SOL     OW17329   1.705   3.523   3.275
 5477SOL    HW117330   1.751   3.572   3.201
 5477SOL    HW217331   1.766   3.517   3.354
 5478SOL     OW17332   4.660   5.040   5.481
 5478SOL    HW117333   4.586   5.107   5.487
 5478SOL    HW217334   4.663   5.001   5.389
 5479SOL     OW17335   5.140   0.993   5.831
 5479SOL    HW117336   5.081   0.934   5.776
 5479SOL    HW217337   5.146   1.083   5.788
 5480SOL     OW17338   0.171   3.372   3.693
 5480SOL    HW117339   0.235   3.335   3.625
 5480SOL    HW217340   0.145   3.465   3.668
 5481SOL     OW17341   3.713   0.821   4.029
 5481SOL    HW117342   3.696   0.915   4.059
 5481SOL    HW217343   3.807   0.795   4.052
 5482SOL     OW17344   3.767   4.451   1.627
 5482SOL    HW117345   3.741   4.371   1.573
 5482SOL    HW217346   3.692   4.476   1.688
 5483SOL     OW17347   0.549   2.823   5.627
 5483SOL    HW117348   0.623   2.793   5.567
 5483SOL    HW217349   0.464   2.776   5.601
 5484SOL     OW17350   4.932   0.599   4.854
 5484SOL    HW117351   5.022   0.626   4.888
 5484SOL    HW217352   4.926   0.499   4.853
 5485SOL     OW17353   3.653   0.118   5.313
 5485SOL    HW117354   3.649   0.165   5.224
 5485SOL    HW217355   3.570   0.063   5.324
 5486SOL     OW17356   2.705   6.066   5.262
 5486SOL    HW117357   2.695   6.114   5.350
 5486SOL    HW217358   2.617   6.066   5.214
 5487SOL     OW17359   3.021   4.378   6.346
 5487SOL    HW117360   3.078   4.348   6.269
 5487SOL    HW217361   2.964   4.455   6.317
 5488SOL     OW17362   6.906   1.270   0.314
 5488SOL    HW117363   6.957   1.190   0.281
 5488SOL    HW217364   6.944   1.299   0.401
 5489SOL     OW17365   6.548   3.457   2.086
 5489SOL    HW117366   6.565   3.531   2.021
 5489SOL    HW217367   6.451   3.432   2.085
 5490SOL     OW17368   1.406   0.204   2.652
 5490SOL    HW117369   1.472   0.136   2.682
 5490SOL    HW217370   1.342   0.163   2.588
 5491SOL     OW17371   0.164   3.036   0.796
 5491SOL    HW117372   0.131   2.949   0.759
 5491SOL    HW217373   0.207   3.021   0.885
 5492SOL     OW17374   1.407   3.609   5.526
 5492SOL    HW117375   1.436   3.513   5.527
 5492SOL    HW217376   1.402   3.643   5.620
 5493SOL     OW17377   4.150   3.663   2.116
 5493SOL    HW117378   4.105   3.663   2.205
 5493SOL    HW217379   4.227   3.727   2.117
 5494SOL     OW17380   6.533   4.232   5.043
 5494SOL    HW117381   6.498   4.139   5.040
 5494SOL    HW217382   6.633   4.230   5.043
 5495SOL     OW17383   5.934   0.920   0.860
 5495SOL    HW117384   5.890   0.882   0.779
 5495SOL    HW217385   5.873   0.986   0.904
 5496SOL     OW17386   4.429   0.598   3.812
 5496SOL    HW117387   4.493   0.671   3.788
 5496SOL    HW217388   4.389   0.617   3.902
 5497SOL     OW17389   0.389   0.947   5.907
 5497SOL    HW117390   0.423   0.884   5.977
 5497SOL    HW217391   0.466   0.978   5.851
 5498SOL     OW17392   6.925   5.750   1.972
 5498SOL    HW117393   6.922   5.682   2.046
 5498SOL    HW217394   6.861   5.724   1.901
 5499SOL     OW17395   0.364   0.505   3.779
 5499SOL    HW117396   0.366   0.601   3.807
 5499SOL    HW217397   0.307   0.453   3.844
 5500SOL     OW17398   1.384   0.881   6.958
 5500SOL    HW117399   1.460   0.839   7.008
 5500SOL    HW217400   1.361   0.824   6.879
 5501SOL     OW17401   4.288   2.359   0.538
 5501SOL    HW117402   4.232   2.384   0.617
 5501SOL    HW217403   4.343   2.437   0.510
 5502SOL     OW17404   5.067   3.830   6.582
 5502SOL    HW117405   5.067   3.890   6.502
 5502SOL    HW217406   5.089   3.737   6.554
 5503SOL     OW17407   0.520   3.880   0.576
 5503SOL    HW117408   0.441   3.939   0.590
 5503SOL    HW217409   0.595   3.910   0.636
 5504SOL     OW17410   4.826   1.351   6.275
 5504SOL    HW117411   4.794   1.264   6.239
 5504SOL    HW217412   4.802   1.358   6.372
 5505SOL     OW17413   2.136   3.946   3.971
 5505SOL    HW117414   2.114   3.861   3.923
 5505SOL    HW217415   2.225   3.980   3.941
 5506SOL     OW17416   6.668   3.434   6.535
 5506SOL    HW117417   6.624   3.491   6.466
 5506SOL    HW217418   6.624   3.344   6.537
 5507SOL     OW17419   3.586   0.451   5.690
 5507SOL    HW117420   3.682   0.423   5.695
 5507SOL    HW217421   3.565   0.480   5.596
 5508SOL     OW17422   1.382   0.901   0.293
 5508SOL    HW117423   1.348   0.914   0.386
 5508SOL    HW217424   1.320   0.842   0.242
 5509SOL     OW17425   0.853   5.456   0.864
 5509SOL    HW117426   0.812   5.451   0.773
 5509SOL    HW217427   0.882   5.550   0.882
 5510SOL     OW17428   5.266   5.728   6.842
 5510SOL    HW117429   5.316   5.767   6.919
 5510SOL    HW217430   5.303   5.637   6.821
 5511SOL     OW17431   0.793   1.352   5.253
 5511SOL    HW117432   0.699   1.382   5.239
 5511SOL    HW217433   0.856   1.423   5.222
 5512SOL     OW17434   3.517   0.671   1.467
 5512SOL    HW117435   3.585   0.743   1.484
 5512SOL    HW217436   3.505   0.617   1.550
 5513SOL     OW17437   3.565   5.079   6.131
 5513SOL    HW117438   3.626   5.153   6.160
 5513SOL    HW217439   3.494   5.116   6.071
 5514SOL     OW17440   3.718   6.756   4.871
 5514SOL    HW117441   3.728   6.661   4.842
 5514SOL    HW217442   3.685   6.811   4.794
 5515SOL     OW17443   1.953   5.627   2.058
 5515SOL    HW117444   1.943   5.656   1.963
 5515SOL    HW217445   1.884   5.673   2.114
 5516SOL     OW17446   2.379   2.722   4.975
 5516SOL    HW117447   2.364   2.695   4.880
 5516SOL    HW217448   2.387   2.822   4.980
 5517SOL     OW17449   1.695   3.913   2.352
 5517SOL    HW117450   1.771   3.870   2.402
 5517SOL    HW217451   1.700   3.887   2.256
 5518SOL     OW17452   5.980   4.524   5.959
 5518SOL    HW117453   6.001   4.574   6.044
 5518SOL    HW217454   5.906   4.572   5.911
 5519SOL     OW17455   5.161   2.997   3.781
 5519SOL    HW117456   5.075   2.972   3.826
 5519SOL    HW217457   5.181   2.932   3.708
 5520SOL     OW17458   5.758   6.177   2.455
 5520SOL    HW117459   5.737   6.090   2.500
 5520SOL    HW217460   5.822   6.229   2.512
 5521SOL     OW17461   5.431   5.212   2.181
 5521SOL    HW117462   5.419   5.311   2.186
 5521SOL    HW217463   5.404   5.170   2.267
 5522SOL     OW17464   5.929   5.577   1.440
 5522SOL    HW117465   5.895   5.620   1.357
 5522SOL    HW217466   5.969   5.488   1.418
 5523SOL     OW17467   5.547   0.878   3.165
 5523SOL    HW117468   5.492   0.936   3.105
 5523SOL    HW217469   5.487   0.834   3.232
 5524SOL     OW17470   3.633   0.455   5.417
 5524SOL    HW117471   3.609   0.552   5.407
 5524SOL    HW217472   3.644   0.414   5.326
 5525SOL     OW17473   6.690   2.764   0.778
 5525SOL    HW117474   6.590   2.772   0.783
 5525SOL    HW217475   6.732   2.825   0.846
 5526SOL     OW17476   4.885   3.860   3.268
 5526SOL    HW117477   4.942   3.779   3.253
 5526SOL    HW217478   4.878   3.878   3.366
 5527SOL     OW17479   4.903   3.061   4.231
 5527SOL    HW117480   4.821   3.014   4.198
 5527SOL    HW217481   4.975   3.054   4.162
 5528SOL     OW17482   0.884   2.149   1.744
 5528SOL    HW117483   0.920   2.072   1.796
 5528SOL    HW217484   0.809   2.191   1.794
 5529SOL     OW17485   2.286   0.737   3.149
 5529SOL    HW117486   2.265   0.825   3.106
 5529SOL    HW217487   2.254   0.738   3.244
 5530SOL     OW17488   6.861   2.475   2.037
 5530SOL    HW117489   6.761   2.482   2.046
 5530SOL    HW217490   6.891   2.531   1.959
 5531SOL     OW17491   3.713   4.002   1.317
 5531SOL    HW117492   3.726   3.989   1.219
 5531SOL    HW217493   3.661   3.926   1.355
 5532SOL     OW17494   1.782   2.478   0.449
 5532SOL    HW117495   1.750   2.513   0.537
 5532SOL    HW217496   1.865   2.425   0.463
 5533SOL     OW17497   4.796   1.381   4.264
 5533SOL    HW117498   4.708   1.381   4.217
 5533SOL    HW217499   4.781   1.393   4.362
 5534SOL     OW17500   1.070   1.308   5.383
 5534SOL    HW117501   0.989   1.256   5.357
 5534SOL    HW217502   1.152   1.258   5.355
 5535SOL     OW17503   0.681   1.232   2.593
 5535SOL    HW117504   0.672   1.188   2.682
 5535SOL    HW217505   0.711   1.327   2.605
 5536SOL     OW17506   3.517   0.829   4.644
 5536SOL    HW117507   3.457   0.828   4.724
 5536SOL    HW217508   3.464   0.808   4.562
 5537SOL     OW17509   3.725   1.414   2.756
 5537SOL    HW117510   3.644   1.426   2.813
 5537SOL    HW217511   3.728   1.321   2.721
 5538SOL     OW17512   4.307   5.574   4.874
 5538SOL    HW117513   4.275   5.669   4.879
 5538SOL    HW217514   4.404   5.572   4.853
 5539SOL     OW17515   2.132   2.652   0.732
 5539SOL    HW117516   2.071   2.694   0.800
 5539SOL    HW217517   2.176   2.723   0.679
 5540SOL     OW17518   4.980   4.683   3.450
 5540SOL    HW117519   5.074   4.653   3.434
 5540SOL    HW217520   4.948   4.647   3.538
 5541SOL     OW17521   4.943   1.828   6.444
 5541SOL    HW117522   4.986   1.764   6.381
 5541SOL    HW217523   4.886   1.893   6.393
 5542SOL     OW17524   3.778   4.254   5.828
 5542SOL    HW117525   3.705   4.310   5.789
 5542SOL    HW217526   3.751   4.224   5.920
 5543SOL     OW17527   6.377   3.504   6.663
 5543SOL    HW117528   6.433   3.532   6.584
 5543SOL    HW217529   6.437   3.485   6.740
 5544SOL     OW17530   5.788   1.184   5.564
 5544SOL    HW117531   5.689   1.196   5.571
 5544SOL    HW217532   5.808   1.119   5.491
 5545SOL     OW17533   4.400   2.030   2.533
 5545SOL    HW117534   4.420   2.126   2.551
 5545SOL    HW217535   4.303   2.019   2.514
 5546SOL     OW17536   2.339   5.047   6.106
 5546SOL    HW117537   2.414   5.082   6.049
 5546SOL    HW217538   2.266   5.012   6.047
 5547SOL     OW17539   3.449   4.961   5.545
 5547SOL    HW117540   3.480   4.894   5.477
 5547SOL    HW217541   3.388   5.027   5.500
 5548SOL     OW17542   5.963   3.701   5.244
 5548SOL    HW117543   5.889   3.740   5.189
 5548SOL    HW217544   6.018   3.774   5.284
 5549SOL     OW17545   2.904   4.885   6.883
 5549SOL    HW117546   2.995   4.907   6.918
 5549SOL    HW217547   2.886   4.787   6.895
 5550SOL     OW17548   2.393   6.603   1.243
 5550SOL    HW117549   2.395   6.563   1.335
 5550SOL    HW217550   2.363   6.534   1.177
 5551SOL     OW17551   1.422   1.776   3.270
 5551SOL    HW117552   1.409   1.869   3.238
 5551SOL    HW217553   1.506   1.771   3.326
 5552SOL     OW17554   6.845   2.094   1.286
 5552SOL    HW117555   6.870   2.035   1.363
 5552SOL    HW217556   6.761   2.060   1.245
 5553SOL     OW17557   4.582   6.095   0.306
 5553SOL    HW117558   4.645   6.169   0.328
 5553SOL    HW217559   4.504   6.098   0.368
 5554SOL     OW17560   2.954   2.181   5.179
 5554SOL    HW117561   3.040   2.225   5.155
 5554SOL    HW217562   2.923   2.124   5.103
 5555SOL     OW17563   0.480   4.778   3.490
 5555SOL    HW117564   0.395   4.737   3.457
 5555SOL    HW217565   0.465   4.814   3.583
 5556SOL     OW17566   0.238   1.796   5.359
 5556SOL    HW117567   0.307   1.725   5.351
 5556SOL    HW217568   0.239   1.834   5.452
 5557SOL     OW17569   2.126   6.304   3.854
 5557SOL    HW117570   2.189   6.281   3.929
 5557SOL    HW217571   2.175   6.302   3.767
 5558SOL     OW17572   5.135   3.151   4.932
 5558SOL    HW117573   5.087   3.179   5.016
 5558SOL    HW217574   5.156   3.054   4.937
 5559SOL     OW17575   1.420   0.622   1.149
 5559SOL    HW117576   1.403   0.524   1.141
 5559SOL    HW217577   1.347   0.672   1.103
 5560SOL     OW17578   0.388   1.434   3.600
 5560SOL    HW117579   0.341   1.364   3.546
 5560SOL    HW217580   0.332   1.516   3.603
 5561SOL     OW17581   1.647   3.270   3.193
 5561SOL    HW117582   1.654   3.369   3.206
 5561SOL    HW217583   1.572   3.235   3.248
 5562SOL     OW17584   2.160   3.461   6.216
 5562SOL    HW117585   2.195   3.441   6.124
 5562SOL    HW217586   2.237   3.476   6.278
 5563SOL     OW17587   4.702   6.129   2.530
 5563SOL    HW117588   4.613   6.118   2.486
 5563SOL    HW217589   4.717   6.055   2.595
 5564SOL     OW17590   5.142   3.493   1.810
 5564SOL    HW117591   5.070   3.426   1.830
 5564SOL    HW217592   5.102   3.577   1.775
 5565SOL     OW17593   3.727   2.331   5.721
 5565SOL    HW117594   3.798   2.380   5.772
 5565SOL    HW217595   3.642   2.384   5.722
 5566SOL     OW17596   2.059   4.853   1.507
 5566SOL    HW117597   2.143   4.800   1.512
 5566SOL    HW217598   2.081   4.951   1.513
 5567SOL     OW17599   1.707   5.460   1.473
 5567SOL    HW117600   1.787   5.515   1.498
 5567SOL    HW217601   1.691   5.390   1.542
 5568SOL     OW17602   3.857   1.097   1.359
 5568SOL    HW117603   3.775   1.115   1.414
 5568SOL    HW217604   3.853   1.151   1.275
 5569SOL     OW17605   3.925   1.543   0.458
 5569SOL    HW117606   3.906   1.635   0.423
 5569SOL    HW217607   3.974   1.491   0.388
 5570SOL     OW17608   6.460   4.131   5.708
 5570SOL    HW117609   6.397   4.153   5.634
 5570SOL    HW217610   6.492   4.037   5.698
 5571SOL     OW17611   6.653   5.853   0.225
 5571SOL    HW117612   6.578   5.813   0.278
 5571SOL    HW217613   6.734   5.795   0.232
 5572SOL     OW17614   4.766   2.734   6.473
 5572SOL    HW117615   4.675   2.724   6.434
 5572SOL    HW217616   4.833   2.690   6.413
 5573SOL     OW17617   1.156   3.876   1.110
 5573SOL    HW117618   1.195   3.838   1.026
 5573SOL    HW217619   1.122   3.968   1.093
 5574SOL     OW17620   0.872   5.909   5.186
 5574SOL    HW117621   0.913   5.982   5.131
 5574SOL    HW217622   0.938   5.834   5.195
 5575SOL     OW17623   1.243   1.741   0.965
 5575SOL    HW117624   1.240   1.651   0.922
 5575SOL    HW217625   1.246   1.812   0.894
 5576SOL     OW17626   6.084   6.317   0.844
 5576SOL    HW117627   6.035   6.404   0.848
 5576SOL    HW217628   6.152   6.320   0.771
 5577SOL     OW17629   1.970   3.713   5.224
 5577SOL    HW117630   2.021   3.791   5.189
 5577SOL    HW217631   2.015   3.628   5.196
 5578SOL     OW17632   4.199   2.581   6.977
 5578SOL    HW117633   4.180   2.618   0.041
 5578SOL    HW217634   4.120   2.595   6.918
 5579SOL     OW17635   4.893   3.930   6.749
 5579SOL    HW117636   4.970   3.884   6.706
 5579SOL    HW217637   4.914   3.946   6.846
 5580SOL     OW17638   5.853   1.422   0.360
 5580SOL    HW117639   5.887   1.516   0.364
 5580SOL    HW217640   5.908   1.370   0.295
 5581SOL     OW17641   2.377   1.581   6.857
 5581SOL    HW117642   2.391   1.678   6.874
 5581SOL    HW217643   2.338   1.538   6.938
 5582SOL     OW17644   3.692   3.382   3.612
 5582SOL    HW117645   3.762   3.434   3.564
 5582SOL    HW217646   3.696   3.401   3.710
 5583SOL     OW17647   3.743   0.230   1.120
 5583SOL    HW117648   3.670   0.297   1.108
 5583SOL    HW217649   3.767   0.189   1.032
 5584SOL     OW17650   6.287   3.362   3.450
 5584SOL    HW117651   6.245   3.296   3.387
 5584SOL    HW217652   6.240   3.450   3.443
 5585SOL     OW17653   5.892   0.452   4.521
 5585SOL    HW117654   5.804   0.449   4.473
 5585SOL    HW217655   5.877   0.435   4.618
 5586SOL     OW17656   1.775   1.387   5.568
 5586SOL    HW117657   1.838   1.367   5.493
 5586SOL    HW217658   1.827   1.409   5.651
 5587SOL     OW17659   3.388   0.486   4.161
 5587SOL    HW117660   3.422   0.421   4.092
 5587SOL    HW217661   3.465   0.536   4.201
 5588SOL     OW17662   2.709   0.230   5.784
 5588SOL    HW117663   2.730   0.249   5.688
 5588SOL    HW217664   2.639   0.159   5.789
 5589SOL     OW17665   4.511   2.716   6.402
 5589SOL    HW117666   4.500   2.662   6.318
 5589SOL    HW217667   4.446   2.792   6.401
 5590SOL     OW17668   0.518   5.888   4.154
 5590SOL    HW117669   0.498   5.973   4.105
 5590SOL    HW217670   0.438   5.860   4.206
 5591SOL     OW17671   5.670   0.582   0.548
 5591SOL    HW117672   5.620   0.669   0.544
 5591SOL    HW217673   5.608   0.507   0.530
 5592SOL     OW17674   1.833   3.444   2.799
 5592SOL    HW117675   1.930   3.433   2.782
 5592SOL    HW217676   1.797   3.362   2.842
 5593SOL     OW17677   1.363   2.967   5.913
 5593SOL    HW117678   1.290   3.031   5.937
 5593SOL    HW217679   1.395   2.986   5.820
 5594SOL     OW17680   1.843   0.625   0.159
 5594SOL    HW117681   1.762   0.659   0.206
 5594SOL    HW217682   1.889   0.557   0.217
 5595SOL     OW17683   0.111   2.437   6.102
 5595SOL    HW117684   0.142   2.530   6.119
 5595SOL    HW217685   0.050   2.408   6.177
 5596SOL     OW17686   4.859   0.460   2.768
 5596SOL    HW117687   4.897   0.408   2.844
 5596SOL    HW217688   4.760   0.449   2.766
 5597SOL     OW17689   6.755   0.520   6.343
 5597SOL    HW117690   6.758   0.576   6.260
 5597SOL    HW217691   6.663   0.485   6.356
 5598SOL     OW17692   6.726   1.508   3.926
 5598SOL    HW117693   6.675   1.573   3.982
 5598SOL    HW217694   6.668   1.429   3.906
 5599SOL     OW17695   5.141   3.411   2.995
 5599SOL    HW117696   5.239   3.406   2.975
 5599SOL    HW217697   5.123   3.369   3.084
 5600SOL     OW17698   2.159   1.220   2.279
 5600SOL    HW117699   2.061   1.229   2.293
 5600SOL    HW217700   2.184   1.123   2.279
 5601SOL     OW17701   5.620   2.816   5.313
 5601SOL    HW117702   5.715   2.795   5.337
 5601SOL    HW217703   5.593   2.902   5.356
 5602SOL     OW17704   0.300   2.039   2.888
 5602SOL    HW117705   0.305   2.096   2.970
 5602SOL    HW217706   0.217   1.983   2.892
 5603SOL     OW17707   4.274   1.971   4.506
 5603SOL    HW117708   4.198   1.916   4.541
 5603SOL    HW217709   4.239   2.056   4.466
 5604SOL     OW17710   0.646   0.338   3.996
 5604SOL    HW117711   0.688   0.293   4.074
 5604SOL    HW217712   0.717   0.373   3.936
 5605SOL     OW17713   2.986   5.928   4.289
 5605SOL    HW117714   2.917   5.874   4.240
 5605SOL    HW217715   3.065   5.871   4.310
 5606SOL     OW17716   4.598   2.226   0.860
 5606SOL    HW117717   4.555   2.171   0.789
 5606SOL    HW217718   4.697   2.216   0.855
 5607SOL     OW17719   6.066   3.015   2.338
 5607SOL    HW117720   6.055   3.002   2.239
 5607SOL    HW217721   6.117   2.939   2.376
 5608SOL     OW17722   4.365   0.910   3.422
 5608SOL    HW117723   4.385   0.955   3.509
 5608SOL    HW217724   4.404   0.964   3.347
 5609SOL     OW17725   6.790   6.813   0.995
 5609SOL    HW117726   6.698   6.812   1.036
 5609SOL    HW217727   6.794   6.745   0.922
 5610SOL     OW17728   5.021   4.657   0.094
 5610SOL    HW117729   4.963   4.577   0.078
 5610SOL    HW217730   4.964   4.735   0.119
 5611SOL     OW17731   6.846   4.924   1.078
 5611SOL    HW117732   6.812   5.010   1.116
 5611SOL    HW217733   6.939   4.937   1.043
 5612SOL     OW17734   2.657   1.444   0.805
 5612SOL    HW117735   2.727   1.396   0.858
 5612SOL    HW217736   2.701   1.507   0.741
 5613SOL     OW17737   6.901   5.689   5.617
 5613SOL    HW117738   6.821   5.636   5.645
 5613SOL    HW217739   6.871   5.767   5.563
 5614SOL     OW17740   5.815   2.371   3.767
 5614SOL    HW117741   5.848   2.381   3.674
 5614SOL    HW217742   5.892   2.346   3.827
 5615SOL     OW17743   0.363   3.407   3.340
 5615SOL    HW117744   0.341   3.331   3.279
 5615SOL    HW217745   0.280   3.459   3.358
 5616SOL     OW17746   1.808   3.492   2.473
 5616SOL    HW117747   1.894   3.477   2.523
 5616SOL    HW217748   1.812   3.445   2.385
 5617SOL     OW17749   1.950   5.614   6.372
 5617SOL    HW117750   2.016   5.650   6.306
 5617SOL    HW217751   1.938   5.516   6.357
 5618SOL     OW17752   6.954   5.979   3.511
 5618SOL    HW117753   6.857   5.982   3.532
 5618SOL    HW217754   7.004   6.038   3.574
 5619SOL     OW17755   3.884   2.983   4.013
 5619SOL    HW117756   3.894   2.981   4.113
 5619SOL    HW217757   3.930   3.065   3.977
 5620SOL     OW17758   4.966   4.583   5.900
 5620SOL    HW117759   4.887   4.557   5.844
 5620SOL    HW217760   5.012   4.662   5.859
 5621SOL     OW17761   1.204   2.467   5.624
 5621SOL    HW117762   1.203   2.400   5.698
 5621SOL    HW217763   1.286   2.524   5.632
 5622SOL     OW17764   4.928   6.002   4.346
 5622SOL    HW117765   4.921   6.078   4.410
 5622SOL    HW217766   5.022   5.967   4.346
 5623SOL     OW17767   5.093   6.009   3.593
 5623SOL    HW117768   5.184   5.988   3.628
 5623SOL    HW217769   5.025   5.989   3.664
 5624SOL     OW17770   6.690   4.573   4.654
 5624SOL    HW117771   6.737   4.547   4.570
 5624SOL    HW217772   6.756   4.581   4.729
 5625SOL     OW17773   1.025   5.830   5.503
 5625SOL    HW117774   0.975   5.916   5.498
 5625SOL    HW217775   1.039   5.795   5.410
 5626SOL     OW17776   1.469   4.160   4.962
 5626SOL    HW117777   1.492   4.157   5.060
 5626SOL    HW217778   1.537   4.108   4.911
 5627SOL     OW17779   1.290   5.576   6.724
 5627SOL    HW117780   1.244   5.600   6.810
 5627SOL    HW217781   1.386   5.554   6.742
 5628SOL     OW17782   2.587   2.673   1.039
 5628SOL    HW117783   2.502   2.722   1.058
 5628SOL    HW217784   2.664   2.723   1.080
 5629SOL     OW17785   5.377   3.591   1.687
 5629SOL    HW117786   5.368   3.668   1.750
 5629SOL    HW217787   5.297   3.532   1.696
 5630SOL     OW17788   1.854   4.096   0.062
 5630SOL    HW117789   1.858   4.192   0.092
 5630SOL    HW217790   1.924   4.043   0.110
 5631SOL     OW17791   4.278   1.270   1.414
 5631SOL    HW117792   4.350   1.271   1.484
 5631SOL    HW217793   4.189   1.275   1.459
 5632SOL     OW17794   5.687   0.255   5.812
 5632SOL    HW117795   5.735   0.193   5.750
 5632SOL    HW217796   5.589   0.250   5.796
 5633SOL     OW17797   0.886   5.654   5.679
 5633SOL    HW117798   0.954   5.581   5.671
 5633SOL    HW217799   0.912   5.731   5.622
 5634SOL     OW17800   2.418   0.032   0.287
 5634SOL    HW117801   2.404   6.972   0.238
 5634SOL    HW217802   2.407   0.108   0.223
 5635SOL     OW17803   2.041   0.725   6.572
 5635SOL    HW117804   2.058   0.678   6.486
 5635SOL    HW217805   2.090   0.678   6.646
 5636SOL     OW17806   6.337   2.067   5.543
 5636SOL    HW117807   6.363   2.104   5.455
 5636SOL    HW217808   6.334   1.967   5.538
 5637SOL     OW17809   4.965   6.822   4.833
 5637SOL    HW117810   4.944   6.916   4.805
 5637SOL    HW217811   4.881   6.778   4.865
 5638SOL     OW17812   5.414   5.233   0.893
 5638SOL    HW117813   5.440   5.140   0.919
 5638SOL    HW217814   5.457   5.299   0.955
 5639SOL     OW17815   0.826   0.650   1.188
 5639SOL    HW117816   0.742   0.704   1.190
 5639SOL    HW217817   0.806   0.558   1.154
 5640SOL     OW17818   2.380   5.244   2.849
 5640SOL    HW117819   2.437   5.285   2.777
 5640SOL    HW217820   2.432   5.174   2.897
 5641SOL     OW17821   0.853   4.104   3.728
 5641SOL    HW117822   0.779   4.068   3.784
 5641SOL    HW217823   0.930   4.130   3.786
 5642SOL     OW17824   1.563   4.949   0.527
 5642SOL    HW117825   1.572   4.852   0.550
 5642SOL    HW217826   1.472   4.981   0.554
 5643SOL     OW17827   4.657   2.096   4.685
 5643SOL    HW117828   4.720   2.036   4.638
 5643SOL    HW217829   4.639   2.178   4.630
 5644SOL     OW17830   4.396   1.008   5.054
 5644SOL    HW117831   4.337   0.930   5.033
 5644SOL    HW217832   4.429   1.049   4.969
 5645SOL     OW17833   5.767   5.683   3.728
 5645SOL    HW117834   5.837   5.754   3.724
 5645SOL    HW217835   5.739   5.659   3.635
 5646SOL     OW17836   0.595   6.627   3.832
 5646SOL    HW117837   0.563   6.650   3.740
 5646SOL    HW217838   0.602   6.710   3.887
 5647SOL     OW17839   5.660   5.476   5.977
 5647SOL    HW117840   5.607   5.392   5.965
 5647SOL    HW217841   5.600   5.548   6.010
 5648SOL     OW17842   1.854   1.774   3.823
 5648SOL    HW117843   1.949   1.745   3.838
 5648SOL    HW217844   1.803   1.765   3.908
 5649SOL     OW17845   0.794   1.075   5.225
 5649SOL    HW117846   0.828   1.166   5.252
 5649SOL    HW217847   0.854   1.036   5.156
 5650SOL     OW17848   6.784   4.802   0.045
 5650SOL    HW117849   6.754   4.856   6.993
 5650SOL    HW217850   6.809   4.710   0.014
 5651SOL     OW17851   6.640   0.862   2.083
 5651SOL    HW117852   6.643   0.895   2.177
 5651SOL    HW217853   6.591   0.774   2.080
 5652SOL     OW17854   4.862   5.310   1.240
 5652SOL    HW117855   4.842   5.258   1.157
 5652SOL    HW217856   4.831   5.405   1.228
 5653SOL     OW17857   0.348   5.921   5.967
 5653SOL    HW117858   0.311   6.011   5.992
 5653SOL    HW217859   0.283   5.873   5.909
 5654SOL     OW17860   6.879   0.180   5.214
 5654SOL    HW117861   6.802   0.163   5.275
 5654SOL    HW217862   6.895   0.099   5.158
 5655SOL     OW17863   0.240   3.710   4.303
 5655SOL    HW117864   0.250   3.665   4.215
 5655SOL    HW217865   0.143   3.716   4.327
 5656SOL     OW17866   3.487   4.339   0.007
 5656SOL    HW117867   3.424   4.409   7.001
 5656SOL    HW217868   3.568   4.337   6.975
 5657SOL     OW17869   3.600   6.972   1.447
 5657SOL    HW117870   3.511   7.016   1.435
 5657SOL    HW217871   3.597   6.910   1.525
 5658SOL     OW17872   3.714   6.924   5.725
 5658SOL    HW117873   3.809   6.924   5.694
 5658SOL    HW217874   3.661   6.858   5.672
 5659SOL     OW17875   2.961   3.737   2.522
 5659SOL    HW117876   3.039   3.761   2.580
 5659SOL    HW217877   2.966   3.788   2.436
 5660SOL     OW17878   4.686   0.179   6.240
 5660SOL    HW117879   4.734   0.259   6.277
 5660SOL    HW217880   4.722   0.096   6.282
 5661SOL     OW17881   6.686   5.642   4.507
 5661SOL    HW117882   6.607   5.585   4.483
 5661SOL    HW217883   6.667   5.737   4.483
 5662SOL     OW17884   2.026   4.279   3.925
 5662SOL    HW117885   1.958   4.244   3.860
 5662SOL    HW217886   2.068   4.362   3.889
 5663SOL     OW17887   1.426   3.686   0.922
 5663SOL    HW117888   1.489   3.615   0.953
 5663SOL    HW217889   1.340   3.644   0.894
 5664SOL     OW17890   6.931   4.478   2.152
 5664SOL    HW117891   6.898   4.530   2.073
 5664SOL    HW217892   6.914   4.530   2.236
 5665SOL     OW17893   2.355   3.476   5.544
 5665SOL    HW117894   2.298   3.501   5.622
 5665SOL    HW217895   2.300   3.425   5.478
 5666SOL     OW17896   5.267   4.581   1.027
 5666SOL    HW117897   5.315   4.667   1.046
 5666SOL    HW217898   5.323   4.524   0.968
 5667SOL     OW17899   6.356   5.170   3.093
 5667SOL    HW117900   6.451   5.145   3.071
 5667SOL    HW217901   6.344   5.171   3.192
 5668SOL     OW17902   5.462   1.954   6.537
 5668SOL    HW117903   5.522   1.888   6.582
 5668SOL    HW217904   5.512   1.997   6.460
 5669SOL     OW17905   0.760   4.838   6.180
 5669SOL    HW117906   0.814   4.788   6.112
 5669SOL    HW217907   0.692   4.894   6.133
 5670SOL     OW17908   0.217   3.462   4.451
 5670SOL    HW117909   0.195   3.557   4.428
 5670SOL    HW217910   0.300   3.460   4.507
 5671SOL     OW17911   1.828   0.785   6.345
 5671SOL    HW117912   1.789   0.840   6.419
 5671SOL    HW217913   1.915   0.823   6.316
 5672SOL     OW17914   5.192   4.431   5.971
 5672SOL    HW117915   5.113   4.480   5.935
 5672SOL    HW217916   5.255   4.496   6.013
 5673SOL     OW17917   0.317   0.532   1.789
 5673SOL    HW117918   0.383   0.457   1.793
 5673SOL    HW217919   0.328   0.581   1.703
 5674SOL     OW17920   6.923   3.632   1.486
 5674SOL    HW117921   6.957   3.706   1.543
 5674SOL    HW217922   6.837   3.659   1.443
 5675SOL     OW17923   4.423   2.461   5.317
 5675SOL    HW117924   4.494   2.474   5.247
 5675SOL    HW217925   4.373   2.547   5.330
 5676SOL     OW17926   1.945   0.158   1.872
 5676SOL    HW117927   2.000   0.089   1.826
 5676SOL    HW217928   1.965   0.248   1.834
 5677SOL     OW17929   6.095   0.597   3.846
 5677SOL    HW117930   6.149   0.585   3.763
 5677SOL    HW217931   6.032   0.674   3.835
 5678SOL     OW17932   3.099   6.864   3.019
 5678SOL    HW117933   3.109   6.961   2.997
 5678SOL    HW217934   3.050   6.854   3.106
 5679SOL     OW17935   1.814   6.604   5.169
 5679SOL    HW117936   1.805   6.573   5.264
 5679SOL    HW217937   1.754   6.683   5.154
 5680SOL     OW17938   2.122   6.006   6.676
 5680SOL    HW117939   2.076   6.072   6.616
 5680SOL    HW217940   2.202   5.968   6.630
 5681SOL     OW17941   1.047   2.905   6.943
 5681SOL    HW117942   1.040   2.808   6.921
 5681SOL    HW217943   1.085   2.954   6.866
 5682SOL     OW17944   0.975   2.849   5.520
 5682SOL    HW117945   0.905   2.916   5.543
 5682SOL    HW217946   0.984   2.783   5.594
 5683SOL     OW17947   3.298   2.803   6.453
 5683SOL    HW117948   3.212   2.774   6.494
 5683SOL    HW217949   3.373   2.748   6.491
 5684SOL     OW17950   3.556   4.115   3.984
 5684SOL    HW117951   3.612   4.070   4.053
 5684SOL    HW217952   3.581   4.080   3.893
 5685SOL     OW17953   0.256   4.714   2.178
 5685SOL    HW117954   0.283   4.721   2.082
 5685SOL    HW217955   0.158   4.696   2.184
 5686SOL     OW17956   3.917   0.185   0.561
 5686SOL    HW117957   3.897   0.089   0.579
 5686SOL    HW217958   3.838   0.241   0.587
 5687SOL     OW17959   5.378   4.910   5.592
 5687SOL    HW117960   5.376   4.986   5.527
 5687SOL    HW217961   5.406   4.827   5.545
 5688SOL     OW17962   5.695   2.476   1.325
 5688SOL    HW117963   5.747   2.425   1.392
 5688SOL    HW217964   5.643   2.413   1.267
 5689SOL     OW17965   4.339   1.744   0.808
 5689SOL    HW117966   4.350   1.649   0.779
 5689SOL    HW217967   4.302   1.798   0.732
 5690SOL     OW17968   4.387   5.791   0.721
 5690SOL    HW117969   4.454   5.745   0.779
 5690SOL    HW217970   4.322   5.841   0.779
 5691SOL     OW17971   2.530   0.012   1.690
 5691SOL    HW117972   2.628   0.030   1.690
 5691SOL    HW217973   2.481   0.092   1.724
 5692SOL     OW17974   6.230   3.209   5.728
 5692SOL    HW117975   6.271   3.120   5.709
 5692SOL    HW217976   6.293   3.264   5.783
 5693SOL     OW17977   4.679   2.755   2.447
 5693SOL    HW117978   4.660   2.657   2.443
 5693SOL    HW217979   4.693   2.789   2.354
 5694SOL     OW17980   0.111   0.934   3.564
 5694SOL    HW117981   0.187   0.891   3.613
 5694SOL    HW217982   0.110   1.032   3.584
 5695SOL     OW17983   1.749   2.999   3.497
 5695SOL    HW117984   1.754   3.062   3.575
 5695SOL    HW217985   1.658   2.959   3.492
 5696SOL     OW17986   2.571   1.153   5.199
 5696SOL    HW117987   2.637   1.078   5.194
 5696SOL    HW217988   2.618   1.240   5.188
 5697SOL     OW17989   7.017   2.459   0.267
 5697SOL    HW117990   6.919   2.444   0.280
 5697SOL    HW217991   0.024   2.520   0.340
 5698SOL     OW17992   0.998   3.163   1.692
 5698SOL    HW117993   0.915   3.189   1.742
 5698SOL    HW217994   1.058   3.111   1.753
 5699SOL     OW17995   6.280   1.181   4.797
 5699SOL    HW117996   6.274   1.213   4.702
 5699SOL    HW217997   6.227   1.097   4.807
 5700SOL     OW17998   1.399   6.006   5.403
 5700SOL    HW117999   1.354   5.941   5.341
 5700SOL    HW218000   1.338   6.083   5.420
 5701SOL     OW18001   0.056   5.973   1.973
 5701SOL    HW118002   7.023   5.899   2.002
 5701SOL    HW218003   0.148   5.938   1.957
 5702SOL     OW18004   2.197   6.526   6.662
 5702SOL    HW118005   2.200   6.431   6.692
 5702SOL    HW218006   2.284   6.571   6.684
 5703SOL     OW18007   4.691   4.757   0.259
 5703SOL    HW118008   4.662   4.701   0.336
 5703SOL    HW218009   4.655   4.849   0.269
 5704SOL     OW18010   4.730   5.394   3.649
 5704SOL    HW118011   4.829   5.404   3.661
 5704SOL    HW218012   4.707   5.410   3.553
 5705SOL     OW18013   5.888   0.159   1.226
 5705SOL    HW118014   5.929   0.160   1.135
 5705SOL    HW218015   5.817   0.088   1.230
 5706SOL     OW18016   1.166   1.359   6.850
 5706SOL    HW118017   1.159   1.304   6.767
 5706SOL    HW218018   1.229   1.316   6.914
 5707SOL     OW18019   1.866   1.167   6.235
 5707SOL    HW118020   1.908   1.257   6.245
 5707SOL    HW218021   1.935   1.096   6.253
 5708SOL     OW18022   5.015   0.212   2.223
 5708SOL    HW118023   4.932   0.218   2.168
 5708SOL    HW218024   5.028   0.297   2.273
 5709SOL     OW18025   0.789   6.183   3.178
 5709SOL    HW118026   0.811   6.272   3.218
 5709SOL    HW218027   0.723   6.136   3.237
 5710SOL     OW18028   3.007   3.390   6.016
 5710SOL    HW118029   3.023   3.471   6.073
 5710SOL    HW218030   3.093   3.361   5.975
 5711SOL     OW18031   5.056   0.975   3.796
 5711SOL    HW118032   5.013   1.033   3.865
 5711SOL    HW218033   4.985   0.924   3.747
 5712SOL     OW18034   0.067   6.386   5.740
 5712SOL    HW118035   7.026   6.318   5.766
 5712SOL    HW218036   0.054   6.412   5.644
 5713SOL     OW18037   0.185   2.923   2.348
 5713SOL    HW118038   0.210   2.984   2.273
 5713SOL    HW218039   0.093   2.946   2.381
 5714SOL     OW18040   1.447   0.613   6.055
 5714SOL    HW118041   1.469   0.531   6.001
 5714SOL    HW218042   1.528   0.671   6.061
 5715SOL     OW18043   1.693   6.384   2.295
 5715SOL    HW118044   1.595   6.401   2.282
 5715SOL    HW218045   1.739   6.471   2.313
 5716SOL     OW18046   1.812   3.908   6.437
 5716SOL    HW118047   1.874   3.954   6.374
 5716SOL    HW218048   1.758   3.841   6.387
 5717SOL     OW18049   1.099   4.455   1.402
 5717SOL    HW118050   1.137   4.364   1.385
 5717SOL    HW218051   1.143   4.495   1.483
 5718SOL     OW18052   2.023   4.940   6.708
 5718SOL    HW118053   2.031   5.007   6.635
 5718SOL    HW218054   1.945   4.880   6.690
 5719SOL     OW18055   3.233   0.402   6.482
 5719SOL    HW118056   3.211   0.472   6.549
 5719SOL    HW218057   3.311   0.348   6.514
 5720SOL     OW18058   1.239   5.480   5.161
 5720SOL    HW118059   1.182   5.444   5.235
 5720SOL    HW218060   1.245   5.413   5.087
 5721SOL     OW18061   0.377   3.150   0.710
 5721SOL    HW118062   0.443   3.074   0.714
 5721SOL    HW218063   0.286   3.116   0.732
 5722SOL     OW18064   5.693   0.493   5.166
 5722SOL    HW118065   5.720   0.400   5.139
 5722SOL    HW218066   5.602   0.491   5.206
 5723SOL     OW18067   3.989   5.588   0.306
 5723SOL    HW118068   4.040   5.636   0.235
 5723SOL    HW218069   3.977   5.492   0.280
 5724SOL     OW18070   5.589   2.018   6.005
 5724SOL    HW118071   5.638   1.952   6.061
 5724SOL    HW218072   5.547   2.087   6.064
 5725SOL     OW18073   4.984   5.262   4.356
 5725SOL    HW118074   4.998   5.167   4.385
 5725SOL    HW218075   4.941   5.313   4.430
 5726SOL     OW18076   5.426   3.459   5.775
 5726SOL    HW118077   5.332   3.426   5.772
 5726SOL    HW218078   5.437   3.521   5.852
 5727SOL     OW18079   5.734   2.049   3.241
 5727SOL    HW118080   5.809   2.107   3.210
 5727SOL    HW218081   5.748   2.026   3.338
 5728SOL     OW18082   6.362   1.126   5.434
 5728SOL    HW118083   6.289   1.148   5.370
 5728SOL    HW218084   6.406   1.040   5.405
 5729SOL     OW18085   6.899   1.353   6.406
 5729SOL    HW118086   6.868   1.313   6.320
 5729SOL    HW218087   6.932   1.281   6.466
 5730SOL     OW18088   4.038   5.657   5.760
 5730SOL    HW118089   4.103   5.695   5.694
 5730SOL    HW218090   4.055   5.696   5.850
 5731SOL     OW18091   2.175   0.682   3.701
 5731SOL    HW118092   2.254   0.621   3.707
 5731SOL    HW218093   2.205   0.777   3.701
 5732SOL     OW18094   6.134   5.131   4.808
 5732SOL    HW118095   6.141   5.169   4.716
 5732SOL    HW218096   6.038   5.111   4.828
 5733SOL     OW18097   3.386   0.908   6.970
 5733SOL    HW118098   3.377   1.008   6.960
 5733SOL    HW218099   3.332   0.878   0.022
 5734SOL     OW18100   1.788   6.950   5.749
 5734SOL    HW118101   1.801   0.022   5.740
 5734SOL    HW218102   1.773   6.927   5.845
 5735SOL     OW18103   4.290   0.948   2.174
 5735SOL    HW118104   4.379   0.931   2.131
 5735SOL    HW218105   4.239   1.016   2.120
 5736SOL     OW18106   4.678   4.576   6.854
 5736SOL    HW118107   4.738   4.526   6.915
 5736SOL    HW218108   4.727   4.654   6.815
 5737SOL     OW18109   4.985   5.443   1.624
 5737SOL    HW118110   5.036   5.436   1.538
 5737SOL    HW218111   5.046   5.418   1.700
 5738SOL     OW18112   3.471   1.133   6.539
 5738SOL    HW118113   3.512   1.223   6.525
 5738SOL    HW218114   3.536   1.073   6.586
 5739SOL     OW18115   2.513   0.399   5.994
 5739SOL    HW118116   2.482   0.386   5.900
 5739SOL    HW218117   2.611   0.423   5.993
 5740SOL     OW18118   5.580   3.398   1.191
 5740SOL    HW118119   5.642   3.417   1.267
 5740SOL    HW218120   5.502   3.345   1.224
 5741SOL     OW18121   0.851   3.948   4.459
 5741SOL    HW118122   0.760   3.988   4.459
 5741SOL    HW218123   0.844   3.848   4.450
 5742SOL     OW18124   4.045   0.242   3.358
 5742SOL    HW118125   4.074   0.173   3.292
 5742SOL    HW218126   4.003   0.319   3.311
 5743SOL     OW18127   3.542   4.376   5.730
 5743SOL    HW118128   3.529   4.475   5.727
 5743SOL    HW218129   3.473   4.331   5.673
 5744SOL     OW18130   5.760   0.115   2.715
 5744SOL    HW118131   5.702   0.190   2.682
 5744SOL    HW218132   5.712   0.028   2.703
 5745SOL     OW18133   2.354   2.631   3.859
 5745SOL    HW118134   2.335   2.614   3.955
 5745SOL    HW218135   2.401   2.551   3.820
 5746SOL     OW18136   3.691   0.212   3.310
 5746SOL    HW118137   3.781   0.170   3.302
 5746SOL    HW218138   3.668   0.258   3.224
 5747SOL     OW18139   1.178   6.156   1.999
 5747SOL    HW118140   1.083   6.188   2.003
 5747SOL    HW218141   1.191   6.083   2.066
 5748SOL     OW18142   0.238   5.932   0.501
 5748SOL    HW118143   0.255   6.015   0.555
 5748SOL    HW218144   0.207   5.859   0.562
 5749SOL     OW18145   1.858   6.470   5.387
 5749SOL    HW118146   1.862   6.371   5.391
 5749SOL    HW218147   1.932   6.510   5.441
 5750SOL     OW18148   0.324   3.987   4.289
 5750SOL    HW118149   0.268   3.906   4.270
 5750SOL    HW218150   0.318   4.009   4.386
 5751SOL     OW18151   2.151   3.919   4.258
 5751SOL    HW118152   2.132   3.920   4.160
 5751SOL    HW218153   2.150   3.824   4.292
 5752SOL     OW18154   5.453   0.165   0.672
 5752SOL    HW118155   5.362   0.181   0.711
 5752SOL    HW218156   5.467   0.227   0.595
 5753SOL     OW18157   3.081   4.061   4.974
 5753SOL    HW118158   3.140   4.043   5.052
 5753SOL    HW218159   3.058   4.159   4.972
 5754SOL     OW18160   1.044   6.250   1.759
 5754SOL    HW118161   0.966   6.294   1.804
 5754SOL    HW218162   1.082   6.180   1.820
 5755SOL     OW18163   2.021   2.314   6.771
 5755SOL    HW118164   2.055   2.392   6.720
 5755SOL    HW218165   1.982   2.346   6.858
 5756SOL     OW18166   6.208   6.174   1.961
 5756SOL    HW118167   6.219   6.161   1.862
 5756SOL    HW218168   6.233   6.090   2.009
 5757SOL     OW18169   0.076   6.408   3.676
 5757SOL    HW118170   0.121   6.336   3.729
 5757SOL    HW218171   0.010   6.367   3.613
 5758SOL     OW18172   1.659   6.333   2.964
 5758SOL    HW118173   1.752   6.322   2.928
 5758SOL    HW218174   1.599   6.263   2.923
 5759SOL     OW18175   4.570   0.016   1.439
 5759SOL    HW118176   4.623   0.005   1.523
 5759SOL    HW218177   4.568   0.112   1.413
 5760SOL     OW18178   6.728   3.260   2.093
 5760SOL    HW118179   6.667   3.338   2.105
 5760SOL    HW218180   6.728   3.232   1.997
 5761SOL     OW18181   5.499   6.168   4.707
 5761SOL    HW118182   5.509   6.130   4.615
 5761SOL    HW218183   5.571   6.236   4.724
 5762SOL     OW18184   5.425   4.124   0.194
 5762SOL    HW118185   5.491   4.199   0.192
 5762SOL    HW218186   5.461   4.047   0.141
 5763SOL     OW18187   5.206   0.466   0.569
 5763SOL    HW118188   5.237   0.558   0.595
 5763SOL    HW218189   5.232   0.448   0.474
 5764SOL     OW18190   4.347   5.315   3.724
 5764SOL    HW118191   4.256   5.327   3.765
 5764SOL    HW218192   4.380   5.403   3.690
 5765SOL     OW18193   6.640   5.316   0.967
 5765SOL    HW118194   6.544   5.342   0.976
 5765SOL    HW218195   6.651   5.253   0.891
 5766SOL     OW18196   1.338   1.870   4.610
 5766SOL    HW118197   1.242   1.843   4.605
 5766SOL    HW218198   1.390   1.821   4.540
 5767SOL     OW18199   1.748   0.561   0.608
 5767SOL    HW118200   1.844   0.534   0.615
 5767SOL    HW218201   1.742   0.657   0.583
 5768SOL     OW18202   6.998   6.708   3.844
 5768SOL    HW118203   7.006   6.748   3.935
 5768SOL    HW218204   6.947   6.622   3.851
 5769SOL     OW18205   2.152   5.640   6.612
 5769SOL    HW118206   2.115   5.722   6.655
 5769SOL    HW218207   2.082   5.597   6.555
 5770SOL     OW18208   0.827   6.079   0.533
 5770SOL    HW118209   0.845   6.159   0.475
 5770SOL    HW218210   0.812   5.999   0.475
 5771SOL     OW18211   1.978   5.687   4.156
 5771SOL    HW118212   1.911   5.746   4.111
 5771SOL    HW218213   2.042   5.743   4.209
 5772SOL     OW18214   4.689   0.950   1.687
 5772SOL    HW118215   4.661   0.859   1.655
 5772SOL    HW218216   4.651   1.020   1.626
 5773SOL     OW18217   4.557   2.043   2.292
 5773SOL    HW118218   4.496   2.044   2.213
 5773SOL    HW218219   4.507   2.010   2.372
 5774SOL     OW18220   1.432   6.730   3.953
 5774SOL    HW118221   1.453   6.633   3.941
 5774SOL    HW218222   1.469   6.782   3.876
 5775SOL     OW18223   0.416   5.650   3.128
 5775SOL    HW118224   0.431   5.572   3.189
 5775SOL    HW218225   0.484   5.721   3.146
 5776SOL     OW18226   1.733   0.646   3.156
 5776SOL    HW118227   1.660   0.691   3.105
 5776SOL    HW218228   1.799   0.608   3.092
 5777SOL     OW18229   1.412   0.410   3.069
 5777SOL    HW118230   1.346   0.407   2.994
 5777SOL    HW218231   1.370   0.455   3.148
 5778SOL     OW18232   1.287   1.099   6.690
 5778SOL    HW118233   1.261   1.018   6.637
 5778SOL    HW218234   1.380   1.126   6.666
 5779SOL     OW18235   4.758   2.435   6.520
 5779SOL    HW118236   4.754   2.450   6.619
 5779SOL    HW218237   4.853   2.424   6.491
 5780SOL     OW18238   5.880   5.320   4.303
 5780SOL    HW118239   5.782   5.337   4.293
 5780SOL    HW218240   5.927   5.335   4.216
 5781SOL     OW18241   6.763   4.796   5.627
 5781SOL    HW118242   6.763   4.760   5.534
 5781SOL    HW218243   6.789   4.724   5.691
 5782SOL     OW18244   0.826   1.190   0.063
 5782SOL    HW118245   0.775   1.146   7.016
 5782SOL    HW218246   0.887   1.123   0.105
 5783SOL     OW18247   1.209   1.738   1.839
 5783SOL    HW118248   1.158   1.691   1.767
 5783SOL    HW218249   1.157   1.734   1.924
 5784SOL     OW18250   0.522   6.130   6.704
 5784SOL    HW118251   0.425   6.114   6.721
 5784SOL    HW218252   0.534   6.172   6.614
 5785SOL     OW18253   2.770   2.051   0.165
 5785SOL    HW118254   2.679   2.085   0.190
 5785SOL    HW218255   2.839   2.117   0.192
 5786SOL     OW18256   6.656   4.228   0.352
 5786SOL    HW118257   6.621   4.320   0.338
 5786SOL    HW218258   6.657   4.179   0.265
 5787SOL     OW18259   1.749   2.166   5.487
 5787SOL    HW118260   1.768   2.130   5.396
 5787SOL    HW218261   1.813   2.240   5.507
 5788SOL     OW18262   2.545   1.516   2.683
 5788SOL    HW118263   2.544   1.607   2.643
 5788SOL    HW218264   2.486   1.455   2.630
 5789SOL     OW18265   3.413   5.033   6.448
 5789SOL    HW118266   3.390   4.977   6.369
 5789SOL    HW218267   3.350   5.012   6.523
 5790SOL     OW18268   0.219   3.270   4.249
 5790SOL    HW118269   0.203   3.338   4.321
 5790SOL    HW218270   0.251   3.316   4.166
 5791SOL     OW18271   3.228   0.395   2.138
 5791SOL    HW118272   3.318   0.353   2.143
 5791SOL    HW218273   3.162   0.341   2.190
 5792SOL     OW18274   0.714   2.338   2.977
 5792SOL    HW118275   0.673   2.263   2.924
 5792SOL    HW218276   0.647   2.371   3.044
 5793SOL     OW18277   6.317   1.121   3.475
 5793SOL    HW118278   6.402   1.124   3.423
 5793SOL    HW218279   6.298   1.026   3.501
 5794SOL     OW18280   3.803   2.385   0.091
 5794SOL    HW118281   3.782   2.287   0.092
 5794SOL    HW218282   3.883   2.403   0.148
 5795SOL     OW18283   5.750   5.479   5.460
 5795SOL    HW118284   5.841   5.451   5.489
 5795SOL    HW218285   5.684   5.460   5.533
 5796SOL     OW18286   3.608   0.852   0.112
 5796SOL    HW118287   3.598   0.928   0.175
 5796SOL    HW218288   3.533   0.853   0.045
 5797SOL     OW18289   3.792   1.707   4.961
 5797SOL    HW118290   3.827   1.791   5.001
 5797SOL    HW218291   3.862   1.665   4.904
 5798SOL     OW18292   0.541   3.691   5.737
 5798SOL    HW118293   0.450   3.675   5.700
 5798SOL    HW218294   0.601   3.616   5.710
 5799SOL     OW18295   5.369   0.612   3.871
 5799SOL    HW118296   5.405   0.623   3.964
 5799SOL    HW218297   5.377   0.516   3.844
 5800SOL     OW18298   5.463   6.078   1.201
 5800SOL    HW118299   5.366   6.074   1.223
 5800SOL    HW218300   5.477   6.140   1.124
 5801SOL     OW18301   0.614   2.026   4.558
 5801SOL    HW118302   0.593   2.052   4.653
 5801SOL    HW218303   0.529   2.017   4.506
 5802SOL     OW18304   0.610   4.637   6.816
 5802SOL    HW118305   0.619   4.690   6.900
 5802SOL    HW218306   0.624   4.540   6.835
 5803SOL     OW18307   1.361   5.176   1.551
 5803SOL    HW118308   1.385   5.079   1.554
 5803SOL    HW218309   1.312   5.196   1.467
 5804SOL     OW18310   6.196   4.237   3.817
 5804SOL    HW118311   6.259   4.313   3.803
 5804SOL    HW218312   6.232   4.176   3.888
 5805SOL     OW18313   3.825   4.026   6.616
 5805SOL    HW118314   3.905   4.072   6.576
 5805SOL    HW218315   3.756   4.012   6.544
 5806SOL     OW18316   0.397   6.441   6.741
 5806SOL    HW118317   0.481   6.432   6.795
 5806SOL    HW218318   0.320   6.460   6.803
 5807SOL     OW18319   1.245   3.981   1.812
 5807SOL    HW118320   1.219   3.915   1.882
 5807SOL    HW218321   1.219   4.073   1.841
 5808SOL     OW18322   5.570   3.709   2.726
 5808SOL    HW118323   5.478   3.717   2.765
 5808SOL    HW218324   5.634   3.763   2.780
 5809SOL     OW18325   6.602   2.539   4.257
 5809SOL    HW118326   6.702   2.544   4.266
 5809SOL    HW218327   6.578   2.474   4.185
 5810SOL     OW18328   3.072   0.816   4.032
 5810SOL    HW118329   3.152   0.818   3.972
 5810SOL    HW218330   3.003   0.756   3.992
 5811SOL     OW18331   2.961   0.876   4.999
 5811SOL    HW118332   3.004   0.966   4.990
 5811SOL    HW218333   3.027   0.811   5.038
 5812SOL     OW18334   5.223   0.259   4.372
 5812SOL    HW118335   5.179   0.286   4.458
 5812SOL    HW218336   5.154   0.248   4.301
 5813SOL     OW18337   1.272   0.942   6.289
 5813SOL    HW118338   1.214   1.017   6.257
 5813SOL    HW218339   1.245   0.916   6.382
 5814SOL     OW18340   6.437   4.363   0.678
 5814SOL    HW118341   6.411   4.338   0.585
 5814SOL    HW218342   6.487   4.287   0.720
 5815SOL     OW18343   4.563   2.593   3.714
 5815SOL    HW118344   4.515   2.681   3.718
 5815SOL    HW218345   4.610   2.586   3.626
 5816SOL     OW18346   5.564   6.573   0.614
 5816SOL    HW118347   5.504   6.558   0.692
 5816SOL    HW218348   5.572   6.488   0.562
 5817SOL     OW18349   5.643   2.946   5.721
 5817SOL    HW118350   5.656   2.985   5.630
 5817SOL    HW218351   5.575   3.000   5.771
 5818SOL     OW18352   0.083   6.226   4.424
 5818SOL    HW118353   7.019   6.194   4.447
 5818SOL    HW218354   0.094   6.321   4.454
 5819SOL     OW18355   4.263   0.360   0.361
 5819SOL    HW118356   4.211   0.445   0.355
 5819SOL    HW218357   4.294   0.334   0.270
 5820SOL     OW18358   4.263   6.951   3.823
 5820SOL    HW118359   4.185   7.009   3.846
 5820SOL    HW218360   4.249   6.860   3.862
 5821SOL     OW18361   1.786   0.516   2.319
 5821SOL    HW118362   1.748   0.569   2.243
 5821SOL    HW218363   1.819   0.579   2.390
 5822SOL     OW18364   0.533   2.018   2.053
 5822SOL    HW118365   0.500   2.090   1.992
 5822SOL    HW218366   0.455   1.965   2.087
 5823SOL     OW18367   1.104   0.885   5.513
 5823SOL    HW118368   1.192   0.932   5.512
 5823SOL    HW218369   1.066   0.884   5.420
 5824SOL     OW18370   6.914   6.402   2.966
 5824SOL    HW118371   6.840   6.403   3.034
 5824SOL    HW218372   6.953   6.494   2.959
 5825SOL     OW18373   2.110   2.324   5.650
 5825SOL    HW118374   2.020   2.331   5.606
 5825SOL    HW218375   2.179   2.370   5.594
 5826SOL     OW18376   6.958   5.905   5.835
 5826SOL    HW118377   7.015   5.831   5.871
 5826SOL    HW218378   6.979   5.920   5.738
 5827SOL     OW18379   1.752   5.431   4.385
 5827SOL    HW118380   1.831   5.397   4.334
 5827SOL    HW218381   1.766   5.414   4.483
 5828SOL     OW18382   0.205   3.070   2.096
 5828SOL    HW118383   0.291   3.115   2.070
 5828SOL    HW218384   0.130   3.134   2.087
 5829SOL     OW18385   2.752   1.341   2.723
 5829SOL    HW118386   2.819   1.350   2.796
 5829SOL    HW218387   2.689   1.419   2.725
 5830SOL     OW18388   4.120   0.680   5.365
 5830SOL    HW118389   4.033   0.632   5.369
 5830SOL    HW218390   4.122   0.750   5.436
 5831SOL     OW18391   6.443   6.894   4.197
 5831SOL    HW118392   6.438   6.971   4.134
 5831SOL    HW218393   6.361   6.890   4.253
 5832SOL     OW18394   4.091   3.670   5.432
 5832SOL    HW118395   4.003   3.716   5.445
 5832SOL    HW218396   4.162   3.719   5.482
 5833SOL     OW18397   3.427   3.130   4.299
 5833SOL    HW118398   3.359   3.066   4.335
 5833SOL    HW218399   3.381   3.214   4.269
 5834SOL     OW18400   5.953   1.971   0.485
 5834SOL    HW118401   5.909   1.983   0.574
 5834SOL    HW218402   5.883   1.954   0.415
 5835SOL     OW18403   5.002   2.596   3.022
 5835SOL    HW118404   4.983   2.689   3.054
 5835SOL    HW218405   4.994   2.592   2.923
 5836SOL     OW18406   2.697   6.211   3.656
 5836SOL    HW118407   2.654   6.164   3.579
 5836SOL    HW218408   2.642   6.290   3.683
 5837SOL     OW18409   4.138   4.665   6.395
 5837SOL    HW118410   4.083   4.737   6.436
 5837SOL    HW218411   4.221   4.705   6.355
 5838SOL     OW18412   2.200   1.414   6.083
 5838SOL    HW118413   2.271   1.441   6.148
 5838SOL    HW218414   2.116   1.392   6.132
 5839SOL     OW18415   0.484   2.649   2.286
 5839SOL    HW118416   0.391   2.664   2.252
 5839SOL    HW218417   0.481   2.589   2.366
 5840SOL     OW18418   1.431   5.353   0.002
 5840SOL    HW118419   1.493   5.279   0.029
 5840SOL    HW218420   1.388   5.329   6.942
 5841SOL     OW18421   5.757   2.840   2.173
 5841SOL    HW118422   5.729   2.890   2.254
 5841SOL    HW218423   5.676   2.799   2.130
 5842SOL     OW18424   3.718   3.232   0.981
 5842SOL    HW118425   3.753   3.302   1.044
 5842SOL    HW218426   3.695   3.275   0.893
 5843SOL     OW18427   2.109   4.068   2.307
 5843SOL    HW118428   2.070   4.034   2.393
 5843SOL    HW218429   2.091   4.001   2.234
 5844SOL     OW18430   0.299   6.821   5.997
 5844SOL    HW118431   0.237   6.743   6.005
 5844SOL    HW218432   0.265   6.884   5.926
 5845SOL     OW18433   0.847   0.985   3.154
 5845SOL    HW118434   0.858   1.026   3.063
 5845SOL    HW218435   0.764   1.019   3.196
 5846SOL     OW18436   6.529   3.250   4.901
 5846SOL    HW118437   6.525   3.350   4.901
 5846SOL    HW218438   6.579   3.219   4.982
 5847SOL     OW18439   1.906   1.578   2.095
 5847SOL    HW118440   1.954   1.661   2.125
 5847SOL    HW218441   1.810   1.583   2.125
 5848SOL     OW18442   2.468   4.774   3.690
 5848SOL    HW118443   2.377   4.787   3.652
 5848SOL    HW218444   2.487   4.676   3.697
 5849SOL     OW18445   0.213   0.555   6.224
 5849SOL    HW118446   0.215   0.573   6.126
 5849SOL    HW218447   0.144   0.486   6.244
 5850SOL     OW18448   1.187   3.058   1.859
 5850SOL    HW118449   1.240   3.000   1.921
 5850SOL    HW218450   1.249   3.120   1.811
 5851SOL     OW18451   5.233   2.875   3.059
 5851SOL    HW118452   5.313   2.923   3.097
 5851SOL    HW218453   5.256   2.838   2.969
 5852SOL     OW18454   4.654   6.928   2.804
 5852SOL    HW118455   4.723   7.001   2.805
 5852SOL    HW218456   4.595   6.939   2.724
 5853SOL     OW18457   3.499   6.041   5.745
 5853SOL    HW118458   3.579   5.996   5.783
 5853SOL    HW218459   3.469   5.991   5.663
 5854SOL     OW18460   6.422   3.330   5.908
 5854SOL    HW118461   6.434   3.368   6.000
 5854SOL    HW218462   6.504   3.279   5.882
 5855SOL     OW18463   0.684   0.826   4.943
 5855SOL    HW118464   0.661   0.884   5.022
 5855SOL    HW218465   0.600   0.803   4.894
 5856SOL     OW18466   2.215   5.289   3.563
 5856SOL    HW118467   2.212   5.307   3.464
 5856SOL    HW218468   2.270   5.359   3.608
 5857SOL     OW18469   5.389   2.770   4.833
 5857SOL    HW118470   5.357   2.681   4.799
 5857SOL    HW218471   5.436   2.819   4.759
 5858SOL     OW18472   2.640   2.438   1.882
 5858SOL    HW118473   2.703   2.483   1.818
 5858SOL    HW218474   2.693   2.395   1.955
 5859SOL     OW18475   5.560   6.250   0.824
 5859SOL    HW118476   5.498   6.252   0.902
 5859SOL    HW218477   5.654   6.234   0.857
 5860SOL     OW18478   2.158   3.721   1.777
 5860SOL    HW118479   2.197   3.633   1.803
 5860SOL    HW218480   2.220   3.795   1.805
 5861SOL     OW18481   5.481   1.590   3.809
 5861SOL    HW118482   5.497   1.545   3.898
 5861SOL    HW218483   5.446   1.522   3.744
 5862SOL     OW18484   4.459   5.311   3.087
 5862SOL    HW118485   4.558   5.318   3.095
 5862SOL    HW218486   4.418   5.401   3.100
 5863SOL     OW18487   2.712   0.859   5.131
 5863SOL    HW118488   2.801   0.846   5.087
 5863SOL    HW218489   2.645   0.888   5.063
 5864SOL     OW18490   4.062   4.125   1.605
 5864SOL    HW118491   4.121   4.072   1.666
 5864SOL    HW218492   3.969   4.091   1.610
 5865SOL     OW18493   5.098   0.598   4.066
 5865SOL    HW118494   5.034   0.591   3.990
 5865SOL    HW218495   5.191   0.604   4.030
 5866SOL     OW18496   3.802   6.276   6.664
 5866SOL    HW118497   3.872   6.222   6.618
 5866SOL    HW218498   3.726   6.293   6.602
 5867SOL     OW18499   0.395   3.399   0.800
 5867SOL    HW118500   0.389   3.320   0.740
 5867SOL    HW218501   0.485   3.442   0.790
 5868SOL     OW18502   0.036   0.552   4.737
 5868SOL    HW118503   6.986   0.496   4.770
 5868SOL    HW218504   0.016   0.648   4.754
 5869SOL     OW18505   1.907   4.862   3.751
 5869SOL    HW118506   1.966   4.935   3.716
 5869SOL    HW218507   1.861   4.818   3.674
 5870SOL     OW18508   4.675   5.629   4.934
 5870SOL    HW118509   4.753   5.668   4.983
 5870SOL    HW218510   4.634   5.556   4.989
 5871SOL     OW18511   4.317   3.887   0.066
 5871SOL    HW118512   4.374   3.852   0.140
 5871SOL    HW218513   4.306   3.817   7.023
 5872SOL     OW18514   4.050   5.627   6.910
 5872SOL    HW118515   3.951   5.622   6.923
 5872SOL    HW218516   4.092   5.673   6.988
 5873SOL     OW18517   1.960   2.712   0.400
 5873SOL    HW118518   1.904   2.632   0.421
 5873SOL    HW218519   1.963   2.772   0.480
 5874SOL     OW18520   2.879   2.966   1.313
 5874SOL    HW118521   2.844   3.044   1.366
 5874SOL    HW218522   2.951   2.997   1.252
 5875SOL     OW18523   3.942   1.339   0.266
 5875SOL    HW118524   3.894   1.337   0.179
 5875SOL    HW218525   3.939   1.248   0.308
 5876SOL     OW18526   3.438   3.031   6.509
 5876SOL    HW118527   3.514   3.027   6.444
 5876SOL    HW218528   3.380   2.950   6.497
 5877SOL     OW18529   6.163   6.441   1.265
 5877SOL    HW118530   6.231   6.396   1.207
 5877SOL    HW218531   6.166   6.402   1.357
 5878SOL     OW18532   5.635   5.922   2.988
 5878SOL    HW118533   5.603   5.921   2.894
 5878SOL    HW218534   5.566   5.965   3.046
 5879SOL     OW18535   3.806   2.894   6.029
 5879SOL    HW118536   3.771   2.988   6.037
 5879SOL    HW218537   3.776   2.855   5.942
 5880SOL     OW18538   4.497   3.875   5.739
 5880SOL    HW118539   4.450   3.807   5.683
 5880SOL    HW218540   4.450   3.963   5.731
 5881SOL     OW18541   1.244   6.770   2.784
 5881SOL    HW118542   1.304   6.828   2.839
 5881SOL    HW218543   1.299   6.710   2.726
 5882SOL     OW18544   1.537   6.444   5.897
 5882SOL    HW118545   1.589   6.360   5.909
 5882SOL    HW218546   1.451   6.437   5.948
 5883SOL     OW18547   0.088   2.661   0.430
 5883SOL    HW118548   0.081   2.760   0.442
 5883SOL    HW218549   0.184   2.633   0.433
 5884SOL     OW18550   6.550   0.810   4.359
 5884SOL    HW118551   6.512   0.757   4.283
 5884SOL    HW218552   6.495   0.795   4.441
 5885SOL     OW18553   0.678   5.673   0.399
 5885SOL    HW118554   0.724   5.757   0.371
 5885SOL    HW218555   0.583   5.694   0.424
 5886SOL     OW18556   1.301   2.982   3.098
 5886SOL    HW118557   1.312   3.071   3.142
 5886SOL    HW218558   1.212   2.979   3.051
 5887SOL     OW18559   2.317   1.872   1.891
 5887SOL    HW118560   2.271   1.890   1.978
 5887SOL    HW218561   2.251   1.832   1.827
 5888SOL     OW18562   2.851   0.481   0.816
 5888SOL    HW118563   2.763   0.472   0.861
 5888SOL    HW218564   2.922   0.501   0.884
 5889SOL     OW18565   6.835   1.660   1.425
 5889SOL    HW118566   6.829   1.690   1.329
 5889SOL    HW218567   6.872   1.735   1.481
 5890SOL     OW18568   1.920   6.336   2.460
 5890SOL    HW118569   1.869   6.290   2.532
 5890SOL    HW218570   1.867   6.333   2.375
 5891SOL     OW18571   2.658   3.481   0.438
 5891SOL    HW118572   2.596   3.403   0.430
 5891SOL    HW218573   2.733   3.470   0.373
 5892SOL     OW18574   0.395   4.267   0.791
 5892SOL    HW118575   0.414   4.186   0.847
 5892SOL    HW218576   0.386   4.239   0.695
 5893SOL     OW18577   1.037   5.121   1.322
 5893SOL    HW118578   1.060   5.212   1.355
 5893SOL    HW218579   1.046   5.055   1.396
 5894SOL     OW18580   0.905   5.524   5.947
 5894SOL    HW118581   0.921   5.585   5.869
 5894SOL    HW218582   0.810   5.495   5.947
 5895SOL     OW18583   6.304   3.353   4.599
 5895SOL    HW118584   6.303   3.253   4.591
 5895SOL    HW218585   6.227   3.382   4.656
 5896SOL     OW18586   5.609   1.696   1.857
 5896SOL    HW118587   5.525   1.721   1.808
 5896SOL    HW218588   5.586   1.663   1.948
 5897SOL     OW18589   3.775   1.700   1.805
 5897SOL    HW118590   3.736   1.751   1.728
 5897SOL    HW218591   3.869   1.673   1.783
 5898SOL     OW18592   2.248   1.877   5.512
 5898SOL    HW118593   2.262   1.819   5.433
 5898SOL    HW218594   2.317   1.950   5.513
 5899SOL     OW18595   6.639   5.228   6.013
 5899SOL    HW118596   6.685   5.294   6.073
 5899SOL    HW218597   6.625   5.269   5.923
 5900SOL     OW18598   0.399   5.414   2.927
 5900SOL    HW118599   0.397   5.324   2.970
 5900SOL    HW218600   0.439   5.481   2.990
 5901SOL     OW18601   0.934   0.315   6.873
 5901SOL    HW118602   0.899   0.223   6.852
 5901SOL    HW218603   1.032   0.309   6.892
 5902SOL     OW18604   5.579   3.357   4.817
 5902SOL    HW118605   5.541   3.390   4.903
 5902SOL    HW218606   5.572   3.429   4.748
 5903SOL     OW18607   5.504   3.012   6.973
 5903SOL    HW118608   5.547   2.923   6.957
 5903SOL    HW218609   5.532   3.076   6.901
 5904SOL     OW18610   1.067   4.939   1.509
 5904SOL    HW118611   1.144   4.925   1.447
 5904SOL    HW218612   1.054   4.858   1.565
 5905SOL     OW18613   5.325   0.921   3.608
 5905SOL    HW118614   5.242   0.866   3.622
 5905SOL    HW218615   5.300   1.009   3.568
 5906SOL     OW18616   5.841   1.460   5.383
 5906SOL    HW118617   5.822   1.389   5.314
 5906SOL    HW218618   5.920   1.433   5.437
 5907SOL     OW18619   1.772   1.068   0.269
 5907SOL    HW118620   1.870   1.065   0.285
 5907SOL    HW218621   1.725   1.098   0.352
 5908SOL     OW18622   4.856   3.337   0.239
 5908SOL    HW118623   4.927   3.320   0.171
 5908SOL    HW218624   4.771   3.293   0.210
 5909SOL     OW18625   0.733   4.357   5.530
 5909SOL    HW118626   0.831   4.373   5.540
 5909SOL    HW218627   0.716   4.306   5.445
 5910SOL     OW18628   1.670   4.066   1.706
 5910SOL    HW118629   1.739   4.005   1.667
 5910SOL    HW218630   1.640   4.132   1.637
 5911SOL     OW18631   0.221   5.389   6.053
 5911SOL    HW118632   0.133   5.356   6.020
 5911SOL    HW218633   0.273   5.313   6.091
 5912SOL     OW18634   5.956   3.303   6.876
 5912SOL    HW118635   6.041   3.302   6.928
 5912SOL    HW218636   5.881   3.334   6.936
 5913SOL     OW18637   2.481   2.836   5.697
 5913SOL    HW118638   2.447   2.920   5.739
 5913SOL    HW218639   2.498   2.852   5.600
 5914SOL     OW18640   2.596   6.192   0.230
 5914SOL    HW118641   2.551   6.197   0.319
 5914SOL    HW218642   2.656   6.272   0.218
 5915SOL     OW18643   5.611   2.703   2.934
 5915SOL    HW118644   5.535   2.652   2.894
 5915SOL    HW218645   5.660   2.751   2.861
 5916SOL     OW18646   4.565   0.231   5.920
 5916SOL    HW118647   4.498   0.202   5.989
 5916SOL    HW218648   4.519   0.289   5.852
 5917SOL     OW18649   3.901   2.993   3.596
 5917SOL    HW118650   3.894   3.051   3.515
 5917SOL    HW218651   3.915   2.898   3.569
 5918SOL     OW18652   1.499   3.665   4.309
 5918SOL    HW118653   1.407   3.702   4.297
 5918SOL    HW218654   1.559   3.736   4.347
 5919SOL     OW18655   2.953   2.413   0.690
 5919SOL    HW118656   2.886   2.351   0.729
 5919SOL    HW218657   3.015   2.362   0.629
 5920SOL     OW18658   3.108   6.647   0.019
 5920SOL    HW118659   3.153   6.685   6.965
 5920SOL    HW218660   3.036   6.710   0.050
 5921SOL     OW18661   3.953   5.372   5.778
 5921SOL    HW118662   4.027   5.339   5.836
 5921SOL    HW218663   3.976   5.463   5.743
 5922SOL     OW18664   6.552   4.702   2.843
 5922SOL    HW118665   6.649   4.677   2.841
 5922SOL    HW218666   6.533   4.756   2.925
 5923SOL     OW18667   6.249   0.318   3.769
 5923SOL    HW118668   6.181   0.244   3.763
 5923SOL    HW218669   6.277   0.329   3.864
 5924SOL     OW18670   5.308   2.361   4.472
 5924SOL    HW118671   5.255   2.434   4.430
 5924SOL    HW218672   5.253   2.277   4.475
 5925SOL     OW18673   4.705   5.976   2.746
 5925SOL    HW118674   4.617   5.949   2.784
 5925SOL    HW218675   4.755   6.032   2.812
 5926SOL     OW18676   3.560   5.510   1.635
 5926SOL    HW118677   3.510   5.546   1.556
 5926SOL    HW218678   3.497   5.459   1.694
 5927SOL     OW18679   2.543   6.232   1.332
 5927SOL    HW118680   2.524   6.150   1.387
 5927SOL    HW218681   2.536   6.209   1.235
 5928SOL     OW18682   2.077   0.661   2.237
 5928SOL    HW118683   2.140   0.647   2.313
 5928SOL    HW218684   2.000   0.597   2.245
 5929SOL     OW18685   1.126   6.608   6.055
 5929SOL    HW118686   1.082   6.519   6.043
 5929SOL    HW218687   1.076   6.677   6.003
 5930SOL     OW18688   6.237   1.619   4.042
 5930SOL    HW118689   6.282   1.707   4.059
 5930SOL    HW218690   6.208   1.614   3.947
 5931SOL     OW18691   5.714   5.444   2.100
 5931SOL    HW118692   5.731   5.519   2.036
 5931SOL    HW218693   5.795   5.385   2.104
 5932SOL     OW18694   2.223   6.605   0.881
 5932SOL    HW118695   2.209   6.513   0.844
 5932SOL    HW218696   2.156   6.623   0.952
 5933SOL     OW18697   0.305   4.153   2.270
 5933SOL    HW118698   0.223   4.208   2.255
 5933SOL    HW218699   0.280   4.068   2.315
 5934SOL     OW18700   3.776   3.686   3.119
 5934SOL    HW118701   3.872   3.712   3.119
 5934SOL    HW218702   3.734   3.713   3.206
 5935SOL     OW18703   3.866   4.069   4.678
 5935SOL    HW118704   3.927   4.038   4.750
 5935SOL    HW218705   3.793   4.124   4.718
 5936SOL     OW18706   4.447   4.430   6.756
 5936SOL    HW118707   4.529   4.457   6.805
 5936SOL    HW218708   4.465   4.348   6.702
 5937SOL     OW18709   0.809   3.716   1.438
 5937SOL    HW118710   0.896   3.725   1.485
 5937SOL    HW218711   0.734   3.731   1.503
 5938SOL     OW18712   1.709   4.877   3.473
 5938SOL    HW118713   1.636   4.912   3.532
 5938SOL    HW218714   1.680   4.790   3.433
 5939SOL     OW18715   3.315   0.568   3.036
 5939SOL    HW118716   3.331   0.501   2.963
 5939SOL    HW218717   3.354   0.534   3.122
 5940SOL     OW18718   3.770   6.754   2.020
 5940SOL    HW118719   3.806   6.694   1.950
 5940SOL    HW218720   3.843   6.780   2.084
 5941SOL     OW18721   5.906   4.990   2.050
 5941SOL    HW118722   5.923   5.089   2.046
 5941SOL    HW218723   5.964   4.948   2.120
 5942SOL     OW18724   4.321   3.030   6.596
 5942SOL    HW118725   4.396   2.964   6.588
 5942SOL    HW218726   4.302   3.046   6.692
 5943SOL     OW18727   2.046   6.189   0.815
 5943SOL    HW118728   2.116   6.260   0.815
 5943SOL    HW218729   1.956   6.231   0.806
 5944SOL     OW18730   5.296   1.535   1.679
 5944SOL    HW118731   5.362   1.609   1.671
 5944SOL    HW218732   5.303   1.475   1.599
 5945SOL     OW18733   6.834   5.045   5.357
 5945SOL    HW118734   6.914   4.991   5.386
 5945SOL    HW218735   6.789   4.999   5.281
 5946SOL     OW18736   3.395   4.088   5.914
 5946SOL    HW118737   3.377   4.070   6.010
 5946SOL    HW218738   3.312   4.069   5.861
 5947SOL     OW18739   4.172   3.272   1.788
 5947SOL    HW118740   4.105   3.261   1.715
 5947SOL    HW218741   4.126   3.268   1.877
 5948SOL     OW18742   3.869   5.004   2.842
 5948SOL    HW118743   3.937   4.931   2.851
 5948SOL    HW218744   3.866   5.057   2.926
 5949SOL     OW18745   3.878   4.674   1.000
 5949SOL    HW118746   3.877   4.651   0.903
 5949SOL    HW218747   3.943   4.747   1.017
 5950SOL     OW18748   5.610   1.715   4.560
 5950SOL    HW118749   5.708   1.701   4.576
 5950SOL    HW218750   5.596   1.758   4.471
 5951SOL     OW18751   1.656   6.665   4.613
 5951SOL    HW118752   1.580   6.640   4.553
 5951SOL    HW218753   1.739   6.676   4.558
 5952SOL     OW18754   6.585   5.701   3.925
 5952SOL    HW118755   6.656   5.771   3.920
 5952SOL    HW218756   6.625   5.616   3.961
 5953SOL     OW18757   6.977   3.185   5.178
 5953SOL    HW118758   0.044   3.211   5.157
 5953SOL    HW218759   6.947   3.112   5.116
 5954SOL     OW18760   6.783   4.738   6.014
 5954SOL    HW118761   6.795   4.831   5.980
 5954SOL    HW218762   6.816   4.672   5.946
 5955SOL     OW18763   5.452   5.470   2.165
 5955SOL    HW118764   5.545   5.455   2.132
 5955SOL    HW218765   5.416   5.554   2.124
 5956SOL     OW18766   4.118   1.944   6.958
 5956SOL    HW118767   4.030   1.896   6.955
 5956SOL    HW218768   4.184   1.889   7.009
 5957SOL     OW18769   5.044   6.390   6.362
 5957SOL    HW118770   5.043   6.336   6.278
 5957SOL    HW218771   5.027   6.330   6.440
 5958SOL     OW18772   6.563   6.208   2.255
 5958SOL    HW118773   6.534   6.219   2.351
 5958SOL    HW218774   6.498   6.254   2.195
 5959SOL     OW18775   3.200   1.931   5.626
 5959SOL    HW118776   3.125   1.959   5.685
 5959SOL    HW218777   3.199   1.986   5.542
 5960SOL     OW18778   3.204   0.055   3.836
 5960SOL    HW118779   3.291   0.033   3.793
 5960SOL    HW218780   3.165   7.000   3.877
 5961SOL     OW18781   3.989   1.022   4.180
 5961SOL    HW118782   4.035   0.964   4.247
 5961SOL    HW218783   3.894   1.037   4.208
 5962SOL     OW18784   5.220   5.543   2.825
 5962SOL    HW118785   5.291   5.526   2.756
 5962SOL    HW218786   5.170   5.627   2.801
 5963SOL     OW18787   3.462   3.875   3.549
 5963SOL    HW118788   3.475   3.851   3.645
 5963SOL    HW218789   3.446   3.792   3.496
 5964SOL     OW18790   6.416   5.155   6.650
 5964SOL    HW118791   6.402   5.062   6.686
 5964SOL    HW218792   6.394   5.222   6.721
 5965SOL     OW18793   1.694   2.071   6.471
 5965SOL    HW118794   1.783   2.056   6.429
 5965SOL    HW218795   1.706   2.093   6.568
 5966SOL     OW18796   3.102   5.816   5.044
 5966SOL    HW118797   3.025   5.757   5.068
 5966SOL    HW218798   3.070   5.911   5.037
 5967SOL     OW18799   4.588   6.446   2.492
 5967SOL    HW118800   4.520   6.499   2.542
 5967SOL    HW218801   4.652   6.405   2.557
 5968SOL     OW18802   6.298   2.058   3.040
 5968SOL    HW118803   6.308   2.138   2.982
 5968SOL    HW218804   6.379   1.999   3.030
 5969SOL     OW18805   6.014   2.940   4.732
 5969SOL    HW118806   6.016   3.034   4.767
 5969SOL    HW218807   5.923   2.901   4.744
 5970SOL     OW18808   0.994   3.880   2.443
 5970SOL    HW118809   1.017   3.885   2.541
 5970SOL    HW218810   0.998   3.785   2.413
 5971SOL     OW18811   1.878   0.424   3.000
 5971SOL    HW118812   1.915   0.473   2.921
 5971SOL    HW218813   1.782   0.402   2.984
 5972SOL     OW18814   5.119   6.556   0.628
 5972SOL    HW118815   5.077   6.646   0.634
 5972SOL    HW218816   5.049   6.487   0.617
 5973SOL     OW18817   2.088   5.184   2.377
 5973SOL    HW118818   2.008   5.229   2.339
 5973SOL    HW218819   2.068   5.153   2.470
 5974SOL     OW18820   6.528   3.960   6.121
 5974SOL    HW118821   6.618   4.003   6.119
 5974SOL    HW218822   6.457   4.030   6.119
 5975SOL     OW18823   3.910   2.339   0.682
 5975SOL    HW118824   3.916   2.239   0.680
 5975SOL    HW218825   3.870   2.369   0.768
 5976SOL     OW18826   3.286   2.917   4.454
 5976SOL    HW118827   3.319   2.824   4.438
 5976SOL    HW218828   3.222   2.942   4.381
 5977SOL     OW18829   1.354   4.840   1.690
 5977SOL    HW118830   1.438   4.805   1.732
 5977SOL    HW218831   1.373   4.868   1.596
 5978SOL     OW18832   5.151   3.987   2.674
 5978SOL    HW118833   5.082   4.059   2.681
 5978SOL    HW218834   5.179   3.977   2.578
 5979SOL     OW18835   6.240   6.870   3.492
 5979SOL    HW118836   6.300   6.947   3.511
 5979SOL    HW218837   6.243   6.806   3.569
 5980SOL     OW18838   4.255   4.393   6.998
 5980SOL    HW118839   4.314   4.393   6.918
 5980SOL    HW218840   4.257   4.483   0.015
 5981SOL     OW18841   6.672   1.697   1.729
 5981SOL    HW118842   6.581   1.740   1.726
 5981SOL    HW218843   6.663   1.604   1.764
 5982SOL     OW18844   6.336   2.201   6.568
 5982SOL    HW118845   6.401   2.168   6.637
 5982SOL    HW218846   6.359   2.160   6.479
 5983SOL     OW18847   2.339   1.934   4.233
 5983SOL    HW118848   2.407   1.988   4.282
 5983SOL    HW218849   2.248   1.973   4.247
 5984SOL     OW18850   0.764   6.386   4.442
 5984SOL    HW118851   0.664   6.379   4.430
 5984SOL    HW218852   0.792   6.330   4.520
 5985SOL     OW18853   5.314   2.096   3.436
 5985SOL    HW118854   5.258   2.130   3.360
 5985SOL    HW218855   5.320   1.997   3.431
 5986SOL     OW18856   3.282   3.268   3.749
 5986SOL    HW118857   3.323   3.177   3.748
 5986SOL    HW218858   3.186   3.262   3.720
 5987SOL     OW18859   4.640   0.573   5.362
 5987SOL    HW118860   4.606   0.484   5.330
 5987SOL    HW218861   4.590   0.646   5.316
 5988SOL     OW18862   3.974   0.126   4.842
 5988SOL    HW118863   4.029   0.131   4.925
 5988SOL    HW218864   3.975   0.032   4.807
 5989SOL     OW18865   2.501   6.759   6.277
 5989SOL    HW118866   2.446   6.763   6.194
 5989SOL    HW218867   2.441   6.770   6.357
 5990SOL     OW18868   3.606   4.669   0.119
 5990SOL    HW118869   3.540   4.597   0.099
 5990SOL    HW218870   3.695   4.629   0.141
 5991SOL     OW18871   3.997   4.890   5.289
 5991SOL    HW118872   3.941   4.870   5.209
 5991SOL    HW218873   4.064   4.817   5.302
 5992SOL     OW18874   3.438   1.123   4.024
 5992SOL    HW118875   3.390   1.189   4.081
 5992SOL    HW218876   3.536   1.139   4.029
 5993SOL     OW18877   3.168   6.532   5.302
 5993SOL    HW118878   3.107   6.486   5.366
 5993SOL    HW218879   3.259   6.489   5.305
 5994SOL     OW18880   6.316   2.430   1.818
 5994SOL    HW118881   6.299   2.381   1.903
 5994SOL    HW218882   6.362   2.370   1.753
 5995SOL     OW18883   0.206   5.190   1.252
 5995SOL    HW118884   0.179   5.164   1.159
 5995SOL    HW218885   0.195   5.112   1.313
 5996SOL     OW18886   0.642   5.479   6.810
 5996SOL    HW118887   0.554   5.526   6.819
 5996SOL    HW218888   0.671   5.443   6.899
 5997SOL     OW18889   0.366   0.127   1.855
 5997SOL    HW118890   0.369   0.144   1.954
 5997SOL    HW218891   0.412   0.201   1.807
 5998SOL     OW18892   5.358   2.175   2.394
 5998SOL    HW118893   5.394   2.264   2.367
 5998SOL    HW218894   5.345   2.173   2.493
 5999SOL     OW18895   1.048   1.852   3.581
 5999SOL    HW118896   1.021   1.895   3.667
 5999SOL    HW218897   1.146   1.864   3.566
 6000SOL     OW18898   4.155   5.184   2.294
 6000SOL    HW118899   4.196   5.141   2.374
 6000SOL    HW218900   4.221   5.245   2.251
 6001SOL     OW18901   6.993   3.198   6.637
 6001SOL    HW118902   6.955   3.207   6.729
 6001SOL    HW218903   6.992   3.287   6.592
 6002SOL     OW18904   0.321   6.737   1.318
 6002SOL    HW118905   0.293   6.698   1.406
 6002SOL    HW218906   0.341   6.664   1.253
 6003SOL     OW18907   5.282   3.806   4.705
 6003SOL    HW118908   5.370   3.759   4.697
 6003SOL    HW218909   5.222   3.755   4.766
 6004SOL     OW18910   0.472   4.115   3.364
 6004SOL    HW118911   0.549   4.069   3.322
 6004SOL    HW218912   0.394   4.052   3.369
 6005SOL     OW18913   4.033   5.267   3.975
 6005SOL    HW118914   3.944   5.243   3.938
 6005SOL    HW218915   4.077   5.334   3.915
 6006SOL     OW18916   3.072   0.142   6.864
 6006SOL    HW118917   3.145   0.207   6.848
 6006SOL    HW218918   3.065   0.123   6.962
 6007SOL     OW18919   5.581   3.076   3.641
 6007SOL    HW118920   5.577   2.977   3.654
 6007SOL    HW218921   5.495   3.108   3.599
 6008SOL     OW18922   3.446   5.661   5.371
 6008SOL    HW118923   3.533   5.622   5.339
 6008SOL    HW218924   3.407   5.600   5.440
 6009SOL     OW18925   2.802   1.849   4.585
 6009SOL    HW118926   2.825   1.903   4.504
 6009SOL    HW218927   2.776   1.911   4.659
 6010SOL     OW18928   1.987   4.420   2.364
 6010SOL    HW118929   1.988   4.511   2.324
 6010SOL    HW218930   1.949   4.355   2.298
 6011SOL     OW18931   5.139   2.700   1.580
 6011SOL    HW118932   5.042   2.721   1.593
 6011SOL    HW218933   5.186   2.781   1.545
 6012SOL     OW18934   6.761   2.059   6.877
 6012SOL    HW118935   6.774   1.960   6.875
 6012SOL    HW218936   6.729   2.087   6.967
 6013SOL     OW18937   6.547   1.274   1.808
 6013SOL    HW118938   6.608   1.230   1.874
 6013SOL    HW218939   6.567   1.239   1.716
 6014SOL     OW18940   5.893   1.727   0.833
 6014SOL    HW118941   5.835   1.721   0.914
 6014SOL    HW218942   5.852   1.790   0.767
 6015SOL     OW18943   5.754   2.122   5.144
 6015SOL    HW118944   5.830   2.100   5.205
 6015SOL    HW218945   5.742   2.222   5.141
 6016SOL     OW18946   0.640   1.026   5.824
 6016SOL    HW118947   0.622   1.119   5.858
 6016SOL    HW218948   0.717   0.987   5.874
 6017SOL     OW18949   6.034   5.598   3.517
 6017SOL    HW118950   6.109   5.655   3.551
 6017SOL    HW218951   6.055   5.565   3.426
 6018SOL     OW18952   3.099   3.269   0.212
 6018SOL    HW118953   3.182   3.244   0.162
 6018SOL    HW218954   3.090   3.212   0.293
 6019SOL     OW18955   4.600   1.380   3.147
 6019SOL    HW118956   4.606   1.316   3.070
 6019SOL    HW218957   4.515   1.432   3.140
 6020SOL     OW18958   3.340   6.924   2.257
 6020SOL    HW118959   3.294   6.993   2.200
 6020SOL    HW218960   3.381   6.855   2.198
 6021SOL     OW18961   4.651   0.774   2.383
 6021SOL    HW118962   4.589   0.838   2.337
 6021SOL    HW218963   4.736   0.821   2.406
 6022SOL     OW18964   4.706   1.020   3.223
 6022SOL    HW118965   4.792   1.026   3.172
 6022SOL    HW218966   4.723   1.040   3.319
 6023SOL     OW18967   6.152   0.955   3.676
 6023SOL    HW118968   6.179   1.024   3.743
 6023SOL    HW218969   6.215   0.877   3.681
 6024SOL     OW18970   0.589   4.758   2.373
 6024SOL    HW118971   0.640   4.809   2.443
 6024SOL    HW218972   0.491   4.775   2.384
 6025SOL     OW18973   4.295   0.872   1.791
 6025SOL    HW118974   4.338   0.925   1.719
 6025SOL    HW218975   4.206   0.913   1.814
 6026SOL     OW18976   0.399   5.061   4.755
 6026SOL    HW118977   0.393   5.161   4.760
 6026SOL    HW218978   0.462   5.035   4.681
 6027SOL     OW18979   2.355   4.374   6.314
 6027SOL    HW118980   2.435   4.325   6.281
 6027SOL    HW218981   2.274   4.317   6.306
 6028SOL     OW18982   1.410   4.137   0.435
 6028SOL    HW118983   1.392   4.046   0.472
 6028SOL    HW218984   1.409   4.204   0.509
 6029SOL     OW18985   2.051   6.454   0.504
 6029SOL    HW118986   1.962   6.410   0.488
 6029SOL    HW218987   2.114   6.430   0.431
 6030SOL     OW18988   2.567   0.998   2.797
 6030SOL    HW118989   2.487   0.987   2.738
 6030SOL    HW218990   2.650   0.988   2.742
 6031SOL     OW18991   5.076   6.005   5.380
 6031SOL    HW118992   5.045   6.076   5.317
 6031SOL    HW218993   5.031   6.017   5.469
 6032SOL     OW18994   1.716   3.691   2.723
 6032SOL    HW118995   1.750   3.597   2.724
 6032SOL    HW218996   1.649   3.702   2.650
 6033SOL     OW18997   2.409   2.341   2.975
 6033SOL    HW118998   2.326   2.348   3.031
 6033SOL    HW218999   2.488   2.369   3.029
 6034SOL     OW19000   2.642   4.670   4.389
 6034SOL    HW119001   2.658   4.584   4.341
 6034SOL    HW219002   2.624   4.652   4.486
 6035SOL     OW19003   4.997   1.095   4.347
 6035SOL    HW119004   5.019   1.093   4.444
 6035SOL    HW219005   5.012   1.187   4.311
 6036SOL     OW19006   0.216   6.587   5.126
 6036SOL    HW119007   0.192   6.629   5.214
 6036SOL    HW219008   0.132   6.567   5.075
 6037SOL     OW19009   4.909   4.758   6.156
 6037SOL    HW119010   4.838   4.825   6.134
 6037SOL    HW219011   4.906   4.683   6.089
 6038SOL     OW19012   0.556   3.215   6.408
 6038SOL    HW119013   0.467   3.243   6.374
 6038SOL    HW219014   0.628   3.245   6.346
 6039SOL     OW19015   3.310   3.492   2.443
 6039SOL    HW119016   3.286   3.588   2.428
 6039SOL    HW219017   3.410   3.483   2.441
 6040SOL     OW19018   0.711   1.619   6.402
 6040SOL    HW119019   0.719   1.671   6.487
 6040SOL    HW219020   0.713   1.521   6.423
 6041SOL     OW19021   1.008   2.299   6.867
 6041SOL    HW119022   1.034   2.358   6.943
 6041SOL    HW219023   1.080   2.231   6.851
 6042SOL     OW19024   5.471   5.153   2.562
 6042SOL    HW119025   5.483   5.060   2.597
 6042SOL    HW219026   5.558   5.185   2.523
 6043SOL     OW19027   1.385   5.178   4.646
 6043SOL    HW119028   1.304   5.119   4.646
 6043SOL    HW219029   1.379   5.243   4.571
 6044SOL     OW19030   0.059   1.874   1.370
 6044SOL    HW119031   0.089   1.964   1.400
 6044SOL    HW219032   0.125   1.805   1.399
 6045SOL     OW19033   5.484   5.779   0.932
 6045SOL    HW119034   5.496   5.727   0.848
 6045SOL    HW219035   5.405   5.840   0.923
 6046SOL     OW19036   2.565   2.399   0.340
 6046SOL    HW119037   2.601   2.364   0.427
 6046SOL    HW219038   2.540   2.495   0.351
 6047SOL     OW19039   6.131   0.915   4.212
 6047SOL    HW119040   6.128   0.917   4.311
 6047SOL    HW219041   6.052   0.864   4.177
 6048SOL     OW19042   3.777   0.780   3.642
 6048SOL    HW119043   3.783   0.689   3.603
 6048SOL    HW219044   3.861   0.801   3.692
 6049SOL     OW19045   4.441   3.020   6.251
 6049SOL    HW119046   4.393   3.100   6.287
 6049SOL    HW219047   4.375   2.958   6.209
 6050SOL     OW19048   3.935   4.548   5.706
 6050SOL    HW119049   4.029   4.540   5.674
 6050SOL    HW219050   3.904   4.461   5.742
 6051SOL     OW19051   2.050   2.588   2.750
 6051SOL    HW119052   2.109   2.598   2.831
 6051SOL    HW219053   2.031   2.491   2.734
 6052SOL     OW19054   6.641   0.478   0.602
 6052SOL    HW119055   6.692   0.513   0.523
 6052SOL    HW219056   6.695   0.494   0.685
 6053SOL     OW19057   3.559   0.346   0.180
 6053SOL    HW119058   3.630   0.288   0.139
 6053SOL    HW219059   3.469   0.313   0.152
 6054SOL     OW19060   2.138   4.261   1.101
 6054SOL    HW119061   2.064   4.248   1.035
 6054SOL    HW219062   2.221   4.288   1.053
 6055SOL     OW19063   5.486   1.041   5.487
 6055SOL    HW119064   5.405   1.014   5.435
 6055SOL    HW219065   5.557   0.972   5.477
 6056SOL     OW19066   4.296   1.527   5.785
 6056SOL    HW119067   4.275   1.559   5.877
 6056SOL    HW219068   4.231   1.456   5.758
 6057SOL     OW19069   4.755   0.910   4.838
 6057SOL    HW119070   4.771   0.853   4.919
 6057SOL    HW219071   4.703   0.859   4.771
 6058SOL     OW19072   5.764   3.221   3.788
 6058SOL    HW119073   5.861   3.206   3.771
 6058SOL    HW219074   5.709   3.163   3.727
 6059SOL     OW19075   4.632   5.726   6.210
 6059SOL    HW119076   4.557   5.782   6.246
 6059SOL    HW219077   4.670   5.770   6.129
 6060SOL     OW19078   4.026   4.357   5.975
 6060SOL    HW119079   4.030   4.433   6.039
 6060SOL    HW219080   3.930   4.335   5.955
 6061SOL     OW19081   3.421   2.321   6.656
 6061SOL    HW119082   3.388   2.380   6.729
 6061SOL    HW219083   3.360   2.328   6.577
 6062SOL     OW19084   2.238   1.167   4.553
 6062SOL    HW119085   2.140   1.184   4.546
 6062SOL    HW219086   2.262   1.086   4.499
 6063SOL     OW19087   4.335   1.033   6.293
 6063SOL    HW119088   4.376   0.943   6.303
 6063SOL    HW219089   4.407   1.103   6.291
 6064SOL     OW19090   1.523   5.798   3.176
 6064SOL    HW119091   1.535   5.788   3.275
 6064SOL    HW219092   1.584   5.869   3.142
 6065SOL     OW19093   6.534   6.604   1.017
 6065SOL    HW119094   6.551   6.637   1.110
 6065SOL    HW219095   6.621   6.586   0.972
 6066SOL     OW19096   4.387   1.615   1.291
 6066SOL    HW119097   4.455   1.688   1.285
 6066SOL    HW219098   4.334   1.611   1.207
 6067SOL     OW19099   6.366   2.041   6.353
 6067SOL    HW119100   6.460   2.009   6.344
 6067SOL    HW219101   6.336   2.083   6.267
 6068SOL     OW19102   4.902   3.126   5.085
 6068SOL    HW119103   4.874   3.221   5.097
 6068SOL    HW219104   4.831   3.065   5.120
 6069SOL     OW19105   6.932   3.843   5.706
 6069SOL    HW119106   6.902   3.750   5.689
 6069SOL    HW219107   6.855   3.906   5.696
 6070SOL     OW19108   3.850   1.798   6.669
 6070SOL    HW119109   3.841   1.750   6.582
 6070SOL    HW219110   3.875   1.893   6.652
 6071SOL     OW19111   4.298   6.118   5.880
 6071SOL    HW119112   4.375   6.175   5.852
 6071SOL    HW219113   4.217   6.174   5.895
 6072SOL     OW19114   0.862   1.766   1.626
 6072SOL    HW119115   0.836   1.857   1.595
 6072SOL    HW219116   0.882   1.769   1.724
 6073SOL     OW19117   6.317   3.453   0.262
 6073SOL    HW119118   6.233   3.505   0.246
 6073SOL    HW219119   6.340   3.456   0.359
 6074SOL     OW19120   1.027   6.775   4.816
 6074SOL    HW119121   1.013   6.720   4.899
 6074SOL    HW219122   1.056   6.867   4.841
 6075SOL     OW19123   6.625   3.343   0.090
 6075SOL    HW119124   6.717   3.335   0.129
 6075SOL    HW219125   6.562   3.287   0.143
 6076SOL     OW19126   2.569   6.664   4.852
 6076SOL    HW119127   2.554   6.758   4.884
 6076SOL    HW219128   2.627   6.666   4.771
 6077SOL     OW19129   5.303   5.970   2.790
 6077SOL    HW119130   5.304   6.070   2.781
 6077SOL    HW219131   5.307   5.945   2.886
 6078SOL     OW19132   3.322   5.239   3.650
 6078SOL    HW119133   3.379   5.249   3.731
 6078SOL    HW219134   3.294   5.329   3.617
 6079SOL     OW19135   2.677   3.532   7.019
 6079SOL    HW119136   2.623   3.448   7.022
 6079SOL    HW219137   2.742   3.528   6.943
 6080SOL     OW19138   6.476   2.254   0.842
 6080SOL    HW119139   6.446   2.170   0.886
 6080SOL    HW219140   6.396   2.308   0.815
 6081SOL     OW19141   6.424   3.542   4.325
 6081SOL    HW119142   6.459   3.515   4.415
 6081SOL    HW219143   6.457   3.634   4.303
 6082SOL     OW19144   3.813   6.984   3.009
 6082SOL    HW119145   3.834   6.908   2.948
 6082SOL    HW219146   3.891   0.020   3.012
 6083SOL     OW19147   1.266   5.113   6.379
 6083SOL    HW119148   1.358   5.081   6.400
 6083SOL    HW219149   1.253   5.116   6.280
 6084SOL     OW19150   6.607   5.074   4.879
 6084SOL    HW119151   6.538   5.079   4.808
 6084SOL    HW219152   6.593   4.992   4.934
 6085SOL     OW19153   0.132   3.931   0.252
 6085SOL    HW119154   0.187   3.891   0.325
 6085SOL    HW219155   0.100   4.021   0.280
 6086SOL     OW19156   3.792   1.262   4.360
 6086SOL    HW119157   3.889   1.253   4.386
 6086SOL    HW219158   3.735   1.213   4.426
 6087SOL     OW19159   5.780   6.634   0.058
 6087SOL    HW119160   5.795   6.597   0.149
 6087SOL    HW219161   5.683   6.657   0.047
 6088SOL     OW19162   0.315   6.595   4.380
 6088SOL    HW119163   0.273   6.652   4.310
 6088SOL    HW219164   0.273   6.614   4.469
 6089SOL     OW19165   0.564   3.411   1.293
 6089SOL    HW119166   0.529   3.359   1.216
 6089SOL    HW219167   0.487   3.447   1.346
 6090SOL     OW19168   0.812   6.167   5.994
 6090SOL    HW119169   0.845   6.081   5.956
 6090SOL    HW219170   0.715   6.159   6.014
 6091SOL     OW19171   0.338   1.856   1.805
 6091SOL    HW119172   0.240   1.841   1.797
 6091SOL    HW219173   0.362   1.864   1.902
 6092SOL     OW19174   2.785   1.018   2.615
 6092SOL    HW119175   2.775   1.117   2.600
 6092SOL    HW219176   2.761   0.970   2.531
 6093SOL     OW19177   1.786   3.374   1.818
 6093SOL    HW119178   1.699   3.424   1.818
 6093SOL    HW219179   1.829   3.381   1.728
 6094SOL     OW19180   2.015   1.395   1.291
 6094SOL    HW119181   1.934   1.424   1.240
 6094SOL    HW219182   2.004   1.301   1.321
 6095SOL     OW19183   5.232   2.799   0.108
 6095SOL    HW119184   5.234   2.821   0.206
 6095SOL    HW219185   5.278   2.711   0.093
 6096SOL     OW19186   5.225   1.147   4.027
 6096SOL    HW119187   5.153   1.184   4.086
 6096SOL    HW219188   5.211   1.049   4.014
 6097SOL     OW19189   2.275   0.501   2.356
 6097SOL    HW119190   2.229   0.417   2.383
 6097SOL    HW219191   2.316   0.490   2.266
 6098SOL     OW19192   1.858   2.276   6.060
 6098SOL    HW119193   1.898   2.185   6.051
 6098SOL    HW219194   1.903   2.338   5.995
 6099SOL     OW19195   5.721   5.274   5.129
 6099SOL    HW119196   5.812   5.268   5.169
 6099SOL    HW219197   5.685   5.366   5.141
 6100SOL     OW19198   6.383   3.486   6.149
 6100SOL    HW119199   6.300   3.519   6.105
 6100SOL    HW219200   6.423   3.560   6.204
 6101SOL     OW19201   6.656   2.324   5.640
 6101SOL    HW119202   6.586   2.320   5.569
 6101SOL    HW219203   6.651   2.240   5.695
 6102SOL     OW19204   2.718   0.663   4.409
 6102SOL    HW119205   2.788   0.620   4.352
 6102SOL    HW219206   2.724   0.762   4.401
 6103SOL     OW19207   0.457   0.827   3.830
 6103SOL    HW119208   0.441   0.833   3.732
 6103SOL    HW219209   0.380   0.869   3.879
 6104SOL     OW19210   5.626   1.886   6.761
 6104SOL    HW119211   5.611   1.801   6.811
 6104SOL    HW219212   5.599   1.963   6.818
 6105SOL     OW19213   3.744   5.868   5.813
 6105SOL    HW119214   3.835   5.884   5.853
 6105SOL    HW219215   3.754   5.818   5.727
 6106SOL     OW19216   3.212   5.169   6.244
 6106SOL    HW119217   3.273   5.120   6.307
 6106SOL    HW219218   3.148   5.104   6.202
 6107SOL     OW19219   2.335   4.781   4.559
 6107SOL    HW119220   2.323   4.782   4.460
 6107SOL    HW219221   2.412   4.722   4.583
 6108SOL     OW19222   0.695   1.540   4.002
 6108SOL    HW119223   0.640   1.595   4.065
 6108SOL    HW219224   0.635   1.498   3.933
 6109SOL     OW19225   5.168   2.427   0.628
 6109SOL    HW119226   5.112   2.491   0.681
 6109SOL    HW219227   5.242   2.476   0.583
 6110SOL     OW19228   3.079   2.537   6.082
 6110SOL    HW119229   3.031   2.473   6.142
 6110SOL    HW219230   3.109   2.489   5.999
 6111SOL     OW19231   1.096   4.939   3.000
 6111SOL    HW119232   1.161   4.886   3.054
 6111SOL    HW219233   1.058   5.013   3.056
 6112SOL     OW19234   1.844   1.772   3.089
 6112SOL    HW119235   1.863   1.680   3.125
 6112SOL    HW219236   1.907   1.837   3.131
 6113SOL     OW19237   1.169   0.364   5.922
 6113SOL    HW119238   1.099   0.318   5.866
 6113SOL    HW219239   1.176   0.317   6.010
 6114SOL     OW19240   5.415   5.889   7.013
 6114SOL    HW119241   5.455   5.798   7.018
 6114SOL    HW219242   5.467   5.946   6.951
 6115SOL     OW19243   5.158   5.110   3.125
 6115SOL    HW119244   5.192   5.130   3.217
 6115SOL    HW219245   5.086   5.175   3.101
 6116SOL     OW19246   2.450   1.007   1.747
 6116SOL    HW119247   2.537   0.963   1.723
 6116SOL    HW219248   2.401   1.031   1.664
 6117SOL     OW19249   5.925   6.810   4.465
 6117SOL    HW119250   5.929   6.901   4.507
 6117SOL    HW219251   5.838   6.802   4.415
 6118SOL     OW19252   6.441   1.762   2.416
 6118SOL    HW119253   6.471   1.688   2.476
 6118SOL    HW219254   6.368   1.729   2.356
 6119SOL     OW19255   0.589   4.739   4.852
 6119SOL    HW119256   0.606   4.783   4.940
 6119SOL    HW219257   0.491   4.745   4.830
 6120SOL     OW19258   3.169   6.878   3.563
 6120SOL    HW119259   3.086   6.933   3.571
 6120SOL    HW219260   3.210   6.893   3.474
 6121SOL     OW19261   0.550   2.693   3.957
 6121SOL    HW119262   0.508   2.783   3.959
 6121SOL    HW219263   0.612   2.687   3.878
 6122SOL     OW19264   3.772   6.015   3.061
 6122SOL    HW119265   3.693   6.053   3.108
 6122SOL    HW219266   3.780   5.917   3.081
 6123SOL     OW19267   6.897   1.013   1.280
 6123SOL    HW119268   6.809   1.037   1.239
 6123SOL    HW219269   6.947   1.097   1.304
 6124SOL     OW19270   3.690   0.114   5.053
 6124SOL    HW119271   3.660   0.178   4.983
 6124SOL    HW219272   3.771   0.065   5.022
 6125SOL     OW19273   2.220   6.310   1.451
 6125SOL    HW119274   2.208   6.275   1.544
 6125SOL    HW219275   2.305   6.361   1.445
 6126SOL     OW19276   4.998   5.433   4.154
 6126SOL    HW119277   5.006   5.380   4.238
 6126SOL    HW219278   4.917   5.491   4.157
 6127SOL     OW19279   2.612   6.894   1.316
 6127SOL    HW119280   2.702   6.935   1.332
 6127SOL    HW219281   2.594   6.825   1.385
 6128SOL     OW19282   0.116   3.317   0.290
 6128SOL    HW119283   0.147   3.412   0.295
 6128SOL    HW219284   0.178   3.259   0.342
 6129SOL     OW19285   6.189   3.739   3.095
 6129SOL    HW119286   6.252   3.678   3.047
 6129SOL    HW219287   6.180   3.825   3.044
 6130SOL     OW19288   5.881   2.698   3.647
 6130SOL    HW119289   5.837   2.678   3.735
 6130SOL    HW219290   5.965   2.645   3.639
 6131SOL     OW19291   6.873   1.141   5.663
 6131SOL    HW119292   6.899   1.229   5.704
 6131SOL    HW219293   6.943   1.113   5.598
 6132SOL     OW19294   3.901   2.066   0.076
 6132SOL    HW119295   3.832   2.005   0.037
 6132SOL    HW219296   3.983   2.064   0.019
 6133SOL     OW19297   0.588   3.372   1.664
 6133SOL    HW119298   0.544   3.282   1.657
 6133SOL    HW219299   0.663   3.378   1.597
 6134SOL     OW19300   3.526   3.176   6.851
 6134SOL    HW119301   3.493   3.241   6.920
 6134SOL    HW219302   3.624   3.187   6.839
 6135SOL     OW19303   6.589   6.899   1.212
 6135SOL    HW119304   6.507   6.955   1.225
 6135SOL    HW219305   6.589   6.824   1.278
 6136SOL     OW19306   0.995   1.493   2.413
 6136SOL    HW119307   1.001   1.587   2.381
 6136SOL    HW219308   0.924   1.486   2.482
 6137SOL     OW19309   3.347   0.338   5.417
 6137SOL    HW119310   3.438   0.379   5.413
 6137SOL    HW219311   3.354   0.245   5.454
 6138SOL     OW19312   4.012   6.303   2.655
 6138SOL    HW119313   3.981   6.274   2.746
 6138SOL    HW219314   3.941   6.360   2.613
 6139SOL     OW19315   1.737   3.827   5.081
 6139SOL    HW119316   1.668   3.756   5.091
 6139SOL    HW219317   1.759   3.865   5.172
 6140SOL     OW19318   0.843   0.113   1.707
 6140SOL    HW119319   0.756   0.116   1.757
 6140SOL    HW219320   0.911   0.063   1.760
 6141SOL     OW19321   6.889   5.697   5.201
 6141SOL    HW119322   6.914   5.600   5.208
 6141SOL    HW219323   6.945   5.751   5.264
 6142SOL     OW19324   6.729   4.109   0.821
 6142SOL    HW119325   6.806   4.057   0.784
 6142SOL    HW219326   6.650   4.101   0.759
 6143SOL     OW19327   6.325   5.003   6.200
 6143SOL    HW119328   6.325   5.100   6.178
 6143SOL    HW219329   6.269   4.954   6.133
 6144SOL     OW19330   0.013   4.140   3.053
 6144SOL    HW119331   0.068   4.111   2.974
 6144SOL    HW219332   6.981   4.065   3.082
 6145SOL     OW19333   5.276   5.129   3.682
 6145SOL    HW119334   5.329   5.093   3.759
 6145SOL    HW219335   5.183   5.091   3.686
 6146SOL     OW19336   4.696   1.019   3.513
 6146SOL    HW119337   4.605   1.022   3.555
 6146SOL    HW219338   4.755   1.085   3.558
 6147SOL     OW19339   2.391   4.568   3.043
 6147SOL    HW119340   2.373   4.473   3.014
 6147SOL    HW219341   2.422   4.621   2.964
 6148SOL     OW19342   6.856   6.147   4.468
 6148SOL    HW119343   6.819   6.157   4.375
 6148SOL    HW219344   6.784   6.111   4.528
 6149SOL     OW19345   3.534   4.935   3.204
 6149SOL    HW119346   3.527   4.943   3.104
 6149SOL    HW219347   3.617   4.884   3.227
 6150SOL     OW19348   4.848   5.984   6.428
 6150SOL    HW119349   4.887   5.983   6.336
 6150SOL    HW219350   4.914   6.026   6.492
 6151SOL     OW19351   5.349   2.689   5.305
 6151SOL    HW119352   5.358   2.590   5.314
 6151SOL    HW219353   5.439   2.732   5.313
 6152SOL     OW19354   5.321   4.693   6.573
 6152SOL    HW119355   5.313   4.754   6.652
 6152SOL    HW219356   5.415   4.696   6.538
 6153SOL     OW19357   4.590   4.033   1.714
 6153SOL    HW119358   4.507   4.074   1.751
 6153SOL    HW219359   4.669   4.090   1.739
 6154SOL     OW19360   6.211   1.619   2.004
 6154SOL    HW119361   6.204   1.711   1.966
 6154SOL    HW219362   6.297   1.577   1.975
 6155SOL     OW19363   0.550   3.703   4.385
 6155SOL    HW119364   0.460   3.674   4.352
 6155SOL    HW219365   0.542   3.729   4.482
 6156SOL     OW19366   5.356   6.634   2.735
 6156SOL    HW119367   5.332   6.726   2.766
 6156SOL    HW219368   5.279   6.594   2.686
 6157SOL     OW19369   2.461   2.344   4.031
 6157SOL    HW119370   2.465   2.374   3.936
 6157SOL    HW219371   2.402   2.263   4.038
 6158SOL     OW19372   4.462   0.819   6.673
 6158SOL    HW119373   4.518   0.897   6.645
 6158SOL    HW219374   4.398   0.848   6.744
 6159SOL     OW19375   5.404   1.484   6.902
 6159SOL    HW119376   5.343   1.422   6.852
 6159SOL    HW219377   5.356   1.521   6.981
 6160SOL     OW19378   5.550   5.435   1.042
 6160SOL    HW119379   5.562   5.523   0.997
 6160SOL    HW219380   5.555   5.448   1.141
 6161SOL     OW19381   5.890   0.813   5.614
 6161SOL    HW119382   5.833   0.843   5.690
 6161SOL    HW219383   5.953   0.743   5.645
 6162SOL     OW19384   1.557   5.604   4.316
 6162SOL    HW119385   1.506   5.572   4.236
 6162SOL    HW219386   1.627   5.537   4.340
 6163SOL     OW19387   5.491   4.086   1.003
 6163SOL    HW119388   5.499   4.015   1.073
 6163SOL    HW219389   5.443   4.165   1.041
 6164SOL     OW19390   2.161   1.981   1.314
 6164SOL    HW119391   2.122   2.014   1.229
 6164SOL    HW219392   2.090   1.938   1.370
 6165SOL     OW19393   3.928   5.949   0.610
 6165SOL    HW119394   3.830   5.952   0.594
 6165SOL    HW219395   3.956   5.856   0.630
 6166SOL     OW19396   3.339   1.625   5.847
 6166SOL    HW119397   3.364   1.617   5.944
 6166SOL    HW219398   3.239   1.631   5.840
 6167SOL     OW19399   0.223   4.668   2.607
 6167SOL    HW119400   0.173   4.585   2.586
 6167SOL    HW219401   0.253   4.665   2.703
 6168SOL     OW19402   0.337   3.543   1.640
 6168SOL    HW119403   0.412   3.477   1.644
 6168SOL    HW219404   0.276   3.529   1.718
 6169SOL     OW19405   2.324   3.947   1.877
 6169SOL    HW119406   2.260   3.955   1.953
 6169SOL    HW219407   2.390   4.023   1.882
 6170SOL     OW19408   0.061   3.441   5.512
 6170SOL    HW119409   0.115   3.499   5.452
 6170SOL    HW219410   0.118   3.407   5.587
 6171SOL     OW19411   0.793   0.414   0.691
 6171SOL    HW119412   0.748   0.491   0.646
 6171SOL    HW219413   0.867   0.447   0.749
 6172SOL     OW19414   0.455   3.091   3.177
 6172SOL    HW119415   0.437   2.998   3.145
 6172SOL    HW219416   0.521   3.087   3.252
 6173SOL     OW19417   0.032   6.630   2.967
 6173SOL    HW119418   6.982   6.647   3.028
 6173SOL    HW219419   0.088   6.712   2.960
 6174SOL     OW19420   5.262   4.675   3.003
 6174SOL    HW119421   5.312   4.761   2.990
 6174SOL    HW219422   5.175   4.693   3.048
 6175SOL     OW19423   3.350   0.845   4.876
 6175SOL    HW119424   3.381   0.865   4.969
 6175SOL    HW219425   3.280   0.912   4.849
 6176SOL     OW19426   4.251   4.019   5.429
 6176SOL    HW119427   4.318   4.080   5.387
 6176SOL    HW219428   4.160   4.060   5.423
 6177SOL     OW19429   5.233   1.481   1.931
 6177SOL    HW119430   5.309   1.519   1.984
 6177SOL    HW219431   5.248   1.500   1.834
 6178SOL     OW19432   4.904   3.652   2.433
 6178SOL    HW119433   5.001   3.679   2.428
 6178SOL    HW219434   4.890   3.570   2.378
 6179SOL     OW19435   6.347   5.083   1.756
 6179SOL    HW119436   6.411   5.159   1.744
 6179SOL    HW219437   6.280   5.084   1.682
 6180SOL     OW19438   2.835   5.011   0.722
 6180SOL    HW119439   2.898   5.001   0.644
 6180SOL    HW219440   2.858   5.094   0.773
 6181SOL     OW19441   4.496   5.147   6.148
 6181SOL    HW119442   4.462   5.115   6.236
 6181SOL    HW219443   4.487   5.247   6.143
 6182SOL     OW19444   3.411   3.314   0.083
 6182SOL    HW119445   3.483   3.292   0.148
 6182SOL    HW219446   3.386   3.411   0.093
 6183SOL     OW19447   1.598   2.335   0.691
 6183SOL    HW119448   1.505   2.366   0.673
 6183SOL    HW219449   1.660   2.413   0.690
 6184SOL     OW19450   2.689   1.162   6.229
 6184SOL    HW119451   2.698   1.252   6.186
 6184SOL    HW219452   2.595   1.130   6.219
 6185SOL     OW19453   3.595   2.853   4.902
 6185SOL    HW119454   3.645   2.767   4.901
 6185SOL    HW219455   3.543   2.860   4.988
 6186SOL     OW19456   5.741   1.920   2.100
 6186SOL    HW119457   5.774   1.837   2.054
 6186SOL    HW219458   5.818   1.983   2.112
 6187SOL     OW19459   4.941   2.554   5.153
 6187SOL    HW119460   5.017   2.579   5.092
 6187SOL    HW219461   4.930   2.455   5.152
 6188SOL     OW19462   2.347   2.211   5.350
 6188SOL    HW119463   2.416   2.146   5.318
 6188SOL    HW219464   2.276   2.221   5.281
 6189SOL     OW19465   4.567   5.815   2.019
 6189SOL    HW119466   4.597   5.870   1.942
 6189SOL    HW219467   4.623   5.733   2.026
 6190SOL     OW19468   6.273   2.879   5.532
 6190SOL    HW119469   6.290   2.815   5.456
 6190SOL    HW219470   6.207   2.839   5.595
 6191SOL     OW19471   2.647   3.658   6.201
 6191SOL    HW119472   2.609   3.746   6.170
 6191SOL    HW219473   2.744   3.670   6.222
 6192SOL     OW19474   2.211   2.197   6.992
 6192SOL    HW119475   2.113   2.181   7.000
 6192SOL    HW219476   2.227   2.290   6.957
 6193SOL     OW19477   5.470   5.514   0.333
 6193SOL    HW119478   5.499   5.424   0.367
 6193SOL    HW219479   5.398   5.502   0.265
 6194SOL     OW19480   6.703   0.587   6.718
 6194SOL    HW119481   6.673   0.669   6.769
 6194SOL    HW219482   6.778   0.611   6.657
 6195SOL     OW19483   6.180   0.585   5.362
 6195SOL    HW119484   6.096   0.532   5.354
 6195SOL    HW219485   6.161   0.681   5.342
 6196SOL     OW19486   5.175   4.176   3.059
 6196SOL    HW119487   5.107   4.121   3.012
 6196SOL    HW219488   5.134   4.219   3.140
 6197SOL     OW19489   2.250   5.349   2.095
 6197SOL    HW119490   2.235   5.383   2.002
 6197SOL    HW219491   2.203   5.408   2.160
 6198SOL     OW19492   6.220   6.309   6.561
 6198SOL    HW119493   6.181   6.379   6.620
 6198SOL    HW219494   6.153   6.280   6.493
 6199SOL     OW19495   0.610   0.228   0.815
 6199SOL    HW119496   0.652   0.138   0.803
 6199SOL    HW219497   0.675   0.298   0.786
 6200SOL     OW19498   1.757   1.540   1.778
 6200SOL    HW119499   1.706   1.572   1.858
 6200SOL    HW219500   1.844   1.500   1.808
 6201SOL     OW19501   6.735   3.923   3.987
 6201SOL    HW119502   6.688   4.011   3.995
 6201SOL    HW219503   6.671   3.849   4.004
 6202SOL     OW19504   6.421   1.362   2.840
 6202SOL    HW119505   6.480   1.329   2.766
 6202SOL    HW219506   6.388   1.454   2.817
 6203SOL     OW19507   6.037   5.461   1.854
 6203SOL    HW119508   6.017   5.394   1.925
 6203SOL    HW219509   5.991   5.434   1.769
 6204SOL     OW19510   1.331   6.580   5.334
 6204SOL    HW119511   1.303   6.498   5.284
 6204SOL    HW219512   1.263   6.601   5.404
 6205SOL     OW19513   4.839   3.924   2.304
 6205SOL    HW119514   4.765   3.858   2.321
 6205SOL    HW219515   4.843   3.990   2.378
 6206SOL     OW19516   5.164   2.091   3.704
 6206SOL    HW119517   5.209   2.085   3.615
 6206SOL    HW219518   5.211   2.032   3.769
 6207SOL     OW19519   1.506   5.849   4.405
 6207SOL    HW119520   1.536   5.755   4.391
 6207SOL    HW219521   1.471   5.859   4.499
 6208SOL     OW19522   3.749   2.987   5.532
 6208SOL    HW119523   3.848   2.995   5.544
 6208SOL    HW219524   3.729   2.937   5.448
 6209SOL     OW19525   3.755   4.452   1.281
 6209SOL    HW119526   3.846   4.491   1.294
 6209SOL    HW219527   3.734   4.390   1.356
 6210SOL     OW19528   4.857   2.947   3.288
 6210SOL    HW119529   4.874   2.913   3.196
 6210SOL    HW219530   4.816   2.875   3.343
 6211SOL     OW19531   4.833   5.668   4.680
 6211SOL    HW119532   4.787   5.636   4.762
 6211SOL    HW219533   4.836   5.595   4.612
 6212SOL     OW19534   3.350   5.456   5.964
 6212SOL    HW119535   3.406   5.478   5.884
 6212SOL    HW219536   3.358   5.529   6.032
 6213SOL     OW19537   4.672   6.026   0.857
 6213SOL    HW119538   4.750   6.019   0.795
 6213SOL    HW219539   4.588   6.010   0.805
 6214SOL     OW19540   5.837   6.164   5.237
 6214SOL    HW119541   5.930   6.159   5.200
 6214SOL    HW219542   5.790   6.078   5.221
 6215SOL     OW19543   5.318   2.607   6.060
 6215SOL    HW119544   5.333   2.624   6.157
 6215SOL    HW219545   5.235   2.655   6.030
 6216SOL     OW19546   5.343   3.030   3.393
 6216SOL    HW119547   5.393   3.015   3.308
 6216SOL    HW219548   5.311   2.942   3.429
 6217SOL     OW19549   1.073   4.457   2.475
 6217SOL    HW119550   1.145   4.526   2.482
 6217SOL    HW219551   1.021   4.472   2.391
 6218SOL     OW19552   4.846   6.521   0.361
 6218SOL    HW119553   4.816   6.595   0.421
 6218SOL    HW219554   4.804   6.435   0.390
 6219SOL     OW19555   1.058   0.839   5.234
 6219SOL    HW119556   1.001   0.862   5.154
 6219SOL    HW219557   1.147   0.806   5.203
 6220SOL     OW19558   3.506   1.212   0.966
 6220SOL    HW119559   3.447   1.275   1.017
 6220SOL    HW219560   3.485   1.218   0.869
 6221SOL     OW19561   6.672   5.896   6.956
 6221SOL    HW119562   6.652   5.854   0.017
 6221SOL    HW219563   6.622   5.983   6.949
 6222SOL     OW19564   5.762   1.209   2.465
 6222SOL    HW119565   5.854   1.172   2.448
 6222SOL    HW219566   5.703   1.137   2.501
 6223SOL     OW19567   7.019   4.782   3.722
 6223SOL    HW119568   0.021   4.710   3.659
 6223SOL    HW219569   0.050   4.862   3.709
 6224SOL     OW19570   4.626   2.188   6.653
 6224SOL    HW119571   4.605   2.280   6.687
 6224SOL    HW219572   4.720   2.163   6.678
 6225SOL     OW19573   3.791   0.297   6.663
 6225SOL    HW119574   3.803   0.268   6.567
 6225SOL    HW219575   3.745   0.386   6.665
 6226SOL     OW19576   1.439   1.250   3.961
 6226SOL    HW119577   1.390   1.172   3.923
 6226SOL    HW219578   1.483   1.301   3.887
 6227SOL     OW19579   2.664   3.907   5.594
 6227SOL    HW119580   2.694   3.811   5.600
 6227SOL    HW219581   2.581   3.919   5.649
 6228SOL     OW19582   2.014   2.367   3.699
 6228SOL    HW119583   2.066   2.341   3.780
 6228SOL    HW219584   1.947   2.438   3.722
 6229SOL     OW19585   0.128   3.628   4.914
 6229SOL    HW119586   0.043   3.681   4.913
 6229SOL    HW219587   0.197   3.677   4.967
 6230SOL     OW19588   0.387   1.164   2.002
 6230SOL    HW119589   0.364   1.120   1.915
 6230SOL    HW219590   0.439   1.247   1.984
 6231SOL     OW19591   6.098   4.822   0.164
 6231SOL    HW119592   6.184   4.852   0.206
 6231SOL    HW219593   6.108   4.726   0.136
 6232SOL     OW19594   5.728   0.524   7.004
 6232SOL    HW119595   5.762   0.498   6.913
 6232SOL    HW219596   5.648   0.583   6.994
 6233SOL     OW19597   0.122   3.147   1.705
 6233SOL    HW119598   0.118   3.047   1.715
 6233SOL    HW219599   0.033   3.186   1.725
 6234SOL     OW19600   6.461   6.667   4.391
 6234SOL    HW119601   6.473   6.743   4.328
 6234SOL    HW219602   6.405   6.696   4.469
 6235SOL     OW19603   6.610   0.770   2.642
 6235SOL    HW119604   6.653   0.823   2.569
 6235SOL    HW219605   6.680   0.713   2.687
 6236SOL     OW19606   0.569   4.695   0.780
 6236SOL    HW119607   0.490   4.638   0.804
 6236SOL    HW219608   0.537   4.785   0.752
 6237SOL     OW19609   4.047   0.546   1.138
 6237SOL    HW119610   3.974   0.495   1.183
 6237SOL    HW219611   4.099   0.597   1.205
 6238SOL     OW19612   2.676   6.356   4.550
 6238SOL    HW119613   2.657   6.362   4.648
 6238SOL    HW219614   2.642   6.438   4.504
 6239SOL     OW19615   4.984   0.851   2.281
 6239SOL    HW119616   5.074   0.890   2.262
 6239SOL    HW219617   4.983   0.814   2.374
 6240SOL     OW19618   3.731   3.004   4.591
 6240SOL    HW119619   3.772   2.998   4.682
 6240SOL    HW219620   3.634   2.979   4.596
 6241SOL     OW19621   2.474   6.898   3.705
 6241SOL    HW119622   2.537   6.912   3.629
 6241SOL    HW219623   2.380   6.893   3.670
 6242SOL     OW19624   2.794   1.871   3.283
 6242SOL    HW119625   2.825   1.966   3.272
 6242SOL    HW219626   2.872   1.810   3.279
 6243SOL     OW19627   6.009   1.824   6.207
 6243SOL    HW119628   6.032   1.870   6.121
 6243SOL    HW219629   5.911   1.836   6.226
 6244SOL     OW19630   4.275   4.717   2.676
 6244SOL    HW119631   4.356   4.718   2.734
 6244SOL    HW219632   4.285   4.788   2.605
 6245SOL     OW19633   0.685   4.463   2.097
 6245SOL    HW119634   0.605   4.412   2.128
 6245SOL    HW219635   0.658   4.557   2.076
 6246SOL     OW19636   1.189   6.509   4.718
 6246SOL    HW119637   1.194   6.566   4.636
 6246SOL    HW219638   1.133   6.428   4.699
 6247SOL     OW19639   0.086   5.382   3.563
 6247SOL    HW119640   0.124   5.474   3.560
 6247SOL    HW219641   0.058   5.360   3.656
 6248SOL     OW19642   3.463   2.910   6.821
 6248SOL    HW119643   3.497   3.000   6.848
 6248SOL    HW219644   3.417   2.866   6.898
 6249SOL     OW19645   6.808   2.560   0.661
 6249SOL    HW119646   6.863   2.499   0.718
 6249SOL    HW219647   6.794   2.647   0.709
 6250SOL     OW19648   0.136   0.218   0.703
 6250SOL    HW119649   0.132   0.167   0.617
 6250SOL    HW219650   0.131   0.316   0.684
 6251SOL     OW19651   2.861   6.783   4.113
 6251SOL    HW119652   2.903   6.747   4.196
 6251SOL    HW219653   2.795   6.717   4.077
 6252SOL     OW19654   2.695   5.180   6.791
 6252SOL    HW119655   2.644   5.095   6.781
 6252SOL    HW219656   2.791   5.165   6.768
 6253SOL     OW19657   3.135   4.909   4.523
 6253SOL    HW119658   3.192   4.941   4.446
 6253SOL    HW219659   3.144   4.972   4.599
 6254SOL     OW19660   0.598   5.926   0.818
 6254SOL    HW119661   0.608   6.005   0.757
 6254SOL    HW219662   0.674   5.925   0.883
 6255SOL     OW19663   0.554   1.777   0.753
 6255SOL    HW119664   0.462   1.740   0.740
 6255SOL    HW219665   0.547   1.871   0.787
 6256SOL     OW19666   4.876   5.633   3.102
 6256SOL    HW119667   4.965   5.680   3.109
 6256SOL    HW219668   4.803   5.701   3.108
 6257SOL     OW19669   4.223   4.154   1.402
 6257SOL    HW119670   4.144   4.157   1.463
 6257SOL    HW219671   4.306   4.178   1.453
 6258SOL     OW19672   4.128   6.822   6.011
 6258SOL    HW119673   4.178   6.735   6.006
 6258SOL    HW219674   4.033   6.806   5.984
 6259SOL     OW19675   2.274   0.138   5.294
 6259SOL    HW119676   2.242   0.223   5.251
 6259SOL    HW219677   2.222   0.121   5.377
 6260SOL     OW19678   2.033   1.068   0.305
 6260SOL    HW119679   2.085   1.091   0.387
 6260SOL    HW219680   2.095   1.037   0.233
 6261SOL     OW19681   3.970   6.423   1.411
 6261SOL    HW119682   3.900   6.439   1.342
 6261SOL    HW219683   3.977   6.325   1.430
 6262SOL     OW19684   6.333   6.330   2.172
 6262SOL    HW119685   6.348   6.419   2.129
 6262SOL    HW219686   6.280   6.271   2.110
 6263SOL     OW19687   6.980   5.721   4.644
 6263SOL    HW119688   6.880   5.722   4.642
 6263SOL    HW219689   7.013   5.814   4.661
 6264SOL     OW19690   0.731   0.342   1.098
 6264SOL    HW119691   0.665   0.279   1.059
 6264SOL    HW219692   0.823   0.322   1.063
 6265SOL     OW19693   4.275   1.834   0.316
 6265SOL    HW119694   4.286   1.781   0.232
 6265SOL    HW219695   4.226   1.919   0.296
 6266SOL     OW19696   3.272   5.182   3.330
 6266SOL    HW119697   3.274   5.200   3.428
 6266SOL    HW219698   3.190   5.222   3.290
 6267SOL     OW19699   1.356   6.733   5.104
 6267SOL    HW119700   1.340   6.692   5.194
 6267SOL    HW219701   1.350   6.662   5.034
 6268SOL     OW19702   3.180   0.631   1.931
 6268SOL    HW119703   3.271   0.667   1.952
 6268SOL    HW219704   3.164   0.548   1.984
 6269SOL     OW19705   5.660   6.105   1.428
 6269SOL    HW119706   5.639   6.036   1.497
 6269SOL    HW219707   5.578   6.125   1.375
 6270SOL     OW19708   1.818   6.331   0.476
 6270SOL    HW119709   1.746   6.392   0.442
 6270SOL    HW219710   1.800   6.238   0.443
 6271SOL     OW19711   5.946   3.115   6.682
 6271SOL    HW119712   5.908   3.138   6.592
 6271SOL    HW219713   5.961   3.198   6.734
 6272SOL     OW19714   5.924   0.141   6.947
 6272SOL    HW119715   5.902   0.179   0.010
 6272SOL    HW219716   6.020   0.160   6.926
 6273SOL     OW19717   6.981   0.190   1.695
 6273SOL    HW119718   6.990   0.287   1.717
 6273SOL    HW219719   6.888   0.171   1.663
 6274SOL     OW19720   3.871   5.923   5.133
 6274SOL    HW119721   3.857   5.859   5.058
 6274SOL    HW219722   3.802   5.908   5.204
 6275SOL     OW19723   1.977   6.054   0.554
 6275SOL    HW119724   2.010   6.069   0.647
 6275SOL    HW219725   1.887   6.011   0.557
 6276SOL     OW19726   1.902   5.385   3.066
 6276SOL    HW119727   1.936   5.417   3.154
 6276SOL    HW219728   1.923   5.288   3.056
 6277SOL     OW19729   5.319   2.465   1.213
 6277SOL    HW119730   5.326   2.509   1.303
 6277SOL    HW219731   5.240   2.502   1.164
 6278SOL     OW19732   3.043   6.916   5.394
 6278SOL    HW119733   3.075   6.873   5.310
 6278SOL    HW219734   3.072   6.862   5.473
 6279SOL     OW19735   3.451   6.421   1.657
 6279SOL    HW119736   3.386   6.349   1.633
 6279SOL    HW219737   3.538   6.405   1.611
 6280SOL     OW19738   0.036   1.658   6.800
 6280SOL    HW119739   0.079   1.576   6.837
 6280SOL    HW219740   0.075   1.679   6.710
 6281SOL     OW19741   6.367   4.187   5.267
 6281SOL    HW119742   6.442   4.222   5.211
 6281SOL    HW219743   6.291   4.252   5.265
 6282SOL     OW19744   0.893   3.607   6.484
 6282SOL    HW119745   0.854   3.578   6.571
 6282SOL    HW219746   0.959   3.538   6.452
 6283SOL     OW19747   1.165   6.286   5.826
 6283SOL    HW119748   1.128   6.330   5.908
 6283SOL    HW219749   1.246   6.232   5.851
 6284SOL     OW19750   2.184   4.129   0.103
 6284SOL    HW119751   2.238   4.099   0.024
 6284SOL    HW219752   2.155   4.049   0.156
 6285SOL     OW19753   1.497   3.595   2.904
 6285SOL    HW119754   1.476   3.655   2.828
 6285SOL    HW219755   1.498   3.500   2.872
 6286SOL     OW19756   0.723   2.901   4.845
 6286SOL    HW119757   0.784   2.965   4.891
 6286SOL    HW219758   0.773   2.817   4.823
 6287SOL     OW19759   4.337   4.866   5.127
 6287SOL    HW119760   4.289   4.939   5.176
 6287SOL    HW219761   4.309   4.866   5.031
 6288SOL     OW19762   3.589   3.286   6.524
 6288SOL    HW119763   3.666   3.350   6.530
 6288SOL    HW219764   3.623   3.197   6.491
 6289SOL     OW19765   2.567   4.861   6.454
 6289SOL    HW119766   2.563   4.955   6.420
 6289SOL    HW219767   2.511   4.853   6.537
 6290SOL     OW19768   5.686   5.535   5.208
 6290SOL    HW119769   5.689   5.501   5.302
 6290SOL    HW219770   5.616   5.607   5.201
 6291SOL     OW19771   3.404   3.372   2.850
 6291SOL    HW119772   3.459   3.302   2.805
 6291SOL    HW219773   3.321   3.388   2.797
 6292SOL     OW19774   2.184   3.259   4.638
 6292SOL    HW119775   2.094   3.304   4.647
 6292SOL    HW219776   2.188   3.180   4.698
 6293SOL     OW19777   4.910   1.163   0.147
 6293SOL    HW119778   4.865   1.111   0.219
 6293SOL    HW219779   4.941   1.101   0.075
 6294SOL     OW19780   2.327   1.431   3.556
 6294SOL    HW119781   2.354   1.348   3.604
 6294SOL    HW219782   2.382   1.441   3.473
 6295SOL     OW19783   5.907   4.512   5.493
 6295SOL    HW119784   5.903   4.597   5.547
 6295SOL    HW219785   5.943   4.533   5.402
 6296SOL     OW19786   0.201   2.748   6.575
 6296SOL    HW119787   0.235   2.714   6.663
 6296SOL    HW219788   0.274   2.798   6.528
 6297SOL     OW19789   5.904   0.503   4.253
 6297SOL    HW119790   5.876   0.411   4.226
 6297SOL    HW219791   5.935   0.502   4.348
 6298SOL     OW19792   5.856   4.689   0.300
 6298SOL    HW119793   5.806   4.615   0.345
 6298SOL    HW219794   5.821   4.699   0.206
 6299SOL     OW19795   4.701   2.135   2.703
 6299SOL    HW119796   4.688   2.151   2.801
 6299SOL    HW219797   4.673   2.216   2.652
 6300SOL     OW19798   3.564   0.529   5.983
 6300SOL    HW119799   3.467   0.547   5.972
 6300SOL    HW219800   3.603   0.498   5.896
 6301SOL     OW19801   3.244   6.660   0.764
 6301SOL    HW119802   3.235   6.759   0.751
 6301SOL    HW219803   3.338   6.638   0.787
 6302SOL     OW19804   3.083   1.226   5.486
 6302SOL    HW119805   3.073   1.234   5.387
 6302SOL    HW219806   3.166   1.176   5.507
 6303SOL     OW19807   1.397   5.951   6.161
 6303SOL    HW119808   1.472   5.930   6.223
 6303SOL    HW219809   1.311   5.949   6.210
 6304SOL     OW19810   4.146   0.598   2.746
 6304SOL    HW119811   4.159   0.618   2.649
 6304SOL    HW219812   4.234   0.586   2.790
 6305SOL     OW19813   0.629   5.707   5.629
 6305SOL    HW119814   0.639   5.758   5.543
 6305SOL    HW219815   0.719   5.697   5.672
 6306SOL     OW19816   6.678   4.753   4.064
 6306SOL    HW119817   6.749   4.795   4.120
 6306SOL    HW219818   6.615   4.700   4.121
 6307SOL     OW19819   4.153   3.697   3.107
 6307SOL    HW119820   4.239   3.682   3.060
 6307SOL    HW219821   4.141   3.628   3.179
 6308SOL     OW19822   0.198   2.651   0.082
 6308SOL    HW119823   0.148   2.710   0.146
 6308SOL    HW219824   0.146   2.568   0.066
 6309SOL     OW19825   1.386   6.553   4.914
 6309SOL    HW119826   1.469   6.523   4.867
 6309SOL    HW219827   1.305   6.521   4.864
 6310SOL     OW19828   1.710   0.042   3.049
 6310SOL    HW119829   1.810   0.039   3.042
 6310SOL    HW219830   1.671   0.062   2.959
 6311SOL     OW19831   5.453   1.317   5.839
 6311SOL    HW119832   5.449   1.407   5.796
 6311SOL    HW219833   5.493   1.325   5.930
 6312SOL     OW19834   3.385   6.892   6.629
 6312SOL    HW119835   3.420   6.911   6.537
 6312SOL    HW219836   3.458   6.906   6.696
 6313SOL     OW19837   5.443   6.063   3.167
 6313SOL    HW119838   5.492   6.133   3.218
 6313SOL    HW219839   5.369   6.025   3.222
 6314SOL     OW19840   2.251   0.329   1.539
 6314SOL    HW119841   2.289   0.368   1.623
 6314SOL    HW219842   2.295   0.242   1.520
 6315SOL     OW19843   2.256   2.912   3.899
 6315SOL    HW119844   2.303   2.826   3.879
 6315SOL    HW219845   2.248   2.966   3.815
 6316SOL     OW19846   5.588   1.963   4.744
 6316SOL    HW119847   5.658   1.960   4.816
 6316SOL    HW219848   5.591   1.879   4.691
 6317SOL     OW19849   5.120   4.193   1.925
 6317SOL    HW119850   5.045   4.128   1.911
 6317SOL    HW219851   5.107   4.240   2.013
 6318SOL     OW19852   6.506   0.362   6.187
 6318SOL    HW119853   6.430   0.307   6.154
 6318SOL    HW219854   6.479   0.410   6.271
 6319SOL     OW19855   5.733   2.129   4.329
 6319SOL    HW119856   5.812   2.181   4.294
 6319SOL    HW219857   5.649   2.178   4.306
 6320SOL     OW19858   7.022   1.317   4.115
 6320SOL    HW119859   7.027   1.322   4.015
 6320SOL    HW219860   6.967   1.392   4.150
 6321SOL     OW19861   5.593   2.289   0.667
 6321SOL    HW119862   5.556   2.196   0.670
 6321SOL    HW219863   5.528   2.352   0.708
 6322SOL     OW19864   1.729   0.933   1.230
 6322SOL    HW119865   1.707   0.892   1.319
 6322SOL    HW219866   1.671   1.013   1.215
 6323SOL     OW19867   2.599   3.000   1.137
 6323SOL    HW119868   2.632   3.046   1.054
 6323SOL    HW219869   2.676   2.987   1.200
 6324SOL     OW19870   4.474   1.430   0.959
 6324SOL    HW119871   4.430   1.478   0.883
 6324SOL    HW219872   4.526   1.496   1.014
 6325SOL     OW19873   1.370   2.522   2.885
 6325SOL    HW119874   1.312   2.478   2.954
 6325SOL    HW219875   1.383   2.618   2.909
 6326SOL     OW19876   5.377   5.083   5.811
 6326SOL    HW119877   5.385   5.010   5.743
 6326SOL    HW219878   5.295   5.137   5.792
 6327SOL     OW19879   0.183   0.786   3.343
 6327SOL    HW119880   0.168   0.849   3.419
 6327SOL    HW219881   0.279   0.787   3.316
 6328SOL     OW19882   4.323   3.198   5.988
 6328SOL    HW119883   4.404   3.175   5.934
 6328SOL    HW219884   4.350   3.257   6.064
 6329SOL     OW19885   1.442   2.964   5.649
 6329SOL    HW119886   1.430   3.054   5.606
 6329SOL    HW219887   1.359   2.911   5.639
 6330SOL     OW19888   5.713   0.649   3.603
 6330SOL    HW119889   5.709   0.573   3.538
 6330SOL    HW219890   5.777   0.627   3.677
 6331SOL     OW19891   6.791   3.640   3.312
 6331SOL    HW119892   6.746   3.565   3.264
 6331SOL    HW219893   6.736   3.723   3.301
 6332SOL     OW19894   1.979   1.960   0.760
 6332SOL    HW119895   1.970   1.913   0.672
 6332SOL    HW219896   1.981   1.892   0.834
 6333SOL     OW19897   5.274   0.743   0.617
 6333SOL    HW119898   5.355   0.702   0.657
 6333SOL    HW219899   5.251   0.827   0.666
 6334SOL     OW19900   2.725   1.347   2.083
 6334SOL    HW119901   2.649   1.374   2.024
 6334SOL    HW219902   2.759   1.427   2.132
 6335SOL     OW19903   5.816   1.250   0.565
 6335SOL    HW119904   5.897   1.257   0.624
 6335SOL    HW219905   5.829   1.306   0.483
 6336SOL     OW19906   0.628   3.472   6.263
 6336SOL    HW119907   0.664   3.564   6.275
 6336SOL    HW219908   0.679   3.425   6.192
 6337SOL     OW19909   4.698   5.557   5.390
 6337SOL    HW119910   4.790   5.548   5.427
 6337SOL    HW219911   4.699   5.540   5.292
 6338SOL     OW19912   3.177   1.830   3.782
 6338SOL    HW119913   3.258   1.779   3.809
 6338SOL    HW219914   3.181   1.849   3.684
 6339SOL     OW19915   0.940   4.129   3.282
 6339SOL    HW119916   0.844   4.105   3.295
 6339SOL    HW219917   0.997   4.063   3.331
 6340SOL     OW19918   2.472   4.163   1.306
 6340SOL    HW119919   2.442   4.079   1.260
 6340SOL    HW219920   2.532   4.139   1.382
 6341SOL     OW19921   1.154   4.676   3.863
 6341SOL    HW119922   1.221   4.625   3.917
 6341SOL    HW219923   1.121   4.618   3.788
 6342SOL     OW19924   1.981   1.445   1.890
 6342SOL    HW119925   1.959   1.491   1.976
 6342SOL    HW219926   2.081   1.444   1.878
 6343SOL     OW19927   2.638   5.923   0.217
 6343SOL    HW119928   2.636   6.021   0.235
 6343SOL    HW219929   2.676   5.906   0.126
 6344SOL     OW19930   6.886   1.497   3.472
 6344SOL    HW119931   6.959   1.565   3.469
 6344SOL    HW219932   6.867   1.473   3.568
 6345SOL     OW19933   5.975   3.686   1.656
 6345SOL    HW119934   5.974   3.653   1.562
 6345SOL    HW219935   5.952   3.784   1.657
 6346SOL     OW19936   7.025   4.597   5.554
 6346SOL    HW119937   0.098   4.604   5.555
 6346SOL    HW219938   6.998   4.502   5.538
 6347SOL     OW19939   2.624   2.209   2.663
 6347SOL    HW119940   2.538   2.171   2.629
 6347SOL    HW219941   2.644   2.169   2.752
 6348SOL     OW19942   0.208   2.111   5.598
 6348SOL    HW119943   0.190   2.139   5.692
 6348SOL    HW219944   0.249   2.020   5.597
 6349SOL     OW19945   0.056   0.560   0.141
 6349SOL    HW119946   0.089   0.507   0.219
 6349SOL    HW219947   6.994   0.524   0.113
 6350SOL     OW19948   0.920   4.358   2.038
 6350SOL    HW119949   0.824   4.384   2.048
 6350SOL    HW219950   0.978   4.436   2.058
 6351SOL     OW19951   5.880   3.358   2.821
 6351SOL    HW119952   5.863   3.375   2.918
 6351SOL    HW219953   5.838   3.431   2.767
 6352SOL     OW19954   2.364   0.526   4.516
 6352SOL    HW119955   2.295   0.506   4.446
 6352SOL    HW219956   2.386   0.443   4.567
 6353SOL     OW19957   3.059   5.724   6.518
 6353SOL    HW119958   3.065   5.737   6.617
 6353SOL    HW219959   3.075   5.628   6.496
 6354SOL     OW19960   4.767   4.187   2.907
 6354SOL    HW119961   4.769   4.181   3.007
 6354SOL    HW219962   4.795   4.099   2.868
 6355SOL     OW19963   2.793   4.827   0.949
 6355SOL    HW119964   2.831   4.891   0.882
 6355SOL    HW219965   2.735   4.877   1.013
 6356SOL     OW19966   5.441   4.485   6.897
 6356SOL    HW119967   5.431   4.397   6.850
 6356SOL    HW219968   5.354   4.534   6.895
 6357SOL     OW19969   5.876   1.861   1.674
 6357SOL    HW119970   5.891   1.824   1.766
 6357SOL    HW219971   5.884   1.788   1.607
 6358SOL     OW19972   1.797   2.684   6.499
 6358SOL    HW119973   1.720   2.630   6.531
 6358SOL    HW219974   1.820   2.658   6.405
 6359SOL     OW19975   5.522   6.366   0.455
 6359SOL    HW119976   5.467   6.282   0.460
 6359SOL    HW219977   5.465   6.440   0.420
 6360SOL     OW19978   0.552   2.180   2.838
 6360SOL    HW119979   0.461   2.141   2.823
 6360SOL    HW219980   0.586   2.219   2.752
 6361SOL     OW19981   0.591   0.252   6.905
 6361SOL    HW119982   0.638   0.191   6.841
 6361SOL    HW219983   0.611   0.225   6.999
 6362SOL     OW19984   1.222   5.426   6.493
 6362SOL    HW119985   1.278   5.453   6.415
 6362SOL    HW219986   1.261   5.466   6.576
 6363SOL     OW19987   2.905   5.351   3.873
 6363SOL    HW119988   2.911   5.362   3.773
 6363SOL    HW219989   2.859   5.265   3.894
 6364SOL     OW19990   2.375   2.419   5.016
 6364SOL    HW119991   2.459   2.395   5.064
 6364SOL    HW219992   2.368   2.518   5.007
 6365SOL     OW19993   5.946   5.150   3.637
 6365SOL    HW119994   5.925   5.108   3.725
 6365SOL    HW219995   5.899   5.238   3.630
 6366SOL     OW19996   6.124   6.800   4.706
 6366SOL    HW119997   6.214   6.834   4.679
 6366SOL    HW219998   6.058   6.820   4.633
 6367SOL     OW19999   3.340   2.123   2.853
 6367SOL    HW120000   3.372   2.115   2.759
 6367SOL    HW220001   3.240   2.119   2.856
 6368SOL     OW20002   5.029   3.446   4.698
 6368SOL    HW120003   5.027   3.487   4.789
 6368SOL    HW220004   5.119   3.404   4.682
 6369SOL     OW20005   3.309   6.050   5.979
 6369SOL    HW120006   3.220   6.062   5.933
 6369SOL    HW220007   3.378   6.025   5.911
 6370SOL     OW20008   5.557   3.854   3.678
 6370SOL    HW120009   5.657   3.861   3.677
 6370SOL    HW220010   5.528   3.813   3.765
 6371SOL     OW20011   5.685   3.773   1.578
 6371SOL    HW120012   5.690   3.679   1.611
 6371SOL    HW220013   5.659   3.833   1.654
 6372SOL     OW20014   0.051   0.639   3.113
 6372SOL    HW120015   7.022   0.719   3.090
 6372SOL    HW220016   0.100   0.656   3.199
 6373SOL     OW20017   4.902   3.629   1.279
 6373SOL    HW120018   4.806   3.603   1.286
 6373SOL    HW220019   4.944   3.626   1.370
 6374SOL     OW20020   4.815   2.893   0.457
 6374SOL    HW120021   4.824   2.882   0.358
 6374SOL    HW220022   4.777   2.983   0.477
 6375SOL     OW20023   6.688   2.761   2.261
 6375SOL    HW120024   6.626   2.782   2.336
 6375SOL    HW220025   6.713   2.845   2.213
 6376SOL     OW20026   3.565   0.852   5.775
 6376SOL    HW120027   3.531   0.779   5.715
 6376SOL    HW220028   3.623   0.812   5.847
 6377SOL     OW20029   6.895   0.275   0.457
 6377SOL    HW120030   6.830   0.277   0.381
 6377SOL    HW220031   6.939   0.186   0.461
 6378SOL     OW20032   5.727   5.435   3.189
 6378SOL    HW120033   5.658   5.367   3.163
 6378SOL    HW220034   5.713   5.518   3.135
 6379SOL     OW20035   3.087   5.705   6.836
 6379SOL    HW120036   3.060   5.792   6.877
 6379SOL    HW220037   3.182   5.684   6.861
 6380SOL     OW20038   1.242   3.089   5.275
 6380SOL    HW120039   1.338   3.105   5.298
 6380SOL    HW220040   1.216   3.150   5.200
 6381SOL     OW20041   4.617   3.207   0.121
 6381SOL    HW120042   4.610   3.234   0.025
 6381SOL    HW220043   4.559   3.266   0.177
 6382SOL     OW20044   2.322   1.134   1.528
 6382SOL    HW120045   2.296   1.113   1.434
 6382SOL    HW220046   2.264   1.207   1.564
 6383SOL     OW20047   1.965   1.999   2.517
 6383SOL    HW120048   1.989   2.095   2.503
 6383SOL    HW220049   2.016   1.963   2.596
 6384SOL     OW20050   6.592   2.493   2.025
 6384SOL    HW120051   6.558   2.574   1.977
 6384SOL    HW220052   6.552   2.411   1.985
 6385SOL     OW20053   0.159   3.006   1.291
 6385SOL    HW120054   0.082   3.056   1.329
 6385SOL    HW220055   0.148   2.908   1.309
 6386SOL     OW20056   2.270   3.595   0.431
 6386SOL    HW120057   2.198   3.660   0.408
 6386SOL    HW220058   2.230   3.505   0.447
 6387SOL     OW20059   6.297   0.524   6.829
 6387SOL    HW120060   6.264   0.610   6.790
 6387SOL    HW220061   6.229   0.487   6.892
 6388SOL     OW20062   6.237   5.305   2.869
 6388SOL    HW120063   6.308   5.284   2.937
 6388SOL    HW220064   6.278   5.356   2.793
 6389SOL     OW20065   1.603   0.601   6.777
 6389SOL    HW120066   1.636   0.639   6.863
 6389SOL    HW220067   1.664   0.629   6.702
 6390SOL     OW20068   6.568   1.275   6.722
 6390SOL    HW120069   6.573   1.373   6.706
 6390SOL    HW220070   6.519   1.257   6.806
 6391SOL     OW20071   1.751   1.886   4.968
 6391SOL    HW120072   1.824   1.854   5.028
 6391SOL    HW220073   1.718   1.975   5.000
 6392SOL     OW20074   3.445   5.810   3.538
 6392SOL    HW120075   3.498   5.780   3.618
 6392SOL    HW220076   3.503   5.809   3.457
 6393SOL     OW20077   6.178   6.084   1.593
 6393SOL    HW120078   6.112   6.015   1.623
 6393SOL    HW220079   6.269   6.059   1.628
 6394SOL     OW20080   1.112   5.391   0.785
 6394SOL    HW120081   1.135   5.427   0.695
 6394SOL    HW220082   1.018   5.417   0.808
 6395SOL     OW20083   1.666   4.073   3.139
 6395SOL    HW120084   1.696   4.143   3.074
 6395SOL    HW220085   1.645   3.988   3.089
 6396SOL     OW20086   6.974   4.210   0.318
 6396SOL    HW120087   6.888   4.185   0.273
 6396SOL    HW220088   6.992   4.307   0.303
 6397SOL     OW20089   5.879   2.392   3.493
 6397SOL    HW120090   5.948   2.329   3.458
 6397SOL    HW220091   5.805   2.402   3.426
 6398SOL     OW20092   0.757   6.948   1.053
 6398SOL    HW120093   0.712   6.879   0.996
 6398SOL    HW220094   0.694   6.981   1.122
 6399SOL     OW20095   2.586   0.567   6.210
 6399SOL    HW120096   2.573   0.523   6.121
 6399SOL    HW220097   2.532   0.520   6.279
 6400SOL     OW20098   1.482   5.548   3.057
 6400SOL    HW120099   1.497   5.618   3.127
 6400SOL    HW220100   1.524   5.462   3.087
 6401SOL     OW20101   3.781   5.356   3.412
 6401SOL    HW120102   3.721   5.309   3.347
 6401SOL    HW220103   3.777   5.454   3.396
 6402SOL     OW20104   2.105   4.552   4.906
 6402SOL    HW120105   2.174   4.480   4.910
 6402SOL    HW220106   2.082   4.570   4.810
 6403SOL     OW20107   4.993   6.264   4.909
 6403SOL    HW120108   4.992   6.164   4.908
 6403SOL    HW220109   5.088   6.295   4.907
 6404SOL     OW20110   3.804   0.609   2.471
 6404SOL    HW120111   3.787   0.512   2.491
 6404SOL    HW220112   3.753   0.666   2.536
 6405SOL     OW20113   5.483   1.602   2.464
 6405SOL    HW120114   5.438   1.635   2.381
 6405SOL    HW220115   5.502   1.679   2.525
 6406SOL     OW20116   1.074   2.702   2.630
 6406SOL    HW120117   0.984   2.705   2.586
 6406SOL    HW220118   1.109   2.796   2.641
 6407SOL     OW20119   2.054   5.763   3.093
 6407SOL    HW120120   2.100   5.850   3.109
 6407SOL    HW220121   2.010   5.733   3.178
 6408SOL     OW20122   6.506   0.280   0.700
 6408SOL    HW120123   6.456   0.326   0.774
 6408SOL    HW220124   6.566   0.345   0.654
 6409SOL     OW20125   6.226   5.021   3.981
 6409SOL    HW120126   6.279   5.044   3.900
 6409SOL    HW220127   6.244   5.089   4.053
 6410SOL     OW20128   3.445   1.871   5.696
 6410SOL    HW120129   3.356   1.893   5.657
 6410SOL    HW220130   3.462   1.773   5.687
 6411SOL     OW20131   0.203   2.384   2.843
 6411SOL    HW120132   0.126   2.442   2.870
 6411SOL    HW220133   0.171   2.312   2.782
 6412SOL     OW20134   2.930   0.686   0.019
 6412SOL    HW120135   2.831   0.680   0.026
 6412SOL    HW220136   2.968   0.710   0.109
 6413SOL     OW20137   4.359   4.939   3.968
 6413SOL    HW120138   4.442   4.975   4.010
 6413SOL    HW220139   4.279   4.975   4.017
 6414SOL     OW20140   1.048   6.721   7.018
 6414SOL    HW120141   1.041   6.724   0.091
 6414SOL    HW220142   1.060   6.814   6.983
 6415SOL     OW20143   0.981   2.513   3.273
 6415SOL    HW120144   0.929   2.591   3.308
 6415SOL    HW220145   1.077   2.538   3.262
 6416SOL     OW20146   2.829   0.764   6.644
 6416SOL    HW120147   2.794   0.671   6.632
 6416SOL    HW220148   2.753   0.828   6.647
 6417SOL     OW20149   4.841   1.597   0.754
 6417SOL    HW120150   4.780   1.604   0.674
 6417SOL    HW220151   4.788   1.614   0.837
 6418SOL     OW20152   4.298   4.915   1.439
 6418SOL    HW120153   4.391   4.888   1.413
 6418SOL    HW220154   4.264   4.853   1.509
 6419SOL     OW20155   0.770   6.384   6.562
 6419SOL    HW120156   0.815   6.296   6.544
 6419SOL    HW220157   0.830   6.458   6.532
 6420SOL     OW20158   1.826   3.326   4.223
 6420SOL    HW120159   1.858   3.386   4.296
 6420SOL    HW220160   1.726   3.328   4.219
 6421SOL     OW20161   4.955   0.076   1.496
 6421SOL    HW120162   4.899   0.069   1.413
 6421SOL    HW220163   4.993   0.168   1.502
 6422SOL     OW20164   6.440   2.686   4.808
 6422SOL    HW120165   6.369   2.712   4.873
 6422SOL    HW220166   6.483   2.769   4.771
 6423SOL     OW20167   2.274   4.586   4.323
 6423SOL    HW120168   2.246   4.590   4.419
 6423SOL    HW220169   2.215   4.523   4.273
 6424SOL     OW20170   0.291   4.141   5.306
 6424SOL    HW120171   0.311   4.221   5.250
 6424SOL    HW220172   0.292   4.166   5.403
 6425SOL     OW20173   0.446   6.272   2.899
 6425SOL    HW120174   0.454   6.371   2.915
 6425SOL    HW220175   0.372   6.235   2.956
 6426SOL     OW20176   4.520   4.680   4.679
 6426SOL    HW120177   4.536   4.664   4.776
 6426SOL    HW220178   4.561   4.605   4.626
 6427SOL     OW20179   2.878   3.599   3.836
 6427SOL    HW120180   2.827   3.681   3.810
 6427SOL    HW220181   2.889   3.540   3.756
 6428SOL     OW20182   4.918   2.407   6.942
 6428SOL    HW120183   4.891   2.483   7.001
 6428SOL    HW220184   4.990   2.354   6.986
 6429SOL     OW20185   2.339   0.563   5.383
 6429SOL    HW120186   2.438   0.575   5.386
 6429SOL    HW220187   2.294   0.650   5.401
 6430SOL     OW20188   6.805   0.425   5.060
 6430SOL    HW120189   6.842   0.373   5.138
 6430SOL    HW220190   6.721   0.382   5.028
 6431SOL     OW20191   4.086   4.952   2.148
 6431SOL    HW120192   4.151   4.936   2.222
 6431SOL    HW220193   4.004   4.996   2.184
 6432SOL     OW20194   4.266   4.556   6.005
 6432SOL    HW120195   4.316   4.573   6.090
 6432SOL    HW220196   4.185   4.500   6.023
 6433SOL     OW20197   2.685   5.847   6.451
 6433SOL    HW120198   2.753   5.921   6.450
 6433SOL    HW220199   2.702   5.786   6.529
 6434SOL     OW20200   3.384   5.610   5.725
 6434SOL    HW120201   3.364   5.646   5.816
 6434SOL    HW220202   3.307   5.630   5.664
 6435SOL     OW20203   5.173   0.984   0.777
 6435SOL    HW120204   5.097   1.022   0.725
 6435SOL    HW220205   5.136   0.935   0.857
 6436SOL     OW20206   6.938   3.794   3.798
 6436SOL    HW120207   6.898   3.824   3.884
 6436SOL    HW220208   0.011   3.798   3.805
 6437SOL     OW20209   0.626   1.197   5.610
 6437SOL    HW120210   0.640   1.114   5.664
 6437SOL    HW220211   0.697   1.264   5.633
 6438SOL     OW20212   0.566   5.513   0.187
 6438SOL    HW120213   0.536   5.588   0.128
 6438SOL    HW220214   0.617   5.549   0.264
 6439SOL     OW20215   5.623   0.376   3.682
 6439SOL    HW120216   5.663   0.399   3.593
 6439SOL    HW220217   5.677   0.418   3.755
 6440SOL     OW20218   2.348   1.105   5.822
 6440SOL    HW120219   2.422   1.167   5.796
 6440SOL    HW220220   2.260   1.144   5.795
 6441SOL     OW20221   0.150   0.743   2.385
 6441SOL    HW120222   0.227   0.786   2.338
 6441SOL    HW220223   0.183   0.703   2.471
 6442SOL     OW20224   3.140   2.706   5.496
 6442SOL    HW120225   3.098   2.618   5.518
 6442SOL    HW220226   3.142   2.764   5.577
 6443SOL     OW20227   4.444   2.314   1.083
 6443SOL    HW120228   4.482   2.250   1.016
 6443SOL    HW220229   4.414   2.397   1.036
 6444SOL     OW20230   0.249   3.141   5.067
 6444SOL    HW120231   0.313   3.217   5.081
 6444SOL    HW220232   0.235   3.093   5.153
 6445SOL     OW20233   2.963   3.802   3.084
 6445SOL    HW120234   2.960   3.889   3.132
 6445SOL    HW220235   3.004   3.814   2.993
 6446SOL     OW20236   2.149   1.530   0.226
 6446SOL    HW120237   2.114   1.606   0.171
 6446SOL    HW220238   2.161   1.559   0.321
 6447SOL     OW20239   6.115   4.469   1.242
 6447SOL    HW120240   6.017   4.451   1.235
 6447SOL    HW220241   6.132   4.567   1.230
 6448SOL     OW20242   5.002   5.382   2.024
 6448SOL    HW120243   5.056   5.306   2.058
 6448SOL    HW220244   4.911   5.350   1.999
 6449SOL     OW20245   2.459   5.881   1.285
 6449SOL    HW120246   2.364   5.883   1.256
 6449SOL    HW220247   2.467   5.920   1.376
 6450SOL     OW20248   0.582   3.784   0.960
 6450SOL    HW120249   0.604   3.739   1.047
 6450SOL    HW220250   0.560   3.714   0.892
 6451SOL     OW20251   3.363   2.568   1.292
 6451SOL    HW120252   3.282   2.554   1.350
 6451SOL    HW220253   3.441   2.519   1.331
 6452SOL     OW20254   5.244   2.717   3.322
 6452SOL    HW120255   5.329   2.674   3.295
 6452SOL    HW220256   5.208   2.772   3.246
 6453SOL     OW20257   3.258   6.965   0.683
 6453SOL    HW120258   3.267   0.010   0.752
 6453SOL    HW220259   3.347   6.949   0.640
 6454SOL     OW20260   5.924   2.638   2.847
 6454SOL    HW120261   5.895   2.549   2.812
 6454SOL    HW220262   5.856   2.707   2.823
 6455SOL     OW20263   6.158   4.093   3.568
 6455SOL    HW120264   6.149   4.007   3.619
 6455SOL    HW220265   6.213   4.158   3.621
 6456SOL     OW20266   6.476   1.110   2.976
 6456SOL    HW120267   6.515   1.033   2.926
 6456SOL    HW220268   6.435   1.174   2.911
 6457SOL     OW20269   4.660   0.344   1.763
 6457SOL    HW120270   4.746   0.376   1.801
 6457SOL    HW220271   4.584   0.380   1.817
 6458SOL     OW20272   1.240   4.928   3.768
 6458SOL    HW120273   1.190   4.842   3.774
 6458SOL    HW220274   1.220   4.974   3.682
 6459SOL     OW20275   6.480   3.094   2.821
 6459SOL    HW120276   6.403   3.085   2.757
 6459SOL    HW220277   6.447   3.133   2.907
 6460SOL     OW20278   0.299   5.605   6.263
 6460SOL    HW120279   0.369   5.544   6.227
 6460SOL    HW220280   0.208   5.565   6.248
 6461SOL     OW20281   2.943   4.899   1.293
 6461SOL    HW120282   2.972   4.803   1.300
 6461SOL    HW220283   2.857   4.912   1.344
 6462SOL     OW20284   1.569   4.088   5.199
 6462SOL    HW120285   1.644   4.039   5.155
 6462SOL    HW220286   1.513   4.024   5.252
 6463SOL     OW20287   4.102   1.237   1.186
 6463SOL    HW120288   4.162   1.274   1.257
 6463SOL    HW220289   4.044   1.310   1.151
 6464SOL     OW20290   0.949   5.615   4.311
 6464SOL    HW120291   1.026   5.581   4.257
 6464SOL    HW220292   0.967   5.710   4.337
 6465SOL     OW20293   4.663   2.097   3.237
 6465SOL    HW120294   4.714   2.181   3.219
 6465SOL    HW220295   4.609   2.109   3.321
 6466SOL     OW20296   0.493   3.559   0.116
 6466SOL    HW120297   0.590   3.544   0.100
 6466SOL    HW220298   0.442   3.545   0.031
 6467SOL     OW20299   3.269   1.371   1.065
 6467SOL    HW120300   3.237   1.318   1.143
 6467SOL    HW220301   3.329   1.444   1.096
 6468SOL     OW20302   2.993   0.313   0.609
 6468SOL    HW120303   3.071   0.347   0.556
 6468SOL    HW220304   2.976   0.374   0.686
 6469SOL     OW20305   3.904   1.713   3.288
 6469SOL    HW120306   3.937   1.773   3.216
 6469SOL    HW220307   3.915   1.757   3.377
 6470SOL     OW20308   6.371   2.471   6.849
 6470SOL    HW120309   6.297   2.457   6.784
 6470SOL    HW220310   6.444   2.524   6.805
 6471SOL     OW20311   0.391   6.432   4.807
 6471SOL    HW120312   0.293   6.451   4.803
 6471SOL    HW220313   0.406   6.334   4.795
 6472SOL     OW20314   6.995   5.691   2.608
 6472SOL    HW120315   7.010   5.749   2.688
 6472SOL    HW220316   0.045   5.700   2.545
 6473SOL     OW20317   2.117   1.364   3.830
 6473SOL    HW120318   2.047   1.390   3.896
 6473SOL    HW220319   2.188   1.435   3.826
 6474SOL     OW20320   4.153   6.329   4.902
 6474SOL    HW120321   4.121   6.334   4.807
 6474SOL    HW220322   4.181   6.235   4.922
 6475SOL     OW20323   5.708   4.855   3.070
 6475SOL    HW120324   5.788   4.902   3.106
 6475SOL    HW220325   5.626   4.889   3.116
 6476SOL     OW20326   4.088   1.561   6.287
 6476SOL    HW120327   4.155   1.524   6.352
 6476SOL    HW220328   4.019   1.614   6.336
 6477SOL     OW20329   6.495   6.151   1.663
 6477SOL    HW120330   6.594   6.135   1.660
 6477SOL    HW220331   6.475   6.225   1.727
 6478SOL     OW20332   3.583   5.838   1.907
 6478SOL    HW120333   3.604   5.860   1.811
 6478SOL    HW220334   3.516   5.903   1.942
 6479SOL     OW20335   3.569   6.174   3.853
 6479SOL    HW120336   3.660   6.175   3.894
 6479SOL    HW220337   3.529   6.083   3.863
 6480SOL     OW20338   3.257   1.450   6.701
 6480SOL    HW120339   3.334   1.417   6.756
 6480SOL    HW220340   3.186   1.486   6.762
 6481SOL     OW20341   3.324   2.447   1.715
 6481SOL    HW120342   3.237   2.474   1.757
 6481SOL    HW220343   3.320   2.352   1.685
 6482SOL     OW20344   6.675   3.224   5.593
 6482SOL    HW120345   6.755   3.240   5.537
 6482SOL    HW220346   6.607   3.172   5.541
 6483SOL     OW20347   1.262   5.705   5.361
 6483SOL    HW120348   1.282   5.609   5.339
 6483SOL    HW220349   1.301   5.728   5.450
 6484SOL     OW20350   2.479   0.951   4.043
 6484SOL    HW120351   2.461   0.901   3.958
 6484SOL    HW220352   2.445   0.898   4.121
 6485SOL     OW20353   2.191   6.831   4.315
 6485SOL    HW120354   2.109   6.885   4.296
 6485SOL    HW220355   2.212   6.836   4.412
 6486SOL     OW20356   1.641   5.343   3.160
 6486SOL    HW120357   1.740   5.353   3.146
 6486SOL    HW220358   1.625   5.290   3.244
 6487SOL     OW20359   0.043   4.549   4.495
 6487SOL    HW120360   0.106   4.477   4.526
 6487SOL    HW220361   0.040   4.622   4.562
 6488SOL     OW20362   4.543   5.601   4.620
 6488SOL    HW120363   4.642   5.588   4.626
 6488SOL    HW220364   4.523   5.699   4.626
 6489SOL     OW20365   4.219   2.910   6.151
 6489SOL    HW120366   4.218   2.880   6.056
 6489SOL    HW220367   4.150   2.981   6.165
 6490SOL     OW20368   1.955   1.774   6.425
 6490SOL    HW120369   1.990   1.854   6.473
 6490SOL    HW220370   2.028   1.706   6.416
 6491SOL     OW20371   1.267   0.568   0.660
 6491SOL    HW120372   1.312   0.488   0.620
 6491SOL    HW220373   1.207   0.611   0.592
 6492SOL     OW20374   3.740   3.748   4.966
 6492SOL    HW120375   3.665   3.790   4.915
 6492SOL    HW220376   3.751   3.653   4.936
 6493SOL     OW20377   0.793   4.248   6.431
 6493SOL    HW120378   0.694   4.244   6.449
 6493SOL    HW220379   0.841   4.189   6.494
 6494SOL     OW20380   6.040   6.648   1.969
 6494SOL    HW120381   6.006   6.708   2.042
 6494SOL    HW220382   5.978   6.652   1.891
 6495SOL     OW20383   0.250   0.059   3.373
 6495SOL    HW120384   0.307   0.064   3.455
 6495SOL    HW220385   0.295   0.107   3.298
 6496SOL     OW20386   4.784   0.526   2.079
 6496SOL    HW120387   4.729   0.579   2.015
 6496SOL    HW220388   4.861   0.581   2.110
 6497SOL     OW20389   0.303   1.640   0.827
 6497SOL    HW120390   0.338   1.562   0.775
 6497SOL    HW220391   0.232   1.686   0.774
 6498SOL     OW20392   1.195   4.221   3.626
 6498SOL    HW120393   1.180   4.132   3.583
 6498SOL    HW220394   1.129   4.234   3.700
 6499SOL     OW20395   5.941   3.929   4.444
 6499SOL    HW120396   5.926   3.952   4.348
 6499SOL    HW220397   5.974   3.835   4.451
 6500SOL     OW20398   1.566   3.650   2.496
 6500SOL    HW120399   1.650   3.597   2.481
 6500SOL    HW220400   1.554   3.714   2.420
 6501SOL     OW20401   6.376   2.005   1.323
 6501SOL    HW120402   6.308   2.078   1.318
 6501SOL    HW220403   6.329   1.917   1.327
 6502SOL     OW20404   6.079   3.861   2.087
 6502SOL    HW120405   6.131   3.900   2.011
 6502SOL    HW220406   6.110   3.902   2.173
 6503SOL     OW20407   6.657   3.222   5.856
 6503SOL    HW120408   6.669   3.241   5.758
 6503SOL    HW220409   6.683   3.127   5.874
 6504SOL     OW20410   4.481   6.203   6.373
 6504SOL    HW120411   4.385   6.229   6.377
 6504SOL    HW220412   4.490   6.105   6.385
 6505SOL     OW20413   5.887   5.832   7.007
 6505SOL    HW120414   5.923   5.741   6.989
 6505SOL    HW220415   5.898   5.889   6.925
 6506SOL     OW20416   0.312   2.884   2.798
 6506SOL    HW120417   0.216   2.910   2.808
 6506SOL    HW220418   0.325   2.839   2.709
 6507SOL     OW20419   3.965   4.422   6.695
 6507SOL    HW120420   4.054   4.467   6.692
 6507SOL    HW220421   3.916   4.438   6.609
 6508SOL     OW20422   1.289   6.720   1.848
 6508SOL    HW120423   1.271   6.642   1.789
 6508SOL    HW220424   1.254   6.702   1.940
 6509SOL     OW20425   3.866   1.675   5.749
 6509SOL    HW120426   3.912   1.710   5.831
 6509SOL    HW220427   3.780   1.630   5.776
 6510SOL     OW20428   4.400   6.278   5.535
 6510SOL    HW120429   4.454   6.265   5.619
 6510SOL    HW220430   4.315   6.325   5.557
 6511SOL     OW20431   3.232   1.169   6.912
 6511SOL    HW120432   3.142   1.199   6.881
 6511SOL    HW220433   3.303   1.211   6.855
 6512SOL     OW20434   3.221   0.987   0.960
 6512SOL    HW120435   3.142   0.993   1.020
 6512SOL    HW220436   3.230   1.071   0.907
 6513SOL     OW20437   2.904   5.548   4.473
 6513SOL    HW120438   2.861   5.479   4.532
 6513SOL    HW220439   2.835   5.586   4.411
 6514SOL     OW20440   5.916   0.463   5.341
 6514SOL    HW120441   5.829   0.507   5.320
 6514SOL    HW220442   5.901   0.369   5.370
 6515SOL     OW20443   1.958   4.816   2.027
 6515SOL    HW120444   2.017   4.881   2.075
 6515SOL    HW220445   1.863   4.847   2.033
 6516SOL     OW20446   0.290   2.973   1.044
 6516SOL    HW120447   0.238   2.981   1.129
 6516SOL    HW220448   0.282   2.880   1.009
 6517SOL     OW20449   6.934   3.028   7.020
 6517SOL    HW120450   7.022   3.002   6.980
 6517SOL    HW220451   6.936   3.124   0.020
 6518SOL     OW20452   1.100   1.463   2.855
 6518SOL    HW120453   1.085   1.419   2.944
 6518SOL    HW220454   1.191   1.440   2.822
 6519SOL     OW20455   1.059   1.649   3.213
 6519SOL    HW120456   1.045   1.650   3.114
 6519SOL    HW220457   1.040   1.739   3.251
 6520SOL     OW20458   0.140   5.666   6.987
 6520SOL    HW120459   0.184   5.707   6.907
 6520SOL    HW220460   0.115   5.739   0.024
 6521SOL     OW20461   1.534   2.969   4.418
 6521SOL    HW120462   1.616   3.011   4.458
 6521SOL    HW220463   1.453   3.007   4.463
 6522SOL     OW20464   2.678   4.025   5.316
 6522SOL    HW120465   2.596   4.043   5.262
 6522SOL    HW220466   2.662   4.050   5.411
 6523SOL     OW20467   5.847   0.306   0.112
 6523SOL    HW120468   5.826   0.311   0.210
 6523SOL    HW220469   5.791   0.373   0.063
 6524SOL     OW20470   2.307   2.370   1.110
 6524SOL    HW120471   2.263   2.460   1.117
 6524SOL    HW220472   2.393   2.371   1.160
 6525SOL     OW20473   1.519   4.956   3.641
 6525SOL    HW120474   1.422   4.952   3.665
 6525SOL    HW220475   1.563   5.032   3.688
 6526SOL     OW20476   0.096   0.071   0.459
 6526SOL    HW120477   0.176   0.036   0.410
 6526SOL    HW220478   0.038   7.022   0.487
 6527SOL     OW20479   0.782   2.692   0.545
 6527SOL    HW120480   0.852   2.762   0.558
 6527SOL    HW220481   0.738   2.671   0.632
 6528SOL     OW20482   6.159   1.135   5.644
 6528SOL    HW120483   6.152   1.041   5.610
 6528SOL    HW220484   6.216   1.189   5.582
 6529SOL     OW20485   6.713   1.166   1.971
 6529SOL    HW120486   6.773   1.112   1.912
 6529SOL    HW220487   6.701   1.120   2.058
 6530SOL     OW20488   0.652   2.293   2.200
 6530SOL    HW120489   0.554   2.276   2.193
 6530SOL    HW220490   0.690   2.238   2.274
 6531SOL     OW20491   4.120   3.105   5.851
 6531SOL    HW120492   4.198   3.144   5.899
 6531SOL    HW220493   4.038   3.160   5.871
 6532SOL     OW20494   1.249   0.940   1.031
 6532SOL    HW120495   1.167   0.883   1.037
 6532SOL    HW220496   1.294   0.924   0.944
 6533SOL     OW20497   4.166   3.819   6.690
 6533SOL    HW120498   4.131   3.849   6.601
 6533SOL    HW220499   4.115   3.738   6.720
 6534SOL     OW20500   5.758   4.778   2.448
 6534SOL    HW120501   5.836   4.716   2.454
 6534SOL    HW220502   5.760   4.843   2.524
 6535SOL     OW20503   6.128   3.406   4.814
 6535SOL    HW120504   6.055   3.339   4.824
 6535SOL    HW220505   6.180   3.411   4.900
 6536SOL     OW20506   0.369   3.160   5.353
 6536SOL    HW120507   0.312   3.079   5.361
 6536SOL    HW220508   0.379   3.203   5.443
 6537SOL     OW20509   6.293   4.912   4.697
 6537SOL    HW120510   6.212   4.946   4.744
 6537SOL    HW220511   6.311   4.818   4.725
 6538SOL     OW20512   2.398   3.651   5.319
 6538SOL    HW120513   2.494   3.675   5.311
 6538SOL    HW220514   2.385   3.556   5.288
 6539SOL     OW20515   6.454   0.771   6.527
 6539SOL    HW120516   6.518   0.845   6.505
 6539SOL    HW220517   6.393   0.756   6.450
 6540SOL     OW20518   4.409   2.602   6.090
 6540SOL    HW120519   4.482   2.539   6.068
 6540SOL    HW220520   4.417   2.684   6.033
 6541SOL     OW20521   6.174   1.505   4.776
 6541SOL    HW120522   6.237   1.523   4.851
 6541SOL    HW220523   6.225   1.492   4.691
 6542SOL     OW20524   1.918   3.402   4.685
 6542SOL    HW120525   1.947   3.421   4.779
 6542SOL    HW220526   1.819   3.386   4.684
 6543SOL     OW20527   3.965   2.126   4.834
 6543SOL    HW120528   3.957   2.215   4.879
 6543SOL    HW220529   4.006   2.060   4.897
 6544SOL     OW20530   0.729   0.347   1.381
 6544SOL    HW120531   0.822   0.381   1.392
 6544SOL    HW220532   0.705   0.345   1.284
 6545SOL     OW20533   4.192   0.165   1.413
 6545SOL    HW120534   4.230   0.220   1.488
 6545SOL    HW220535   4.207   0.213   1.327
 6546SOL     OW20536   5.440   4.176   6.312
 6546SOL    HW120537   5.522   4.124   6.290
 6546SOL    HW220538   5.465   4.258   6.365
 6547SOL     OW20539   5.581   6.194   0.106
 6547SOL    HW120540   5.525   6.123   0.148
 6547SOL    HW220541   5.617   6.255   0.178
 6548SOL     OW20542   0.714   2.528   5.694
 6548SOL    HW120543   0.705   2.596   5.621
 6548SOL    HW220544   0.782   2.460   5.667
 6549SOL     OW20545   4.874   6.892   1.863
 6549SOL    HW120546   4.926   6.970   1.897
 6549SOL    HW220547   4.885   6.815   1.927
 6550SOL     OW20548   6.412   6.686   3.325
 6550SOL    HW120549   6.328   6.706   3.375
 6550SOL    HW220550   6.482   6.754   3.348
 6551SOL     OW20551   3.106   3.485   1.430
 6551SOL    HW120552   3.173   3.501   1.502
 6551SOL    HW220553   3.108   3.561   1.365
 6552SOL     OW20554   2.028   0.210   0.671
 6552SOL    HW120555   2.110   0.201   0.727
 6552SOL    HW220556   2.033   0.146   0.594
 6553SOL     OW20557   0.358   0.713   2.921
 6553SOL    HW120558   0.452   0.740   2.941
 6553SOL    HW220559   0.298   0.738   2.997
 6554SOL     OW20560   3.210   1.055   4.429
 6554SOL    HW120561   3.238   1.042   4.334
 6554SOL    HW220562   3.142   0.986   4.454
 6555SOL     OW20563   6.610   2.092   4.539
 6555SOL    HW120564   6.599   2.175   4.484
 6555SOL    HW220565   6.563   2.103   4.626
 6556SOL     OW20566   6.081   3.155   3.566
 6556SOL    HW120567   6.067   3.203   3.479
 6556SOL    HW220568   6.004   3.092   3.581
 6557SOL     OW20569   1.527   6.695   2.426
 6557SOL    HW120570   1.447   6.656   2.470
 6557SOL    HW220571   1.502   6.731   2.336
 6558SOL     OW20572   5.558   5.263   0.382
 6558SOL    HW120573   5.617   5.213   0.445
 6558SOL    HW220574   5.482   5.204   0.354
 6559SOL     OW20575   6.332   3.076   6.179
 6559SOL    HW120576   6.391   3.086   6.099
 6559SOL    HW220577   6.344   2.985   6.218
 6560SOL     OW20578   4.764   4.828   0.582
 6560SOL    HW120579   4.670   4.834   0.548
 6560SOL    HW220580   4.820   4.899   0.538
 6561SOL     OW20581   3.678   5.040   0.455
 6561SOL    HW120582   3.741   5.076   0.386
 6561SOL    HW220583   3.635   5.117   0.504
 6562SOL     OW20584   5.865   2.517   0.858
 6562SOL    HW120585   5.921   2.513   0.776
 6562SOL    HW220586   5.922   2.535   0.938
 6563SOL     OW20587   5.369   6.655   4.836
 6563SOL    HW120588   5.295   6.696   4.890
 6563SOL    HW220589   5.356   6.677   4.740
 6564SOL     OW20590   0.167   4.116   2.642
 6564SOL    HW120591   0.164   4.073   2.732
 6564SOL    HW220592   0.188   4.046   2.573
 6565SOL     OW20593   6.100   6.850   2.406
 6565SOL    HW120594   6.100   6.945   2.437
 6565SOL    HW220595   6.046   6.795   2.470
 6566SOL     OW20596   3.767   5.896   2.370
 6566SOL    HW120597   3.690   5.921   2.429
 6566SOL    HW220598   3.830   5.973   2.361
 6567SOL     OW20599   4.368   1.009   1.581
 6567SOL    HW120600   4.447   1.061   1.549
 6567SOL    HW220601   4.316   0.976   1.502
 6568SOL     OW20602   3.582   1.049   1.451
 6568SOL    HW120603   3.511   1.019   1.388
 6568SOL    HW220604   3.663   0.991   1.442
 6569SOL     OW20605   1.247   3.243   5.710
 6569SOL    HW120606   1.314   3.294   5.657
 6569SOL    HW220607   1.210   3.169   5.654
 6570SOL     OW20608   4.012   6.991   1.762
 6570SOL    HW120609   3.932   0.011   1.800
 6570SOL    HW220610   4.030   7.025   1.669
 6571SOL     OW20611   2.609   4.933   3.512
 6571SOL    HW120612   2.681   4.876   3.472
 6571SOL    HW220613   2.544   4.875   3.561
 6572SOL     OW20614   0.376   5.493   4.176
 6572SOL    HW120615   0.348   5.583   4.207
 6572SOL    HW220616   0.449   5.459   4.236
 6573SOL     OW20617   2.253   1.221   2.992
 6573SOL    HW120618   2.352   1.238   2.987
 6573SOL    HW220619   2.223   1.231   3.087
 6574SOL     OW20620   2.005   5.854   2.404
 6574SOL    HW120621   2.047   5.942   2.426
 6574SOL    HW220622   2.071   5.780   2.419
 6575SOL     OW20623   0.034   0.167   2.663
 6575SOL    HW120624   0.055   0.245   2.604
 6575SOL    HW220625   6.970   0.179   2.703
 6576SOL     OW20626   3.578   5.281   0.531
 6576SOL    HW120627   3.633   5.294   0.613
 6576SOL    HW220628   3.482   5.269   0.556
 6577SOL     OW20629   2.553   2.092   4.360
 6577SOL    HW120630   2.639   2.042   4.371
 6577SOL    HW220631   2.534   2.144   4.443
 6578SOL     OW20632   1.661   5.310   1.212
 6578SOL    HW120633   1.742   5.252   1.201
 6578SOL    HW220634   1.688   5.397   1.253
 6579SOL     OW20635   0.222   1.228   3.775
 6579SOL    HW120636   0.154   1.295   3.745
 6579SOL    HW220637   0.297   1.275   3.822
 6580SOL     OW20638   1.018   0.008   6.906
 6580SOL    HW120639   1.116   0.022   6.915
 6580SOL    HW220640   0.972   0.040   6.989
 6581SOL     OW20641   1.425   1.986   6.743
 6581SOL    HW120642   1.486   1.914   6.778
 6581SOL    HW220643   1.370   1.951   6.668
 6582SOL     OW20644   6.380   0.617   3.043
 6582SOL    HW120645   6.372   0.665   3.130
 6582SOL    HW220646   6.368   0.519   3.058
 6583SOL     OW20647   4.142   6.542   6.457
 6583SOL    HW120648   4.111   6.588   6.374
 6583SOL    HW220649   4.078   6.561   6.531
 6584SOL     OW20650   3.554   2.586   1.005
 6584SOL    HW120651   3.474   2.526   1.006
 6584SOL    HW220652   3.524   2.681   1.013
 6585SOL     OW20653   6.126   6.962   0.853
 6585SOL    HW120654   6.219   6.950   0.820
 6585SOL    HW220655   6.061   6.921   0.788
 6586SOL     OW20656   6.113   2.388   5.879
 6586SOL    HW120657   6.198   2.335   5.882
 6586SOL    HW220658   6.121   2.466   5.941
 6587SOL     OW20659   1.640   4.245   5.429
 6587SOL    HW120660   1.606   4.154   5.405
 6587SOL    HW220661   1.571   4.314   5.405
 6588SOL     OW20662   0.275   3.126   0.418
 6588SOL    HW120663   0.324   3.092   0.338
 6588SOL    HW220664   0.340   3.156   0.487
 6589SOL     OW20665   6.613   0.914   1.399
 6589SOL    HW120666   6.591   0.844   1.467
 6589SOL    HW220667   6.659   0.990   1.444
 6590SOL     OW20668   0.899   0.655   5.349
 6590SOL    HW120669   0.963   0.719   5.306
 6590SOL    HW220670   0.805   0.684   5.332
 6591SOL     OW20671   4.821   5.441   4.503
 6591SOL    HW120672   4.754   5.371   4.526
 6591SOL    HW220673   4.786   5.496   4.427
 6592SOL     OW20674   5.099   0.076   2.961
 6592SOL    HW120675   5.031   0.061   3.033
 6592SOL    HW220676   5.064   0.041   2.874
 6593SOL     OW20677   2.817   2.298   2.472
 6593SOL    HW120678   2.851   2.373   2.529
 6593SOL    HW220679   2.767   2.233   2.530
 6594SOL     OW20680   3.637   1.566   5.917
 6594SOL    HW120681   3.704   1.520   5.975
 6594SOL    HW220682   3.567   1.501   5.889
 6595SOL     OW20683   2.272   2.232   4.814
 6595SOL    HW120684   2.175   2.246   4.834
 6595SOL    HW220685   2.327   2.293   4.870
 6596SOL     OW20686   5.096   5.786   2.756
 6596SOL    HW120687   5.026   5.811   2.689
 6596SOL    HW220688   5.157   5.864   2.771
 6597SOL     OW20689   1.025   5.546   2.453
 6597SOL    HW120690   1.104   5.504   2.497
 6597SOL    HW220691   0.948   5.482   2.455
 6598SOL     OW20692   2.042   4.393   4.164
 6598SOL    HW120693   2.025   4.358   4.072
 6598SOL    HW220694   1.986   4.475   4.179
 6599SOL     OW20695   5.597   6.152   6.424
 6599SOL    HW120696   5.523   6.184   6.365
 6599SOL    HW220697   5.669   6.111   6.367
 6600SOL     OW20698   4.694   0.046   5.726
 6600SOL    HW120699   4.722   0.090   5.811
 6600SOL    HW220700   4.596   0.024   5.730
 6601SOL     OW20701   1.190   2.984   2.615
 6601SOL    HW120702   1.275   2.958   2.570
 6601SOL    HW220703   1.165   3.077   2.590
 6602SOL     OW20704   2.010   0.169   1.512
 6602SOL    HW120705   2.036   0.092   1.454
 6602SOL    HW220706   2.092   0.218   1.539
 6603SOL     OW20707   0.688   2.707   3.690
 6603SOL    HW120708   0.739   2.624   3.668
 6603SOL    HW220709   0.749   2.786   3.685
 6604SOL     OW20710   2.453   6.736   1.850
 6604SOL    HW120711   2.540   6.759   1.894
 6604SOL    HW220712   2.394   6.690   1.917
 6605SOL     OW20713   5.933   5.329   1.597
 6605SOL    HW120714   5.924   5.297   1.503
 6605SOL    HW220715   5.848   5.313   1.647
 6606SOL     OW20716   1.293   3.387   3.660
 6606SOL    HW120717   1.292   3.306   3.719
 6606SOL    HW220718   1.206   3.394   3.611
 6607SOL     OW20719   5.917   4.304   3.952
 6607SOL    HW120720   5.993   4.360   3.984
 6607SOL    HW220721   5.950   4.212   3.929
 6608SOL     OW20722   6.863   6.849   6.781
 6608SOL    HW120723   6.925   6.773   6.798
 6608SOL    HW220724   6.902   6.910   6.713
 6609SOL     OW20725   4.771   2.056   6.077
 6609SOL    HW120726   4.840   2.120   6.045
 6609SOL    HW220727   4.686   2.070   6.027
 6610SOL     OW20728   2.812   5.777   0.916
 6610SOL    HW120729   2.892   5.728   0.882
 6610SOL    HW220730   2.788   5.741   1.007
 6611SOL     OW20731   5.163   2.348   3.850
 6611SOL    HW120732   5.152   2.252   3.826
 6611SOL    HW220733   5.220   2.394   3.782
 6612SOL     OW20734   5.616   2.070   6.310
 6612SOL    HW120735   5.706   2.113   6.326
 6612SOL    HW220736   5.553   2.139   6.274
 6613SOL     OW20737   5.157   0.586   6.451
 6613SOL    HW120738   5.101   0.544   6.523
 6613SOL    HW220739   5.097   0.633   6.386
 6614SOL     OW20740   4.765   5.612   1.951
 6614SOL    HW120741   4.732   5.526   1.989
 6614SOL    HW220742   4.770   5.604   1.851
 6615SOL     OW20743   3.080   5.640   0.312
 6615SOL    HW120744   3.085   5.606   0.217
 6615SOL    HW220745   3.001   5.600   0.357
 6616SOL     OW20746   4.806   0.665   6.322
 6616SOL    HW120747   4.780   0.670   6.419
 6616SOL    HW220748   4.725   0.644   6.267
 6617SOL     OW20749   3.873   0.490   3.557
 6617SOL    HW120750   3.973   0.490   3.557
 6617SOL    HW220751   3.840   0.399   3.582
 6618SOL     OW20752   0.553   1.690   3.380
 6618SOL    HW120753   0.538   1.774   3.432
 6618SOL    HW220754   0.589   1.619   3.441
 6619SOL     OW20755   4.513   6.691   4.256
 6619SOL    HW120756   4.459   6.730   4.331
 6619SOL    HW220757   4.453   6.635   4.198
 6620SOL     OW20758   0.567   3.686   3.633
 6620SOL    HW120759   0.500   3.709   3.703
 6620SOL    HW220760   0.620   3.606   3.662
 6621SOL     OW20761   3.993   3.164   4.998
 6621SOL    HW120762   3.917   3.145   4.935
 6621SOL    HW220763   3.988   3.101   5.076
 6622SOL     OW20764   6.325   5.650   0.903
 6622SOL    HW120765   6.400   5.666   0.968
 6622SOL    HW220766   6.316   5.730   0.843
 6623SOL     OW20767   3.511   4.464   5.400
 6623SOL    HW120768   3.599   4.492   5.436
 6623SOL    HW220769   3.521   4.376   5.352
 6624SOL     OW20770   0.904   2.401   4.702
 6624SOL    HW120771   0.880   2.308   4.731
 6624SOL    HW220772   0.997   2.422   4.731
 6625SOL     OW20773   5.903   3.010   5.085
 6625SOL    HW120774   5.839   3.024   5.161
 6625SOL    HW220775   5.876   2.929   5.033
 6626SOL     OW20776   2.969   6.847   4.551
 6626SOL    HW120777   3.039   6.793   4.503
 6626SOL    HW220778   2.939   6.922   4.493
 6627SOL     OW20779   1.344   6.175   4.587
 6627SOL    HW120780   1.423   6.161   4.647
 6627SOL    HW220781   1.375   6.180   4.492
 6628SOL     OW20782   5.198   5.568   3.900
 6628SOL    HW120783   5.146   5.504   3.957
 6628SOL    HW220784   5.141   5.599   3.824
 6629SOL     OW20785   5.225   6.210   6.824
 6629SOL    HW120786   5.284   6.262   6.886
 6629SOL    HW220787   5.168   6.147   6.877
 6630SOL     OW20788   2.427   1.512   1.628
 6630SOL    HW120789   2.491   1.583   1.596
 6630SOL    HW220790   2.378   1.474   1.550
 6631SOL     OW20791   1.579   4.701   6.006
 6631SOL    HW120792   1.571   4.699   5.907
 6631SOL    HW220793   1.574   4.795   6.039
 6632SOL     OW20794   0.946   0.221   0.566
 6632SOL    HW120795   1.024   0.200   0.625
 6632SOL    HW220796   0.874   0.266   0.620
 6633SOL     OW20797   3.175   5.644   6.137
 6633SOL    HW120798   3.124   5.708   6.195
 6633SOL    HW220799   3.163   5.551   6.171
 6634SOL     OW20800   4.972   2.121   5.708
 6634SOL    HW120801   4.878   2.101   5.735
 6634SOL    HW220802   5.033   2.049   5.742
 6635SOL     OW20803   5.024   4.239   2.236
 6635SOL    HW120804   4.954   4.223   2.305
 6635SOL    HW220805   5.049   4.152   2.193
 6636SOL     OW20806   3.018   0.119   2.054
 6636SOL    HW120807   3.007   0.149   1.959
 6636SOL    HW220808   3.093   0.053   2.060
 6637SOL     OW20809   1.563   0.897   0.917
 6637SOL    HW120810   1.586   0.827   0.985
 6637SOL    HW220811   1.472   0.878   0.880
 6638SOL     OW20812   2.965   3.889   4.003
 6638SOL    HW120813   3.026   3.899   3.925
 6638SOL    HW220814   2.904   3.968   4.008
 6639SOL     OW20815   4.602   2.717   0.816
 6639SOL    HW120816   4.551   2.633   0.799
 6639SOL    HW220817   4.645   2.713   0.906
 6640SOL     OW20818   0.848   2.674   5.127
 6640SOL    HW120819   0.845   2.764   5.171
 6640SOL    HW220820   0.884   2.606   5.191
 6641SOL     OW20821   3.806   1.766   1.063
 6641SOL    HW120822   3.746   1.845   1.060
 6641SOL    HW220823   3.846   1.758   1.155
 6642SOL     OW20824   1.762   5.432   0.742
 6642SOL    HW120825   1.785   5.445   0.646
 6642SOL    HW220826   1.730   5.519   0.780
 6643SOL     OW20827   5.137   6.192   0.570
 6643SOL    HW120828   5.052   6.176   0.519
 6643SOL    HW220829   5.215   6.165   0.514
 6644SOL     OW20830   1.774   6.235   2.665
 6644SOL    HW120831   1.684   6.280   2.661
 6644SOL    HW220832   1.815   6.252   2.755
 6645SOL     OW20833   6.173   2.951   0.581
 6645SOL    HW120834   6.167   3.028   0.518
 6645SOL    HW220835   6.088   2.899   0.579
 6646SOL     OW20836   4.183   0.632   6.753
 6646SOL    HW120837   4.280   0.621   6.728
 6646SOL    HW220838   4.129   0.644   6.670
 6647SOL     OW20839   4.256   4.698   1.103
 6647SOL    HW120840   4.343   4.699   1.055
 6647SOL    HW220841   4.194   4.764   1.062
 6648SOL     OW20842   3.007   6.471   4.575
 6648SOL    HW120843   3.012   6.535   4.652
 6648SOL    HW220844   2.914   6.435   4.568
 6649SOL     OW20845   5.818   2.761   6.747
 6649SOL    HW120846   5.819   2.661   6.752
 6649SOL    HW220847   5.819   2.790   6.651
 6650SOL     OW20848   3.681   0.825   5.097
 6650SOL    HW120849   3.668   0.738   5.050
 6650SOL    HW220850   3.605   0.886   5.077
 6651SOL     OW20851   1.094   1.436   0.165
 6651SOL    HW120852   1.155   1.386   0.102
 6651SOL    HW220853   1.004   1.447   0.122
 6652SOL     OW20854   1.239   4.656   6.931
 6652SOL    HW120855   1.251   4.709   7.016
 6652SOL    HW220856   1.250   4.559   6.951
 6653SOL     OW20857   5.297   2.908   0.365
 6653SOL    HW120858   5.389   2.913   0.326
 6653SOL    HW220859   5.261   3.000   0.380
 6654SOL     OW20860   0.499   4.771   3.176
 6654SOL    HW120861   0.505   4.760   3.275
 6654SOL    HW220862   0.404   4.761   3.147
 6655SOL     OW20863   6.188   5.450   1.528
 6655SOL    HW120864   6.110   5.396   1.558
 6655SOL    HW220865   6.192   5.536   1.579
 6656SOL     OW20866   3.988   1.564   2.379
 6656SOL    HW120867   3.992   1.467   2.405
 6656SOL    HW220868   3.918   1.577   2.308
 6657SOL     OW20869   5.506   2.272   4.303
 6657SOL    HW120870   5.452   2.279   4.387
 6657SOL    HW220871   5.445   2.270   4.224
 6658SOL     OW20872   6.004   6.934   5.093
 6658SOL    HW120873   6.083   6.888   5.134
 6658SOL    HW220874   5.980   6.889   5.008
 6659SOL     OW20875   0.911   5.082   2.052
 6659SOL    HW120876   0.949   5.068   1.961
 6659SOL    HW220877   0.874   4.996   2.087
 6660SOL     OW20878   1.092   5.927   2.563
 6660SOL    HW120879   1.055   6.016   2.535
 6660SOL    HW220880   1.081   5.862   2.489
 6661SOL     OW20881   2.807   6.540   4.245
 6661SOL    HW120882   2.903   6.540   4.272
 6661SOL    HW220883   2.800   6.519   4.147
 6662SOL     OW20884   2.386   0.234   1.775
 6662SOL    HW120885   2.427   0.321   1.805
 6662SOL    HW220886   2.339   0.191   1.852
 6663SOL     OW20887   1.698   5.223   6.058
 6663SOL    HW120888   1.797   5.220   6.047
 6663SOL    HW220889   1.654   5.224   5.968
 6664SOL     OW20890   1.990   0.686   1.612
 6664SOL    HW120891   1.991   0.780   1.581
 6664SOL    HW220892   2.026   0.681   1.705
 6665SOL     OW20893   2.894   0.223   5.986
 6665SOL    HW120894   2.841   0.238   5.903
 6665SOL    HW220895   2.914   0.125   5.996
 6666SOL     OW20896   6.289   5.694   5.034
 6666SOL    HW120897   6.343   5.735   5.108
 6666SOL    HW220898   6.334   5.612   5.001
 6667SOL     OW20899   6.837   6.307   5.521
 6667SOL    HW120900   6.794   6.354   5.599
 6667SOL    HW220901   6.767   6.255   5.471
 6668SOL     OW20902   6.622   6.429   1.673
 6668SOL    HW120903   6.658   6.373   1.598
 6668SOL    HW220904   6.672   6.408   1.757
 6669SOL     OW20905   2.142   1.339   1.573
 6669SOL    HW120906   2.093   1.408   1.520
 6669SOL    HW220907   2.126   1.353   1.670
 6670SOL     OW20908   2.948   2.150   6.745
 6670SOL    HW120909   3.029   2.094   6.758
 6670SOL    HW220910   2.891   2.146   6.827
 6671SOL     OW20911   5.345   6.491   0.752
 6671SOL    HW120912   5.267   6.514   0.695
 6671SOL    HW220913   5.344   6.394   0.774
 6672SOL     OW20914   1.148   2.530   0.492
 6672SOL    HW120915   1.124   2.471   0.414
 6672SOL    HW220916   1.134   2.625   0.467
 6673SOL     OW20917   5.480   3.415   4.073
 6673SOL    HW120918   5.495   3.428   3.974
 6673SOL    HW220919   5.399   3.467   4.101
 6674SOL     OW20920   0.420   3.002   6.769
 6674SOL    HW120921   0.490   3.066   6.799
 6674SOL    HW220922   0.381   3.033   6.682
 6675SOL     OW20923   4.454   2.463   6.958
 6675SOL    HW120924   4.492   2.447   0.023
 6675SOL    HW220925   4.358   2.490   6.967
 6676SOL     OW20926   1.146   3.734   3.619
 6676SOL    HW120927   1.232   3.733   3.567
 6676SOL    HW220928   1.167   3.737   3.716
 6677SOL     OW20929   0.452   0.708   0.140
 6677SOL    HW120930   0.418   0.662   0.058
 6677SOL    HW220931   0.389   0.693   0.216
 6678SOL     OW20932   1.674   4.228   0.657
 6678SOL    HW120933   1.673   4.146   0.715
 6678SOL    HW220934   1.727   4.210   0.575
 6679SOL     OW20935   2.460   0.776   3.828
 6679SOL    HW120936   2.551   0.740   3.807
 6679SOL    HW220937   2.402   0.701   3.861
 6680SOL     OW20938   5.242   6.757   0.833
 6680SOL    HW120939   5.302   6.835   0.817
 6680SOL    HW220940   5.279   6.676   0.788
 6681SOL     OW20941   4.603   5.178   1.434
 6681SOL    HW120942   4.694   5.200   1.468
 6681SOL    HW220943   4.597   5.080   1.415
 6682SOL     OW20944   3.323   5.354   0.006
 6682SOL    HW120945   3.265   5.295   0.062
 6682SOL    HW220946   3.367   5.301   6.960
 6683SOL     OW20947   6.145   3.674   6.661
 6683SOL    HW120948   6.230   3.622   6.672
 6683SOL    HW220949   6.122   3.682   6.564
 6684SOL     OW20950   3.188   6.955   1.429
 6684SOL    HW120951   3.144   6.903   1.356
 6684SOL    HW220952   3.230   0.011   1.391
 6685SOL     OW20953   3.841   3.412   6.596
 6685SOL    HW120954   3.930   3.456   6.585
 6685SOL    HW220955   3.852   3.322   6.638
 6686SOL     OW20956   6.114   5.791   3.885
 6686SOL    HW120957   6.159   5.856   3.823
 6686SOL    HW220958   6.110   5.701   3.842
 6687SOL     OW20959   6.881   2.234   1.891
 6687SOL    HW120960   6.818   2.234   1.812
 6687SOL    HW220961   6.846   2.297   1.961
 6688SOL     OW20962   4.061   4.878   1.050
 6688SOL    HW120963   4.020   4.897   1.140
 6688SOL    HW220964   4.066   4.963   0.998
 6689SOL     OW20965   3.301   4.790   5.918
 6689SOL    HW120966   3.285   4.733   5.838
 6689SOL    HW220967   3.396   4.780   5.948
 6690SOL     OW20968   0.851   0.417   6.022
 6690SOL    HW120969   0.886   0.334   5.978
 6690SOL    HW220970   0.903   0.435   6.105
 6691SOL     OW20971   1.765   1.392   2.617
 6691SOL    HW120972   1.724   1.479   2.644
 6691SOL    HW220973   1.854   1.410   2.574
 6692SOL     OW20974   4.229   4.621   1.933
 6692SOL    HW120975   4.138   4.662   1.928
 6692SOL    HW220976   4.230   4.536   1.880
 6693SOL     OW20977   4.582   1.428   4.936
 6693SOL    HW120978   4.639   1.347   4.945
 6693SOL    HW220979   4.616   1.486   4.862
 6694SOL     OW20980   3.708   5.811   1.452
 6694SOL    HW120981   3.710   5.906   1.483
 6694SOL    HW220982   3.634   5.763   1.499
 6695SOL     OW20983   2.858   2.215   0.435
 6695SOL    HW120984   2.904   2.268   0.364
 6695SOL    HW220985   2.924   2.187   0.504
 6696SOL     OW20986   3.670   4.046   3.742
 6696SOL    HW120987   3.764   4.016   3.753
 6696SOL    HW220988   3.657   4.081   3.649
 6697SOL     OW20989   4.881   2.354   2.414
 6697SOL    HW120990   4.806   2.333   2.352
 6697SOL    HW220991   4.947   2.279   2.415
 6698SOL     OW20992   3.439   4.126   1.606
 6698SOL    HW120993   3.491   4.077   1.677
 6698SOL    HW220994   3.371   4.185   1.650
 6699SOL     OW20995   1.839   5.499   5.887
 6699SOL    HW120996   1.850   5.562   5.965
 6699SOL    HW220997   1.923   5.445   5.876
 6700SOL     OW20998   6.044   0.516   0.740
 6700SOL    HW120999   6.094   0.515   0.653
 6700SOL    HW221000   6.035   0.423   0.774
 6701SOL     OW21001   5.913   6.935   1.661
 6701SOL    HW121002   5.932   6.837   1.656
 6701SOL    HW221003   5.963   6.983   1.588
 6702SOL     OW21004   2.257   2.022   0.809
 6702SOL    HW121005   2.260   2.117   0.778
 6702SOL    HW221006   2.171   1.980   0.781
 6703SOL     OW21007   1.525   1.361   5.936
 6703SOL    HW121008   1.562   1.302   6.008
 6703SOL    HW221009   1.561   1.453   5.947
 6704SOL     OW21010   3.716   1.404   4.667
 6704SOL    HW121011   3.647   1.476   4.659
 6704SOL    HW221012   3.807   1.445   4.677
 6705SOL     OW21013   6.325   3.661   1.431
 6705SOL    HW121014   6.390   3.718   1.482
 6705SOL    HW221015   6.280   3.717   1.361
 6706SOL     OW21016   0.724   6.222   0.982
 6706SOL    HW121017   0.806   6.278   0.969
 6706SOL    HW221018   0.735   6.165   1.064
 6707SOL     OW21019   6.185   0.376   2.516
 6707SOL    HW121020   6.265   0.340   2.565
 6707SOL    HW221021   6.213   0.451   2.456
 6708SOL     OW21022   6.621   4.458   1.475
 6708SOL    HW121023   6.636   4.550   1.513
 6708SOL    HW221024   6.639   4.460   1.377
 6709SOL     OW21025   1.364   4.806   2.083
 6709SOL    HW121026   1.421   4.887   2.074
 6709SOL    HW221027   1.288   4.825   2.145
 6710SOL     OW21028   4.042   1.209   1.514
 6710SOL    HW121029   3.986   1.246   1.588
 6710SOL    HW221030   3.983   1.171   1.443
 6711SOL     OW21031   4.716   6.187   6.702
 6711SOL    HW121032   4.657   6.136   6.764
 6711SOL    HW221033   4.667   6.203   6.616
 6712SOL     OW21034   6.219   3.701   0.526
 6712SOL    HW121035   6.174   3.778   0.571
 6712SOL    HW221036   6.165   3.618   0.540
 6713SOL     OW21037   1.286   0.751   4.156
 6713SOL    HW121038   1.373   0.726   4.197
 6713SOL    HW221039   1.224   0.785   4.227
 6714SOL     OW21040   5.726   1.119   0.883
 6714SOL    HW121041   5.744   1.212   0.918
 6714SOL    HW221042   5.643   1.120   0.828
 6715SOL     OW21043   1.393   1.105   1.209
 6715SOL    HW121044   1.326   1.043   1.168
 6715SOL    HW221045   1.433   1.162   1.137
 6716SOL     OW21046   6.607   5.374   2.552
 6716SOL    HW121047   6.600   5.430   2.469
 6716SOL    HW221048   6.616   5.433   2.632
 6717SOL     OW21049   3.308   2.778   0.092
 6717SOL    HW121050   3.378   2.715   0.127
 6717SOL    HW221051   3.234   2.724   0.050
 6718SOL     OW21052   3.519   1.297   1.487
 6718SOL    HW121053   3.529   1.200   1.463
 6718SOL    HW221054   3.494   1.305   1.583
 6719SOL     OW21055   1.861   0.532   6.942
 6719SOL    HW121056   1.847   0.560   0.010
 6719SOL    HW221057   1.919   0.600   6.896
 6720SOL     OW21058   2.725   0.971   5.716
 6720SOL    HW121059   2.730   0.875   5.690
 6720SOL    HW221060   2.817   1.008   5.722
 6721SOL     OW21061   0.222   0.841   0.427
 6721SOL    HW121062   0.141   0.790   0.454
 6721SOL    HW221063   0.299   0.778   0.414
 6722SOL     OW21064   6.799   2.990   0.225
 6722SOL    HW121065   6.839   2.950   0.143
 6722SOL    HW221066   6.737   2.924   0.268
 6723SOL     OW21067   1.624   1.503   6.625
 6723SOL    HW121068   1.620   1.504   6.725
 6723SOL    HW221069   1.532   1.488   6.587
 6724SOL     OW21070   2.394   3.140   6.155
 6724SOL    HW121071   2.416   3.055   6.108
 6724SOL    HW221072   2.397   3.216   6.090
 6725SOL     OW21073   5.936   2.971   3.176
 6725SOL    HW121074   5.942   2.887   3.230
 6725SOL    HW221075   5.990   2.961   3.092
 6726SOL     OW21076   0.170   1.419   5.290
 6726SOL    HW121077   0.189   1.322   5.305
 6726SOL    HW221078   0.168   1.467   5.377
 6727SOL     OW21079   1.183   5.152   5.439
 6727SOL    HW121080   1.178   5.243   5.398
 6727SOL    HW221081   1.221   5.087   5.373
 6728SOL     OW21082   4.298   1.970   3.318
 6728SOL    HW121083   4.203   1.977   3.350
 6728SOL    HW221084   4.315   1.878   3.284
 6729SOL     OW21085   5.946   2.174   0.906
 6729SOL    HW121086   5.862   2.229   0.908
 6729SOL    HW221087   5.982   2.172   0.813
 6730SOL     OW21088   1.499   1.260   1.413
 6730SOL    HW121089   1.431   1.315   1.364
 6730SOL    HW221090   1.480   1.163   1.400
 6731SOL     OW21091   2.032   6.541   1.051
 6731SOL    HW121092   2.004   6.580   1.138
 6731SOL    HW221093   1.954   6.539   0.988
 6732SOL     OW21094   5.740   4.319   4.376
 6732SOL    HW121095   5.820   4.270   4.410
 6732SOL    HW221096   5.741   4.321   4.277
 6733SOL     OW21097   3.548   5.649   6.985
 6733SOL    HW121098   3.582   5.740   6.964
 6733SOL    HW221099   3.536   5.640   0.057
 6734SOL     OW21100   4.965   1.988   4.949
 6734SOL    HW121101   4.878   1.937   4.951
 6734SOL    HW221102   4.948   2.082   4.922
 6735SOL     OW21103   6.171   3.276   4.208
 6735SOL    HW121104   6.257   3.314   4.242
 6735SOL    HW221105   6.172   3.176   4.219
 6736SOL     OW21106   3.262   4.503   0.923
 6736SOL    HW121107   3.234   4.412   0.894
 6736SOL    HW221108   3.203   4.572   0.881
 6737SOL     OW21109   0.447   2.714   1.230
 6737SOL    HW121110   0.514   2.785   1.208
 6737SOL    HW221111   0.420   2.723   1.326
 6738SOL     OW21112   1.524   5.763   3.435
 6738SOL    HW121113   1.607   5.795   3.481
 6738SOL    HW221114   1.505   5.669   3.464
 6739SOL     OW21115   0.019   6.907   3.677
 6739SOL    HW121116   6.980   6.970   3.717
 6739SOL    HW221117   0.043   6.836   3.744
 6740SOL     OW21118   6.456   0.056   4.022
 6740SOL    HW121119   6.512   0.032   3.943
 6740SOL    HW221120   6.420   0.149   4.009
 6741SOL     OW21121   4.944   2.224   5.997
 6741SOL    HW121122   4.932   2.323   5.991
 6741SOL    HW221123   5.010   2.194   5.928
 6742SOL     OW21124   5.560   5.235   3.750
 6742SOL    HW121125   5.496   5.308   3.773
 6742SOL    HW221126   5.557   5.216   3.652
 6743SOL     OW21127   3.649   4.277   6.446
 6743SOL    HW121128   3.671   4.180   6.444
 6743SOL    HW221129   3.557   4.292   6.409
 6744SOL     OW21130   6.514   5.614   6.171
 6744SOL    HW121131   6.556   5.704   6.159
 6744SOL    HW221132   6.444   5.601   6.100
 6745SOL     OW21133   0.133   6.117   4.156
 6745SOL    HW121134   0.232   6.105   4.163
 6745SOL    HW221135   0.099   6.164   4.237
 6746SOL     OW21136   1.484   1.797   2.092
 6746SOL    HW121137   1.514   1.860   2.020
 6746SOL    HW221138   1.405   1.836   2.140
 6747SOL     OW21139   0.108   6.835   6.335
 6747SOL    HW121140   0.010   6.828   6.352
 6747SOL    HW221141   0.155   6.760   6.381
 6748SOL     OW21142   3.336   1.686   4.138
 6748SOL    HW121143   3.275   1.728   4.204
 6748SOL    HW221144   3.305   1.594   4.116
 6749SOL     OW21145   3.526   3.729   0.797
 6749SOL    HW121146   3.447   3.761   0.850
 6749SOL    HW221147   3.584   3.807   0.774
 6750SOL     OW21148   3.021   1.549   4.410
 6750SOL    HW121149   3.024   1.463   4.359
 6750SOL    HW221150   2.935   1.554   4.461
 6751SOL     OW21151   4.536   0.511   3.538
 6751SOL    HW121152   4.471   0.442   3.568
 6751SOL    HW221153   4.491   0.574   3.475
 6752SOL     OW21154   1.771   6.667   3.097
 6752SOL    HW121155   1.678   6.646   3.127
 6752SOL    HW221156   1.826   6.694   3.176
 6753SOL     OW21157   3.555   2.532   5.785
 6753SOL    HW121158   3.532   2.562   5.878
 6753SOL    HW221159   3.479   2.480   5.747
 6754SOL     OW21160   6.092   0.577   1.023
 6754SOL    HW121161   6.082   0.563   0.925
 6754SOL    HW221162   6.170   0.638   1.040
 6755SOL     OW21163   3.158   5.066   1.255
 6755SOL    HW121164   3.084   5.002   1.236
 6755SOL    HW221165   3.131   5.129   1.327
 6756SOL     OW21166   2.973   1.052   5.681
 6756SOL    HW121167   3.053   0.994   5.690
 6756SOL    HW221168   2.992   1.127   5.618
 6757SOL     OW21169   3.185   1.547   1.472
 6757SOL    HW121170   3.228   1.603   1.402
 6757SOL    HW221171   3.255   1.510   1.533
 6758SOL     OW21172   5.101   3.289   1.271
 6758SOL    HW121173   5.014   3.256   1.234
 6758SOL    HW221174   5.101   3.277   1.370
 6759SOL     OW21175   6.726   2.984   2.892
 6759SOL    HW121176   6.716   3.018   2.986
 6759SOL    HW221177   6.638   2.994   2.845
 6760SOL     OW21178   6.107   3.411   2.629
 6760SOL    HW121179   6.015   3.439   2.656
 6760SOL    HW221180   6.171   3.487   2.646
 6761SOL     OW21181   5.169   2.715   4.625
 6761SOL    HW121182   5.088   2.691   4.680
 6761SOL    HW221183   5.158   2.807   4.589
 6762SOL     OW21184   0.492   4.364   4.298
 6762SOL    HW121185   0.530   4.438   4.354
 6762SOL    HW221186   0.566   4.310   4.259
 6763SOL     OW21187   4.899   5.741   5.075
 6763SOL    HW121188   4.925   5.831   5.041
 6763SOL    HW221189   4.952   5.670   5.028
 6764SOL     OW21190   1.390   5.584   2.089
 6764SOL    HW121191   1.347   5.579   2.179
 6764SOL    HW221192   1.444   5.501   2.073
 6765SOL     OW21193   6.459   4.352   3.863
 6765SOL    HW121194   6.531   4.404   3.817
 6765SOL    HW221195   6.498   4.268   3.900
 6766SOL     OW21196   4.871   6.343   6.933
 6766SOL    HW121197   4.967   6.370   6.922
 6766SOL    HW221198   4.843   6.289   6.854
 6767SOL     OW21199   2.957   0.822   0.496
 6767SOL    HW121200   2.987   0.736   0.455
 6767SOL    HW221201   3.030   0.858   0.554
 6768SOL     OW21202   2.041   0.666   5.687
 6768SOL    HW121203   1.977   0.724   5.737
 6768SOL    HW221204   2.078   0.718   5.609
 6769SOL     OW21205   3.307   2.509   0.493
 6769SOL    HW121206   3.308   2.466   0.583
 6769SOL    HW221207   3.394   2.492   0.447
 6770SOL     OW21208   6.814   0.518   1.853
 6770SOL    HW121209   6.907   0.512   1.816
 6770SOL    HW221210   6.816   0.502   1.951
 6771SOL     OW21211   4.549   2.542   3.413
 6771SOL    HW121212   4.551   2.519   3.316
 6771SOL    HW221213   4.464   2.509   3.453
 6772SOL     OW21214   3.089   1.197   2.844
 6772SOL    HW121215   3.015   1.259   2.870
 6772SOL    HW221216   3.175   1.231   2.881
 6773SOL     OW21217   6.736   4.672   1.689
 6773SOL    HW121218   6.689   4.727   1.620
 6773SOL    HW221219   6.832   4.660   1.664
 6774SOL     OW21220   0.461   2.771   6.216
 6774SOL    HW121221   0.545   2.724   6.243
 6774SOL    HW221222   0.483   2.861   6.179
 6775SOL     OW21223   2.596   3.320   1.440
 6775SOL    HW121224   2.656   3.259   1.491
 6775SOL    HW221225   2.534   3.367   1.503
 6776SOL     OW21226   4.500   4.648   0.030
 6776SOL    HW121227   4.564   4.621   0.102
 6776SOL    HW221228   4.544   4.637   6.967
 6777SOL     OW21229   4.109   3.937   6.412
 6777SOL    HW121230   4.209   3.934   6.399
 6777SOL    HW221231   4.084   4.027   6.448
 6778SOL     OW21232   0.243   4.098   1.849
 6778SOL    HW121233   0.309   4.054   1.911
 6778SOL    HW221234   0.251   4.057   1.758
 6779SOL     OW21235   6.408   4.382   6.354
 6779SOL    HW121236   6.340   4.334   6.299
 6779SOL    HW221237   6.493   4.330   6.354
 6780SOL     OW21238   0.897   2.064   2.763
 6780SOL    HW121239   0.838   1.990   2.795
 6780SOL    HW221240   0.867   2.094   2.672
 6781SOL     OW21241   5.623   0.115   4.596
 6781SOL    HW121242   5.711   0.123   4.644
 6781SOL    HW221243   5.548   0.133   4.660
 6782SOL     OW21244   0.271   0.296   2.889
 6782SOL    HW121245   0.234   0.283   2.981
 6782SOL    HW221246   0.356   0.245   2.879
 6783SOL     OW21247   6.923   0.002   6.566
 6783SOL    HW121248   6.901   6.962   6.495
 6783SOL    HW221249   6.900   0.094   6.534
 6784SOL     OW21250   3.395   4.076   0.491
 6784SOL    HW121251   3.327   4.116   0.430
 6784SOL    HW221252   3.474   4.047   0.437
 6785SOL     OW21253   5.139   4.439   2.867
 6785SOL    HW121254   5.185   4.353   2.886
 6785SOL    HW221255   5.188   4.514   2.912
 6786SOL     OW21256   0.838   1.779   6.614
 6786SOL    HW121257   0.847   1.849   6.685
 6786SOL    HW221258   0.859   1.819   6.525
 6787SOL     OW21259   1.567   3.047   0.570
 6787SOL    HW121260   1.498   3.080   0.635
 6787SOL    HW221261   1.522   2.993   0.499
 6788SOL     OW21262   2.591   3.820   1.539
 6788SOL    HW121263   2.677   3.801   1.492
 6788SOL    HW221264   2.565   3.741   1.594
 6789SOL     OW21265   0.206   6.782   2.629
 6789SOL    HW121266   0.243   6.700   2.672
 6789SOL    HW221267   0.251   6.863   2.666
 6790SOL     OW21268   1.001   4.095   0.979
 6790SOL    HW121269   0.908   4.074   1.012
 6790SOL    HW221270   0.995   4.156   0.901
 6791SOL     OW21271   3.832   2.499   0.926
 6791SOL    HW121272   3.736   2.474   0.936
 6791SOL    HW221273   3.839   2.594   0.894
 6792SOL     OW21274   6.558   5.997   6.004
 6792SOL    HW121275   6.590   5.939   6.079
 6792SOL    HW221276   6.586   5.956   5.917
 6793SOL     OW21277   0.796   2.499   0.356
 6793SOL    HW121278   0.786   2.572   0.424
 6793SOL    HW221279   0.719   2.435   0.364
 6794SOL     OW21280   5.334   1.136   4.840
 6794SOL    HW121281   5.343   1.139   4.741
 6794SOL    HW221282   5.381   1.214   4.881
 6795SOL     OW21283   2.135   5.930   0.779
 6795SOL    HW121284   2.114   6.023   0.810
 6795SOL    HW221285   2.228   5.906   0.807
 6796SOL     OW21286   5.815   0.576   2.815
 6796SOL    HW121287   5.745   0.615   2.756
 6796SOL    HW221288   5.877   0.519   2.761
 6797SOL     OW21289   4.968   2.985   1.477
 6797SOL    HW121290   4.949   3.059   1.412
 6797SOL    HW221291   4.900   2.988   1.550
 6798SOL     OW21292   5.755   6.343   3.072
 6798SOL    HW121293   5.805   6.390   2.999
 6798SOL    HW221294   5.746   6.246   3.049
 6799SOL     OW21295   6.399   5.721   7.000
 6799SOL    HW121296   6.423   5.678   6.913
 6799SOL    HW221297   6.374   5.650   0.039
 6800SOL     OW21298   2.409   4.580   0.819
 6800SOL    HW121299   2.402   4.617   0.911
 6800SOL    HW221300   2.481   4.510   0.816
 6801SOL     OW21301   1.562   1.428   2.371
 6801SOL    HW121302   1.573   1.489   2.450
 6801SOL    HW221303   1.465   1.419   2.349
 6802SOL     OW21304   2.798   5.933   0.446
 6802SOL    HW121305   2.722   5.938   0.381
 6802SOL    HW221306   2.780   5.860   0.512
 6803SOL     OW21307   4.437   2.393   6.462
 6803SOL    HW121308   4.368   2.440   6.518
 6803SOL    HW221309   4.527   2.408   6.502
 6804SOL     OW21310   2.550   5.146   3.787
 6804SOL    HW121311   2.602   5.063   3.811
 6804SOL    HW221312   2.462   5.120   3.748
 6805SOL     OW21313   5.817   5.566   4.579
 6805SOL    HW121314   5.898   5.561   4.522
 6805SOL    HW221315   5.741   5.603   4.526
 6806SOL     OW21316   5.551   1.354   3.654
 6806SOL    HW121317   5.516   1.319   3.741
 6806SOL    HW221318   5.644   1.319   3.639
 6807SOL     OW21319   2.651   3.488   0.984
 6807SOL    HW121320   2.575   3.430   1.011
 6807SOL    HW221321   2.718   3.435   0.932
 6808SOL     OW21322   0.223   2.672   4.962
 6808SOL    HW121323   0.294   2.603   4.944
 6808SOL    HW221324   0.170   2.688   4.879
 6809SOL     OW21325   2.084   3.469   0.761
 6809SOL    HW121326   2.001   3.525   0.769
 6809SOL    HW221327   2.161   3.519   0.802
 6810SOL     OW21328   1.544   0.185   2.054
 6810SOL    HW121329   1.606   0.117   2.015
 6810SOL    HW221330   1.506   0.241   1.981
 6811SOL     OW21331   4.649   3.823   6.880
 6811SOL    HW121332   4.733   3.869   6.852
 6811SOL    HW221333   4.585   3.819   6.803
 6812SOL     OW21334   3.658   3.195   3.417
 6812SOL    HW121335   3.567   3.222   3.384
 6812SOL    HW221336   3.683   3.250   3.496
 6813SOL     OW21337   4.748   1.940   2.129
 6813SOL    HW121338   4.683   1.978   2.194
 6813SOL    HW221339   4.731   1.842   2.118
 6814SOL     OW21340   3.032   3.186   0.469
 6814SOL    HW121341   2.966   3.130   0.519
 6814SOL    HW221342   3.011   3.282   0.481
 6815SOL     OW21343   3.091   0.524   0.969
 6815SOL    HW121344   3.172   0.558   1.018
 6815SOL    HW221345   3.015   0.588   0.982
 6816SOL     OW21346   0.058   5.893   6.792
 6816SOL    HW121347   0.151   5.917   6.821
 6816SOL    HW221348   7.026   5.973   6.798
 6817SOL     OW21349   6.790   2.136   5.096
 6817SOL    HW121350   6.757   2.149   5.002
 6817SOL    HW221351   6.890   2.135   5.096
 6818SOL     OW21352   2.432   5.820   1.730
 6818SOL    HW121353   2.365   5.747   1.746
 6818SOL    HW221354   2.512   5.805   1.788
 6819SOL     OW21355   4.517   1.454   4.207
 6819SOL    HW121356   4.507   1.478   4.304
 6819SOL    HW221357   4.517   1.537   4.152
 6820SOL     OW21358   1.315   5.198   3.063
 6820SOL    HW121359   1.330   5.125   2.996
 6820SOL    HW221360   1.305   5.286   3.016
 6821SOL     OW21361   3.018   1.702   5.521
 6821SOL    HW121362   3.037   1.681   5.425
 6821SOL    HW221363   3.087   1.765   5.555
 6822SOL     OW21364   5.653   1.821   5.833
 6822SOL    HW121365   5.634   1.917   5.856
 6822SOL    HW221366   5.576   1.783   5.782
 6823SOL     OW21367   4.098   3.384   4.042
 6823SOL    HW121368   4.077   3.352   3.950
 6823SOL    HW221369   4.098   3.306   4.105
 6824SOL     OW21370   0.842   2.926   6.205
 6824SOL    HW121371   0.768   2.889   6.261
 6824SOL    HW221372   0.883   2.852   6.152
 6825SOL     OW21373   5.521   6.723   2.327
 6825SOL    HW121374   5.452   6.792   2.309
 6825SOL    HW221375   5.497   6.639   2.279
 6826SOL     OW21376   2.226   4.137   2.769
 6826SOL    HW121377   2.193   4.164   2.678
 6826SOL    HW221378   2.162   4.072   2.810
 6827SOL     OW21379   4.798   5.925   0.590
 6827SOL    HW121380   4.699   5.913   0.583
 6827SOL    HW221381   4.832   5.973   0.509
 6828SOL     OW21382   2.467   1.595   1.300
 6828SOL    HW121383   2.401   1.533   1.258
 6828SOL    HW221384   2.558   1.579   1.261
 6829SOL     OW21385   4.769   6.980   4.416
 6829SOL    HW121386   4.785   6.888   4.452
 6829SOL    HW221387   4.852   0.009   4.429
 6830SOL     OW21388   5.850   1.382   3.610
 6830SOL    HW121389   5.828   1.289   3.580
 6830SOL    HW221390   5.949   1.391   3.622
 6831SOL     OW21391   0.908   0.197   5.847
 6831SOL    HW121392   0.927   0.248   5.763
 6831SOL    HW221393   0.819   0.151   5.838
 6832SOL     OW21394   2.816   4.526   1.336
 6832SOL    HW121395   2.786   4.532   1.241
 6832SOL    HW221396   2.743   4.558   1.396
 6833SOL     OW21397   4.221   4.885   6.757
 6833SOL    HW121398   4.299   4.883   6.694
 6833SOL    HW221399   4.225   4.806   6.818
 6834SOL     OW21400   5.167   6.885   1.409
 6834SOL    HW121401   5.085   6.937   1.431
 6834SOL    HW221402   5.144   6.788   1.403
 6835SOL     OW21403   4.299   6.971   5.363
 6835SOL    HW121404   4.244   6.933   5.288
 6835SOL    HW221405   4.290   6.913   5.443
 6836SOL     OW21406   3.094   5.885   0.506
 6836SOL    HW121407   3.030   5.832   0.450
 6836SOL    HW221408   3.045   5.960   0.551
 6837SOL     OW21409   1.183   2.631   2.205
 6837SOL    HW121410   1.235   2.619   2.290
 6837SOL    HW221411   1.145   2.723   2.202
 6838SOL     OW21412   1.667   0.032   1.052
 6838SOL    HW121413   1.738   7.004   1.006
 6838SOL    HW221414   1.673   0.126   1.020
 6839SOL     OW21415   5.178   0.938   0.416
 6839SOL    HW121416   5.157   0.919   0.320
 6839SOL    HW221417   5.161   0.855   0.470
 6840SOL     OW21418   2.393   1.756   5.100
 6840SOL    HW121419   2.456   1.684   5.072
 6840SOL    HW221420   2.402   1.835   5.038
 6841SOL     OW21421   5.110   3.561   6.519
 6841SOL    HW121422   5.094   3.501   6.597
 6841SOL    HW221423   5.083   3.514   6.435
 6842SOL     OW21424   2.718   4.591   1.061
 6842SOL    HW121425   2.618   4.596   1.064
 6842SOL    HW221426   2.753   4.666   1.006
 6843SOL     OW21427   5.553   6.776   0.001
 6843SOL    HW121428   5.492   6.710   6.984
 6843SOL    HW221429   5.566   6.855   6.968
 6844SOL     OW21430   5.622   1.169   4.559
 6844SOL    HW121431   5.694   1.223   4.516
 6844SOL    HW221432   5.564   1.129   4.488
 6845SOL     OW21433   6.086   2.894   2.930
 6845SOL    HW121434   6.026   2.944   2.867
 6845SOL    HW221435   6.151   2.840   2.878
 6846SOL     OW21436   2.957   4.539   6.793
 6846SOL    HW121437   2.882   4.486   6.754
 6846SOL    HW221438   3.001   4.592   6.721
 6847SOL     OW21439   6.902   3.446   5.119
 6847SOL    HW121440   6.971   3.511   5.153
 6847SOL    HW221441   6.918   3.356   5.159
 6848SOL     OW21442   5.377   4.198   4.133
 6848SOL    HW121443   5.392   4.212   4.231
 6848SOL    HW221444   5.280   4.177   4.117
 6849SOL     OW21445   3.367   4.351   5.926
 6849SOL    HW121446   3.444   4.386   5.872
 6849SOL    HW221447   3.383   4.255   5.948
 6850SOL     OW21448   4.367   2.381   2.892
 6850SOL    HW121449   4.404   2.298   2.850
 6850SOL    HW221450   4.274   2.363   2.925
 6851SOL     OW21451   1.392   2.683   2.666
 6851SOL    HW121452   1.385   2.619   2.743
 6851SOL    HW221453   1.345   2.645   2.586
 6852SOL     OW21454   2.758   5.572   1.569
 6852SOL    HW121455   2.731   5.489   1.618
 6852SOL    HW221456   2.685   5.599   1.506
 6853SOL     OW21457   5.231   3.606   6.037
 6853SOL    HW121458   5.271   3.527   6.082
 6853SOL    HW221459   5.297   3.681   6.037
 6854SOL     OW21460   5.791   0.073   5.653
 6854SOL    HW121461   5.880   0.031   5.669
 6854SOL    HW221462   5.728   0.004   5.616
 6855SOL     OW21463   4.478   5.807   3.443
 6855SOL    HW121464   4.570   5.840   3.466
 6855SOL    HW221465   4.410   5.876   3.470
 6856SOL     OW21466   0.472   2.443   5.803
 6856SOL    HW121467   0.482   2.472   5.898
 6856SOL    HW221468   0.550   2.475   5.749
 6857SOL     OW21469   0.764   3.510   6.725
 6857SOL    HW121470   0.669   3.497   6.698
 6857SOL    HW221471   0.797   3.428   6.773
 6858SOL     OW21472   3.342   4.348   1.711
 6858SOL    HW121473   3.263   4.410   1.714
 6858SOL    HW221474   3.425   4.401   1.694
 6859SOL     OW21475   0.931   0.943   1.942
 6859SOL    HW121476   0.926   0.847   1.916
 6859SOL    HW221477   1.018   0.982   1.910
 6860SOL     OW21478   6.716   4.575   1.941
 6860SOL    HW121479   6.661   4.624   2.008
 6860SOL    HW221480   6.697   4.610   1.849
 6861SOL     OW21481   4.814   3.516   6.074
 6861SOL    HW121482   4.839   3.597   6.128
 6861SOL    HW221483   4.849   3.527   5.981
 6862SOL     OW21484   1.036   5.327   5.607
 6862SOL    HW121485   1.044   5.325   5.707
 6862SOL    HW221486   1.053   5.236   5.570
 6863SOL     OW21487   0.023   6.004   5.062
 6863SOL    HW121488   0.091   6.076   5.047
 6863SOL    HW221489   0.065   5.928   5.112
 6864SOL     OW21490   1.857   4.377   5.794
 6864SOL    HW121491   1.909   4.292   5.782
 6864SOL    HW221492   1.883   4.442   5.722
 6865SOL     OW21493   1.846   0.432   5.537
 6865SOL    HW121494   1.851   0.435   5.637
 6865SOL    HW221495   1.770   0.487   5.506
 6866SOL     OW21496   6.247   4.267   2.241
 6866SOL    HW121497   6.260   4.280   2.143
 6866SOL    HW221498   6.278   4.348   2.290
 6867SOL     OW21499   2.043   4.131   1.313
 6867SOL    HW121500   2.097   4.178   1.243
 6867SOL    HW221501   2.090   4.047   1.341
 6868SOL     OW21502   2.254   6.205   5.222
 6868SOL    HW121503   2.179   6.200   5.156
 6868SOL    HW221504   2.221   6.177   5.312
 6869SOL     OW21505   4.174   0.090   5.778
 6869SOL    HW121506   4.192   0.184   5.750
 6869SOL    HW221507   4.119   0.089   5.861
 6870SOL     OW21508   0.802   3.614   0.424
 6870SOL    HW121509   0.729   3.681   0.430
 6870SOL    HW221510   0.767   3.524   0.449
 6871SOL     OW21511   0.246   3.938   2.468
 6871SOL    HW121512   0.225   3.840   2.462
 6871SOL    HW221513   0.341   3.950   2.494
 6872SOL     OW21514   0.990   2.455   2.204
 6872SOL    HW121515   0.907   2.489   2.161
 6872SOL    HW221516   1.060   2.527   2.204
 6873SOL     OW21517   0.845   3.810   3.843
 6873SOL    HW121518   0.933   3.854   3.857
 6873SOL    HW221519   0.854   3.711   3.855
 6874SOL     OW21520   6.373   5.966   3.486
 6874SOL    HW121521   6.292   5.975   3.429
 6874SOL    HW221522   6.449   6.016   3.444
 6875SOL     OW21523   2.160   2.256   1.872
 6875SOL    HW121524   2.176   2.158   1.858
 6875SOL    HW221525   2.244   2.306   1.850
 6876SOL     OW21526   3.176   0.216   3.612
 6876SOL    HW121527   3.258   0.258   3.650
 6876SOL    HW221528   3.149   0.139   3.670
 6877SOL     OW21529   3.062   4.596   1.393
 6877SOL    HW121530   3.131   4.526   1.374
 6877SOL    HW221531   2.971   4.558   1.375
 6878SOL     OW21532   2.649   1.615   3.882
 6878SOL    HW121533   2.628   1.517   3.880
 6878SOL    HW221534   2.654   1.646   3.978
 6879SOL     OW21535   1.914   2.432   7.003
 6879SOL    HW121536   1.852   2.443   0.054
 6879SOL    HW221537   1.904   2.511   6.942
 6880SOL     OW21538   1.204   5.910   6.376
 6880SOL    HW121539   1.210   5.894   6.475
 6880SOL    HW221540   1.159   5.832   6.333
 6881SOL     OW21541   1.417   3.683   1.415
 6881SOL    HW121542   1.495   3.705   1.357
 6881SOL    HW221543   1.419   3.586   1.440
 6882SOL     OW21544   3.026   1.404   0.308
 6882SOL    HW121545   3.009   1.317   0.355
 6882SOL    HW221546   2.940   1.455   0.301
 6883SOL     OW21547   5.170   0.336   5.845
 6883SOL    HW121548   5.126   0.361   5.759
 6883SOL    HW221549   5.266   0.364   5.842
 6884SOL     OW21550   1.770   4.201   2.919
 6884SOL    HW121551   1.798   4.296   2.906
 6884SOL    HW221552   1.690   4.182   2.862
 6885SOL     OW21553   4.737   5.221   4.101
 6885SOL    HW121554   4.683   5.137   4.108
 6885SOL    HW221555   4.817   5.214   4.161
 6886SOL     OW21556   6.380   1.581   5.025
 6886SOL    HW121557   6.469   1.572   4.981
 6886SOL    HW221558   6.384   1.542   5.117
 6887SOL     OW21559   4.672   5.935   0.112
 6887SOL    HW121560   4.756   5.976   0.077
 6887SOL    HW221561   4.634   5.993   0.185
 6888SOL     OW21562   5.349   4.517   6.205
 6888SOL    HW121563   5.249   4.516   6.210
 6888SOL    HW221564   5.387   4.489   6.293
 6889SOL     OW21565   1.584   2.582   5.834
 6889SOL    HW121566   1.679   2.615   5.838
 6889SOL    HW221567   1.531   2.626   5.907
 6890SOL     OW21568   3.713   5.658   2.932
 6890SOL    HW121569   3.639   5.724   2.919
 6890SOL    HW221570   3.766   5.650   2.847
 6891SOL     OW21571   2.798   2.701   1.215
 6891SOL    HW121572   2.730   2.675   1.284
 6891SOL    HW221573   2.823   2.797   1.229
 6892SOL     OW21574   3.256   1.382   3.856
 6892SOL    HW121575   3.190   1.307   3.861
 6892SOL    HW221576   3.337   1.352   3.807
 6893SOL     OW21577   6.201   3.347   7.002
 6893SOL    HW121578   6.288   3.356   6.954
 6893SOL    HW221579   6.201   3.407   0.055
 6894SOL     OW21580   5.558   3.937   1.230
 6894SOL    HW121581   5.555   3.837   1.228
 6894SOL    HW221582   5.584   3.968   1.321
 6895SOL     OW21583   1.737   5.996   0.945
 6895SOL    HW121584   1.826   6.013   0.987
 6895SOL    HW221585   1.725   6.056   0.866
 6896SOL     OW21586   3.381   1.649   3.786
 6896SOL    HW121587   3.476   1.633   3.813
 6896SOL    HW221588   3.324   1.572   3.817
 6897SOL     OW21589   4.719   3.923   5.253
 6897SOL    HW121590   4.789   3.876   5.201
 6897SOL    HW221591   4.762   3.983   5.321
 6898SOL     OW21592   3.077   1.081   1.513
 6898SOL    HW121593   3.150   1.061   1.578
 6898SOL    HW221594   3.024   1.159   1.545
 6899SOL     OW21595   5.007   6.347   3.083
 6899SOL    HW121596   5.005   6.447   3.071
 6899SOL    HW221597   5.102   6.316   3.087
 6900SOL     OW21598   6.727   5.071   6.227
 6900SOL    HW121599   6.660   5.024   6.284
 6900SOL    HW221600   6.681   5.114   6.150
 6901SOL     OW21601   4.745   5.559   6.642
 6901SOL    HW121602   4.688   5.608   6.708
 6901SOL    HW221603   4.687   5.505   6.581
 6902SOL     OW21604   6.789   5.953   5.542
 6902SOL    HW121605   6.863   6.021   5.534
 6902SOL    HW221606   6.726   5.964   5.465
 6903SOL     OW21607   3.082   5.006   5.187
 6903SOL    HW121608   2.994   5.041   5.219
 6903SOL    HW221609   3.080   4.906   5.191
 6904SOL     OW21610   0.003   6.506   4.978
 6904SOL    HW121611   6.930   6.508   4.985
 6904SOL    HW221612   0.033   6.411   4.967
 6905SOL     OW21613   5.681   5.472   0.015
 6905SOL    HW121614   5.700   5.384   0.059
 6905SOL    HW221615   5.766   5.508   7.003
 6906SOL     OW21616   3.242   1.847   3.518
 6906SOL    HW121617   3.338   1.841   3.546
 6906SOL    HW221618   3.207   1.755   3.500
 6907SOL     OW21619   6.204   2.074   1.613
 6907SOL    HW121620   6.153   1.996   1.576
 6907SOL    HW221621   6.157   2.108   1.694
 6908SOL     OW21622   2.515   4.376   6.951
 6908SOL    HW121623   2.421   4.359   6.921
 6908SOL    HW221624   2.572   4.298   6.928
 6909SOL     OW21625   4.839   5.148   2.150
 6909SOL    HW121626   4.930   5.164   2.188
 6909SOL    HW221627   4.816   5.051   2.160
 6910SOL     OW21628   1.659   2.819   3.060
 6910SOL    HW121629   1.563   2.848   3.051
 6910SOL    HW221630   1.715   2.871   2.997
 6911SOL     OW21631   3.938   0.369   5.034
 6911SOL    HW121632   3.973   0.320   5.114
 6911SOL    HW221633   4.012   0.385   4.970
 6912SOL     OW21634   2.850   3.250   6.172
 6912SOL    HW121635   2.910   3.297   6.108
 6912SOL    HW221636   2.789   3.189   6.121
 6913SOL     OW21637   5.471   6.021   4.978
 6913SOL    HW121638   5.432   6.113   4.983
 6913SOL    HW221639   5.554   6.023   4.922
 6914SOL     OW21640   5.933   4.107   2.341
 6914SOL    HW121641   5.876   4.037   2.385
 6914SOL    HW221642   6.027   4.074   2.334
 6915SOL     OW21643   1.020   2.783   1.870
 6915SOL    HW121644   0.943   2.808   1.929
 6915SOL    HW221645   1.014   2.834   1.784
 6916SOL     OW21646   5.497   1.299   5.490
 6916SOL    HW121647   5.492   1.200   5.506
 6916SOL    HW221648   5.406   1.333   5.467
 6917SOL     OW21649   4.860   5.876   2.067
 6917SOL    HW121650   4.918   5.923   2.000
 6917SOL    HW221651   4.805   5.807   2.021
 6918SOL     OW21652   0.431   2.829   3.031
 6918SOL    HW121653   0.370   2.843   2.953
 6918SOL    HW221654   0.525   2.853   3.004
 6919SOL     OW21655   6.391   6.240   3.246
 6919SOL    HW121656   6.477   6.211   3.287
 6919SOL    HW221657   6.324   6.167   3.253
 6920SOL     OW21658   5.400   6.539   5.571
 6920SOL    HW121659   5.493   6.576   5.578
 6920SOL    HW221660   5.341   6.606   5.527
 6921SOL     OW21661   4.006   0.263   4.086
 6921SOL    HW121662   4.066   0.311   4.150
 6921SOL    HW221663   3.949   0.197   4.135
 6922SOL     OW21664   1.951   6.210   4.851
 6922SOL    HW121665   1.882   6.193   4.781
 6922SOL    HW221666   1.936   6.300   4.893
 6923SOL     OW21667   6.031   6.352   2.256
 6923SOL    HW121668   6.017   6.401   2.170
 6923SOL    HW221669   6.080   6.411   2.320
 6924SOL     OW21670   2.832   5.354   1.370
 6924SOL    HW121671   2.793   5.404   1.448
 6924SOL    HW221672   2.906   5.295   1.403
 6925SOL     OW21673   4.764   6.133   5.929
 6925SOL    HW121674   4.824   6.191   5.984
 6925SOL    HW221675   4.796   6.133   5.834
 6926SOL     OW21676   2.282   2.160   0.243
 6926SOL    HW121677   2.231   2.142   0.158
 6926SOL    HW221678   2.259   2.251   0.277
 6927SOL     OW21679   3.835   1.011   0.046
 6927SOL    HW121680   3.895   1.028   0.124
 6927SOL    HW221681   3.753   0.962   0.077
 6928SOL     OW21682   5.062   5.459   1.360
 6928SOL    HW121683   4.992   5.424   1.299
 6928SOL    HW221684   5.124   5.518   1.310
 6929SOL     OW21685   5.554   5.605   1.589
 6929SOL    HW121686   5.566   5.548   1.670
 6929SOL    HW221687   5.466   5.585   1.546
 6930SOL     OW21688   0.983   0.985   0.185
 6930SOL    HW121689   1.032   1.052   0.241
 6930SOL    HW221690   0.928   0.926   0.245
 6931SOL     OW21691   1.956   2.230   0.735
 6931SOL    HW121692   1.965   2.132   0.754
 6931SOL    HW221693   1.859   2.254   0.728
 6932SOL     OW21694   4.852   5.129   1.032
 6932SOL    HW121695   4.771   5.083   0.995
 6932SOL    HW221696   4.927   5.063   1.037
 6933SOL     OW21697   3.617   6.661   6.565
 6933SOL    HW121698   3.700   6.716   6.554
 6933SOL    HW221699   3.580   6.638   6.474
 6934SOL     OW21700   4.980   3.419   6.332
 6934SOL    HW121701   4.972   3.344   6.397
 6934SOL    HW221702   4.899   3.477   6.338
 6935SOL     OW21703   4.754   5.439   2.951
 6935SOL    HW121704   4.795   5.516   3.001
 6935SOL    HW221705   4.688   5.474   2.885
 6936SOL     OW21706   0.182   2.165   4.094
 6936SOL    HW121707   0.191   2.179   3.995
 6936SOL    HW221708   0.263   2.115   4.127
 6937SOL     OW21709   5.392   6.034   0.744
 6937SOL    HW121710   5.457   6.109   0.758
 6937SOL    HW221711   5.346   6.014   0.831
 6938SOL     OW21712   0.468   1.402   4.764
 6938SOL    HW121713   0.544   1.448   4.719
 6938SOL    HW221714   0.445   1.452   4.848
 6939SOL     OW21715   6.373   5.160   3.370
 6939SOL    HW121716   6.466   5.193   3.385
 6939SOL    HW221717   6.351   5.090   3.439
 6940SOL     OW21718   4.726   6.707   0.521
 6940SOL    HW121719   4.818   6.737   0.546
 6940SOL    HW221720   4.665   6.718   0.599
 6941SOL     OW21721   2.877   3.507   2.394
 6941SOL    HW121722   2.905   3.418   2.430
 6941SOL    HW221723   2.915   3.580   2.451
 6942SOL     OW21724   5.970   6.668   1.703
 6942SOL    HW121725   6.060   6.624   1.710
 6942SOL    HW221726   5.919   6.627   1.627
 6943SOL     OW21727   4.503   4.858   0.519
 6943SOL    HW121728   4.491   4.909   0.433
 6943SOL    HW221729   4.414   4.849   0.565
 6944SOL     OW21730   1.172   4.765   6.321
 6944SOL    HW121731   1.109   4.842   6.316
 6944SOL    HW221732   1.179   4.722   6.231
 6945SOL     OW21733   6.801   2.413   0.443
 6945SOL    HW121734   6.770   2.323   0.473
 6945SOL    HW221735   6.816   2.471   0.522
 6946SOL     OW21736   3.735   6.172   1.809
 6946SOL    HW121737   3.819   6.119   1.811
 6946SOL    HW221738   3.705   6.192   1.902
 6947SOL     OW21739   4.147   5.731   6.027
 6947SOL    HW121740   4.200   5.647   6.040
 6947SOL    HW221741   4.072   5.733   6.092
 6948SOL     OW21742   6.861   6.382   1.557
 6948SOL    HW121743   6.893   6.438   1.633
 6948SOL    HW221744   6.879   6.429   1.471
 6949SOL     OW21745   2.743   2.408   2.962
 6949SOL    HW121746   2.675   2.457   3.015
 6949SOL    HW221747   2.794   2.473   2.905
 6950SOL     OW21748   1.693   0.190   4.244
 6950SOL    HW121749   1.680   0.278   4.198
 6950SOL    HW221750   1.785   0.156   4.225
 6951SOL     OW21751   6.197   5.371   6.428
 6951SOL    HW121752   6.225   5.276   6.443
 6951SOL    HW221753   6.279   5.428   6.418
 6952SOL     OW21754   2.575   4.604   3.430
 6952SOL    HW121755   2.663   4.607   3.383
 6952SOL    HW221756   2.516   4.677   3.396
 6953SOL     OW21757   5.314   6.531   0.361
 6953SOL    HW121758   5.264   6.538   0.447
 6953SOL    HW221759   5.313   6.620   0.315
 6954SOL     OW21760   0.012   3.468   1.304
 6954SOL    HW121761   0.082   3.432   1.365
 6954SOL    HW221762   6.977   3.528   1.355
 6955SOL     OW21763   5.102   0.427   2.385
 6955SOL    HW121764   5.089   0.485   2.305
 6955SOL    HW221765   5.179   0.461   2.440
 6956SOL     OW21766   6.000   5.454   2.719
 6956SOL    HW121767   6.092   5.419   2.699
 6956SOL    HW221768   5.945   5.381   2.761
 6957SOL     OW21769   5.238   5.818   6.582
 6957SOL    HW121770   5.225   5.797   6.679
 6957SOL    HW221771   5.313   5.763   6.546
 6958SOL     OW21772   3.553   3.735   4.132
 6958SOL    HW121773   3.460   3.747   4.095
 6958SOL    HW221774   3.601   3.823   4.127
 6959SOL     OW21775   1.501   3.952   2.532
 6959SOL    HW121776   1.574   3.947   2.464
 6959SOL    HW221777   1.415   3.975   2.487
 6960SOL     OW21778   1.924   4.731   1.080
 6960SOL    HW121779   1.865   4.772   1.150
 6960SOL    HW221780   1.967   4.648   1.118
 6961SOL     OW21781   4.747   0.962   4.365
 6961SOL    HW121782   4.721   0.883   4.309
 6961SOL    HW221783   4.844   0.981   4.352
 6962SOL     OW21784   3.420   6.049   0.717
 6962SOL    HW121785   3.416   6.096   0.629
 6962SOL    HW221786   3.420   6.116   0.791
 6963SOL     OW21787   5.459   5.652   6.575
 6963SOL    HW121788   5.483   5.725   6.638
 6963SOL    HW221789   5.442   5.568   6.626
 6964SOL     OW21790   3.291   0.107   5.552
 6964SOL    HW121791   3.333   0.039   5.491
 6964SOL    HW221792   3.303   0.079   5.647
 6965SOL     OW21793   1.269   1.815   6.507
 6965SOL    HW121794   1.302   1.798   6.414
 6965SOL    HW221795   1.214   1.737   6.538
 6966SOL     OW21796   1.423   0.787   2.311
 6966SOL    HW121797   1.470   0.786   2.399
 6966SOL    HW221798   1.421   0.880   2.275
 6967SOL     OW21799   3.888   1.495   5.523
 6967SOL    HW121800   3.821   1.422   5.532
 6967SOL    HW221801   3.875   1.561   5.597
 6968SOL     OW21802   2.927   0.428   2.799
 6968SOL    HW121803   3.005   0.412   2.739
 6968SOL    HW221804   2.958   0.477   2.881
 6969SOL     OW21805   3.146   2.095   0.807
 6969SOL    HW121806   3.199   2.088   0.892
 6969SOL    HW221807   3.093   2.011   0.795
 6970SOL     OW21808   3.559   4.629   5.742
 6970SOL    HW121809   3.577   4.674   5.655
 6970SOL    HW221810   3.590   4.687   5.817
 6971SOL     OW21811   5.207   4.816   1.433
 6971SOL    HW121812   5.154   4.895   1.402
 6971SOL    HW221813   5.145   4.744   1.463
 6972SOL     OW21814   5.163   3.604   2.701
 6972SOL    HW121815   5.240   3.651   2.742
 6972SOL    HW221816   5.141   3.644   2.612
 6973SOL     OW21817   0.904   2.276   3.162
 6973SOL    HW121818   0.935   2.363   3.200
 6973SOL    HW221819   0.851   2.294   3.078
 6974SOL     OW21820   2.942   3.499   2.726
 6974SOL    HW121821   2.897   3.412   2.705
 6974SOL    HW221822   2.885   3.575   2.694
 6975SOL     OW21823   2.762   5.775   4.829
 6975SOL    HW121824   2.810   5.720   4.898
 6975SOL    HW221825   2.825   5.796   4.754
 6976SOL     OW21826   5.339   3.831   5.761
 6976SOL    HW121827   5.286   3.747   5.774
 6976SOL    HW221828   5.310   3.875   5.676
 6977SOL     OW21829   4.030   4.408   1.671
 6977SOL    HW121830   4.040   4.309   1.661
 6977SOL    HW221831   3.934   4.432   1.682
 6978SOL     OW21832   5.249   3.019   1.138
 6978SOL    HW121833   5.202   2.943   1.183
 6978SOL    HW221834   5.303   2.984   1.061
 6979SOL     OW21835   1.335   3.062   1.277
 6979SOL    HW121836   1.253   3.099   1.233
 6979SOL    HW221837   1.365   2.981   1.228
 6980SOL     OW21838   1.589   0.960   3.452
 6980SOL    HW121839   1.631   0.944   3.363
 6980SOL    HW221840   1.589   1.057   3.473
 6981SOL     OW21841   3.285   3.395   6.386
 6981SOL    HW121842   3.193   3.408   6.423
 6981SOL    HW221843   3.280   3.346   6.299
 6982SOL     OW21844   1.021   0.946   3.385
 6982SOL    HW121845   0.949   0.977   3.323
 6982SOL    HW221846   1.062   0.862   3.350
 6983SOL     OW21847   4.577   1.583   5.173
 6983SOL    HW121848   4.567   1.565   5.075
 6983SOL    HW221849   4.620   1.504   5.216
 6984SOL     OW21850   1.813   1.740   2.656
 6984SOL    HW121851   1.750   1.789   2.716
 6984SOL    HW221852   1.854   1.804   2.591
 6985SOL     OW21853   6.361   4.592   0.429
 6985SOL    HW121854   6.294   4.666   0.426
 6985SOL    HW221855   6.442   4.622   0.480
 6986SOL     OW21856   3.557   6.443   6.694
 6986SOL    HW121857   3.575   6.538   6.667
 6986SOL    HW221858   3.484   6.405   6.636
 6987SOL     OW21859   0.008   1.735   5.651
 6987SOL    HW121860   6.994   1.756   5.740
 6987SOL    HW221861   6.971   1.762   5.579
 6988SOL     OW21862   2.424   0.396   5.748
 6988SOL    HW121863   2.450   0.302   5.726
 6988SOL    HW221864   2.345   0.422   5.693
 6989SOL     OW21865   6.334   4.481   2.400
 6989SOL    HW121866   6.302   4.566   2.359
 6989SOL    HW221867   6.434   4.479   2.400
 6990SOL     OW21868   3.836   2.869   1.806
 6990SOL    HW121869   3.829   2.856   1.708
 6990SOL    HW221870   3.893   2.797   1.846
 6991SOL     OW21871   5.252   4.662   3.415
 6991SOL    HW121872   5.297   4.656   3.504
 6991SOL    HW221873   5.305   4.612   3.347
 6992SOL     OW21874   6.973   6.175   0.644
 6992SOL    HW121875   6.897   6.129   0.691
 6992SOL    HW221876   6.946   6.268   0.620
 6993SOL     OW21877   6.245   0.548   1.447
 6993SOL    HW121878   6.337   0.516   1.425
 6993SOL    HW221879   6.217   0.511   1.536
 6994SOL     OW21880   1.704   0.250   3.909
 6994SOL    HW121881   1.696   0.314   3.986
 6994SOL    HW221882   1.702   0.302   3.823
 6995SOL     OW21883   0.411   3.646   0.534
 6995SOL    HW121884   0.448   3.738   0.550
 6995SOL    HW221885   0.418   3.592   0.618
 6996SOL     OW21886   1.002   0.265   0.291
 6996SOL    HW121887   0.979   0.276   0.387
 6996SOL    HW221888   1.034   0.352   0.254
 6997SOL     OW21889   0.032   4.899   5.461
 6997SOL    HW121890   0.017   4.825   5.526
 6997SOL    HW221891   0.119   4.944   5.482
 6998SOL     OW21892   0.248   1.671   1.452
 6998SOL    HW121893   0.281   1.605   1.384
 6998SOL    HW221894   0.163   1.637   1.492
 6999SOL     OW21895   0.504   2.413   6.567
 6999SOL    HW121896   0.413   2.436   6.532
 6999SOL    HW221897   0.552   2.498   6.592
 7000SOL     OW21898   6.213   0.097   2.529
 7000SOL    HW121899   6.270   0.088   2.611
 7000SOL    HW221900   6.180   0.191   2.522
 7001SOL     OW21901   1.266   1.570   4.975
 7001SOL    HW121902   1.219   1.647   4.933
 7001SOL    HW221903   1.365   1.579   4.958
 7002SOL     OW21904   1.510   5.566   3.832
 7002SOL    HW121905   1.487   5.645   3.775
 7002SOL    HW221906   1.594   5.523   3.798
 7003SOL     OW21907   5.620   4.432   1.332
 7003SOL    HW121908   5.550   4.493   1.369
 7003SOL    HW221909   5.595   4.337   1.350
 7004SOL     OW21910   1.231   5.496   0.529
 7004SOL    HW121911   1.246   5.575   0.589
 7004SOL    HW221912   1.286   5.507   0.446
 7005SOL     OW21913   1.191   6.908   6.563
 7005SOL    HW121914   1.284   6.942   6.551
 7005SOL    HW221915   1.126   6.976   6.528
 7006SOL     OW21916   6.631   6.538   3.427
 7006SOL    HW121917   6.726   6.566   3.414
 7006SOL    HW221918   6.572   6.619   3.422
 7007SOL     OW21919   4.422   0.703   5.554
 7007SOL    HW121920   4.492   0.728   5.621
 7007SOL    HW221921   4.402   0.605   5.560
 7008SOL     OW21922   6.690   4.440   4.082
 7008SOL    HW121923   6.737   4.524   4.057
 7008SOL    HW221924   6.605   4.462   4.130
 7009SOL     OW21925   4.198   6.740   1.978
 7009SOL    HW121926   4.281   6.745   1.922
 7009SOL    HW221927   4.125   6.697   1.925
 7010SOL     OW21928   5.609   3.926   2.907
 7010SOL    HW121929   5.576   3.949   2.816
 7010SOL    HW221930   5.709   3.935   2.909
 7011SOL     OW21931   4.023   6.744   0.795
 7011SOL    HW121932   4.085   6.822   0.798
 7011SOL    HW221933   4.054   6.674   0.860
 7012SOL     OW21934   1.389   2.847   1.093
 7012SOL    HW121935   1.306   2.842   1.038
 7012SOL    HW221936   1.416   2.755   1.122
 7013SOL     OW21937   2.380   0.666   6.573
 7013SOL    HW121938   2.445   0.733   6.537
 7013SOL    HW221939   2.289   0.684   6.535
 7014SOL     OW21940   6.046   3.532   1.438
 7014SOL    HW121941   6.027   3.441   1.477
 7014SOL    HW221942   6.145   3.544   1.429
 7015SOL     OW21943   5.828   4.519   2.717
 7015SOL    HW121944   5.800   4.577   2.794
 7015SOL    HW221945   5.765   4.533   2.641
 7016SOL     OW21946   3.203   5.288   0.902
 7016SOL    HW121947   3.289   5.241   0.882
 7016SOL    HW221948   3.221   5.369   0.958
 7017SOL     OW21949   3.817   5.100   3.089
 7017SOL    HW121950   3.837   5.060   3.179
 7017SOL    HW221951   3.803   5.199   3.098
 7018SOL     OW21952   5.550   3.437   3.831
 7018SOL    HW121953   5.544   3.472   3.738
 7018SOL    HW221954   5.595   3.347   3.831
 7019SOL     OW21955   4.785   5.347   2.614
 7019SOL    HW121956   4.819   5.432   2.574
 7019SOL    HW221957   4.708   5.367   2.674
 7020SOL     OW21958   0.278   3.723   6.871
 7020SOL    HW121959   0.376   3.705   6.864
 7020SOL    HW221960   0.227   3.659   6.813
 7021SOL     OW21961   1.141   3.023   4.761
 7021SOL    HW121962   1.191   2.982   4.837
 7021SOL    HW221963   1.094   2.952   4.710
 7022SOL     OW21964   4.260   0.646   0.109
 7022SOL    HW121965   4.193   0.633   0.181
 7022SOL    HW221966   4.223   0.613   0.022
 7023SOL     OW21967   0.351   2.135   1.843
 7023SOL    HW121968   0.368   2.218   1.790
 7023SOL    HW221969   0.376   2.055   1.789
 7024SOL     OW21970   3.714   2.942   3.820
 7024SOL    HW121971   3.752   2.933   3.728
 7024SOL    HW221972   3.789   2.951   3.887
 7025SOL     OW21973   3.246   0.800   0.165
 7025SOL    HW121974   3.283   0.771   0.253
 7025SOL    HW221975   3.205   0.891   0.175
 7026SOL     OW21976   3.507   1.659   1.860
 7026SOL    HW121977   3.599   1.634   1.830
 7026SOL    HW221978   3.502   1.759   1.869
 7027SOL     OW21979   2.571   6.115   3.437
 7027SOL    HW121980   2.477   6.096   3.464
 7027SOL    HW221981   2.611   6.032   3.398
 7028SOL     OW21982   2.334   0.424   3.194
 7028SOL    HW121983   2.386   0.448   3.276
 7028SOL    HW221984   2.243   0.465   3.200
 7029SOL     OW21985   3.067   3.798   5.809
 7029SOL    HW121986   3.107   3.889   5.801
 7029SOL    HW221987   3.055   3.759   5.717
 7030SOL     OW21988   1.027   2.068   4.907
 7030SOL    HW121989   0.979   2.070   4.819
 7030SOL    HW221990   0.960   2.075   4.981
 7031SOL     OW21991   4.467   6.384   0.425
 7031SOL    HW121992   4.453   6.395   0.326
 7031SOL    HW221993   4.434   6.466   0.472
 7032SOL     OW21994   4.151   0.611   4.269
 7032SOL    HW121995   4.149   0.639   4.365
 7032SOL    HW221996   4.187   0.518   4.261
 7033SOL     OW21997   1.626   2.696   4.328
 7033SOL    HW121998   1.605   2.791   4.306
 7033SOL    HW221999   1.643   2.688   4.426
 7034SOL     OW22000   6.596   2.522   3.196
 7034SOL    HW122001   6.594   2.621   3.188
 7034SOL    HW222002   6.599   2.496   3.293
 7035SOL     OW22003   1.831   0.050   2.090
 7035SOL    HW122004   1.830   0.103   2.174
 7035SOL    HW222005   1.856   0.109   2.013
 7036SOL     OW22006   0.355   2.034   2.470
 7036SOL    HW122007   0.306   2.109   2.426
 7036SOL    HW222008   0.290   1.966   2.503
 7037SOL     OW22009   0.419   0.791   5.499
 7037SOL    HW122010   0.495   0.850   5.472
 7037SOL    HW222011   0.382   0.822   5.586
 7038SOL     OW22012   2.915   4.639   5.621
 7038SOL    HW122013   2.878   4.638   5.528
 7038SOL    HW222014   2.945   4.546   5.645
 7039SOL     OW22015   0.953   5.307   3.859
 7039SOL    HW122016   0.913   5.217   3.843
 7039SOL    HW222017   0.976   5.317   3.956
 7040SOL     OW22018   4.522   2.298   5.080
 7040SOL    HW122019   4.550   2.212   5.038
 7040SOL    HW222020   4.589   2.369   5.058
 7041SOL     OW22021   1.355   1.425   3.495
 7041SOL    HW122022   1.343   1.473   3.408
 7041SOL    HW222023   1.354   1.326   3.479
 7042SOL     OW22024   4.670   6.069   4.738
 7042SOL    HW122025   4.653   6.064   4.837
 7042SOL    HW222026   4.735   5.997   4.712
 7043SOL     OW22027   2.332   4.285   4.062
 7043SOL    HW122028   2.344   4.209   3.998
 7043SOL    HW222029   2.239   4.321   4.054
 7044SOL     OW22030   4.835   0.072   4.836
 7044SOL    HW122031   4.778   0.013   4.893
 7044SOL    HW222032   4.776   0.135   4.785
 7045SOL     OW22033   5.840   5.249   2.518
 7045SOL    HW122034   5.784   5.317   2.471
 7045SOL    HW222035   5.818   5.249   2.616
 7046SOL     OW22036   3.417   2.063   4.309
 7046SOL    HW122037   3.322   2.084   4.331
 7046SOL    HW222038   3.477   2.110   4.374
 7047SOL     OW22039   0.466   1.030   1.471
 7047SOL    HW122040   0.415   1.112   1.444
 7047SOL    HW222041   0.483   1.032   1.570
 7048SOL     OW22042   6.313   6.644   4.888
 7048SOL    HW122043   6.283   6.583   4.961
 7048SOL    HW222044   6.236   6.665   4.828
 7049SOL     OW22045   3.994   1.233   2.153
 7049SOL    HW122046   3.901   1.195   2.156
 7049SOL    HW222047   3.992   1.322   2.105
 7050SOL     OW22048   3.663   4.892   0.863
 7050SOL    HW122049   3.717   4.880   0.946
 7050SOL    HW222050   3.702   4.967   0.809
 7051SOL     OW22051   6.970   6.927   1.527
 7051SOL    HW122052   6.970   6.955   1.431
 7051SOL    HW222053   6.997   7.004   1.584
 7052SOL     OW22054   5.463   6.661   3.305
 7052SOL    HW122055   5.534   6.697   3.245
 7052SOL    HW222056   5.390   6.728   3.314
 7053SOL     OW22057   1.536   3.391   4.214
 7053SOL    HW122058   1.491   3.394   4.124
 7053SOL    HW222059   1.544   3.484   4.250
 7054SOL     OW22060   0.147   0.413   0.996
 7054SOL    HW122061   0.093   0.343   1.044
 7054SOL    HW222062   0.223   0.369   0.949
 7055SOL     OW22063   2.174   0.307   6.905
 7055SOL    HW122064   2.132   0.250   6.976
 7055SOL    HW222065   2.193   0.250   6.825
 7056SOL     OW22066   6.750   5.842   1.142
 7056SOL    HW122067   6.653   5.864   1.129
 7056SOL    HW222068   6.761   5.742   1.144
 7057SOL     OW22069   3.131   5.356   4.015
 7057SOL    HW122070   3.042   5.331   3.976
 7057SOL    HW222071   3.117   5.403   4.102
 7058SOL     OW22072   5.250   1.863   6.674
 7058SOL    HW122073   5.164   1.899   6.639
 7058SOL    HW222074   5.326   1.912   6.631
 7059SOL     OW22075   2.275   1.446   4.614
 7059SOL    HW122076   2.181   1.478   4.628
 7059SOL    HW222077   2.273   1.354   4.575
 7060SOL     OW22078   3.511   6.816   2.067
 7060SOL    HW122079   3.458   6.739   2.033
 7060SOL    HW222080   3.608   6.792   2.066
 7061SOL     OW22081   1.370   2.147   2.285
 7061SOL    HW122082   1.317   2.184   2.362
 7061SOL    HW222083   1.466   2.173   2.296
 7062SOL     OW22084   4.418   1.788   4.387
 7062SOL    HW122085   4.347   1.725   4.358
 7062SOL    HW222086   4.376   1.873   4.419
 7063SOL     OW22087   0.392   6.516   2.536
 7063SOL    HW122088   0.402   6.416   2.540
 7063SOL    HW222089   0.478   6.557   2.507
 7064SOL     OW22090   5.003   1.664   5.947
 7064SOL    HW122091   5.089   1.618   5.969
 7064SOL    HW222092   4.972   1.637   5.856
 7065SOL     OW22093   3.265   4.622   5.387
 7065SOL    HW122094   3.240   4.641   5.482
 7065SOL    HW222095   3.346   4.562   5.385
 7066SOL     OW22096   4.720   0.760   6.894
 7066SOL    HW122097   4.721   0.756   6.795
 7066SOL    HW222098   4.805   0.723   6.931
 7067SOL     OW22099   1.500   3.526   0.013
 7067SOL    HW122100   1.426   3.594   0.014
 7067SOL    HW222101   1.542   3.520   0.103
 7068SOL     OW22102   5.715   4.622   4.342
 7068SOL    HW122103   5.796   4.628   4.284
 7068SOL    HW222104   5.698   4.526   4.365
 7069SOL     OW22105   6.115   1.513   5.887
 7069SOL    HW122106   6.190   1.477   5.941
 7069SOL    HW222107   6.036   1.452   5.894
 7070SOL     OW22108   0.577   6.576   4.942
 7070SOL    HW122109   0.522   6.503   4.901
 7070SOL    HW222110   0.587   6.651   4.876
 7071SOL     OW22111   5.388   6.597   6.631
 7071SOL    HW122112   5.297   6.558   6.647
 7071SOL    HW222113   5.434   6.545   6.559
 7072SOL     OW22114   1.232   4.445   6.506
 7072SOL    HW122115   1.213   4.408   6.597
 7072SOL    HW222116   1.323   4.485   6.505
 7073SOL     OW22117   3.981   0.384   2.799
 7073SOL    HW122118   4.044   0.313   2.767
 7073SOL    HW222119   4.029   0.472   2.802
 7074SOL     OW22120   6.405   3.827   3.452
 7074SOL    HW122121   6.434   3.814   3.547
 7074SOL    HW222122   6.483   3.859   3.397
 7075SOL     OW22123   3.206   4.939   4.964
 7075SOL    HW122124   3.145   4.875   4.918
 7075SOL    HW222125   3.163   4.971   5.049
 7076SOL     OW22126   6.106   3.005   1.818
 7076SOL    HW122127   6.041   2.988   1.745
 7076SOL    HW222128   6.187   3.052   1.781
 7077SOL     OW22129   2.721   5.123   2.592
 7077SOL    HW122130   2.770   5.100   2.508
 7077SOL    HW222131   2.754   5.211   2.627
 7078SOL     OW22132   5.474   6.924   0.825
 7078SOL    HW122133   5.559   6.886   0.862
 7078SOL    HW222134   5.492   6.965   0.736
 7079SOL     OW22135   1.537   6.859   3.732
 7079SOL    HW122136   1.631   6.869   3.699
 7079SOL    HW222137   1.473   6.886   3.660
 7080SOL     OW22138   4.219   1.609   4.443
 7080SOL    HW122139   4.139   1.561   4.479
 7080SOL    HW222140   4.264   1.660   4.517
 7081SOL     OW22141   1.619   0.772   7.024
 7081SOL    HW122142   1.635   0.761   0.095
 7081SOL    HW222143   1.659   0.859   6.993
 7082SOL     OW22144   6.989   3.855   1.634
 7082SOL    HW122145   6.914   3.897   1.583
 7082SOL    HW222146   6.996   3.897   1.724
 7083SOL     OW22147   0.191   2.239   2.346
 7083SOL    HW122148   0.097   2.222   2.316
 7083SOL    HW222149   0.241   2.286   2.273
 7084SOL     OW22150   0.643   5.490   5.937
 7084SOL    HW122151   0.612   5.580   5.968
 7084SOL    HW222152   0.581   5.457   5.866
 7085SOL     OW22153   0.112   2.529   2.510
 7085SOL    HW122154   0.203   2.504   2.541
 7085SOL    HW222155   0.119   2.582   2.425
 7086SOL     OW22156   5.863   0.430   6.794
 7086SOL    HW122157   5.888   0.526   6.811
 7086SOL    HW222158   5.942   0.371   6.811
 7087SOL     OW22159   4.905   3.325   2.818
 7087SOL    HW122160   4.887   3.419   2.790
 7087SOL    HW222161   4.957   3.325   2.903
 7088SOL     OW22162   5.727   1.342   4.962
 7088SOL    HW122163   5.820   1.342   4.926
 7088SOL    HW222164   5.696   1.437   4.974
 7089SOL     OW22165   3.429   5.435   2.566
 7089SOL    HW122166   3.449   5.423   2.664
 7089SOL    HW222167   3.513   5.420   2.513
 7090SOL     OW22168   3.186   1.352   0.580
 7090SOL    HW122169   3.213   1.428   0.521
 7090SOL    HW222170   3.246   1.349   0.660
 7091SOL     OW22171   0.786   0.057   0.415
 7091SOL    HW122172   0.795   6.989   0.444
 7091SOL    HW222173   0.870   0.107   0.437
 7092SOL     OW22174   3.903   2.048   6.637
 7092SOL    HW122175   3.851   2.133   6.643
 7092SOL    HW222176   3.984   2.062   6.580
 7093SOL     OW22177   3.401   3.952   1.398
 7093SOL    HW122178   3.419   4.010   1.477
 7093SOL    HW222179   3.337   3.880   1.423
 7094SOL     OW22180   1.706   6.644   5.732
 7094SOL    HW122181   1.659   6.663   5.818
 7094SOL    HW222182   1.784   6.584   5.750
 7095SOL     OW22183   3.402   4.817   5.201
 7095SOL    HW122184   3.367   4.881   5.133
 7095SOL    HW222185   3.328   4.757   5.231
 7096SOL     OW22186   0.081   0.563   1.257
 7096SOL    HW122187   0.072   0.661   1.239
 7096SOL    HW222188   0.083   0.513   1.171
 7097SOL     OW22189   5.233   0.152   1.723
 7097SOL    HW122190   5.276   0.103   1.648
 7097SOL    HW222191   5.251   0.104   1.809
 7098SOL     OW22192   1.930   6.689   4.480
 7098SOL    HW122193   1.966   6.773   4.439
 7098SOL    HW222194   1.972   6.676   4.570
 7099SOL     OW22195   3.439   2.127   4.057
 7099SOL    HW122196   3.445   2.146   4.155
 7099SOL    HW222197   3.346   2.145   4.025
 7100SOL     OW22198   0.643   3.583   0.776
 7100SOL    HW122199   0.713   3.581   0.847
 7100SOL    HW222200   0.678   3.540   0.692
 7101SOL     OW22201   2.579   6.204   5.475
 7101SOL    HW122202   2.514   6.270   5.438
 7101SOL    HW222203   2.619   6.240   5.560
 7102SOL     OW22204   5.257   1.138   1.288
 7102SOL    HW122205   5.170   1.124   1.241
 7102SOL    HW222206   5.331   1.139   1.221
 7103SOL     OW22207   4.984   5.121   2.554
 7103SOL    HW122208   4.993   5.052   2.626
 7103SOL    HW222209   4.911   5.185   2.578
 7104SOL     OW22210   5.457   2.999   3.164
 7104SOL    HW122211   5.545   2.995   3.212
 7104SOL    HW222212   5.459   3.074   3.098
 7105SOL     OW22213   3.195   4.127   4.198
 7105SOL    HW122214   3.186   4.144   4.100
 7105SOL    HW222215   3.277   4.174   4.232
 7106SOL     OW22216   3.272   2.851   1.165
 7106SOL    HW122217   3.296   2.796   1.245
 7106SOL    HW222218   3.345   2.845   1.097
 7107SOL     OW22219   4.229   0.324   0.092
 7107SOL    HW122220   4.177   0.378   0.026
 7107SOL    HW222221   4.268   0.244   0.047
 7108SOL     OW22222   2.500   6.501   2.892
 7108SOL    HW122223   2.429   6.431   2.881
 7108SOL    HW222224   2.460   6.583   2.932
 7109SOL     OW22225   1.225   0.376   6.585
 7109SOL    HW122226   1.222   0.398   6.488
 7109SOL    HW222227   1.190   0.454   6.638
 7110SOL     OW22228   3.178   6.761   4.414
 7110SOL    HW122229   3.163   6.793   4.320
 7110SOL    HW222230   3.276   6.743   4.428
 7111SOL     OW22231   1.237   0.982   4.335
 7111SOL    HW122232   1.316   0.949   4.386
 7111SOL    HW222233   1.159   0.920   4.350
 7112SOL     OW22234   2.190   4.461   4.565
 7112SOL    HW122235   2.120   4.504   4.621
 7112SOL    HW222236   2.169   4.364   4.553
 7113SOL     OW22237   2.761   4.846   5.185
 7113SOL    HW122238   2.784   4.763   5.134
 7113SOL    HW222239   2.768   4.925   5.125
 7114SOL     OW22240   4.859   5.211   1.513
 7114SOL    HW122241   4.851   5.236   1.416
 7114SOL    HW222242   4.904   5.284   1.563
 7115SOL     OW22243   5.984   4.178   6.942
 7115SOL    HW122244   5.980   4.087   6.900
 7115SOL    HW222245   6.050   4.235   6.893
 7116SOL     OW22246   6.273   4.054   4.030
 7116SOL    HW122247   6.279   3.959   4.000
 7116SOL    HW222248   6.271   4.057   4.130
 7117SOL     OW22249   6.261   6.880   3.851
 7117SOL    HW122250   6.347   6.862   3.900
 7117SOL    HW222251   6.229   6.795   3.808
 7118SOL     OW22252   4.093   4.390   5.325
 7118SOL    HW122253   4.160   4.392   5.251
 7118SOL    HW222254   4.001   4.379   5.288
 7119SOL     OW22255   5.424   0.824   5.240
 7119SOL    HW122256   5.357   0.876   5.294
 7119SOL    HW222257   5.464   0.752   5.297
 7120SOL     OW22258   5.464   1.182   1.121
 7120SOL    HW122259   5.463   1.243   1.042
 7120SOL    HW222260   5.559   1.170   1.151
 7121SOL     OW22261   1.083   6.493   3.771
 7121SOL    HW122262   1.022   6.413   3.771
 7121SOL    HW222263   1.109   6.514   3.865
 7122SOL     OW22264   2.597   6.942   5.418
 7122SOL    HW122265   2.669   6.984   5.472
 7122SOL    HW222266   2.599   6.843   5.428
 7123SOL     OW22267   6.118   4.772   4.867
 7123SOL    HW122268   6.040   4.770   4.804
 7123SOL    HW222269   6.090   4.816   4.953
 7124SOL     OW22270   1.365   2.605   1.658
 7124SOL    HW122271   1.406   2.696   1.655
 7124SOL    HW222272   1.337   2.584   1.751
 7125SOL     OW22273   0.725   0.557   1.935
 7125SOL    HW122274   0.709   0.645   1.890
 7125SOL    HW222275   0.669   0.552   2.018
 7126SOL     OW22276   3.921   6.126   1.460
 7126SOL    HW122277   3.940   6.112   1.363
 7126SOL    HW222278   3.937   6.041   1.510
 7127SOL     OW22279   3.534   6.012   5.273
 7127SOL    HW122280   3.566   6.106   5.262
 7127SOL    HW222281   3.493   5.980   5.188
 7128SOL     OW22282   3.366   4.627   6.399
 7128SOL    HW122283   3.346   4.713   6.352
 7128SOL    HW222284   3.430   4.573   6.344
 7129SOL     OW22285   0.369   1.710   1.074
 7129SOL    HW122286   0.329   1.675   0.989
 7129SOL    HW222287   0.366   1.810   1.073
 7130SOL     OW22288   2.902   0.034   4.388
 7130SOL    HW122289   2.950   0.092   4.323
 7130SOL    HW222290   2.803   0.042   4.374
 7131SOL     OW22291   3.574   0.755   2.610
 7131SOL    HW122292   3.599   0.807   2.529
 7131SOL    HW222293   3.503   0.689   2.586
 7132SOL     OW22294   5.340   4.180   6.862
 7132SOL    HW122295   5.245   4.154   6.849
 7132SOL    HW222296   5.399   4.117   6.811
 7133SOL     OW22297   3.558   5.489   3.628
 7133SOL    HW122298   3.459   5.496   3.641
 7133SOL    HW222299   3.587   5.396   3.649
 7134SOL     OW22300   5.788   5.641   1.887
 7134SOL    HW122301   5.806   5.658   1.790
 7134SOL    HW222302   5.866   5.671   1.941
 7135SOL     OW22303   1.997   3.351   2.038
 7135SOL    HW122304   1.933   3.344   1.962
 7135SOL    HW222305   2.085   3.383   2.004
 7136SOL     OW22306   2.706   1.816   1.778
 7136SOL    HW122307   2.799   1.783   1.794
 7136SOL    HW222308   2.654   1.812   1.863
 7137SOL     OW22309   2.680   2.175   1.671
 7137SOL    HW122310   2.598   2.136   1.629
 7137SOL    HW222311   2.757   2.114   1.655
 7138SOL     OW22312   1.677   1.403   1.253
 7138SOL    HW122313   1.710   1.354   1.172
 7138SOL    HW222314   1.631   1.340   1.314
 7139SOL     OW22315   5.163   5.753   2.225
 7139SOL    HW122316   5.152   5.836   2.170
 7139SOL    HW222317   5.231   5.768   2.296
 7140SOL     OW22318   6.049   3.624   0.852
 7140SOL    HW122319   6.067   3.584   0.763
 7140SOL    HW222320   5.960   3.671   0.850
 7141SOL     OW22321   4.354   6.562   1.039
 7141SOL    HW122322   4.400   6.602   0.960
 7141SOL    HW222323   4.271   6.612   1.059
 7142SOL     OW22324   3.260   0.939   4.191
 7142SOL    HW122325   3.321   0.981   4.124
 7142SOL    HW222326   3.190   0.886   4.143
 7143SOL     OW22327   2.297   4.873   6.613
 7143SOL    HW122328   2.212   4.899   6.658
 7143SOL    HW222329   2.281   4.861   6.515
 7144SOL     OW22330   0.023   1.093   4.319
 7144SOL    HW122331   0.028   1.160   4.392
 7144SOL    HW222332   0.032   1.139   4.230
 7145SOL     OW22333   4.925   1.729   0.433
 7145SOL    HW122334   5.021   1.713   0.454
 7145SOL    HW222335   4.907   1.703   0.338
 7146SOL     OW22336   2.248   1.165   4.838
 7146SOL    HW122337   2.268   1.189   4.743
 7146SOL    HW222338   2.160   1.205   4.865
 7147SOL     OW22339   5.560   4.601   2.999
 7147SOL    HW122340   5.607   4.686   2.972
 7147SOL    HW222341   5.462   4.611   2.984
 7148SOL     OW22342   6.307   5.988   2.133
 7148SOL    HW122343   6.370   6.012   2.207
 7148SOL    HW222344   6.308   5.889   2.119
 7149SOL     OW22345   6.956   4.618   3.953
 7149SOL    HW122346   6.983   4.681   3.880
 7149SOL    HW222347   6.978   4.658   4.042
 7150SOL     OW22348   4.229   3.600   7.002
 7150SOL    HW122349   4.304   3.543   6.969
 7150SOL    HW222350   4.143   3.570   6.961
 7151SOL     OW22351   3.556   0.477   0.815
 7151SOL    HW122352   3.578   0.575   0.814
 7151SOL    HW222353   3.604   0.433   0.891
 7152SOL     OW22354   6.887   0.932   6.659
 7152SOL    HW122355   6.811   0.961   6.716
 7152SOL    HW222356   6.858   0.855   6.601
 7153SOL     OW22357   4.287   6.271   1.517
 7153SOL    HW122358   4.375   6.300   1.478
 7153SOL    HW222359   4.229   6.351   1.532
 7154SOL     OW22360   4.218   1.590   2.232
 7154SOL    HW122361   4.134   1.583   2.286
 7154SOL    HW222362   4.272   1.668   2.265
 7155SOL     OW22363   3.287   1.811   2.312
 7155SOL    HW122364   3.345   1.774   2.239
 7155SOL    HW222365   3.191   1.807   2.285
 7156SOL     OW22366   5.851   3.550   1.232
 7156SOL    HW122367   5.914   3.515   1.302
 7156SOL    HW222368   5.867   3.502   1.146
 7157SOL     OW22369   6.129   4.292   6.626
 7157SOL    HW122370   6.049   4.304   6.568
 7157SOL    HW222371   6.133   4.366   6.693
 7158SOL     OW22372   5.282   6.873   3.994
 7158SOL    HW122373   5.302   6.776   3.980
 7158SOL    HW222374   5.325   6.904   4.079
 7159SOL     OW22375   6.878   4.906   4.578
 7159SOL    HW122376   6.933   4.985   4.606
 7159SOL    HW222377   6.918   4.823   4.616
 7160SOL     OW22378   5.558   6.896   2.695
 7160SOL    HW122379   5.463   6.902   2.664
 7160SOL    HW222380   5.613   6.852   2.624
 7161SOL     OW22381   4.189   3.529   3.316
 7161SOL    HW122382   4.148   3.450   3.363
 7161SOL    HW222383   4.272   3.557   3.364
 7162SOL     OW22384   0.169   5.397   2.319
 7162SOL    HW122385   0.099   5.349   2.266
 7162SOL    HW222386   0.219   5.459   2.259
 7163SOL     OW22387   1.255   1.906   2.206
 7163SOL    HW122388   1.197   1.898   2.126
 7163SOL    HW222389   1.295   1.998   2.210
 7164SOL     OW22390   1.476   0.939   6.066
 7164SOL    HW122391   1.547   0.869   6.076
 7164SOL    HW222392   1.435   0.957   6.156
 7165SOL     OW22393   5.743   6.919   0.305
 7165SOL    HW122394   5.709   7.002   0.262
 7165SOL    HW222395   5.840   6.908   0.285
 7166SOL     OW22396   5.094   6.543   6.042
 7166SOL    HW122397   5.014   6.602   6.033
 7166SOL    HW222398   5.164   6.589   6.096
 7167SOL     OW22399   6.050   2.006   4.917
 7167SOL    HW122400   6.045   2.042   5.011
 7167SOL    HW222401   6.095   1.917   4.919
 7168SOL     OW22402   2.145   1.064   2.540
 7168SOL    HW122403   2.137   1.159   2.570
 7168SOL    HW222404   2.055   1.027   2.518
 7169SOL     OW22405   2.083   4.139   5.495
 7169SOL    HW122406   2.035   4.217   5.455
 7169SOL    HW222407   2.157   4.110   5.435
 7170SOL     OW22408   4.244   0.634   1.650
 7170SOL    HW122409   4.271   0.716   1.700
 7170SOL    HW222410   4.158   0.600   1.686
 7171SOL     OW22411   5.509   4.999   1.020
 7171SOL    HW122412   5.555   4.932   0.962
 7171SOL    HW222413   5.462   4.951   1.094
 7172SOL     OW22414   1.945   1.262   4.540
 7172SOL    HW122415   1.981   1.339   4.593
 7172SOL    HW222416   1.845   1.262   4.545
 7173SOL     OW22417   5.625   5.801   6.730
 7173SOL    HW122418   5.713   5.761   6.705
 7173SOL    HW222419   5.639   5.873   6.798
 7174SOL     OW22420   5.860   4.414   1.164
 7174SOL    HW122421   5.782   4.435   1.223
 7174SOL    HW222422   5.827   4.385   1.074
 7175SOL     OW22423   5.828   3.780   4.927
 7175SOL    HW122424   5.762   3.829   4.984
 7175SOL    HW222425   5.834   3.685   4.957
 7176SOL     OW22426   0.552   1.454   4.390
 7176SOL    HW122427   0.459   1.452   4.426
 7176SOL    HW222428   0.570   1.543   4.348
 7177SOL     OW22429   1.983   5.366   5.422
 7177SOL    HW122430   1.987   5.461   5.391
 7177SOL    HW222431   2.059   5.315   5.383
 7178SOL     OW22432   0.499   0.497   5.473
 7178SOL    HW122433   0.422   0.559   5.488
 7178SOL    HW222434   0.530   0.460   5.560
 7179SOL     OW22435   3.065   5.455   6.530
 7179SOL    HW122436   3.151   5.437   6.578
 7179SOL    HW222437   3.078   5.438   6.432
 7180SOL     OW22438   1.437   5.060   1.180
 7180SOL    HW122439   1.426   5.160   1.176
 7180SOL    HW222440   1.504   5.031   1.112
 7181SOL     OW22441   2.231   1.580   5.631
 7181SOL    HW122442   2.323   1.554   5.659
 7181SOL    HW222443   2.235   1.632   5.546
 7182SOL     OW22444   0.604   3.158   4.026
 7182SOL    HW122445   0.565   3.154   3.934
 7182SOL    HW222446   0.531   3.153   4.093
 7183SOL     OW22447   1.249   6.458   1.711
 7183SOL    HW122448   1.309   6.434   1.635
 7183SOL    HW222449   1.160   6.414   1.699
 7184SOL     OW22450   6.541   0.611   3.508
 7184SOL    HW122451   6.539   0.528   3.564
 7184SOL    HW222452   6.604   0.598   3.432
 7185SOL     OW22453   5.035   0.895   5.135
 7185SOL    HW122454   5.051   0.972   5.197
 7185SOL    HW222455   5.101   0.898   5.061
 7186SOL     OW22456   0.248   0.232   0.132
 7186SOL    HW122457   0.179   0.162   0.152
 7186SOL    HW222458   0.259   0.292   0.211
 7187SOL     OW22459   3.212   2.996   4.986
 7187SOL    HW122460   3.271   2.928   5.029
 7187SOL    HW222461   3.221   2.991   4.887
 7188SOL     OW22462   4.233   4.639   0.082
 7188SOL    HW122463   4.333   4.649   0.078
 7188SOL    HW222464   4.200   4.680   0.167
 7189SOL     OW22465   6.330   2.670   5.386
 7189SOL    HW122466   6.260   2.609   5.349
 7189SOL    HW222467   6.400   2.616   5.432
 7190SOL     OW22468   6.164   5.488   1.219
 7190SOL    HW122469   6.162   5.567   1.280
 7190SOL    HW222470   6.130   5.515   1.129
 7191SOL     OW22471   0.701   4.012   3.278
 7191SOL    HW122472   0.697   3.965   3.366
 7191SOL    HW222473   0.737   3.950   3.208
 7192SOL     OW22474   1.844   4.767   6.625
 7192SOL    HW122475   1.814   4.784   6.532
 7192SOL    HW222476   1.881   4.674   6.632
 7193SOL     OW22477   3.019   1.979   2.539
 7193SOL    HW122478   2.964   1.925   2.476
 7193SOL    HW222479   3.081   2.039   2.487
 7194SOL     OW22480   2.719   2.653   7.015
 7194SOL    HW122481   2.645   2.711   0.023
 7194SOL    HW222482   2.803   2.706   7.007
 7195SOL     OW22483   6.925   3.627   6.920
 7195SOL    HW122484   6.938   3.656   7.015
 7195SOL    HW222485   7.013   3.629   6.872
 7196SOL     OW22486   3.206   4.082   2.450
 7196SOL    HW122487   3.288   4.124   2.411
 7196SOL    HW222488   3.134   4.079   2.381
 7197SOL     OW22489   1.615   3.803   5.448
 7197SOL    HW122490   1.582   3.711   5.425
 7197SOL    HW222491   1.711   3.797   5.474
 7198SOL     OW22492   6.797   0.940   0.574
 7198SOL    HW122493   6.890   0.969   0.552
 7198SOL    HW222494   6.732   1.005   0.534
 7199SOL     OW22495   0.904   0.929   2.554
 7199SOL    HW122496   0.806   0.918   2.568
 7199SOL    HW222497   0.923   0.937   2.456
 7200SOL     OW22498   2.215   2.414   0.356
 7200SOL    HW122499   2.253   2.407   0.448
 7200SOL    HW222500   2.218   2.509   0.325
 7201SOL     OW22501   6.106   5.746   4.165
 7201SOL    HW122502   6.129   5.764   4.069
 7201SOL    HW222503   6.042   5.816   4.197
 7202SOL     OW22504   5.397   6.434   5.956
 7202SOL    HW122505   5.414   6.520   5.908
 7202SOL    HW222506   5.301   6.409   5.948
 7203SOL     OW22507   0.491   1.401   2.007
 7203SOL    HW122508   0.526   1.390   2.100
 7203SOL    HW222509   0.554   1.457   1.954
 7204SOL     OW22510   6.833   1.644   0.792
 7204SOL    HW122511   6.762   1.634   0.723
 7204SOL    HW222512   6.815   1.583   0.869
 7205SOL     OW22513   1.969   2.453   5.214
 7205SOL    HW122514   2.062   2.425   5.237
 7205SOL    HW222515   1.966   2.552   5.202
 7206SOL     OW22516   1.818   2.091   1.167
 7206SOL    HW122517   1.773   2.048   1.088
 7206SOL    HW222518   1.905   2.131   1.138
 7207SOL     OW22519   1.790   2.159   3.997
 7207SOL    HW122520   1.772   2.092   3.926
 7207SOL    HW222521   1.885   2.149   4.028
 7208SOL     OW22522   3.769   0.594   4.473
 7208SOL    HW122523   3.837   0.616   4.403
 7208SOL    HW222524   3.774   0.661   4.547
 7209SOL     OW22525   2.248   2.396   2.349
 7209SOL    HW122526   2.302   2.452   2.412
 7209SOL    HW222527   2.309   2.338   2.295
 7210SOL     OW22528   2.359   1.852   2.834
 7210SOL    HW122529   2.388   1.847   2.738
 7210SOL    HW222530   2.259   1.856   2.838
 7211SOL     OW22531   3.382   5.985   5.061
 7211SOL    HW122532   3.402   6.002   4.965
 7211SOL    HW222533   3.297   5.933   5.068
 7212SOL     OW22534   5.887   5.180   5.805
 7212SOL    HW122535   5.793   5.190   5.839
 7212SOL    HW222536   5.945   5.250   5.847
 7213SOL     OW22537   3.542   0.115   0.473
 7213SOL    HW122538   3.527   0.033   0.528
 7213SOL    HW222539   3.639   0.121   0.447
 7214SOL     OW22540   0.502   0.817   6.135
 7214SOL    HW122541   0.424   0.846   6.189
 7214SOL    HW222542   0.557   0.752   6.188
 7215SOL     OW22543   0.153   2.753   3.202
 7215SOL    HW122544   0.102   2.754   3.287
 7215SOL    HW222545   0.238   2.703   3.215
 7216SOL     OW22546   3.321   6.613   2.589
 7216SOL    HW122547   3.319   6.712   2.601
 7216SOL    HW222548   3.271   6.570   2.664
 7217SOL     OW22549   1.102   4.063   3.842
 7217SOL    HW122550   1.138   4.081   3.933
 7217SOL    HW222551   1.169   4.012   3.789
 7218SOL     OW22552   6.750   3.351   4.513
 7218SOL    HW122553   6.849   3.345   4.527
 7218SOL    HW222554   6.710   3.260   4.520
 7219SOL     OW22555   3.205   6.708   1.609
 7219SOL    HW122556   3.219   6.783   1.545
 7219SOL    HW222557   3.286   6.698   1.668
 7220SOL     OW22558   6.797   3.646   4.945
 7220SOL    HW122559   6.751   3.717   4.999
 7220SOL    HW222560   6.823   3.570   5.005
 7221SOL     OW22561   2.949   6.091   4.764
 7221SOL    HW122562   2.997   6.004   4.757
 7221SOL    HW222563   3.015   6.166   4.773
 7222SOL     OW22564   6.395   6.321   3.545
 7222SOL    HW122565   6.478   6.367   3.577
 7222SOL    HW222566   6.378   6.345   3.450
 7223SOL     OW22567   2.419   1.785   0.650
 7223SOL    HW122568   2.475   1.796   0.568
 7223SOL    HW222569   2.393   1.875   0.686
 7224SOL     OW22570   4.504   2.349   3.791
 7224SOL    HW122571   4.412   2.338   3.829
 7224SOL    HW222572   4.537   2.441   3.809
 7225SOL     OW22573   1.869   6.742   0.720
 7225SOL    HW122574   1.873   6.784   0.811
 7225SOL    HW222575   1.961   6.744   0.679
 7226SOL     OW22576   5.871   0.846   0.596
 7226SOL    HW122577   5.906   0.776   0.534
 7226SOL    HW222578   5.771   0.839   0.601
 7227SOL     OW22579   3.050   0.628   2.476
 7227SOL    HW122580   3.008   0.719   2.478
 7227SOL    HW222581   3.084   0.610   2.384
 7228SOL     OW22582   0.419   1.849   2.736
 7228SOL    HW122583   0.381   1.907   2.807
 7228SOL    HW222584   0.518   1.860   2.733
 7229SOL     OW22585   6.842   6.781   4.419
 7229SOL    HW122586   6.812   6.711   4.484
 7229SOL    HW222587   6.930   6.819   4.449
 7230SOL     OW22588   2.806   5.073   3.984
 7230SOL    HW122589   2.764   5.112   4.067
 7230SOL    HW222590   2.747   5.001   3.948
 7231SOL     OW22591   3.829   0.665   0.303
 7231SOL    HW122592   3.791   0.738   0.246
 7231SOL    HW222593   3.755   0.614   0.346
 7232SOL     OW22594   5.326   6.980   2.586
 7232SOL    HW122595   5.234   6.946   2.567
 7232SOL    HW222596   5.340   0.040   2.539
 7233SOL     OW22597   5.930   1.940   5.889
 7233SOL    HW122598   6.000   1.891   5.837
 7233SOL    HW222599   5.841   1.896   5.875
 7234SOL     OW22600   4.783   3.993   3.538
 7234SOL    HW122601   4.747   3.901   3.523
 7234SOL    HW222602   4.878   3.986   3.569
 7235SOL     OW22603   6.054   5.720   1.929
 7235SOL    HW122604   6.126   5.730   1.998
 7235SOL    HW222605   6.039   5.623   1.910
 7236SOL     OW22606   1.613   2.407   2.793
 7236SOL    HW122607   1.557   2.481   2.830
 7236SOL    HW222608   1.698   2.401   2.845
 7237SOL     OW22609   5.134   6.884   6.797
 7237SOL    HW122610   5.040   6.884   6.763
 7237SOL    HW222611   5.193   6.927   6.729
 7238SOL     OW22612   4.654   2.433   6.792
 7238SOL    HW122613   4.575   2.459   6.847
 7238SOL    HW222614   4.725   2.393   6.851
 7239SOL     OW22615   0.413   3.372   2.234
 7239SOL    HW122616   0.382   3.312   2.308
 7239SOL    HW222617   0.435   3.317   2.154
 7240SOL     OW22618   6.722   1.483   6.127
 7240SOL    HW122619   6.653   1.483   6.055
 7240SOL    HW222620   6.680   1.512   6.213
 7241SOL     OW22621   2.013   0.492   0.629
 7241SOL    HW122622   2.071   0.563   0.669
 7241SOL    HW222623   2.029   0.405   0.675
 7242SOL     OW22624   0.212   6.216   4.992
 7242SOL    HW122625   0.285   6.258   5.045
 7242SOL    HW222626   0.249   6.183   4.905
 7243SOL     OW22627   6.945   3.463   6.573
 7243SOL    HW122628   6.845   3.458   6.575
 7243SOL    HW222629   6.973   3.528   6.502
 7244SOL     OW22630   0.271   6.558   0.408
 7244SOL    HW122631   0.364   6.540   0.441
 7244SOL    HW222632   0.240   6.647   0.442
 7245SOL     OW22633   1.511   2.364   6.460
 7245SOL    HW122634   1.562   2.303   6.398
 7245SOL    HW222635   1.429   2.316   6.492
 7246SOL     OW22636   2.997   0.597   4.304
 7246SOL    HW122637   2.938   0.517   4.294
 7246SOL    HW222638   2.999   0.649   4.218
 7247SOL     OW22639   3.057   2.486   5.610
 7247SOL    HW122640   3.027   2.433   5.530
 7247SOL    HW222641   3.003   2.459   5.690
 7248SOL     OW22642   2.924   0.550   4.022
 7248SOL    HW122643   2.856   0.502   3.966
 7248SOL    HW222644   3.016   0.522   3.995
 7249SOL     OW22645   4.381   4.630   2.182
 7249SOL    HW122646   4.311   4.676   2.237
 7249SOL    HW222647   4.352   4.626   2.087
 7250SOL     OW22648   5.254   4.802   6.186
 7250SOL    HW122649   5.215   4.812   6.094
 7250SOL    HW222650   5.258   4.706   6.211
 7251SOL     OW22651   0.872   6.722   5.973
 7251SOL    HW122652   0.827   6.785   5.910
 7251SOL    HW222653   0.819   6.638   5.979
 7252SOL     OW22654   2.925   3.727   2.217
 7252SOL    HW122655   2.857   3.664   2.253
 7252SOL    HW222656   2.948   3.701   2.123
 7253SOL     OW22657   1.727   6.865   6.011
 7253SOL    HW122658   1.634   6.832   6.026
 7253SOL    HW222659   1.771   6.883   6.099
 7254SOL     OW22660   5.675   4.875   3.944
 7254SOL    HW122661   5.736   4.906   3.871
 7254SOL    HW222662   5.729   4.847   4.023
 7255SOL     OW22663   4.876   3.333   6.931
 7255SOL    HW122664   4.948   3.379   6.879
 7255SOL    HW222665   4.813   3.400   6.969
 7256SOL     OW22666   3.824   6.623   5.405
 7256SOL    HW122667   3.827   6.550   5.337
 7256SOL    HW222668   3.771   6.700   5.369
 7257SOL     OW22669   0.029   1.656   5.235
 7257SOL    HW122670   0.077   1.730   5.282
 7257SOL    HW222671   0.089   1.576   5.229
 7258SOL     OW22672   5.485   2.228   1.541
 7258SOL    HW122673   5.515   2.211   1.448
 7258SOL    HW222674   5.564   2.253   1.598
 7259SOL     OW22675   1.218   3.680   2.537
 7259SOL    HW122676   1.252   3.587   2.542
 7259SOL    HW222677   1.292   3.742   2.511
 7260SOL     OW22678   5.125   2.274   0.888
 7260SOL    HW122679   5.197   2.276   0.957
 7260SOL    HW222680   5.162   2.304   0.800
 7261SOL     OW22681   0.416   4.015   0.922
 7261SOL    HW122682   0.454   3.923   0.931
 7261SOL    HW222683   0.370   4.041   1.007
 7262SOL     OW22684   5.820   0.891   6.326
 7262SOL    HW122685   5.808   0.878   6.227
 7262SOL    HW222686   5.796   0.984   6.351
 7263SOL     OW22687   0.016   6.829   0.074
 7263SOL    HW122688   0.052   6.792   7.016
 7263SOL    HW222689   7.001   6.918   0.057
 7264SOL     OW22690   5.482   0.948   0.984
 7264SOL    HW122691   5.464   1.031   1.036
 7264SOL    HW222692   5.538   0.885   1.038
 7265SOL     OW22693   5.662   5.362   4.690
 7265SOL    HW122694   5.736   5.397   4.633
 7265SOL    HW222695   5.689   5.367   4.786
 7266SOL     OW22696   6.517   0.904   3.852
 7266SOL    HW122697   6.441   0.907   3.917
 7266SOL    HW222698   6.600   0.874   3.898
 7267SOL     OW22699   6.545   6.533   4.824
 7267SOL    HW122700   6.456   6.567   4.856
 7267SOL    HW222701   6.551   6.543   4.725
 7268SOL     OW22702   6.998   5.159   4.600
 7268SOL    HW122703   0.062   5.188   4.628
 7268SOL    HW222704   6.953   5.233   4.551
 7269SOL     OW22705   2.293   6.299   5.700
 7269SOL    HW122706   2.198   6.322   5.722
 7269SOL    HW222707   2.331   6.367   5.637
 7270SOL     OW22708   0.208   2.215   3.821
 7270SOL    HW122709   0.154   2.289   3.780
 7270SOL    HW222710   0.290   2.199   3.766
 7271SOL     OW22711   1.823   5.279   3.845
 7271SOL    HW122712   1.888   5.329   3.902
 7271SOL    HW222713   1.871   5.235   3.770
 7272SOL     OW22714   6.541   5.839   2.327
 7272SOL    HW122715   6.563   5.843   2.230
 7272SOL    HW222716   6.553   5.930   2.368
 7273SOL     OW22717   5.076   3.398   6.753
 7273SOL    HW122718   5.154   3.365   6.805
 7273SOL    HW222719   5.027   3.320   6.713
 7274SOL     OW22720   0.476   4.049   0.122
 7274SOL    HW122721   0.475   4.042   0.023
 7274SOL    HW222722   0.422   3.974   0.161
 7275SOL     OW22723   0.248   6.039   2.959
 7275SOL    HW122724   0.170   6.096   2.933
 7275SOL    HW222725   0.217   5.946   2.977
 7276SOL     OW22726   5.591   0.109   3.725
 7276SOL    HW122727   5.525   0.084   3.655
 7276SOL    HW222728   5.622   0.203   3.710
 7277SOL     OW22729   4.984   0.451   5.671
 7277SOL    HW122730   4.913   0.469   5.740
 7277SOL    HW222731   4.972   0.513   5.594
 7278SOL     OW22732   3.156   3.820   1.430
 7278SOL    HW122733   3.084   3.845   1.495
 7278SOL    HW222734   3.115   3.796   1.342
 7279SOL     OW22735   4.282   6.146   0.055
 7279SOL    HW122736   4.334   6.179   0.134
 7279SOL    HW222737   4.198   6.102   0.086
 7280SOL     OW22738   6.375   0.281   4.500
 7280SOL    HW122739   6.381   0.378   4.522
 7280SOL    HW222740   6.400   0.227   4.580
 7281SOL     OW22741   3.048   1.984   6.994
 7281SOL    HW122742   3.016   2.067   0.012
 7281SOL    HW222743   2.971   1.934   6.956
 7282SOL     OW22744   5.971   4.992   2.599
 7282SOL    HW122745   5.964   5.091   2.603
 7282SOL    HW222746   5.933   4.959   2.513
 7283SOL     OW22747   3.178   1.574   3.489
 7283SOL    HW122748   3.188   1.502   3.420
 7283SOL    HW222749   3.081   1.592   3.504
 7284SOL     OW22750   0.362   3.250   5.618
 7284SOL    HW122751   0.446   3.208   5.654
 7284SOL    HW222752   0.325   3.313   5.686
 7285SOL     OW22753   5.177   3.687   2.430
 7285SOL    HW122754   5.265   3.640   2.435
 7285SOL    HW222755   5.190   3.776   2.387
 7286SOL     OW22756   2.961   1.895   0.720
 7286SOL    HW122757   2.996   1.804   0.700
 7286SOL    HW222758   2.910   1.929   0.641
 7287SOL     OW22759   0.189   2.139   6.350
 7287SOL    HW122760   0.193   2.096   6.440
 7287SOL    HW222761   0.218   2.235   6.357
 7288SOL     OW22762   3.690   0.980   6.629
 7288SOL    HW122763   3.651   0.898   6.669
 7288SOL    HW222764   3.717   0.961   6.534
 7289SOL     OW22765   6.689   1.844   3.318
 7289SOL    HW122766   6.592   1.822   3.320
 7289SOL    HW222767   6.741   1.765   3.284
 7290SOL     OW22768   3.014   6.445   5.523
 7290SOL    HW122769   2.997   6.425   5.619
 7290SOL    HW222770   2.957   6.522   5.494
 7291SOL     OW22771   1.676   7.023   1.336
 7291SOL    HW122772   1.694   0.007   1.238
 7291SOL    HW222773   1.691   0.083   1.383
 7292SOL     OW22774   2.460   0.705   4.237
 7292SOL    HW122775   2.545   0.720   4.287
 7292SOL    HW222776   2.383   0.715   4.299
 7293SOL     OW22777   1.763   1.290   5.280
 7293SOL    HW122778   1.685   1.230   5.300
 7293SOL    HW222779   1.785   1.286   5.183
 7294SOL     OW22780   2.827   5.550   0.465
 7294SOL    HW122781   2.887   5.504   0.530
 7294SOL    HW222782   2.798   5.486   0.394
 7295SOL     OW22783   0.819   2.480   0.866
 7295SOL    HW122784   0.900   2.486   0.925
 7295SOL    HW222785   0.790   2.572   0.840
 7296SOL     OW22786   2.765   5.229   1.083
 7296SOL    HW122787   2.817   5.240   1.168
 7296SOL    HW222788   2.684   5.173   1.101
 7297SOL     OW22789   3.962   5.816   0.965
 7297SOL    HW122790   3.911   5.896   0.934
 7297SOL    HW222791   4.054   5.843   0.994
 7298SOL     OW22792   4.831   4.453   5.689
 7298SOL    HW122793   4.783   4.367   5.705
 7298SOL    HW222794   4.910   4.436   5.630
 7299SOL     OW22795   0.284   1.639   0.105
 7299SOL    HW122796   0.241   1.549   0.117
 7299SOL    HW222797   0.383   1.627   0.093
 7300SOL     OW22798   6.108   5.719   2.391
 7300SOL    HW122799   6.027   5.671   2.425
 7300SOL    HW222800   6.111   5.811   2.430
 7301SOL     OW22801   6.434   0.889   4.654
 7301SOL    HW122802   6.467   0.981   4.631
 7301SOL    HW222803   6.335   0.884   4.636
 7302SOL     OW22804   0.762   1.419   6.132
 7302SOL    HW122805   0.794   1.478   6.058
 7302SOL    HW222806   0.682   1.460   6.175
 7303SOL     OW22807   4.846   0.930   6.657
 7303SOL    HW122808   4.895   0.952   6.573
 7303SOL    HW222809   4.896   0.968   6.735
 7304SOL     OW22810   3.822   4.239   0.297
 7304SOL    HW122811   3.887   4.187   0.241
 7304SOL    HW222812   3.789   4.181   0.371
 7305SOL     OW22813   4.672   1.667   0.535
 7305SOL    HW122814   4.615   1.613   0.473
 7305SOL    HW222815   4.760   1.686   0.491
 7306SOL     OW22816   5.097   2.815   1.287
 7306SOL    HW122817   5.169   2.770   1.340
 7306SOL    HW222818   5.070   2.899   1.333
 7307SOL     OW22819   2.762   0.251   1.660
 7307SOL    HW122820   2.820   0.312   1.713
 7307SOL    HW222821   2.778   0.157   1.689
 7308SOL     OW22822   6.837   4.117   5.605
 7308SOL    HW122823   6.754   4.119   5.549
 7308SOL    HW222824   6.812   4.115   5.702
 7309SOL     OW22825   5.107   5.694   0.551
 7309SOL    HW122826   5.206   5.690   0.542
 7309SOL    HW222827   5.081   5.778   0.599
 7310SOL     OW22828   2.118   3.878   1.415
 7310SOL    HW122829   2.095   3.786   1.448
 7310SOL    HW222830   2.207   3.905   1.453
 7311SOL     OW22831   3.431   2.069   2.169
 7311SOL    HW122832   3.498   2.143   2.158
 7311SOL    HW222833   3.369   2.068   2.091
 7312SOL     OW22834   0.191   3.096   5.954
 7312SOL    HW122835   0.130   3.159   5.906
 7312SOL    HW222836   0.284   3.107   5.918
 7313SOL     OW22837   3.976   2.057   6.211
 7313SOL    HW122838   4.046   1.999   6.252
 7313SOL    HW222839   3.994   2.065   6.113
 7314SOL     OW22840   6.480   3.472   5.321
 7314SOL    HW122841   6.400   3.471   5.381
 7314SOL    HW222842   6.499   3.379   5.291
 7315SOL     OW22843   6.802   6.969   2.864
 7315SOL    HW122844   6.744   0.002   2.808
 7315SOL    HW222845   6.822   6.886   2.813
 7316SOL     OW22846   2.969   3.592   6.207
 7316SOL    HW122847   2.995   3.547   6.292
 7316SOL    HW222848   3.025   3.674   6.193
 7317SOL     OW22849   4.949   0.799   2.566
 7317SOL    HW122850   4.970   0.734   2.640
 7317SOL    HW222851   4.989   0.888   2.587
 7318SOL     OW22852   1.134   1.669   0.662
 7318SOL    HW122853   1.077   1.751   0.655
 7318SOL    HW222854   1.166   1.642   0.571
 7319SOL     OW22855   6.195   3.907   6.185
 7319SOL    HW122856   6.239   3.897   6.096
 7319SOL    HW222857   6.144   3.824   6.207
 7320SOL     OW22858   6.499   3.404   1.732
 7320SOL    HW122859   6.436   3.441   1.801
 7320SOL    HW222860   6.539   3.479   1.680
 7321SOL     OW22861   3.321   6.316   5.098
 7321SOL    HW122862   3.231   6.286   5.066
 7321SOL    HW222863   3.382   6.237   5.103
 7322SOL     OW22864   0.058   2.728   2.709
 7322SOL    HW122865   0.062   2.677   2.623
 7322SOL    HW222866   0.066   2.664   2.786
 7323SOL     OW22867   2.257   2.181   1.451
 7323SOL    HW122868   2.214   2.266   1.419
 7323SOL    HW222869   2.233   2.107   1.388
 7324SOL     OW22870   5.158   6.499   2.615
 7324SOL    HW122871   5.166   6.409   2.659
 7324SOL    HW222872   5.071   6.504   2.566
 7325SOL     OW22873   4.122   6.774   0.255
 7325SOL    HW122874   4.090   6.752   0.163
 7325SOL    HW222875   4.131   6.873   0.264
 7326SOL     OW22876   2.855   6.672   5.435
 7326SOL    HW122877   2.790   6.681   5.510
 7326SOL    HW222878   2.896   6.760   5.415
 7327SOL     OW22879   6.962   2.909   5.304
 7327SOL    HW122880   6.900   2.855   5.247
 7327SOL    HW222881   6.910   2.951   5.379
 7328SOL     OW22882   3.720   0.737   5.967
 7328SOL    HW122883   3.657   0.666   6.000
 7328SOL    HW222884   3.765   0.780   6.045
 7329SOL     OW22885   4.586   3.866   1.489
 7329SOL    HW122886   4.581   3.902   1.395
 7329SOL    HW222887   4.584   3.942   1.553
 7330SOL     OW22888   2.997   2.228   0.096
 7330SOL    HW122889   2.932   2.300   0.071
 7330SOL    HW222890   3.072   2.268   0.148
 7331SOL     OW22891   5.581   0.236   1.814
 7331SOL    HW122892   5.556   0.191   1.728
 7331SOL    HW222893   5.593   0.167   1.885
 7332SOL     OW22894   1.999   6.090   0.214
 7332SOL    HW122895   1.932   6.120   0.282
 7332SOL    HW222896   2.038   6.002   0.241
 7333SOL     OW22897   0.030   3.368   3.964
 7333SOL    HW122898   0.080   3.378   3.879
 7333SOL    HW222899   6.968   3.325   3.946
 7334SOL     OW22900   3.962   6.386   0.266
 7334SOL    HW122901   4.045   6.349   0.308
 7334SOL    HW222902   3.913   6.312   0.220
 7335SOL     OW22903   1.974   3.004   2.698
 7335SOL    HW122904   1.983   2.913   2.657
 7335SOL    HW222905   2.029   3.070   2.647
 7336SOL     OW22906   1.463   6.147   2.956
 7336SOL    HW122907   1.444   6.184   3.047
 7336SOL    HW222908   1.387   6.169   2.894
 7337SOL     OW22909   0.651   2.988   2.122
 7337SOL    HW122910   0.656   3.088   2.120
 7337SOL    HW222911   0.633   2.957   2.215
 7338SOL     OW22912   6.284   2.667   1.221
 7338SOL    HW122913   6.237   2.603   1.159
 7338SOL    HW222914   6.217   2.709   1.282
 7339SOL     OW22915   4.983   6.452   3.657
 7339SOL    HW122916   4.910   6.389   3.684
 7339SOL    HW222917   4.979   6.534   3.714
 7340SOL     OW22918   1.330   0.834   0.798
 7340SOL    HW122919   1.331   0.867   0.703
 7340SOL    HW222920   1.303   0.738   0.800
 7341SOL     OW22921   6.975   2.794   6.792
 7341SOL    HW122922   6.890   2.843   6.774
 7341SOL    HW222923   6.955   2.698   6.811
 7342SOL     OW22924   6.422   1.458   1.432
 7342SOL    HW122925   6.476   1.376   1.448
 7342SOL    HW222926   6.343   1.460   1.494
 7343SOL     OW22927   4.520   2.864   0.042
 7343SOL    HW122928   4.610   2.906   0.029
 7343SOL    HW222929   4.450   2.935   0.042
 7344SOL     OW22930   1.334   6.390   6.067
 7344SOL    HW122931   1.397   6.357   6.136
 7344SOL    HW222932   1.257   6.436   6.112
 7345SOL     OW22933   3.789   3.662   5.728
 7345SOL    HW122934   3.727   3.595   5.686
 7345SOL    HW222935   3.822   3.725   5.659
 7346SOL     OW22936   3.796   5.570   2.683
 7346SOL    HW122937   3.862   5.606   2.618
 7346SOL    HW222938   3.763   5.481   2.652
 7347SOL     OW22939   0.748   1.956   0.645
 7347SOL    HW122940   0.681   1.911   0.587
 7347SOL    HW222941   0.712   2.043   0.677
 7348SOL     OW22942   1.384   3.372   3.966
 7348SOL    HW122943   1.392   3.299   3.899
 7348SOL    HW222944   1.287   3.386   3.988
 7349SOL     OW22945   4.375   0.205   1.921
 7349SOL    HW122946   4.308   0.135   1.943
 7349SOL    HW222947   4.466   0.165   1.915
 7350SOL     OW22948   2.622   1.753   5.468
 7350SOL    HW122949   2.684   1.681   5.498
 7350SOL    HW222950   2.622   1.827   5.535
 7351SOL     OW22951   5.675   5.668   3.478
 7351SOL    HW122952   5.723   5.730   3.416
 7351SOL    HW222953   5.587   5.641   3.438
 7352SOL     OW22954   1.034   1.684   2.959
 7352SOL    HW122955   1.108   1.751   2.958
 7352SOL    HW222956   1.060   1.606   2.901
 7353SOL     OW22957   0.398   6.988   6.719
 7353SOL    HW122958   0.458   0.040   6.719
 7353SOL    HW222959   0.304   7.017   6.738
 7354SOL     OW22960   1.719   0.902   4.806
 7354SOL    HW122961   1.640   0.946   4.763
 7354SOL    HW222962   1.795   0.901   4.741
 7355SOL     OW22963   0.424   1.812   6.817
 7355SOL    HW122964   0.395   1.760   6.898
 7355SOL    HW222965   0.421   1.753   6.737
 7356SOL     OW22966   3.939   3.738   6.289
 7356SOL    HW122967   3.984   3.793   6.358
 7356SOL    HW222968   4.006   3.707   6.222
 7357SOL     OW22969   3.262   5.956   2.274
 7357SOL    HW122970   3.251   5.967   2.373
 7357SOL    HW222971   3.172   5.946   2.231
 7358SOL     OW22972   6.511   3.555   2.697
 7358SOL    HW122973   6.598   3.518   2.731
 7358SOL    HW222974   6.493   3.519   2.606
 7359SOL     OW22975   4.188   2.290   5.618
 7359SOL    HW122976   4.196   2.382   5.656
 7359SOL    HW222977   4.235   2.225   5.678
 7360SOL     OW22978   2.592   3.569   5.692
 7360SOL    HW122979   2.550   3.578   5.783
 7360SOL    HW222980   2.522   3.543   5.626
 7361SOL     OW22981   5.635   1.001   2.796
 7361SOL    HW122982   5.598   1.094   2.788
 7361SOL    HW222983   5.712   1.001   2.859
 7362SOL     OW22984   2.806   5.650   6.040
 7362SOL    HW122985   2.747   5.717   6.084
 7362SOL    HW222986   2.890   5.694   6.008
 7363SOL     OW22987   4.606   1.128   1.516
 7363SOL    HW122988   4.639   1.145   1.424
 7363SOL    HW222989   4.633   1.204   1.576
 7364SOL     OW22990   4.407   0.456   1.813
 7364SOL    HW122991   4.377   0.383   1.873
 7364SOL    HW222992   4.332   0.483   1.752
 7365SOL     OW22993   0.488   6.020   2.226
 7365SOL    HW122994   0.482   5.993   2.322
 7365SOL    HW222995   0.568   5.977   2.185
 7366SOL     OW22996   2.448   6.390   5.289
 7366SOL    HW122997   2.380   6.329   5.247
 7366SOL    HW222998   2.481   6.455   5.221
 7367SOL     OW22999   3.906   2.456   0.426
 7367SOL    HW123000   3.966   2.410   0.360
 7367SOL    HW223001   3.910   2.409   0.514
 7368SOL     OW23002   3.539   2.879   3.141
 7368SOL    HW123003   3.543   2.857   3.238
 7368SOL    HW223004   3.443   2.883   3.112
 7369SOL     OW23005   3.521   2.861   1.015
 7369SOL    HW123006   3.557   2.898   0.930
 7369SOL    HW223007   3.581   2.887   1.091
 7370SOL     OW23008   2.938   2.138   5.813
 7370SOL    HW123009   2.848   2.183   5.812
 7370SOL    HW223010   2.926   2.042   5.788
 7371SOL     OW23011   3.191   6.699   3.746
 7371SOL    HW123012   3.189   6.770   3.676
 7371SOL    HW223013   3.145   6.617   3.712
 7372SOL     OW23014   4.256   6.805   4.840
 7372SOL    HW123015   4.293   6.836   4.928
 7372SOL    HW223016   4.325   6.752   4.791
 7373SOL     OW23017   5.737   1.908   4.973
 7373SOL    HW123018   5.736   1.996   5.020
 7373SOL    HW223019   5.824   1.862   4.991
 7374SOL     OW23020   1.776   2.066   4.664
 7374SOL    HW123021   1.748   2.126   4.589
 7374SOL    HW223022   1.752   2.108   4.752
 7375SOL     OW23023   2.231   2.653   2.162
 7375SOL    HW123024   2.188   2.563   2.165
 7375SOL    HW223025   2.327   2.643   2.136
 7376SOL     OW23026   0.979   3.050   1.168
 7376SOL    HW123027   0.958   3.142   1.134
 7376SOL    HW223028   0.914   3.026   1.240
 7377SOL     OW23029   4.029   5.126   0.913
 7377SOL    HW123030   3.942   5.144   0.867
 7377SOL    HW223031   4.046   5.197   0.982
 7378SOL     OW23032   1.471   6.800   4.775
 7378SOL    HW123033   1.405   6.733   4.809
 7378SOL    HW223034   1.542   6.753   4.723
 7379SOL     OW23035   2.823   0.694   2.086
 7379SOL    HW123036   2.740   0.741   2.056
 7379SOL    HW223037   2.876   0.754   2.145
 7380SOL     OW23038   6.739   4.206   3.756
 7380SOL    HW123039   6.713   4.173   3.846
 7380SOL    HW223040   6.769   4.130   3.698
 7381SOL     OW23041   4.198   2.704   0.775
 7381SOL    HW123042   4.180   2.748   0.863
 7381SOL    HW223043   4.207   2.773   0.704
 7382SOL     OW23044   6.871   2.224   6.044
 7382SOL    HW123045   6.804   2.159   6.008
 7382SOL    HW223046   6.841   2.318   6.025
 7383SOL     OW23047   1.988   5.886   1.787
 7383SOL    HW123048   1.945   5.799   1.760
 7383SOL    HW223049   1.918   5.957   1.790
 7384SOL     OW23050   6.451   0.136   1.631
 7384SOL    HW123051   6.434   0.169   1.724
 7384SOL    HW223052   6.367   0.141   1.577
 7385SOL     OW23053   2.760   5.373   2.698
 7385SOL    HW123054   2.752   5.328   2.787
 7385SOL    HW223055   2.699   5.453   2.696
 7386SOL     OW23056   6.410   3.030   6.715
 7386SOL    HW123057   6.325   3.016   6.665
 7386SOL    HW223058   6.389   3.058   6.809
 7387SOL     OW23059   6.650   5.532   5.917
 7387SOL    HW123060   6.723   5.520   5.984
 7387SOL    HW223061   6.608   5.622   5.929
 7388SOL     OW23062   1.268   5.182   2.473
 7388SOL    HW123063   1.213   5.215   2.397
 7388SOL    HW223064   1.285   5.084   2.462
 7389SOL     OW23065   6.776   3.565   0.757
 7389SOL    HW123066   6.763   3.510   0.674
 7389SOL    HW223067   6.844   3.636   0.739
 7390SOL     OW23068   2.639   1.967   2.406
 7390SOL    HW123069   2.633   2.018   2.321
 7390SOL    HW223070   2.731   1.928   2.415
 7391SOL     OW23071   4.092   3.530   2.801
 7391SOL    HW123072   4.047   3.462   2.859
 7391SOL    HW223073   4.099   3.616   2.851
 7392SOL     OW23074   3.428   6.296   0.106
 7392SOL    HW123075   3.339   6.335   0.083
 7392SOL    HW223076   3.469   6.254   0.025
 7393SOL     OW23077   6.472   4.513   3.572
 7393SOL    HW123078   6.533   4.586   3.603
 7393SOL    HW223079   6.410   4.487   3.646
 7394SOL     OW23080   1.984   3.037   6.108
 7394SOL    HW123081   2.020   2.944   6.102
 7394SOL    HW223082   2.027   3.086   6.184
 7395SOL     OW23083   2.251   3.140   1.469
 7395SOL    HW123084   2.179   3.083   1.508
 7395SOL    HW223085   2.330   3.083   1.447
 7396SOL     OW23086   2.294   6.179   1.726
 7396SOL    HW123087   2.259   6.097   1.680
 7396SOL    HW223088   2.380   6.157   1.771
 7397SOL     OW23089   4.873   3.337   4.501
 7397SOL    HW123090   4.777   3.312   4.511
 7397SOL    HW223091   4.909   3.368   4.589
 7398SOL     OW23092   1.234   4.809   3.194
 7398SOL    HW123093   1.172   4.809   3.273
 7398SOL    HW223094   1.322   4.848   3.221
 7399SOL     OW23095   6.551   2.888   4.655
 7399SOL    HW123096   6.605   2.969   4.679
 7399SOL    HW223097   6.582   2.853   4.567
 7400SOL     OW23098   5.077   2.145   5.462
 7400SOL    HW123099   5.040   2.140   5.555
 7400SOL    HW223100   5.102   2.053   5.431
 7401SOL     OW23101   1.835   2.581   3.567
 7401SOL    HW123102   1.820   2.507   3.501
 7401SOL    HW223103   1.885   2.656   3.523
 7402SOL     OW23104   2.723   5.132   5.674
 7402SOL    HW123105   2.632   5.109   5.640
 7402SOL    HW223106   2.770   5.048   5.701
 7403SOL     OW23107   1.815   2.972   2.912
 7403SOL    HW123108   1.867   2.988   2.828
 7403SOL    HW223109   1.869   3.003   2.991
 7404SOL     OW23110   3.215   3.953   1.701
 7404SOL    HW123111   3.275   3.964   1.780
 7404SOL    HW223112   3.259   3.894   1.634
 7405SOL     OW23113   3.006   5.266   4.993
 7405SOL    HW123114   3.022   5.176   4.952
 7405SOL    HW223115   3.093   5.316   4.998
 7406SOL     OW23116   0.872   1.618   5.415
 7406SOL    HW123117   0.905   1.589   5.325
 7406SOL    HW223118   0.944   1.605   5.483
 7407SOL     OW23119   1.054   6.129   6.691
 7407SOL    HW123120   0.984   6.151   6.623
 7407SOL    HW223121   1.137   6.182   6.673
 7408SOL     OW23122   3.404   4.213   5.567
 7408SOL    HW123123   3.306   4.210   5.547
 7408SOL    HW223124   3.455   4.226   5.482
 7409SOL     OW23125   5.254   4.292   0.067
 7409SOL    HW123126   5.302   4.261   0.149
 7409SOL    HW223127   5.287   4.240   7.015
 7410SOL     OW23128   0.334   0.303   0.401
 7410SOL    HW123129   0.397   0.367   0.445
 7410SOL    HW223130   0.383   0.220   0.377
 7411SOL     OW23131   1.604   1.176   6.107
 7411SOL    HW123132   1.690   1.166   6.156
 7411SOL    HW223133   1.561   1.086   6.097
 7412SOL     OW23134   4.081   6.594   0.538
 7412SOL    HW123135   4.052   6.656   0.464
 7412SOL    HW223136   4.040   6.624   0.624
 7413SOL     OW23137   4.663   4.347   3.397
 7413SOL    HW123138   4.643   4.293   3.480
 7413SOL    HW223139   4.618   4.436   3.404
 7414SOL     OW23140   2.079   2.067   4.345
 7414SOL    HW123141   2.143   2.056   4.421
 7414SOL    HW223142   2.003   2.003   4.355
 7415SOL     OW23143   3.195   6.268   6.404
 7415SOL    HW123144   3.201   6.194   6.337
 7415SOL    HW223145   3.168   6.230   6.493
 7416SOL     OW23146   1.552   1.680   2.506
 7416SOL    HW123147   1.459   1.694   2.542
 7416SOL    HW223148   1.614   1.663   2.582
 7417SOL     OW23149   1.682   2.092   2.440
 7417SOL    HW123150   1.781   2.094   2.456
 7417SOL    HW223151   1.655   2.001   2.407
 7418SOL     OW23152   1.635   4.575   0.257
 7418SOL    HW123153   1.561   4.619   0.308
 7418SOL    HW223154   1.634   4.606   0.162
 7419SOL     OW23155   6.298   3.619   3.886
 7419SOL    HW123156   6.220   3.669   3.922
 7419SOL    HW223157   6.267   3.531   3.849
 7420SOL     OW23158   6.681   6.087   1.899
 7420SOL    HW123159   6.654   6.007   1.952
 7420SOL    HW223160   6.737   6.060   1.821
 7421SOL     OW23161   4.277   3.839   1.506
 7421SOL    HW123162   4.191   3.829   1.455
 7421SOL    HW223163   4.273   3.923   1.560
 7422SOL     OW23164   6.402   3.792   2.368
 7422SOL    HW123165   6.399   3.698   2.402
 7422SOL    HW223166   6.316   3.838   2.389
 7423SOL     OW23167   5.461   2.098   5.169
 7423SOL    HW123168   5.560   2.113   5.163
 7423SOL    HW223169   5.433   2.094   5.265
 7424SOL     OW23170   6.522   1.643   5.282
 7424SOL    HW123171   6.609   1.597   5.297
 7424SOL    HW223172   6.523   1.688   5.193
 7425SOL     OW23173   5.425   0.091   0.344
 7425SOL    HW123174   5.430   0.021   0.416
 7425SOL    HW223175   5.335   0.088   0.301
 7426SOL     OW23176   3.367   2.404   5.652
 7426SOL    HW123177   3.377   2.305   5.641
 7426SOL    HW223178   3.341   2.444   5.565
 7427SOL     OW23179   3.643   1.292   3.689
 7427SOL    HW123180   3.650   1.337   3.778
 7427SOL    HW223181   3.722   1.232   3.675
 7428SOL     OW23182   4.317   6.788   5.584
 7428SOL    HW123183   4.348   6.738   5.665
 7428SOL    HW223184   4.243   6.739   5.539
 7429SOL     OW23185   1.286   6.727   3.526
 7429SOL    HW123186   1.277   6.629   3.509
 7429SOL    HW223187   1.289   6.775   3.439
 7430SOL     OW23188   6.865   4.372   1.771
 7430SOL    HW123189   6.963   4.364   1.784
 7430SOL    HW223190   6.841   4.468   1.756
 7431SOL     OW23191   2.120   2.367   3.960
 7431SOL    HW123192   2.204   2.406   3.997
 7431SOL    HW223193   2.087   2.295   4.022
 7432SOL     OW23194   2.059   0.492   3.339
 7432SOL    HW123195   2.040   0.589   3.353
 7432SOL    HW223196   2.119   0.459   3.413
 7433SOL     OW23197   3.252   6.765   6.838
 7433SOL    HW123198   3.203   6.840   6.883
 7433SOL    HW223199   3.284   6.795   6.748
 7434SOL     OW23200   4.807   6.185   5.647
 7434SOL    HW123201   4.734   6.141   5.594
 7434SOL    HW223202   4.841   6.264   5.596
 7435SOL     OW23203   4.596   6.043   1.816
 7435SOL    HW123204   4.496   6.041   1.809
 7435SOL    HW223205   4.636   6.017   1.729
 7436SOL     OW23206   4.607   4.448   6.151
 7436SOL    HW123207   4.679   4.515   6.137
 7436SOL    HW223208   4.522   4.496   6.174
 7437SOL     OW23209   2.806   5.978   1.546
 7437SOL    HW123210   2.846   5.944   1.461
 7437SOL    HW223211   2.843   5.927   1.623
 7438SOL     OW23212   1.754   0.809   0.477
 7438SOL    HW123213   1.702   0.872   0.534
 7438SOL    HW223214   1.719   0.811   0.384
 7439SOL     OW23215   1.500   5.265   5.430
 7439SOL    HW123216   1.506   5.322   5.348
 7439SOL    HW223217   1.527   5.172   5.408
 7440SOL     OW23218   6.046   3.230   3.984
 7440SOL    HW123219   6.084   3.277   3.904
 7440SOL    HW223220   6.094   3.262   4.066
 7441SOL     OW23221   5.855   6.555   3.609
 7441SOL    HW123222   5.907   6.607   3.677
 7441SOL    HW223223   5.873   6.457   3.621
 7442SOL     OW23224   6.006   0.836   6.074
 7442SOL    HW123225   6.084   0.799   6.023
 7442SOL    HW223226   5.979   0.771   6.145
 7443SOL     OW23227   6.764   5.656   1.784
 7443SOL    HW123228   6.778   5.616   1.693
 7443SOL    HW223229   6.666   5.662   1.803
 7444SOL     OW23230   6.454   1.339   6.255
 7444SOL    HW123231   6.421   1.401   6.184
 7444SOL    HW223232   6.536   1.377   6.297
 7445SOL     OW23233   3.790   7.002   1.262
 7445SOL    HW123234   3.758   0.053   1.210
 7445SOL    HW223235   3.727   6.984   1.338
 7446SOL     OW23236   5.082   2.745   0.473
 7446SOL    HW123237   4.996   2.794   0.486
 7446SOL    HW223238   5.151   2.807   0.435
 7447SOL     OW23239   6.628   4.463   6.787
 7447SOL    HW123240   6.695   4.389   6.779
 7447SOL    HW223241   6.562   4.457   6.712
 7448SOL     OW23242   5.567   6.233   5.865
 7448SOL    HW123243   5.539   6.318   5.910
 7448SOL    HW223244   5.513   6.156   5.901
 7449SOL     OW23245   0.455   5.258   0.189
 7449SOL    HW123246   0.484   5.354   0.187
 7449SOL    HW223247   0.372   5.247   0.135
 7450SOL     OW23248   5.276   2.275   5.595
 7450SOL    HW123249   5.254   2.282   5.692
 7450SOL    HW223250   5.194   2.250   5.544
 7451SOL     OW23251   5.595   5.592   2.569
 7451SOL    HW123252   5.521   5.529   2.595
 7451SOL    HW223253   5.582   5.680   2.615
 7452SOL     OW23254   6.151   6.132   4.402
 7452SOL    HW123255   6.154   6.097   4.308
 7452SOL    HW223256   6.056   6.152   4.427
 7453SOL     OW23257   4.939   5.698   6.217
 7453SOL    HW123258   4.987   5.763   6.157
 7453SOL    HW223259   4.845   5.729   6.230
 7454SOL     OW23260   3.256   1.613   0.493
 7454SOL    HW123261   3.348   1.649   0.476
 7454SOL    HW223262   3.188   1.674   0.452
 7455SOL     OW23263   6.243   3.165   2.717
 7455SOL    HW123264   6.166   3.126   2.768
 7455SOL    HW223265   6.216   3.253   2.678
 7456SOL     OW23266   2.518   2.024   5.222
 7456SOL    HW123267   2.553   1.931   5.232
 7456SOL    HW223268   2.487   2.037   5.127
 7457SOL     OW23269   2.488   0.026   3.921
 7457SOL    HW123270   2.581   0.017   3.958
 7457SOL    HW223271   2.480   7.000   3.837
 7458SOL     OW23272   1.089   0.184   5.301
 7458SOL    HW123273   1.009   0.204   5.245
 7458SOL    HW223274   1.137   0.269   5.322
 7459SOL     OW23275   6.102   1.178   2.382
 7459SOL    HW123276   6.088   1.220   2.471
 7459SOL    HW223277   6.152   1.240   2.322
 7460SOL     OW23278   1.518   6.601   0.007
 7460SOL    HW123279   1.452   6.659   0.055
 7460SOL    HW223280   1.475   6.563   6.952
 7461SOL     OW23281   6.673   6.176   5.371
 7461SOL    HW123282   6.584   6.214   5.345
 7461SOL    HW223283   6.703   6.110   5.302
 7462SOL     OW23284   1.055   5.618   1.166
 7462SOL    HW123285   1.027   5.646   1.074
 7462SOL    HW223286   1.050   5.696   1.228
 7463SOL     OW23287   3.405   4.675   0.592
 7463SOL    HW123288   3.467   4.718   0.526
 7463SOL    HW223289   3.335   4.740   0.620
 7464SOL     OW23290   0.237   5.864   4.610
 7464SOL    HW123291   0.156   5.900   4.656
 7464SOL    HW223292   0.283   5.798   4.671
 7465SOL     OW23293   2.759   5.290   0.316
 7465SOL    HW123294   2.807   5.275   0.229
 7465SOL    HW223295   2.727   5.202   0.351
 7466SOL     OW23296   0.485   0.577   5.952
 7466SOL    HW123297   0.496   0.662   6.005
 7466SOL    HW223298   0.556   0.572   5.882
 7467SOL     OW23299   0.470   2.523   6.070
 7467SOL    HW123300   0.548   2.516   6.133
 7467SOL    HW223301   0.402   2.586   6.109
 7468SOL     OW23302   5.433   2.819   4.283
 7468SOL    HW123303   5.350   2.875   4.290
 7468SOL    HW223304   5.451   2.776   4.371
 7469SOL     OW23305   6.484   2.118   0.199
 7469SOL    HW123306   6.454   2.158   0.112
 7469SOL    HW223307   6.466   2.183   0.273
 7470SOL     OW23308   5.536   4.168   3.835
 7470SOL    HW123309   5.591   4.092   3.870
 7470SOL    HW223310   5.480   4.205   3.908
 7471SOL     OW23311   5.159   5.802   6.034
 7471SOL    HW123312   5.130   5.733   5.968
 7471SOL    HW223313   5.230   5.765   6.094
 7472SOL     OW23314   6.766   0.689   5.714
 7472SOL    HW123315   6.713   0.762   5.757
 7472SOL    HW223316   6.798   0.720   5.625
 7473SOL     OW23317   4.736   7.002   3.821
 7473SOL    HW123318   4.643   0.009   3.826
 7473SOL    HW223319   4.745   6.921   3.879
 7474SOL     OW23320   6.101   2.668   6.911
 7474SOL    HW123321   6.198   2.655   6.930
 7474SOL    HW223322   6.088   2.751   6.857
 7475SOL     OW23323   4.262   2.298   2.269
 7475SOL    HW123324   4.187   2.301   2.203
 7475SOL    HW223325   4.234   2.243   2.348
 7476SOL     OW23326   2.269   2.119   2.840
 7476SOL    HW123327   2.326   2.076   2.769
 7476SOL    HW223328   2.325   2.185   2.891
 7477SOL     OW23329   0.583   3.226   4.707
 7477SOL    HW123330   0.484   3.216   4.713
 7477SOL    HW223331   0.610   3.230   4.611
 7478SOL     OW23332   5.422   3.054   5.050
 7478SOL    HW123333   5.437   2.999   4.969
 7478SOL    HW223334   5.352   3.123   5.031
 7479SOL     OW23335   5.560   3.308   0.225
 7479SOL    HW123336   5.487   3.363   0.264
 7479SOL    HW223337   5.521   3.230   0.176
 7480SOL     OW23338   2.337   5.301   2.428
 7480SOL    HW123339   2.405   5.258   2.368
 7480SOL    HW223340   2.245   5.276   2.398
 7481SOL     OW23341   6.125   4.427   6.874
 7481SOL    HW123342   6.180   4.420   6.957
 7481SOL    HW223343   6.118   4.522   6.846
 7482SOL     OW23344   4.108   2.285   2.665
 7482SOL    HW123345   4.144   2.378   2.656
 7482SOL    HW223346   4.063   2.276   2.754
 7483SOL     OW23347   4.632   2.315   4.519
 7483SOL    HW123348   4.542   2.307   4.478
 7483SOL    HW223349   4.693   2.367   4.459
 7484SOL     OW23350   2.357   5.449   4.736
 7484SOL    HW123351   2.348   5.356   4.773
 7484SOL    HW223352   2.356   5.446   4.636
 7485SOL     OW23353   2.912   0.012   3.600
 7485SOL    HW123354   2.918   0.078   3.525
 7485SOL    HW223355   2.867   0.055   3.679
 7486SOL     OW23356   0.708   5.898   0.075
 7486SOL    HW123357   0.772   5.852   0.013
 7486SOL    HW223358   0.712   5.997   0.060
 7487SOL     OW23359   4.650   0.861   2.750
 7487SOL    HW123360   4.550   0.872   2.752
 7487SOL    HW223361   4.681   0.867   2.655
 7488SOL     OW23362   1.337   6.445   4.209
 7488SOL    HW123363   1.416   6.495   4.245
 7488SOL    HW223364   1.289   6.400   4.284
 7489SOL     OW23365   6.477   3.844   7.004
 7489SOL    HW123366   6.473   3.772   0.047
 7489SOL    HW223367   6.560   3.833   6.949
 7490SOL     OW23368   1.640   1.838   2.298
 7490SOL    HW123369   1.574   1.820   2.225
 7490SOL    HW223370   1.620   1.781   2.377
 7491SOL     OW23371   4.774   2.650   0.594
 7491SOL    HW123372   4.781   2.734   0.540
 7491SOL    HW223373   4.698   2.658   0.659
 7492SOL     OW23374   1.816   1.172   3.953
 7492SOL    HW123375   1.851   1.120   3.875
 7492SOL    HW223376   1.733   1.128   3.987
 7493SOL     OW23377   6.627   3.675   5.466
 7493SOL    HW123378   6.573   3.755   5.492
 7493SOL    HW223379   6.566   3.598   5.446
 7494SOL     OW23380   5.685   0.802   3.948
 7494SOL    HW123381   5.637   0.849   3.874
 7494SOL    HW223382   5.620   0.744   3.997
 7495SOL     OW23383   2.199   2.889   4.546
 7495SOL    HW123384   2.207   2.806   4.490
 7495SOL    HW223385   2.277   2.895   4.608
 7496SOL     OW23386   6.161   3.368   3.743
 7496SOL    HW123387   6.135   3.287   3.692
 7496SOL    HW223388   6.257   3.390   3.724
 7497SOL     OW23389   1.449   6.139   1.507
 7497SOL    HW123390   1.456   6.103   1.414
 7497SOL    HW223391   1.500   6.079   1.569
 7498SOL     OW23392   2.717   0.702   3.820
 7498SOL    HW123393   2.809   0.714   3.784
 7498SOL    HW223394   2.707   0.608   3.853
 7499SOL     OW23395   4.462   1.729   3.674
 7499SOL    HW123396   4.512   1.816   3.675
 7499SOL    HW223397   4.513   1.661   3.727
 7500SOL     OW23398   3.705   6.491   3.823
 7500SOL    HW123399   3.631   6.480   3.757
 7500SOL    HW223400   3.749   6.580   3.810
 7501SOL     OW23401   6.063   2.959   3.980
 7501SOL    HW123402   5.964   2.943   3.984
 7501SOL    HW223403   6.082   3.056   3.995
 7502SOL     OW23404   3.639   0.154   4.057
 7502SOL    HW123405   3.637   0.112   4.148
 7502SOL    HW223406   3.552   0.201   4.040
 7503SOL     OW23407   1.747   6.193   0.744
 7503SOL    HW123408   1.647   6.200   0.740
 7503SOL    HW223409   1.788   6.265   0.688
 7504SOL     OW23410   0.440   6.280   2.163
 7504SOL    HW123411   0.423   6.182   2.155
 7504SOL    HW223412   0.382   6.318   2.235
 7505SOL     OW23413   0.412   1.587   5.733
 7505SOL    HW123414   0.502   1.561   5.768
 7505SOL    HW223415   0.360   1.505   5.708
 7506SOL     OW23416   3.537   2.004   3.347
 7506SOL    HW123417   3.504   1.911   3.365
 7506SOL    HW223418   3.470   2.052   3.291
 7507SOL     OW23419   6.464   3.738   4.688
 7507SOL    HW123420   6.515   3.810   4.641
 7507SOL    HW223421   6.492   3.649   4.654
 7508SOL     OW23422   1.713   5.790   0.308
 7508SOL    HW123423   1.717   5.692   0.324
 7508SOL    HW223424   1.693   5.809   0.212
 7509SOL     OW23425   5.153   4.041   0.432
 7509SOL    HW123426   5.143   3.983   0.351
 7509SOL    HW223427   5.128   4.135   0.409
 7510SOL     OW23428   4.115   3.660   4.053
 7510SOL    HW123429   4.086   3.567   4.033
 7510SOL    HW223430   4.188   3.658   4.121
 7511SOL     OW23431   3.075   5.659   3.064
 7511SOL    HW123432   3.047   5.748   3.099
 7511SOL    HW223433   3.037   5.647   2.972
 7512SOL     OW23434   2.962   0.978   6.481
 7512SOL    HW123435   2.896   0.955   6.410
 7512SOL    HW223436   2.952   0.914   6.557
 7513SOL     OW23437   1.945   2.135   3.345
 7513SOL    HW123438   1.990   2.072   3.282
 7513SOL    HW223439   1.979   2.119   3.438
 7514SOL     OW23440   1.377   4.265   3.852
 7514SOL    HW123441   1.336   4.215   3.776
 7514SOL    HW223442   1.347   4.360   3.849
 7515SOL     OW23443   6.678   4.334   5.412
 7515SOL    HW123444   6.583   4.353   5.388
 7515SOL    HW223445   6.688   4.333   5.511
 7516SOL     OW23446   1.668   5.433   6.233
 7516SOL    HW123447   1.663   5.353   6.173
 7516SOL    HW223448   1.731   5.500   6.194
 7517SOL     OW23449   1.387   2.676   6.756
 7517SOL    HW123450   1.457   2.646   6.692
 7517SOL    HW223451   1.413   2.650   6.849
 7518SOL     OW23452   4.928   2.944   3.908
 7518SOL    HW123453   4.874   2.916   3.828
 7518SOL    HW223454   4.901   2.888   3.987
 7519SOL     OW23455   5.039   0.316   4.611
 7519SOL    HW123456   5.000   0.320   4.703
 7519SOL    HW223457   5.052   0.409   4.576
 7520SOL     OW23458   1.300   1.493   2.307
 7520SOL    HW123459   1.287   1.585   2.345
 7520SOL    HW223460   1.218   1.439   2.321
 7521SOL     OW23461   4.836   1.937   4.552
 7521SOL    HW123462   4.829   1.948   4.453
 7521SOL    HW223463   4.913   1.991   4.585
 7522SOL     OW23464   1.253   6.743   4.475
 7522SOL    HW123465   1.227   6.757   4.379
 7522SOL    HW223466   1.263   6.831   4.520
 7523SOL     OW23467   5.126   0.642   6.115
 7523SOL    HW123468   5.131   0.740   6.131
 7523SOL    HW223469   5.200   0.615   6.053
 7524SOL     OW23470   6.864   2.716   4.584
 7524SOL    HW123471   6.821   2.796   4.542
 7524SOL    HW223472   6.799   2.670   4.644
 7525SOL     OW23473   4.251   6.863   6.881
 7525SOL    HW123474   4.299   6.777   6.864
 7525SOL    HW223475   4.159   6.845   6.913
 7526SOL     OW23476   2.180   3.254   1.786
 7526SOL    HW123477   2.232   3.327   1.832
 7526SOL    HW223478   2.183   3.171   1.841
 7527SOL     OW23479   3.428   5.929   3.945
 7527SOL    HW123480   3.445   5.975   4.032
 7527SOL    HW223481   3.330   5.931   3.924
 7528SOL     OW23482   5.359   1.796   6.938
 7528SOL    HW123483   5.301   1.823   6.861
 7528SOL    HW223484   5.425   1.728   6.907
 7529SOL     OW23485   5.695   1.710   3.263
 7529SOL    HW123486   5.737   1.740   3.349
 7529SOL    HW223487   5.727   1.768   3.188
 7530SOL     OW23488   6.885   1.414   2.243
 7530SOL    HW123489   6.788   1.414   2.266
 7530SOL    HW223490   6.896   1.416   2.144
 7531SOL     OW23491   4.752   2.702   3.440
 7531SOL    HW123492   4.828   2.642   3.417
 7531SOL    HW223493   4.666   2.659   3.411
 7532SOL     OW23494   4.545   5.968   6.478
 7532SOL    HW123495   4.645   5.977   6.472
 7532SOL    HW223496   4.515   5.894   6.418
 7533SOL     OW23497   4.296   2.844   1.618
 7533SOL    HW123498   4.376   2.785   1.617
 7533SOL    HW223499   4.324   2.939   1.636
 7534SOL     OW23500   5.138   6.739   4.627
 7534SOL    HW123501   5.071   6.751   4.701
 7534SOL    HW223502   5.090   6.735   4.540
 7535SOL     OW23503   1.595   6.336   5.219
 7535SOL    HW123504   1.590   6.368   5.314
 7535SOL    HW223505   1.674   6.378   5.175
 7536SOL     OW23506   5.250   6.207   3.930
 7536SOL    HW123507   5.347   6.183   3.926
 7536SOL    HW223508   5.195   6.132   3.894
 7537SOL     OW23509   1.631   5.394   2.048
 7537SOL    HW123510   1.724   5.399   2.084
 7537SOL    HW223511   1.578   5.330   2.104
 7538SOL     OW23512   1.092   2.668   1.537
 7538SOL    HW123513   1.179   2.663   1.586
 7538SOL    HW223514   1.017   2.656   1.602
 7539SOL     OW23515   1.620   5.178   3.378
 7539SOL    HW123516   1.622   5.164   3.477
 7539SOL    HW223517   1.634   5.090   3.332
 7540SOL     OW23518   5.191   5.930   4.420
 7540SOL    HW123519   5.218   5.842   4.381
 7540SOL    HW223520   5.155   5.917   4.512
 7541SOL     OW23521   0.543   4.067   6.611
 7541SOL    HW123522   0.493   4.149   6.637
 7541SOL    HW223523   0.547   4.004   6.688
 7542SOL     OW23524   6.560   5.671   5.595
 7542SOL    HW123525   6.532   5.579   5.569
 7542SOL    HW223526   6.585   5.723   5.513
 7543SOL     OW23527   2.741   0.413   4.932
 7543SOL    HW123528   2.823   0.435   4.878
 7543SOL    HW223529   2.731   0.313   4.938
 7544SOL     OW23530   0.146   2.421   4.216
 7544SOL    HW123531   0.146   2.324   4.193
 7544SOL    HW223532   0.138   2.431   4.315
 7545SOL     OW23533   0.497   5.756   6.389
 7545SOL    HW123534   0.430   5.693   6.350
 7545SOL    HW223535   0.494   5.843   6.340
 7546SOL     OW23536   4.334   2.402   1.763
 7546SOL    HW123537   4.387   2.318   1.773
 7546SOL    HW223538   4.244   2.389   1.804
 7547SOL     OW23539   4.617   0.719   1.584
 7547SOL    HW123540   4.702   0.721   1.532
 7547SOL    HW223541   4.544   0.681   1.527
 7548SOL     OW23542   4.448   1.880   6.922
 7548SOL    HW123543   4.370   1.830   6.960
 7548SOL    HW223544   4.533   1.845   6.962
 7549SOL     OW23545   3.736   2.545   6.177
 7549SOL    HW123546   3.761   2.450   6.193
 7549SOL    HW223547   3.811   2.605   6.208
 7550SOL     OW23548   1.800   4.199   3.724
 7550SOL    HW123549   1.825   4.178   3.629
 7550SOL    HW223550   1.805   4.115   3.778
 7551SOL     OW23551   5.056   2.684   5.359
 7551SOL    HW123552   5.149   2.701   5.325
 7551SOL    HW223553   5.006   2.627   5.294
 7552SOL     OW23554   1.570   6.132   4.762
 7552SOL    HW123555   1.650   6.172   4.718
 7552SOL    HW223556   1.595   6.099   4.853
 7553SOL     OW23557   6.222   5.996   5.933
 7553SOL    HW123558   6.263   6.037   6.014
 7553SOL    HW223559   6.200   6.067   5.867
 7554SOL     OW23560   5.595   1.095   0.570
 7554SOL    HW123561   5.582   1.011   0.517
 7554SOL    HW223562   5.692   1.116   0.578
 7555SOL     OW23563   3.082   6.488   6.308
 7555SOL    HW123564   3.077   6.549   6.387
 7555SOL    HW223565   3.116   6.399   6.336
 7556SOL     OW23566   1.405   1.289   0.359
 7556SOL    HW123567   1.399   1.279   0.260
 7556SOL    HW223568   1.426   1.383   0.383
 7557SOL     OW23569   4.942   0.262   0.327
 7557SOL    HW123570   4.893   0.318   0.261
 7557SOL    HW223571   5.029   0.232   0.288
 7558SOL     OW23572   1.563   2.462   3.707
 7558SOL    HW123573   1.651   2.493   3.670
 7558SOL    HW223574   1.498   2.538   3.707
 7559SOL     OW23575   3.726   2.339   5.428
 7559SOL    HW123576   3.825   2.347   5.417
 7559SOL    HW223577   3.707   2.287   5.512
 7560SOL     OW23578   6.176   0.032   0.153
 7560SOL    HW123579   6.182   0.066   0.059
 7560SOL    HW223580   6.254   0.064   0.206
 7561SOL     OW23581   5.285   3.028   5.644
 7561SOL    HW123582   5.213   3.093   5.667
 7561SOL    HW223583   5.301   3.031   5.545
 7562SOL     OW23584   1.106   4.750   4.816
 7562SOL    HW123585   1.197   4.750   4.857
 7562SOL    HW223586   1.051   4.676   4.857
 7563SOL     OW23587   2.878   6.269   2.502
 7563SOL    HW123588   2.909   6.353   2.458
 7563SOL    HW223589   2.902   6.190   2.445
 7564SOL     OW23590   4.633   0.616   4.950
 7564SOL    HW123591   4.684   0.652   5.028
 7564SOL    HW223592   4.697   0.597   4.875
 7565SOL     OW23593   5.962   4.053   6.166
 7565SOL    HW123594   5.997   4.146   6.151
 7565SOL    HW223595   6.035   3.996   6.203
 7566SOL     OW23596   5.514   4.919   2.677
 7566SOL    HW123597   5.609   4.895   2.697
 7566SOL    HW223598   5.460   4.836   2.662
 7567SOL     OW23599   1.021   1.518   4.657
 7567SOL    HW123600   1.103   1.463   4.670
 7567SOL    HW223601   0.941   1.468   4.692
 7568SOL     OW23602   5.880   5.625   2.504
 7568SOL    HW123603   5.906   5.582   2.590
 7568SOL    HW223604   5.792   5.671   2.516
 7569SOL     OW23605   3.726   4.714   6.675
 7569SOL    HW123606   3.727   4.637   6.612
 7569SOL    HW223607   3.743   4.682   6.768
 7570SOL     OW23608   0.080   2.606   3.441
 7570SOL    HW123609   0.054   2.680   3.503
 7570SOL    HW223610   0.002   2.543   3.431
 7571SOL     OW23611   5.528   3.156   2.934
 7571SOL    HW123612   5.625   3.137   2.948
 7571SOL    HW223613   5.489   3.086   2.873
 7572SOL     OW23614   4.783   6.611   3.028
 7572SOL    HW123615   4.859   6.639   3.086
 7572SOL    HW223616   4.818   6.566   2.946
 7573SOL     OW23617   5.917   0.368   5.916
 7573SOL    HW123618   5.993   0.323   5.869
 7573SOL    HW223619   5.831   0.328   5.884
 7574SOL     OW23620   5.753   1.216   4.000
 7574SOL    HW123621   5.802   1.172   3.925
 7574SOL    HW223622   5.661   1.240   3.969
 7575SOL     OW23623   5.995   6.580   0.894
 7575SOL    HW123624   6.095   6.571   0.892
 7575SOL    HW223625   5.966   6.600   0.987
 7576SOL     OW23626   5.048   2.507   1.078
 7576SOL    HW123627   4.990   2.509   1.159
 7576SOL    HW223628   5.035   2.421   1.029
 7577SOL     OW23629   6.973   6.659   0.297
 7577SOL    HW123630   6.964   6.572   0.248
 7577SOL    HW223631   7.018   6.726   0.237
 7578SOL     OW23632   0.815   5.380   2.499
 7578SOL    HW123633   0.764   5.381   2.585
 7578SOL    HW223634   0.821   5.286   2.465
 7579SOL     OW23635   6.884   1.873   1.632
 7579SOL    HW123636   6.857   1.968   1.619
 7579SOL    HW223637   6.813   1.825   1.684
 7580SOL     OW23638   1.775   4.391   3.236
 7580SOL    HW123639   1.736   4.441   3.313
 7580SOL    HW223640   1.718   4.404   3.155
 7581SOL     OW23641   0.729   1.230   1.126
 7581SOL    HW123642   0.734   1.316   1.177
 7581SOL    HW223643   0.815   1.214   1.079
 7582SOL     OW23644   4.620   1.640   3.876
 7582SOL    HW123645   4.690   1.689   3.928
 7582SOL    HW223646   4.529   1.671   3.906
 7583SOL     OW23647   5.187   3.515   3.479
 7583SOL    HW123648   5.096   3.484   3.454
 7583SOL    HW223649   5.237   3.542   3.397
 7584SOL     OW23650   0.633   0.028   2.566
 7584SOL    HW123651   0.642   7.020   2.659
 7584SOL    HW223652   0.548   7.022   2.526
 7585SOL     OW23653   0.872   1.985   6.816
 7585SOL    HW123654   0.921   1.993   6.903
 7585SOL    HW223655   0.776   2.012   6.829
 7586SOL     OW23656   1.195   0.668   2.219
 7586SOL    HW123657   1.281   0.694   2.264
 7586SOL    HW223658   1.199   0.694   2.122
 7587SOL     OW23659   3.544   1.106   0.214
 7587SOL    HW123660   3.474   1.175   0.197
 7587SOL    HW223661   3.601   1.135   0.291
 7588SOL     OW23662   1.303   2.547   4.307
 7588SOL    HW123663   1.214   2.593   4.299
 7588SOL    HW223664   1.372   2.600   4.257
 7589SOL     OW23665   0.332   1.142   3.060
 7589SOL    HW123666   0.250   1.100   3.097
 7589SOL    HW223667   0.328   1.141   2.960
 7590SOL     OW23668   6.500   1.750   6.969
 7590SOL    HW123669   6.551   1.753   0.028
 7590SOL    HW223670   6.499   1.841   6.928
 7591SOL     OW23671   4.810   2.661   6.734
 7591SOL    HW123672   4.791   2.698   6.643
 7591SOL    HW223673   4.742   2.591   6.756
 7592SOL     OW23674   6.176   4.510   4.982
 7592SOL    HW123675   6.273   4.486   4.991
 7592SOL    HW223676   6.168   4.598   4.936
 7593SOL     OW23677   6.537   2.218   6.156
 7593SOL    HW123678   6.571   2.124   6.164
 7593SOL    HW223679   6.572   2.273   6.232
 7594SOL     OW23680   0.351   4.760   1.205
 7594SOL    HW123681   0.340   4.664   1.179
 7594SOL    HW223682   0.444   4.789   1.183
 7595SOL     OW23683   6.673   2.820   6.320
 7595SOL    HW123684   6.717   2.792   6.234
 7595SOL    HW223685   6.725   2.895   6.360
 7596SOL     OW23686   3.073   0.229   5.115
 7596SOL    HW123687   3.036   0.140   5.091
 7596SOL    HW223688   3.000   0.288   5.149
 7597SOL     OW23689   2.106   6.083   2.524
 7597SOL    HW123690   2.188   6.116   2.572
 7597SOL    HW223691   2.083   6.146   2.450
 7598SOL     OW23692   5.972   0.375   2.695
 7598SOL    HW123693   6.037   0.362   2.620
 7598SOL    HW223694   5.930   0.287   2.718
 7599SOL     OW23695   4.302   3.552   1.169
 7599SOL    HW123696   4.203   3.569   1.170
 7599SOL    HW223697   4.325   3.491   1.245
 7600SOL     OW23698   1.640   1.219   3.566
 7600SOL    HW123699   1.731   1.196   3.600
 7600SOL    HW223700   1.598   1.286   3.628
 7601SOL     OW23701   3.437   5.337   1.795
 7601SOL    HW123702   3.429   5.382   1.884
 7601SOL    HW223703   3.404   5.243   1.801
 7602SOL     OW23704   0.423   2.782   0.148
 7602SOL    HW123705   0.329   2.747   0.146
 7602SOL    HW223706   0.475   2.745   0.071
 7603SOL     OW23707   2.474   0.053   5.781
 7603SOL    HW123708   2.516   0.006   5.859
 7603SOL    HW223709   2.388   0.009   5.758
 7604SOL     OW23710   1.423   2.234   5.077
 7604SOL    HW123711   1.443   2.147   5.122
 7604SOL    HW223712   1.364   2.217   4.998
 7605SOL     OW23713   1.243   0.458   0.277
 7605SOL    HW123714   1.268   0.404   0.357
 7605SOL    HW223715   1.153   0.498   0.291
 7606SOL     OW23716   5.965   2.036   4.670
 7606SOL    HW123717   5.988   2.025   4.767
 7606SOL    HW223718   5.934   2.130   4.654
 7607SOL     OW23719   3.335   6.256   0.545
 7607SOL    HW123720   3.237   6.275   0.551
 7607SOL    HW223721   3.357   6.227   0.452
 7608SOL     OW23722   5.517   2.507   6.343
 7608SOL    HW123723   5.551   2.453   6.420
 7608SOL    HW223724   5.593   2.554   6.299
 7609SOL     OW23725   0.383   3.364   4.041
 7609SOL    HW123726   0.438   3.446   4.023
 7609SOL    HW223727   0.386   3.305   3.960
 7610SOL     OW23728   3.569   5.304   6.830
 7610SOL    HW123729   3.563   5.359   6.747
 7610SOL    HW223730   3.523   5.217   6.816
 7611SOL     OW23731   4.884   3.148   1.239
 7611SOL    HW123732   4.840   3.190   1.319
 7611SOL    HW223733   4.826   3.074   1.205
 7612SOL     OW23734   3.688   1.923   3.152
 7612SOL    HW123735   3.683   1.827   3.127
 7612SOL    HW223736   3.641   1.938   3.240
 7613SOL     OW23737   1.075   2.233   2.050
 7613SOL    HW123738   1.125   2.271   2.128
 7613SOL    HW223739   1.002   2.295   2.023
 7614SOL     OW23740   5.094   3.269   0.584
 7614SOL    HW123741   5.112   3.220   0.669
 7614SOL    HW223742   5.066   3.363   0.605
 7615SOL     OW23743   5.693   3.823   5.489
 7615SOL    HW123744   5.767   3.816   5.423
 7615SOL    HW223745   5.677   3.734   5.531
 7616SOL     OW23746   5.997   6.968   3.396
 7616SOL    HW123747   6.083   6.935   3.434
 7616SOL    HW223748   6.016   0.008   3.324
 7617SOL     OW23749   5.063   4.803   3.162
 7617SOL    HW123750   5.063   4.762   3.253
 7617SOL    HW223751   5.104   4.894   3.166
 7618SOL     OW23752   1.740   2.822   0.229
 7618SOL    HW123753   1.705   2.914   0.211
 7618SOL    HW223754   1.809   2.826   0.301
 7619SOL     OW23755   0.079   2.691   4.203
 7619SOL    HW123756   0.123   2.603   4.190
 7619SOL    HW223757   0.054   2.729   4.113
 7620SOL     OW23758   3.575   4.366   0.321
 7620SOL    HW123759   3.657   4.334   0.367
 7620SOL    HW223760   3.567   4.320   0.232
 7621SOL     OW23761   0.210   5.761   1.037
 7621SOL    HW123762   0.280   5.727   0.974
 7621SOL    HW223763   0.168   5.844   1.000
 7622SOL     OW23764   4.307   4.200   0.217
 7622SOL    HW123765   4.208   4.200   0.203
 7622SOL    HW223766   4.353   4.217   0.130
 7623SOL     OW23767   4.389   4.636   1.605
 7623SOL    HW123768   4.473   4.611   1.557
 7623SOL    HW223769   4.345   4.554   1.642
 7624SOL     OW23770   0.402   2.538   2.550
 7624SOL    HW123771   0.403   2.537   2.650
 7624SOL    HW223772   0.384   2.631   2.517
 7625SOL     OW23773   5.590   1.453   0.273
 7625SOL    HW123774   5.675   1.443   0.323
 7625SOL    HW223775   5.513   1.434   0.334
 7626SOL     OW23776   6.254   0.777   5.949
 7626SOL    HW123777   6.305   0.708   5.897
 7626SOL    HW223778   6.297   0.790   6.038
 7627SOL     OW23779   3.502   2.077   0.026
 7627SOL    HW123780   3.427   2.015   0.048
 7627SOL    HW223781   3.541   2.052   6.965
 7628SOL     OW23782   3.723   2.997   0.829
 7628SOL    HW123783   3.725   3.066   0.902
 7628SOL    HW223784   3.717   3.043   0.741
 7629SOL     OW23785   5.843   3.551   3.767
 7629SOL    HW123786   5.744   3.542   3.763
 7629SOL    HW223787   5.885   3.460   3.768
 7630SOL     OW23788   1.182   0.000   5.586
 7630SOL    HW123789   1.235   0.009   5.502
 7630SOL    HW223790   1.226   0.054   5.659
 7631SOL     OW23791   2.059   6.780   5.096
 7631SOL    HW123792   1.983   6.728   5.134
 7631SOL    HW223793   2.027   6.839   5.022
 7632SOL     OW23794   4.339   5.258   1.496
 7632SOL    HW123795   4.429   5.255   1.454
 7632SOL    HW223796   4.301   5.165   1.499
 7633SOL     OW23797   5.863   0.129   1.806
 7633SOL    HW123798   5.910   0.047   1.773
 7633SOL    HW223799   5.786   0.150   1.746
 7634SOL     OW23800   1.297   2.164   1.054
 7634SOL    HW123801   1.273   2.069   1.074
 7634SOL    HW223802   1.372   2.193   1.114
 7635SOL     OW23803   2.589   4.983   4.591
 7635SOL    HW123804   2.527   4.924   4.538
 7635SOL    HW223805   2.682   4.948   4.583
 7636SOL     OW23806   0.335   4.481   4.621
 7636SOL    HW123807   0.323   4.395   4.671
 7636SOL    HW223808   0.428   4.487   4.587
 7637SOL     OW23809   0.749   6.148   3.736
 7637SOL    HW123810   0.654   6.141   3.768
 7637SOL    HW223811   0.775   6.063   3.691
 7638SOL     OW23812   0.758   5.463   1.962
 7638SOL    HW123813   0.759   5.461   2.062
 7638SOL    HW223814   0.843   5.422   1.927
 7639SOL     OW23815   0.004   0.816   0.058
 7639SOL    HW123816   0.041   0.732   0.098
 7639SOL    HW223817   0.039   0.826   6.991
 7640SOL     OW23818   3.289   1.781   6.746
 7640SOL    HW123819   3.388   1.763   6.749
 7640SOL    HW223820   3.265   1.822   6.658
 7641SOL     OW23821   6.933   3.798   2.979
 7641SOL    HW123822   6.955   3.803   3.077
 7641SOL    HW223823   7.016   3.781   2.927
 7642SOL     OW23824   5.984   1.184   2.931
 7642SOL    HW123825   6.009   1.193   3.028
 7642SOL    HW223826   5.914   1.252   2.909
 7643SOL     OW23827   5.330   1.973   3.087
 7643SOL    HW123828   5.410   1.921   3.117
 7643SOL    HW223829   5.251   1.912   3.080
 7644SOL     OW23830   4.915   3.120   2.200
 7644SOL    HW123831   4.864   3.063   2.135
 7644SOL    HW223832   4.945   3.064   2.277
 7645SOL     OW23833   3.557   3.955   5.673
 7645SOL    HW123834   3.581   3.947   5.576
 7645SOL    HW223835   3.481   4.019   5.683
 7646SOL     OW23836   1.001   2.733   2.933
 7646SOL    HW123837   0.999   2.685   2.845
 7646SOL    HW223838   1.041   2.824   2.921
 7647SOL     OW23839   0.173   2.788   4.445
 7647SOL    HW123840   0.177   2.888   4.440
 7647SOL    HW223841   0.121   2.752   4.367
 7648SOL     OW23842   2.172   2.309   3.115
 7648SOL    HW123843   2.139   2.217   3.135
 7648SOL    HW223844   2.100   2.375   3.133
 7649SOL     OW23845   0.339   1.116   4.989
 7649SOL    HW123846   0.404   1.043   5.010
 7649SOL    HW223847   0.350   1.190   5.055
 7650SOL     OW23848   4.418   1.128   1.233
 7650SOL    HW123849   4.363   1.093   1.157
 7650SOL    HW223850   4.360   1.177   1.297
 7651SOL     OW23851   2.440   5.167   4.813
 7651SOL    HW123852   2.426   5.068   4.808
 7651SOL    HW223853   2.471   5.201   4.724
 7652SOL     OW23854   6.191   2.227   4.814
 7652SOL    HW123855   6.195   2.153   4.881
 7652SOL    HW223856   6.097   2.261   4.807
 7653SOL     OW23857   0.792   1.469   6.749
 7653SOL    HW123858   0.821   1.407   6.676
 7653SOL    HW223859   0.821   1.562   6.728
 7654SOL     OW23860   5.764   2.624   4.653
 7654SOL    HW123861   5.708   2.560   4.705
 7654SOL    HW223862   5.742   2.616   4.556
 7655SOL     OW23863   3.421   0.354   3.654
 7655SOL    HW123864   3.389   0.436   3.606
 7655SOL    HW223865   3.503   0.376   3.706
 7656SOL     OW23866   6.137   3.543   6.066
 7656SOL    HW123867   6.063   3.599   6.104
 7656SOL    HW223868   6.115   3.446   6.078
 7657SOL     OW23869   1.526   3.974   4.375
 7657SOL    HW123870   1.449   3.919   4.344
 7657SOL    HW223871   1.601   3.968   4.309
 7658SOL     OW23872   2.736   1.026   0.496
 7658SOL    HW123873   2.752   1.054   0.591
 7658SOL    HW223874   2.804   0.958   0.470
 7659SOL     OW23875   4.679   4.212   5.683
 7659SOL    HW123876   4.643   4.239   5.773
 7659SOL    HW223877   4.733   4.128   5.692
 7660SOL     OW23878   6.927   5.460   5.053
 7660SOL    HW123879   6.911   5.362   5.066
 7660SOL    HW223880   6.922   5.483   4.956
 7661SOL     OW23881   4.777   2.027   6.359
 7661SOL    HW123882   4.737   2.089   6.426
 7661SOL    HW223883   4.787   2.075   6.272
 7662SOL     OW23884   1.078   1.906   2.593
 7662SOL    HW123885   1.162   1.934   2.639
 7662SOL    HW223886   1.001   1.958   2.628
 7663SOL     OW23887   5.924   5.993   5.753
 7663SOL    HW123888   5.918   6.026   5.847
 7663SOL    HW223889   5.833   5.962   5.722
 7664SOL     OW23890   4.322   0.889   2.954
 7664SOL    HW123891   4.389   0.940   3.009
 7664SOL    HW223892   4.230   0.920   2.977
 7665SOL     OW23893   5.496   2.442   3.850
 7665SOL    HW123894   5.442   2.435   3.766
 7665SOL    HW223895   5.585   2.399   3.836
 7666SOL     OW23896   6.499   6.053   3.890
 7666SOL    HW123897   6.543   6.026   3.975
 7666SOL    HW223898   6.485   6.152   3.890
 7667SOL     OW23899   4.818   6.626   2.315
 7667SOL    HW123900   4.746   6.580   2.262
 7667SOL    HW223901   4.788   6.719   2.338
 7668SOL     OW23902   2.581   5.181   1.299
 7668SOL    HW123903   2.592   5.276   1.267
 7668SOL    HW223904   2.485   5.166   1.322
 7669SOL     OW23905   3.890   0.020   6.021
 7669SOL    HW123906   3.882   0.115   5.989
 7669SOL    HW223907   3.978   0.007   6.067
 7670SOL     OW23908   0.625   6.692   0.276
 7670SOL    HW123909   0.526   6.708   0.277
 7670SOL    HW223910   0.653   6.662   0.185
 7671SOL     OW23911   5.306   6.853   2.231
 7671SOL    HW123912   5.337   6.939   2.191
 7671SOL    HW223913   5.210   6.862   2.257
 7672SOL     OW23914   6.527   4.448   3.124
 7672SOL    HW123915   6.448   4.445   3.063
 7672SOL    HW223916   6.609   4.421   3.073
 7673SOL     OW23917   1.293   5.440   2.910
 7673SOL    HW123918   1.350   5.498   2.968
 7673SOL    HW223919   1.271   5.488   2.825
 7674SOL     OW23920   4.091   0.900   4.427
 7674SOL    HW123921   4.056   0.809   4.445
 7674SOL    HW223922   4.088   0.955   4.511
 7675SOL     OW23923   3.498   6.490   3.620
 7675SOL    HW123924   3.512   6.571   3.563
 7675SOL    HW223925   3.408   6.451   3.599
 7676SOL     OW23926   3.231   2.841   5.996
 7676SOL    HW123927   3.257   2.754   6.037
 7676SOL    HW223928   3.186   2.898   6.064
 7677SOL     OW23929   6.909   5.105   1.486
 7677SOL    HW123930   6.996   5.124   1.531
 7677SOL    HW223931   6.919   5.025   1.426
 7678SOL     OW23932   1.508   2.283   5.539
 7678SOL    HW123933   1.601   2.258   5.512
 7678SOL    HW223934   1.467   2.209   5.592
 7679SOL     OW23935   2.049   5.021   5.533
 7679SOL    HW123936   1.994   5.044   5.614
 7679SOL    HW223937   2.064   5.104   5.479
 7680SOL     OW23938   1.328   0.083   5.365
 7680SOL    HW123939   1.243   0.092   5.314
 7680SOL    HW223940   1.340   0.163   5.424
 7681SOL     OW23941   2.924   2.343   6.527
 7681SOL    HW123942   2.909   2.423   6.585
 7681SOL    HW223943   2.970   2.271   6.580
 7682SOL     OW23944   3.238   1.786   2.789
 7682SOL    HW123945   3.332   1.794   2.822
 7682SOL    HW223946   3.182   1.859   2.827
 7683SOL     OW23947   0.348   1.091   4.516
 7683SOL    HW123948   0.430   1.040   4.542
 7683SOL    HW223949   0.298   1.040   4.446
 7684SOL     OW23950   4.093   1.834   1.778
 7684SOL    HW123951   4.070   1.759   1.715
 7684SOL    HW223952   4.010   1.880   1.807
 7685SOL     OW23953   3.737   1.398   6.798
 7685SOL    HW123954   3.814   1.458   6.819
 7685SOL    HW223955   3.768   1.303   6.797
 7686SOL     OW23956   4.567   0.348   4.951
 7686SOL    HW123957   4.595   0.321   4.858
 7686SOL    HW223958   4.607   0.437   4.972
 7687SOL     OW23959   5.044   5.533   4.918
 7687SOL    HW123960   5.020   5.437   4.932
 7687SOL    HW223961   5.085   5.544   4.827
 7688SOL     OW23962   0.369   5.276   5.730
 7688SOL    HW123963   0.285   5.224   5.745
 7688SOL    HW223964   0.449   5.219   5.752
 7689SOL     OW23965   4.677   0.695   1.906
 7689SOL    HW123966   4.612   0.708   1.831
 7689SOL    HW223967   4.757   0.753   1.892
 7690SOL     OW23968   5.616   4.991   0.489
 7690SOL    HW123969   5.710   4.987   0.455
 7690SOL    HW223970   5.609   4.938   0.574
 7691SOL     OW23971   4.556   4.831   2.246
 7691SOL    HW123972   4.494   4.760   2.214
 7691SOL    HW223973   4.570   4.822   2.344
 7692SOL     OW23974   0.870   6.311   1.289
 7692SOL    HW123975   0.910   6.226   1.257
 7692SOL    HW223976   0.943   6.373   1.318
 7693SOL     OW23977   3.101   0.951   0.692
 7693SOL    HW123978   3.138   0.866   0.728
 7693SOL    HW223979   3.171   0.998   0.638
 7694SOL     OW23980   5.679   2.440   4.403
 7694SOL    HW123981   5.672   2.404   4.497
 7694SOL    HW223982   5.646   2.371   4.339
 7695SOL     OW23983   6.216   6.616   2.889
 7695SOL    HW123984   6.197   6.714   2.879
 7695SOL    HW223985   6.224   6.594   2.986
 7696SOL     OW23986   0.518   1.970   6.036
 7696SOL    HW123987   0.582   2.038   5.999
 7696SOL    HW223988   0.570   1.894   6.075
 7697SOL     OW23989   3.508   0.088   3.024
 7697SOL    HW123990   3.581   0.032   2.986
 7697SOL    HW223991   3.479   0.050   3.112
 7698SOL     OW23992   6.103   2.554   6.519
 7698SOL    HW123993   6.176   2.615   6.549
 7698SOL    HW223994   6.017   2.605   6.512
 7699SOL     OW23995   2.595   5.416   6.882
 7699SOL    HW123996   2.638   5.337   6.839
 7699SOL    HW223997   2.560   5.478   6.811
 7700SOL     OW23998   4.378   5.941   3.195
 7700SOL    HW123999   4.462   5.976   3.153
 7700SOL    HW224000   4.402   5.870   3.261
 7701SOL     OW24001   0.065   1.789   6.100
 7701SOL    HW124002   0.077   1.693   6.074
 7701SOL    HW224003   0.154   1.831   6.114
 7702SOL     OW24004   4.834   0.168   5.927
 7702SOL    HW124005   4.845   0.094   5.994
 7702SOL    HW224006   4.757   0.226   5.955
 7703SOL     OW24007   6.385   0.402   4.954
 7703SOL    HW124008   6.450   0.398   4.878
 7703SOL    HW224009   6.419   0.465   5.024
 7704SOL     OW24010   6.863   1.518   4.195
 7704SOL    HW124011   6.827   1.520   4.102
 7704SOL    HW224012   6.798   1.561   4.257
 7705SOL     OW24013   2.582   5.091   0.402
 7705SOL    HW124014   2.633   5.005   0.394
 7705SOL    HW224015   2.501   5.086   0.344
 7706SOL     OW24016   3.545   2.944   3.504
 7706SOL    HW124017   3.519   2.968   3.598
 7706SOL    HW224018   3.585   3.024   3.459
 7707SOL     OW24019   6.786   5.527   0.069
 7707SOL    HW124020   6.825   5.583   7.023
 7707SOL    HW224021   6.786   5.578   0.155
 7708SOL     OW24022   1.965   0.225   4.164
 7708SOL    HW124023   2.061   0.207   4.188
 7708SOL    HW224024   1.962   0.292   4.090
 7709SOL     OW24025   6.739   5.184   1.179
 7709SOL    HW124026   6.807   5.249   1.213
 7709SOL    HW224027   6.690   5.224   1.102
 7710SOL     OW24028   1.734   2.848   0.708
 7710SOL    HW124029   1.686   2.858   0.795
 7710SOL    HW224030   1.698   2.914   0.642
 7711SOL     OW24031   6.244   5.395   5.534
 7711SOL    HW124032   6.174   5.426   5.470
 7711SOL    HW224033   6.241   5.295   5.540
 7712SOL     OW24034   6.368   4.643   6.307
 7712SOL    HW124035   6.387   4.551   6.343
 7712SOL    HW224036   6.354   4.706   6.383
 7713SOL     OW24037   1.707   4.535   1.024
 7713SOL    HW124038   1.758   4.618   1.047
 7713SOL    HW224039   1.622   4.560   0.977
 7714SOL     OW24040   6.662   0.388   4.402
 7714SOL    HW124041   6.597   0.391   4.478
 7714SOL    HW224042   6.646   0.307   4.347
 7715SOL     OW24043   2.089   2.788   6.111
 7715SOL    HW124044   2.130   2.784   6.202
 7715SOL    HW224045   2.145   2.735   6.048
 7716SOL     OW24046   0.789   5.016   6.760
 7716SOL    HW124047   0.846   5.034   6.680
 7716SOL    HW224048   0.698   5.053   6.745
 7717SOL     OW24049   1.222   2.342   5.854
 7717SOL    HW124050   1.243   2.244   5.850
 7717SOL    HW224051   1.275   2.384   5.927
 7718SOL     OW24052   0.691   3.400   2.462
 7718SOL    HW124053   0.698   3.499   2.474
 7718SOL    HW224054   0.627   3.380   2.388
 7719SOL     OW24055   1.584   4.445   4.866
 7719SOL    HW124056   1.576   4.353   4.905
 7719SOL    HW224057   1.634   4.440   4.779
 7720SOL     OW24058   6.184   2.148   6.154
 7720SOL    HW124059   6.180   2.241   6.189
 7720SOL    HW224060   6.091   2.112   6.144
 7721SOL     OW24061   1.448   0.459   2.525
 7721SOL    HW124062   1.506   0.449   2.444
 7721SOL    HW224063   1.410   0.370   2.549
 7722SOL     OW24064   2.235   4.997   3.935
 7722SOL    HW124065   2.156   5.044   3.975
 7722SOL    HW224066   2.247   5.026   3.840
 7723SOL     OW24067   5.088   3.080   6.752
 7723SOL    HW124068   4.988   3.076   6.755
 7723SOL    HW224069   5.124   3.062   6.844
 7724SOL     OW24070   3.192   4.130   1.154
 7724SOL    HW124071   3.150   4.048   1.116
 7724SOL    HW224072   3.292   4.121   1.152
 7725SOL     OW24073   5.819   2.724   2.497
 7725SOL    HW124074   5.874   2.697   2.418
 7725SOL    HW224075   5.744   2.783   2.468
 7726SOL     OW24076   0.994   3.134   6.234
 7726SOL    HW124077   1.063   3.144   6.306
 7726SOL    HW224078   0.943   3.049   6.248
 7727SOL     OW24079   4.990   2.316   1.755
 7727SOL    HW124080   4.955   2.225   1.774
 7727SOL    HW224081   4.919   2.371   1.711
 7728SOL     OW24082   2.178   2.949   5.231
 7728SOL    HW124083   2.263   2.971   5.184
 7728SOL    HW224084   2.155   3.022   5.295
 7729SOL     OW24085   6.207   1.686   2.313
 7729SOL    HW124086   6.164   1.597   2.330
 7729SOL    HW224087   6.236   1.692   2.217
 7730SOL     OW24088   5.642   4.427   5.372
 7730SOL    HW124089   5.720   4.477   5.410
 7730SOL    HW224090   5.582   4.490   5.323
 7731SOL     OW24091   5.944   0.213   0.496
 7731SOL    HW124092   5.851   0.247   0.480
 7731SOL    HW224093   5.962   0.209   0.594
 7732SOL     OW24094   4.411   0.169   6.981
 7732SOL    HW124095   4.492   0.225   7.001
 7732SOL    HW224096   4.383   0.183   6.886
 7733SOL     OW24097   6.677   5.552   2.754
 7733SOL    HW124098   6.736   5.555   2.835
 7733SOL    HW224099   6.695   5.631   2.696
 7734SOL     OW24100   2.514   4.503   5.103
 7734SOL    HW124101   2.612   4.522   5.098
 7734SOL    HW224102   2.486   4.454   5.020
 7735SOL     OW24103   6.526   6.214   0.322
 7735SOL    HW124104   6.573   6.173   0.400
 7735SOL    HW224105   6.448   6.157   0.296
 7736SOL     OW24106   2.724   2.753   0.761
 7736SOL    HW124107   2.685   2.736   0.851
 7736SOL    HW224108   2.815   2.711   0.756
 7737SOL     OW24109   3.938   5.235   1.611
 7737SOL    HW124110   3.838   5.227   1.609
 7737SOL    HW224111   3.963   5.323   1.651
 7738SOL     OW24112   2.838   6.093   6.522
 7738SOL    HW124113   2.777   6.107   6.600
 7738SOL    HW224114   2.933   6.109   6.550
 7739SOL     OW24115   1.288   2.643   1.926
 7739SOL    HW124116   1.219   2.706   1.889
 7739SOL    HW224117   1.278   2.638   2.026
 7740SOL     OW24118   1.651   1.067   2.762
 7740SOL    HW124119   1.707   1.016   2.827
 7740SOL    HW224120   1.667   1.165   2.774
 7741SOL     OW24121   1.724   4.666   5.513
 7741SOL    HW124122   1.763   4.743   5.463
 7741SOL    HW224123   1.796   4.601   5.538
 7742SOL     OW24124   4.423   1.442   3.802
 7742SOL    HW124125   4.369   1.520   3.832
 7742SOL    HW224126   4.440   1.381   3.879
 7743SOL     OW24127   5.354   1.036   6.612
 7743SOL    HW124128   5.269   1.072   6.650
 7743SOL    HW224129   5.337   1.002   6.519
 7744SOL     OW24130   1.006   5.683   5.189
 7744SOL    HW124131   0.942   5.606   5.186
 7744SOL    HW224132   1.100   5.649   5.194
 7745SOL     OW24133   1.949   6.334   6.990
 7745SOL    HW124134   2.031   6.392   6.990
 7745SOL    HW224135   1.936   6.294   0.054
 7746SOL     OW24136   0.954   6.348   0.891
 7746SOL    HW124137   1.006   6.332   0.975
 7746SOL    HW224138   0.995   6.295   0.816
 7747SOL     OW24139   6.721   6.284   0.762
 7747SOL    HW124140   6.792   6.252   0.825
 7747SOL    HW224141   6.633   6.285   0.809
 7748SOL     OW24142   3.970   3.020   5.236
 7748SOL    HW124143   3.972   2.921   5.248
 7748SOL    HW224144   3.876   3.052   5.241
 7749SOL     OW24145   3.697   3.805   3.334
 7749SOL    HW124146   3.774   3.827   3.394
 7749SOL    HW224147   3.625   3.762   3.388
 7750SOL     OW24148   5.578   5.223   5.969
 7750SOL    HW124149   5.511   5.160   5.930
 7750SOL    HW224150   5.554   5.242   6.065
 7751SOL     OW24151   0.645   1.439   3.527
 7751SOL    HW124152   0.713   1.401   3.588
 7751SOL    HW224153   0.557   1.444   3.574
 7752SOL     OW24154   5.353   5.145   5.419
 7752SOL    HW124155   5.349   5.221   5.354
 7752SOL    HW224156   5.427   5.161   5.485
 7753SOL     OW24157   2.739   0.389   4.637
 7753SOL    HW124158   2.818   0.328   4.629
 7753SOL    HW224159   2.655   0.336   4.624
 7754SOL     OW24160   5.801   0.619   0.789
 7754SOL    HW124161   5.890   0.578   0.768
 7754SOL    HW224162   5.740   0.607   0.710
 7755SOL     OW24163   0.344   6.405   5.697
 7755SOL    HW124164   0.246   6.418   5.679
 7755SOL    HW224165   0.362   6.424   5.794
 7756SOL     OW24166   2.585   5.915   2.174
 7756SOL    HW124167   2.533   5.835   2.145
 7756SOL    HW224168   2.541   5.957   2.253
 7757SOL     OW24169   4.633   6.087   5.009
 7757SOL    HW124170   4.664   6.037   5.089
 7757SOL    HW224171   4.615   6.182   5.033
 7758SOL     OW24172   2.098   2.447   6.123
 7758SOL    HW124173   2.051   2.410   6.044
 7758SOL    HW224174   2.056   2.413   6.207
 7759SOL     OW24175   2.026   0.349   4.942
 7759SOL    HW124176   1.947   0.328   4.998
 7759SOL    HW224177   2.069   0.433   4.975
 7760SOL     OW24178   5.922   2.801   1.934
 7760SOL    HW124179   5.914   2.825   2.031
 7760SOL    HW224180   6.002   2.846   1.895
 7761SOL     OW24181   3.072   0.000   6.061
 7761SOL    HW124182   3.110   6.935   6.068
 7761SOL    HW224183   3.098   0.053   6.142
 7762SOL     OW24184   4.056   0.954   6.359
 7762SOL    HW124185   4.107   0.988   6.280
 7762SOL    HW224186   4.008   1.030   6.403
 7763SOL     OW24187   1.297   1.939   0.759
 7763SOL    HW124188   1.357   1.992   0.699
 7763SOL    HW224189   1.202   1.949   0.730
 7764SOL     OW24190   3.870   3.302   2.586
 7764SOL    HW124191   3.792   3.287   2.525
 7764SOL    HW224192   3.861   3.392   2.630
 7765SOL     OW24193   6.815   3.673   4.214
 7765SOL    HW124194   6.792   3.585   4.257
 7765SOL    HW224195   6.731   3.725   4.198
 7766SOL     OW24196   5.623   1.656   6.879
 7766SOL    HW124197   5.558   1.580   6.878
 7766SOL    HW224198   5.687   1.645   6.954
 7767SOL     OW24199   3.724   5.977   3.643
 7767SOL    HW124200   3.791   5.962   3.571
 7767SOL    HW224201   3.674   5.892   3.660
 7768SOL     OW24202   3.530   5.070   2.687
 7768SOL    HW124203   3.514   5.052   2.784
 7768SOL    HW224204   3.444   5.098   2.644
 7769SOL     OW24205   4.345   1.543   1.815
 7769SOL    HW124206   4.409   1.612   1.781
 7769SOL    HW224207   4.251   1.578   1.808
 7770SOL     OW24208   2.573   4.761   2.105
 7770SOL    HW124209   2.652   4.705   2.081
 7770SOL    HW224210   2.519   4.714   2.175
 7771SOL     OW24211   2.727   2.405   4.440
 7771SOL    HW124212   2.782   2.408   4.523
 7771SOL    HW224213   2.781   2.365   4.366
 7772SOL     OW24214   5.327   1.208   3.394
 7772SOL    HW124215   5.368   1.299   3.402
 7772SOL    HW224216   5.262   1.195   3.469
 7773SOL     OW24217   3.799   4.505   6.492
 7773SOL    HW124218   3.775   4.587   6.440
 7773SOL    HW224219   3.742   4.428   6.462
 7774SOL     OW24220   5.488   1.608   5.754
 7774SOL    HW124221   5.525   1.595   5.662
 7774SOL    HW224222   5.564   1.618   5.819
 7775SOL     OW24223   3.264   6.324   3.527
 7775SOL    HW124224   3.323   6.245   3.536
 7775SOL    HW224225   3.184   6.314   3.587
 7776SOL     OW24226   3.241   3.343   5.911
 7776SOL    HW124227   3.278   3.296   5.831
 7776SOL    HW224228   3.312   3.402   5.951
 7777SOL     OW24229   2.499   1.493   5.689
 7777SOL    HW124230   2.498   1.400   5.726
 7777SOL    HW224231   2.539   1.492   5.597
 7778SOL     OW24232   5.755   0.375   0.355
 7778SOL    HW124233   5.658   0.351   0.356
 7778SOL    HW224234   5.775   0.439   0.430
 7779SOL     OW24235   3.395   2.953   0.393
 7779SOL    HW124236   3.483   2.909   0.411
 7779SOL    HW224237   3.382   3.029   0.457
 7780SOL     OW24238   1.485   6.109   4.365
 7780SOL    HW124239   1.526   6.017   4.367
 7780SOL    HW224240   1.487   6.145   4.272
 7781SOL     OW24241   1.448   3.987   5.922
 7781SOL    HW124242   1.407   3.950   6.006
 7781SOL    HW224243   1.503   3.916   5.878
 7782SOL     OW24244   1.732   4.137   5.957
 7782SOL    HW124245   1.795   4.134   5.880
 7782SOL    HW224246   1.644   4.175   5.928
 7783SOL     OW24247   2.747   6.670   6.046
 7783SOL    HW124248   2.843   6.646   6.027
 7783SOL    HW224249   2.727   6.651   6.142
 7784SOL     OW24250   1.190   3.576   6.941
 7784SOL    HW124251   1.190   3.481   6.972
 7784SOL    HW224252   1.223   3.635   7.014
 7785SOL     OW24253   2.094   6.669   4.129
 7785SOL    HW124254   2.148   6.732   4.185
 7785SOL    HW224255   2.154   6.624   4.062
 7786SOL     OW24256   3.112   4.739   5.199
 7786SOL    HW124257   3.156   4.710   5.284
 7786SOL    HW224258   3.030   4.685   5.183
 7787SOL     OW24259   2.326   2.703   5.246
 7787SOL    HW124260   2.336   2.703   5.147
 7787SOL    HW224261   2.273   2.782   5.275
 7788SOL     OW24262   1.809   1.480   1.518
 7788SOL    HW124263   1.751   1.506   1.441
 7788SOL    HW224264   1.763   1.501   1.604
 7789SOL     OW24265   2.378   0.227   0.836
 7789SOL    HW124266   2.423   0.143   0.865
 7789SOL    HW224267   2.317   0.259   0.908
 7790SOL     OW24268   6.371   4.560   3.303
 7790SOL    HW124269   6.410   4.553   3.395
 7790SOL    HW224270   6.436   4.524   3.236
 7791SOL     OW24271   2.632   5.925   4.487
 7791SOL    HW124272   2.599   5.977   4.567
 7791SOL    HW224273   2.702   5.861   4.517
 7792SOL     OW24274   1.858   5.093   6.328
 7792SOL    HW124275   1.906   5.027   6.270
 7792SOL    HW224276   1.803   5.154   6.270
 7793SOL     OW24277   1.991   1.272   5.387
 7793SOL    HW124278   2.072   1.306   5.339
 7793SOL    HW224279   1.910   1.286   5.330
 7794SOL     OW24280   5.050   5.007   4.447
 7794SOL    HW124281   4.964   4.982   4.490
 7794SOL    HW224282   5.116   5.032   4.518
 7795SOL     OW24283   2.068   4.016   5.097
 7795SOL    HW124284   2.144   3.974   5.047
 7795SOL    HW224285   2.104   4.079   5.166
 7796SOL     OW24286   3.226   4.019   3.580
 7796SOL    HW124287   3.228   4.104   3.527
 7796SOL    HW224288   3.314   3.972   3.570
 7797SOL     OW24289   0.214   5.634   3.531
 7797SOL    HW124290   0.190   5.728   3.509
 7797SOL    HW224291   0.307   5.631   3.568
 7798SOL     OW24292   2.849   5.271   0.061
 7798SOL    HW124293   2.934   5.320   0.078
 7798SOL    HW224294   2.794   5.320   7.020
 7799SOL     OW24295   6.459   5.539   1.581
 7799SOL    HW124296   6.393   5.473   1.547
 7799SOL    HW224297   6.450   5.626   1.532
 7800SOL     OW24298   0.483   4.350   1.518
 7800SOL    HW124299   0.501   4.323   1.613
 7800SOL    HW224300   0.510   4.446   1.506
 7801SOL     OW24301   2.071   1.784   1.018
 7801SOL    HW124302   2.153   1.840   1.007
 7801SOL    HW224303   2.069   1.746   1.110
 7802SOL     OW24304   6.210   3.019   1.217
 7802SOL    HW124305   6.182   2.975   1.303
 7802SOL    HW224306   6.306   2.997   1.198
 7803SOL     OW24307   4.209   3.509   5.666
 7803SOL    HW124308   4.200   3.455   5.582
 7803SOL    HW224309   4.282   3.576   5.654
 7804SOL     OW24310   6.341   1.086   4.089
 7804SOL    HW124311   6.285   1.006   4.111
 7804SOL    HW224312   6.419   1.089   4.152
 7805SOL     OW24313   5.423   2.403   0.851
 7805SOL    HW124314   5.384   2.493   0.875
 7805SOL    HW224315   5.443   2.353   0.935
 7806SOL     OW24316   5.625   3.163   6.043
 7806SOL    HW124317   5.546   3.214   6.078
 7806SOL    HW224318   5.596   3.072   6.014
 7807SOL     OW24319   6.983   5.086   6.302
 7807SOL    HW124320   6.886   5.085   6.279
 7807SOL    HW224321   0.001   5.008   6.258
 7808SOL     OW24322   0.533   2.545   4.896
 7808SOL    HW124323   0.630   2.533   4.914
 7808SOL    HW224324   0.516   2.636   4.857
 7809SOL     OW24325   2.187   5.909   5.204
 7809SOL    HW124326   2.261   5.906   5.136
 7809SOL    HW224327   2.224   5.938   5.292
 7810SOL     OW24328   3.072   0.772   5.445
 7810SOL    HW124329   3.026   0.842   5.389
 7810SOL    HW224330   3.011   0.693   5.454
 7811SOL     OW24331   6.239   4.366   4.221
 7811SOL    HW124332   6.194   4.328   4.302
 7811SOL    HW224333   6.266   4.293   4.160
 7812SOL     OW24334   1.482   1.674   3.911
 7812SOL    HW124335   1.419   1.608   3.953
 7812SOL    HW224336   1.565   1.680   3.967
 7813SOL     OW24337   4.943   2.612   6.229
 7813SOL    HW124338   5.035   2.636   6.262
 7813SOL    HW224339   4.950   2.537   6.162
 7814SOL     OW24340   0.244   1.906   3.236
 7814SOL    HW124341   0.262   1.949   3.325
 7814SOL    HW224342   0.166   1.951   3.193
 7815SOL     OW24343   4.830   1.393   6.587
 7815SOL    HW124344   4.915   1.445   6.598
 7815SOL    HW224345   4.767   1.417   6.660
 7816SOL     OW24346   1.619   2.980   6.002
 7816SOL    HW124347   1.524   2.989   5.975
 7816SOL    HW224348   1.657   3.071   6.021
 7817SOL     OW24349   6.435   3.378   4.084
 7817SOL    HW124350   6.517   3.356   4.137
 7817SOL    HW224351   6.378   3.442   4.136
 7818SOL     OW24352   5.422   0.391   2.216
 7818SOL    HW124353   5.377   0.304   2.196
 7818SOL    HW224354   5.367   0.466   2.178
 7819SOL     OW24355   0.449   3.153   1.715
 7819SOL    HW124356   0.482   3.064   1.746
 7819SOL    HW224357   0.349   3.150   1.707
 7820SOL     OW24358   1.651   2.173   4.903
 7820SOL    HW124359   1.682   2.260   4.942
 7820SOL    HW224360   1.551   2.171   4.905
 7821SOL     OW24361   4.240   5.621   1.191
 7821SOL    HW124362   4.204   5.714   1.201
 7821SOL    HW224363   4.216   5.585   1.101
 7822SOL     OW24364   0.095   0.316   5.258
 7822SOL    HW124365   0.035   0.237   5.249
 7822SOL    HW224366   0.190   0.286   5.263
 7823SOL     OW24367   2.128   4.193   4.529
 7823SOL    HW124368   2.174   4.182   4.441
 7823SOL    HW224369   2.175   4.137   4.598
 7824SOL     OW24370   6.773   2.747   5.182
 7824SOL    HW124371   6.760   2.650   5.163
 7824SOL    HW224372   6.687   2.788   5.210
 7825SOL     OW24373   2.558   3.209   6.888
 7825SOL    HW124374   2.611   3.131   6.921
 7825SOL    HW224375   2.590   3.235   6.797
 7826SOL     OW24376   0.233   1.383   0.154
 7826SOL    HW124377   0.327   1.373   0.187
 7826SOL    HW224378   0.169   1.359   0.228
 7827SOL     OW24379   0.719   5.727   2.496
 7827SOL    HW124380   0.774   5.693   2.572
 7827SOL    HW224381   0.622   5.717   2.518
 7828SOL     OW24382   6.814   4.257   6.886
 7828SOL    HW124383   6.763   4.248   6.971
 7828SOL    HW224384   6.906   4.220   6.899
 7829SOL     OW24385   3.432   3.139   1.496
 7829SOL    HW124386   3.451   3.149   1.593
 7829SOL    HW224387   3.516   3.153   1.443
 7830SOL     OW24388   3.739   5.394   5.289
 7830SOL    HW124389   3.785   5.308   5.265
 7830SOL    HW224390   3.800   5.471   5.269
 7831SOL     OW24391   1.767   1.252   0.999
 7831SOL    HW124392   1.830   1.179   0.973
 7831SOL    HW224393   1.685   1.247   0.942
 7832SOL     OW24394   5.238   0.637   4.317
 7832SOL    HW124395   5.179   0.633   4.236
 7832SOL    HW224396   5.200   0.578   4.389
 7833SOL     OW24397   1.603   0.434   4.471
 7833SOL    HW124398   1.666   0.474   4.538
 7833SOL    HW224399   1.594   0.336   4.488
 7834SOL     OW24400   0.005   1.422   3.844
 7834SOL    HW124401   0.101   1.439   3.865
 7834SOL    HW224402   6.977   1.502   3.870
 7835SOL     OW24403   3.940   1.899   5.078
 7835SOL    HW124404   3.947   1.992   5.115
 7835SOL    HW224405   4.014   1.843   5.115
 7836SOL     OW24406   3.768   4.200   5.506
 7836SOL    HW124407   3.848   4.162   5.552
 7836SOL    HW224408   3.689   4.196   5.567
 7837SOL     OW24409   5.466   6.337   6.930
 7837SOL    HW124410   5.524   6.338   6.848
 7837SOL    HW224411   5.511   6.283   7.002
 7838SOL     OW24412   4.884   4.860   1.442
 7838SOL    HW124413   4.813   4.851   1.373
 7838SOL    HW224414   4.945   4.935   1.416
 7839SOL     OW24415   5.512   4.145   5.040
 7839SOL    HW124416   5.453   4.108   4.969
 7839SOL    HW224417   5.469   4.227   5.079
 7840SOL     OW24418   0.924   4.379   3.826
 7840SOL    HW124419   0.834   4.342   3.805
 7840SOL    HW224420   0.940   4.375   3.924
 7841SOL     OW24421   4.746   2.346   6.273
 7841SOL    HW124422   4.846   2.346   6.269
 7841SOL    HW224423   4.716   2.380   6.362
 7842SOL     OW24424   2.279   1.770   2.337
 7842SOL    HW124425   2.237   1.765   2.247
 7842SOL    HW224426   2.276   1.864   2.370
 7843SOL     OW24427   6.600   0.136   4.277
 7843SOL    HW124428   6.661   0.078   4.224
 7843SOL    HW224429   6.513   0.148   4.228
 7844SOL     OW24430   3.771   0.538   2.187
 7844SOL    HW124431   3.805   0.444   2.183
 7844SOL    HW224432   3.781   0.573   2.280
 7845SOL     OW24433   5.328   2.003   1.191
 7845SOL    HW124434   5.285   1.925   1.145
 7845SOL    HW224435   5.303   2.002   1.288
 7846SOL     OW24436   1.503   2.668   0.566
 7846SOL    HW124437   1.450   2.594   0.526
 7846SOL    HW224438   1.503   2.747   0.505
 7847SOL     OW24439   6.461   1.661   3.294
 7847SOL    HW124440   6.409   1.621   3.369
 7847SOL    HW224441   6.517   1.590   3.251
 7848SOL     OW24442   2.823   4.346   0.959
 7848SOL    HW124443   2.793   4.432   1.001
 7848SOL    HW224444   2.880   4.366   0.880
 7849SOL     OW24445   5.819   3.358   5.205
 7849SOL    HW124446   5.919   3.359   5.204
 7849SOL    HW224447   5.787   3.323   5.293
 7850SOL     OW24448   6.592   1.510   3.565
 7850SOL    HW124449   6.653   1.476   3.493
 7850SOL    HW224450   6.497   1.492   3.540
 7851SOL     OW24451   0.734   3.220   1.848
 7851SOL    HW124452   0.692   3.306   1.822
 7851SOL    HW224453   0.732   3.211   1.948
 7852SOL     OW24454   3.160   1.060   0.191
 7852SOL    HW124455   3.104   1.115   0.253
 7852SOL    HW224456   3.219   1.120   0.137
 7853SOL     OW24457   4.401   3.090   1.697
 7853SOL    HW124458   4.448   3.070   1.783
 7853SOL    HW224459   4.324   3.152   1.714
 7854SOL     OW24460   4.275   2.147   6.088
 7854SOL    HW124461   4.272   2.218   6.158
 7854SOL    HW224462   4.205   2.164   6.019
 7855SOL     OW24463   4.664   6.340   4.336
 7855SOL    HW124464   4.727   6.269   4.305
 7855SOL    HW224465   4.659   6.412   4.267
 7856SOL     OW24466   1.734   4.769   4.981
 7856SOL    HW124467   1.736   4.764   4.881
 7856SOL    HW224468   1.639   4.768   5.012
 7857SOL     OW24469   4.984   3.924   0.628
 7857SOL    HW124470   5.071   3.920   0.579
 7857SOL    HW224471   4.911   3.948   0.565
 7858SOL     OW24472   0.387   5.633   4.727
 7858SOL    HW124473   0.473   5.582   4.726
 7858SOL    HW224474   0.317   5.578   4.773
 7859SOL     OW24475   4.870   3.233   6.545
 7859SOL    HW124476   4.896   3.148   6.500
 7859SOL    HW224477   4.786   3.219   6.598
 7860SOL     OW24478   3.614   1.413   4.230
 7860SOL    HW124479   3.691   1.381   4.285
 7860SOL    HW224480   3.528   1.386   4.274
 7861SOL     OW24481   2.679   5.846   1.879
 7861SOL    HW124482   2.772   5.836   1.843
 7861SOL    HW224483   2.683   5.859   1.979
 7862SOL     OW24484   2.672   5.427   2.214
 7862SOL    HW124485   2.611   5.494   2.258
 7862SOL    HW224486   2.733   5.388   2.282
 7863SOL     OW24487   0.170   4.207   3.263
 7863SOL    HW124488   0.118   4.191   3.179
 7863SOL    HW224489   0.199   4.120   3.301
 7864SOL     OW24490   2.203   6.275   6.748
 7864SOL    HW124491   2.290   6.247   6.706
 7864SOL    HW224492   2.144   6.195   6.755
 7865SOL     OW24493   6.112   6.291   3.688
 7865SOL    HW124494   6.032   6.234   3.707
 7865SOL    HW224495   6.195   6.240   3.712
 7866SOL     OW24496   1.556   0.287   5.121
 7866SOL    HW124497   1.583   0.372   5.165
 7866SOL    HW224498   1.500   0.233   5.184
 7867SOL     OW24499   5.208   7.005   3.771
 7867SOL    HW124500   5.248   6.980   3.860
 7867SOL    HW224501   5.262   6.965   3.698
 7868SOL     OW24502   3.663   5.549   1.183
 7868SOL    HW124503   3.745   5.505   1.221
 7868SOL    HW224504   3.683   5.584   1.092
 7869SOL     OW24505   5.068   4.723   5.360
 7869SOL    HW124506   5.083   4.817   5.330
 7869SOL    HW224507   5.134   4.700   5.431
 7870SOL     OW24508   4.838   0.196   5.533
 7870SOL    HW124509   4.831   0.285   5.578
 7870SOL    HW224510   4.787   0.127   5.585
 7871SOL     OW24511   5.138   1.245   2.046
 7871SOL    HW124512   5.055   1.285   2.086
 7871SOL    HW224513   5.187   1.316   1.994
 7872SOL     OW24514   1.934   4.715   2.737
 7872SOL    HW124515   1.961   4.705   2.833
 7872SOL    HW224516   1.997   4.663   2.679
 7873SOL     OW24517   6.389   1.315   1.164
 7873SOL    HW124518   6.420   1.220   1.155
 7873SOL    HW224519   6.461   1.370   1.206
 7874SOL     OW24520   5.698   2.818   0.932
 7874SOL    HW124521   5.713   2.917   0.937
 7874SOL    HW224522   5.778   2.770   0.968
 7875SOL     OW24523   3.981   3.645   6.855
 7875SOL    HW124524   3.903   3.630   6.794
 7875SOL    HW224525   3.978   3.738   6.891
 7876SOL     OW24526   0.963   0.403   2.682
 7876SOL    HW124527   1.027   0.478   2.666
 7876SOL    HW224528   1.003   0.338   2.747
 7877SOL     OW24529   6.175   1.289   2.638
 7877SOL    HW124530   6.129   1.357   2.695
 7877SOL    HW224531   6.194   1.208   2.693
 7878SOL     OW24532   4.857   3.702   3.520
 7878SOL    HW124533   4.857   3.604   3.499
 7878SOL    HW224534   4.871   3.716   3.618
 7879SOL     OW24535   3.569   5.191   3.301
 7879SOL    HW124536   3.585   5.103   3.257
 7879SOL    HW224537   3.473   5.198   3.327
 7880SOL     OW24538   2.261   3.801   0.960
 7880SOL    HW124539   2.195   3.840   0.896
 7880SOL    HW224540   2.278   3.705   0.936
 7881SOL     OW24541   5.436   4.277   4.420
 7881SOL    HW124542   5.440   4.210   4.494
 7881SOL    HW224543   5.527   4.286   4.379
 7882SOL     OW24544   2.785   4.016   1.638
 7882SOL    HW124545   2.790   4.108   1.599
 7882SOL    HW224546   2.703   3.970   1.604
 7883SOL     OW24547   1.090   0.476   5.289
 7883SOL    HW124548   1.010   0.527   5.322
 7883SOL    HW224549   1.097   0.486   5.189
 7884SOL     OW24550   0.544   3.575   3.970
 7884SOL    HW124551   0.483   3.630   3.914
 7884SOL    HW224552   0.638   3.587   3.940
 7885SOL     OW24553   6.473   5.608   1.132
 7885SOL    HW124554   6.407   5.536   1.149
 7885SOL    HW224555   6.448   5.690   1.184
 7886SOL     OW24556   4.752   5.530   0.542
 7886SOL    HW124557   4.689   5.562   0.613
 7886SOL    HW224558   4.826   5.597   0.531
 7887SOL     OW24559   3.559   1.691   6.743
 7887SOL    HW124560   3.608   1.715   6.827
 7887SOL    HW224561   3.566   1.592   6.727
 7888SOL     OW24562   5.159   0.222   3.894
 7888SOL    HW124563   5.145   0.145   3.831
 7888SOL    HW224564   5.245   0.267   3.873
 7889SOL     OW24565   0.640   6.368   1.819
 7889SOL    HW124566   0.706   6.408   1.756
 7889SOL    HW224567   0.677   6.370   1.912
 7890SOL     OW24568   2.126   3.897   2.068
 7890SOL    HW124569   2.042   3.934   2.027
 7890SOL    HW224570   2.109   3.804   2.101
 7891SOL     OW24571   2.735   4.927   2.355
 7891SOL    HW124572   2.636   4.913   2.345
 7891SOL    HW224573   2.783   4.847   2.319
 7892SOL     OW24574   2.030   2.738   5.157
 7892SOL    HW124575   1.934   2.745   5.183
 7892SOL    HW224576   2.077   2.824   5.179
 7893SOL     OW24577   6.038   6.672   1.339
 7893SOL    HW124578   5.990   6.628   1.415
 7893SOL    HW224579   6.094   6.604   1.291
 7894SOL     OW24580   2.554   6.449   2.329
 7894SOL    HW124581   2.555   6.481   2.424
 7894SOL    HW224582   2.582   6.524   2.269
 7895SOL     OW24583   6.535   1.275   4.836
 7895SOL    HW124584   6.438   1.248   4.836
 7895SOL    HW224585   6.541   1.374   4.852
 7896SOL     OW24586   4.755   3.790   5.628
 7896SOL    HW124587   4.680   3.819   5.688
 7896SOL    HW224588   4.717   3.754   5.543
 7897SOL     OW24589   2.494   4.393   6.559
 7897SOL    HW124590   2.451   4.401   6.470
 7897SOL    HW224591   2.485   4.299   6.592
 7898SOL     OW24592   4.773   2.339   3.663
 7898SOL    HW124593   4.792   2.241   3.658
 7898SOL    HW224594   4.676   2.353   3.683
 7899SOL     OW24595   6.958   2.267   2.239
 7899SOL    HW124596   6.928   2.343   2.181
 7899SOL    HW224597   6.963   2.183   2.186
 7900SOL     OW24598   1.145   5.378   1.387
 7900SOL    HW124599   1.158   5.459   1.445
 7900SOL    HW224600   1.234   5.343   1.358
 7901SOL     OW24601   5.945   0.018   5.913
 7901SOL    HW124602   5.853   0.052   5.897
 7901SOL    HW224603   5.940   6.956   5.959
 7902SOL     OW24604   4.664   4.654   1.517
 7902SOL    HW124605   4.679   4.590   1.440
 7902SOL    HW224606   4.727   4.632   1.591
 7903SOL     OW24607   6.202   1.821   0.248
 7903SOL    HW124608   6.207   1.876   0.331
 7903SOL    HW224609   6.159   1.875   0.175
 7904SOL     OW24610   6.764   0.479   2.488
 7904SOL    HW124611   6.678   0.491   2.438
 7904SOL    HW224612   6.831   0.545   2.455
 7905SOL     OW24613   3.905   1.755   1.311
 7905SOL    HW124614   3.915   1.839   1.366
 7905SOL    HW224615   3.967   1.760   1.233
 7906SOL     OW24616   6.258   5.783   6.654
 7906SOL    HW124617   6.253   5.726   6.572
 7906SOL    HW224618   6.313   5.736   6.724
 7907SOL     OW24619   6.397   2.176   3.930
 7907SOL    HW124620   6.467   2.245   3.913
 7907SOL    HW224621   6.411   2.136   4.020
 7908SOL     OW24622   0.550   1.074   3.214
 7908SOL    HW124623   0.598   1.142   3.269
 7908SOL    HW224624   0.481   1.119   3.158
 7909SOL     OW24625   4.856   3.921   4.866
 7909SOL    HW124626   4.829   3.861   4.791
 7909SOL    HW224627   4.866   3.866   4.950
 7910SOL     OW24628   4.206   2.808   5.875
 7910SOL    HW124629   4.287   2.790   5.819
 7910SOL    HW224630   4.177   2.903   5.862
 7911SOL     OW24631   6.838   5.072   0.236
 7911SOL    HW124632   6.912   5.086   0.301
 7911SOL    HW224633   6.778   4.998   0.268
 7912SOL     OW24634   6.034   5.444   6.729
 7912SOL    HW124635   6.054   5.466   6.633
 7912SOL    HW224636   6.017   5.346   6.738
 7913SOL     OW24637   0.053   5.094   6.580
 7913SOL    HW124638   0.009   5.055   6.500
 7913SOL    HW224639   0.032   5.038   6.660
 7914SOL     OW24640   6.463   5.172   1.439
 7914SOL    HW124641   6.541   5.162   1.501
 7914SOL    HW224642   6.405   5.246   1.471
 7915SOL     OW24643   4.937   2.119   3.034
 7915SOL    HW124644   4.843   2.087   3.048
 7915SOL    HW224645   4.978   2.070   2.957
 7916SOL     OW24646   5.498   3.419   5.429
 7916SOL    HW124647   5.536   3.364   5.354
 7916SOL    HW224648   5.572   3.470   5.473
 7917SOL     OW24649   3.941   3.540   4.258
 7917SOL    HW124650   3.981   3.514   4.345
 7917SOL    HW224651   3.945   3.463   4.194
 7918SOL     OW24652   6.018   1.536   1.627
 7918SOL    HW124653   5.924   1.503   1.630
 7918SOL    HW224654   6.081   1.459   1.615
 7919SOL     OW24655   5.873   4.021   2.914
 7919SOL    HW124656   5.863   4.121   2.913
 7919SOL    HW224657   5.906   3.991   3.003
 7920SOL     OW24658   0.221   4.850   1.689
 7920SOL    HW124659   0.228   4.797   1.604
 7920SOL    HW224660   0.142   4.912   1.683
 7921SOL     OW24661   2.900   6.569   1.242
 7921SOL    HW124662   2.847   6.495   1.201
 7921SOL    HW224663   2.968   6.530   1.304
 7922SOL     OW24664   6.820   5.282   6.920
 7922SOL    HW124665   6.735   5.230   6.920
 7922SOL    HW224666   6.804   5.373   6.958
 7923SOL     OW24667   1.756   1.298   2.924
 7923SOL    HW124668   1.739   1.392   2.895
 7923SOL    HW224669   1.855   1.283   2.931
 7924SOL     OW24670   2.939   6.586   3.597
 7924SOL    HW124671   2.977   6.505   3.642
 7924SOL    HW224672   2.906   6.650   3.666
 7925SOL     OW24673   6.305   1.979   6.004
 7925SOL    HW124674   6.266   2.052   6.060
 7925SOL    HW224675   6.397   1.957   6.036
 7926SOL     OW24676   3.353   0.794   3.440
 7926SOL    HW124677   3.288   0.840   3.380
 7926SOL    HW224678   3.424   0.858   3.468
 7927SOL     OW24679   4.406   5.435   5.153
 7927SOL    HW124680   4.337   5.367   5.176
 7927SOL    HW224681   4.362   5.517   5.117
 7928SOL     OW24682   1.795   4.753   3.116
 7928SOL    HW124683   1.881   4.775   3.163
 7928SOL    HW224684   1.778   4.655   3.124
 7929SOL     OW24685   4.159   3.691   4.909
 7929SOL    HW124686   4.148   3.646   4.821
 7929SOL    HW224687   4.257   3.704   4.928
 7930SOL     OW24688   4.522   5.118   3.614
 7930SOL    HW124689   4.447   5.180   3.636
 7930SOL    HW224690   4.609   5.161   3.639
 7931SOL     OW24691   2.104   2.737   6.918
 7931SOL    HW124692   2.099   2.711   6.821
 7931SOL    HW224693   2.159   2.670   6.968
 7932SOL     OW24694   2.659   0.346   6.909
 7932SOL    HW124695   2.699   0.417   6.967
 7932SOL    HW224696   2.613   0.390   6.831
 7933SOL     OW24697   0.690   6.163   7.010
 7933SOL    HW124698   0.666   6.250   0.027
 7933SOL    HW224699   0.732   6.181   6.921
 7934SOL     OW24700   2.485   3.549   0.629
 7934SOL    HW124701   2.404   3.560   0.571
 7934SOL    HW224702   2.566   3.537   0.572
 7935SOL     OW24703   4.894   5.757   0.351
 7935SOL    HW124704   4.986   5.735   0.384
 7935SOL    HW224705   4.900   5.823   0.277
 7936SOL     OW24706   3.639   6.165   3.292
 7936SOL    HW124707   3.735   6.193   3.298
 7936SOL    HW224708   3.592   6.194   3.375
 7937SOL     OW24709   5.905   6.621   5.354
 7937SOL    HW124710   5.871   6.714   5.360
 7937SOL    HW224711   5.999   6.617   5.389
 7938SOL     OW24712   3.935   5.136   4.809
 7938SOL    HW124713   4.025   5.111   4.846
 7938SOL    HW224714   3.931   5.234   4.794
 7939SOL     OW24715   1.144   1.510   5.553
 7939SOL    HW124716   1.211   1.472   5.617
 7939SOL    HW224717   1.119   1.441   5.485
 7940SOL     OW24718   2.172   5.956   1.590
 7940SOL    HW124719   2.118   5.940   1.672
 7940SOL    HW224720   2.146   5.890   1.519
 7941SOL     OW24721   0.179   1.043   0.813
 7941SOL    HW124722   0.265   1.005   0.847
 7941SOL    HW224723   0.103   0.984   0.839
 7942SOL     OW24724   0.200   6.427   1.960
 7942SOL    HW124725   0.212   6.350   2.023
 7942SOL    HW224726   0.170   6.508   2.011
 7943SOL     OW24727   5.821   2.158   1.183
 7943SOL    HW124728   5.866   2.119   1.103
 7943SOL    HW224729   5.875   2.235   1.218
 7944SOL     OW24730   0.115   2.911   1.821
 7944SOL    HW124731   0.117   2.938   1.918
 7944SOL    HW224732   0.185   2.841   1.805
 7945SOL     OW24733   4.730   0.160   2.403
 7945SOL    HW124734   4.751   0.234   2.466
 7945SOL    HW224735   4.759   0.185   2.311
 7946SOL     OW24736   1.458   2.401   6.015
 7946SOL    HW124737   1.516   2.340   6.070
 7946SOL    HW224738   1.505   2.424   5.930
 7947SOL     OW24739   3.717   2.884   6.652
 7947SOL    HW124740   3.729   2.788   6.628
 7947SOL    HW224741   3.634   2.894   6.708
 7948SOL     OW24742   6.933   6.899   0.477
 7948SOL    HW124743   6.979   6.812   0.458
 7948SOL    HW224744   6.845   6.882   0.521
 7949SOL     OW24745   5.127   4.764   4.321
 7949SOL    HW124746   5.179   4.778   4.237
 7949SOL    HW224747   5.094   4.852   4.356
 7950SOL     OW24748   4.202   5.157   3.268
 7950SOL    HW124749   4.142   5.207   3.331
 7950SOL    HW224750   4.227   5.216   3.191
 7951SOL     OW24751   2.631   3.709   1.182
 7951SOL    HW124752   2.618   3.807   1.164
 7951SOL    HW224753   2.652   3.662   1.096
 7952SOL     OW24754   6.650   2.604   6.517
 7952SOL    HW124755   6.649   2.668   6.440
 7952SOL    HW224756   6.735   2.552   6.516
 7953SOL     OW24757   2.379   2.758   3.008
 7953SOL    HW124758   2.388   2.855   2.985
 7953SOL    HW224759   2.327   2.749   3.093
 7954SOL     OW24760   4.521   5.278   4.866
 7954SOL    HW124761   4.500   5.321   4.954
 7954SOL    HW224762   4.436   5.257   4.818
 7955SOL     OW24763   0.192   6.486   6.939
 7955SOL    HW124764   0.249   6.526   7.010
 7955SOL    HW224765   0.177   6.389   6.958
 7956SOL     OW24766   0.331   5.959   3.828
 7956SOL    HW124767   0.299   5.907   3.908
 7956SOL    HW224768   0.412   5.914   3.790
 7957SOL     OW24769   1.309   2.014   6.975
 7957SOL    HW124770   1.331   2.047   6.883
 7957SOL    HW224771   1.385   2.033   0.010
 7958SOL     OW24772   3.543   6.061   4.183
 7958SOL    HW124773   3.582   6.004   4.255
 7958SOL    HW224774   3.617   6.114   4.140
 7959SOL     OW24775   5.704   4.238   0.532
 7959SOL    HW124776   5.757   4.168   0.484
 7959SOL    HW224777   5.607   4.228   0.509
 7960SOL     OW24778   3.069   1.698   1.044
 7960SOL    HW124779   3.055   1.630   1.117
 7960SOL    HW224780   2.980   1.732   1.013
 7961SOL     OW24781   1.811   6.645   6.254
 7961SOL    HW124782   1.853   6.612   6.170
 7961SOL    HW224783   1.835   6.741   6.268
 7962SOL     OW24784   2.002   1.113   0.936
 7962SOL    HW124785   1.999   1.018   0.905
 7962SOL    HW224786   2.094   1.136   0.966
 7963SOL     OW24787   0.052   0.883   5.280
 7963SOL    HW124788   6.998   0.940   5.266
 7963SOL    HW224789   0.105   0.879   5.195
 7964SOL     OW24790   5.462   5.009   3.851
 7964SOL    HW124791   5.538   4.956   3.889
 7964SOL    HW224792   5.499   5.090   3.805
 7965SOL     OW24793   4.232   2.257   0.044
 7965SOL    HW124794   4.175   2.255   6.989
 7965SOL    HW224795   4.320   2.213   0.025
 7966SOL     OW24796   1.189   4.155   4.906
 7966SOL    HW124797   1.287   4.173   4.916
 7966SOL    HW224798   1.144   4.160   4.995
 7967SOL     OW24799   2.670   5.463   3.261
 7967SOL    HW124800   2.765   5.493   3.266
 7967SOL    HW224801   2.667   5.369   3.227
 7968SOL     OW24802   2.550   2.506   3.363
 7968SOL    HW124803   2.463   2.496   3.411
 7968SOL    HW224804   2.625   2.501   3.429
 7969SOL     OW24805   4.010   0.163   2.377
 7969SOL    HW124806   3.952   0.182   2.299
 7969SOL    HW224807   4.078   0.235   2.387
 7970SOL     OW24808   6.972   3.446   2.877
 7970SOL    HW124809   6.945   3.528   2.827
 7970SOL    HW224810   6.901   3.422   2.943
 7971SOL     OW24811   2.671   0.827   2.399
 7971SOL    HW124812   2.586   0.798   2.354
 7971SOL    HW224813   2.731   0.870   2.332
 7972SOL     OW24814   6.863   4.279   1.285
 7972SOL    HW124815   6.779   4.312   1.242
 7972SOL    HW224816   6.933   4.265   1.214
 7973SOL     OW24817   5.182   3.500   3.920
 7973SOL    HW124818   5.178   3.571   3.850
 7973SOL    HW224819   5.213   3.414   3.879
 7974SOL     OW24820   5.583   0.343   4.411
 7974SOL    HW124821   5.541   0.425   4.450
 7974SOL    HW224822   5.600   0.276   4.484
 7975SOL     OW24823   4.286   0.705   4.019
 7975SOL    HW124824   4.208   0.704   4.082
 7975SOL    HW224825   4.285   0.790   3.967
 7976SOL     OW24826   0.468   6.941   5.645
 7976SOL    HW124827   0.392   6.961   5.707
 7976SOL    HW224828   0.476   7.014   5.577
 7977SOL     OW24829   5.197   6.253   2.738
 7977SOL    HW124830   5.208   6.230   2.834
 7977SOL    HW224831   5.116   6.208   2.702
 7978SOL     OW24832   4.796   4.010   6.294
 7978SOL    HW124833   4.761   3.925   6.253
 7978SOL    HW224834   4.888   4.028   6.258
 7979SOL     OW24835   2.999   0.521   4.869
 7979SOL    HW124836   2.983   0.609   4.825
 7979SOL    HW224837   3.078   0.527   4.929
 7980SOL     OW24838   3.528   5.862   0.302
 7980SOL    HW124839   3.519   5.778   0.248
 7980SOL    HW224840   3.624   5.877   0.325
 7981SOL     OW24841   0.718   5.191   2.308
 7981SOL    HW124842   0.639   5.154   2.355
 7981SOL    HW224843   0.696   5.208   2.212
 7982SOL     OW24844   6.689   2.514   0.183
 7982SOL    HW124845   6.707   2.514   0.282
 7982SOL    HW224846   6.592   2.494   0.167
 7983SOL     OW24847   5.775   1.382   2.862
 7983SOL    HW124848   5.688   1.333   2.857
 7983SOL    HW224849   5.774   1.446   2.939
 7984SOL     OW24850   1.098   2.022   1.892
 7984SOL    HW124851   1.184   2.027   1.841
 7984SOL    HW224852   1.092   2.099   1.955
 7985SOL     OW24853   1.560   0.364   2.280
 7985SOL    HW124854   1.549   0.290   2.214
 7985SOL    HW224855   1.633   0.425   2.250
 7986SOL     OW24856   3.990   1.471   6.799
 7986SOL    HW124857   4.076   1.421   6.811
 7986SOL    HW224858   4.008   1.558   6.753
 7987SOL     OW24859   0.152   2.947   5.685
 7987SOL    HW124860   0.200   3.019   5.734
 7987SOL    HW224861   0.217   2.890   5.635
 7988SOL     OW24862   2.723   2.312   4.913
 7988SOL    HW124863   2.691   2.392   4.863
 7988SOL    HW224864   2.692   2.316   5.008
 7989SOL     OW24865   3.582   2.575   5.366
 7989SOL    HW124866   3.484   2.553   5.359
 7989SOL    HW224867   3.630   2.501   5.413
 7990SOL     OW24868   1.031   2.635   4.337
 7990SOL    HW124869   1.070   2.726   4.319
 7990SOL    HW224870   0.934   2.645   4.361
 7991SOL     OW24871   0.214   2.671   5.834
 7991SOL    HW124872   0.242   2.588   5.883
 7991SOL    HW224873   0.159   2.728   5.894
 7992SOL     OW24874   1.396   6.790   1.321
 7992SOL    HW124875   1.443   6.829   1.401
 7992SOL    HW224876   1.400   6.690   1.327
 7993SOL     OW24877   2.178   5.854   6.898
 7993SOL    HW124878   2.098   5.829   6.952
 7993SOL    HW224879   2.150   5.916   6.824
 7994SOL     OW24880   4.595   0.854   3.852
 7994SOL    HW124881   4.689   0.828   3.873
 7994SOL    HW224882   4.553   0.897   3.933
 7995SOL     OW24883   4.071   5.555   4.149
 7995SOL    HW124884   4.086   5.477   4.210
 7995SOL    HW224885   4.024   5.524   4.066
 7996SOL     OW24886   3.327   6.556   4.229
 7996SOL    HW124887   3.364   6.466   4.209
 7996SOL    HW224888   3.229   6.548   4.250
 7997SOL     OW24889   6.361   2.018   0.949
 7997SOL    HW124890   6.379   1.937   1.005
 7997SOL    HW224891   6.273   2.058   0.975
 7998SOL     OW24892   5.149   4.947   0.030
 7998SOL    HW124893   5.054   4.921   0.046
 7998SOL    HW224894   5.209   4.875   0.066
 7999SOL     OW24895   0.857   6.962   5.632
 7999SOL    HW124896   0.951   6.987   5.656
 7999SOL    HW224897   0.844   6.974   5.533
 8000SOL     OW24898   5.685   0.586   6.208
 8000SOL    HW124899   5.632   0.540   6.280
 8000SOL    HW224900   5.660   0.683   6.205
 8001SOL     OW24901   1.990   6.245   1.707
 8001SOL    HW124902   1.909   6.198   1.742
 8001SOL    HW224903   2.065   6.237   1.773
 8002SOL     OW24904   0.225   3.532   5.301
 8002SOL    HW124905   0.152   3.533   5.233
 8002SOL    HW224906   0.312   3.553   5.256
 8003SOL     OW24907   3.024   5.055   2.901
 8003SOL    HW124908   3.108   5.018   2.940
 8003SOL    HW224909   3.028   5.050   2.801
 8004SOL     OW24910   2.327   4.465   3.421
 8004SOL    HW124911   2.250   4.514   3.379
 8004SOL    HW224912   2.412   4.490   3.375
 8005SOL     OW24913   2.552   1.147   2.154
 8005SOL    HW124914   2.513   1.179   2.240
 8005SOL    HW224915   2.621   1.211   2.122
 8006SOL     OW24916   2.547   5.626   0.055
 8006SOL    HW124917   2.532   5.564   7.005
 8006SOL    HW224918   2.646   5.638   0.070
 8007SOL     OW24919   1.218   7.022   3.948
 8007SOL    HW124920   1.164   6.950   3.904
 8007SOL    HW224921   1.313   6.993   3.954
 8008SOL     OW24922   5.411   6.417   6.417
 8008SOL    HW124923   5.415   6.362   6.333
 8008SOL    HW224924   5.369   6.363   6.490
 8009SOL     OW24925   6.632   0.291   3.181
 8009SOL    HW124926   6.577   0.212   3.206
 8009SOL    HW224927   6.708   0.261   3.123
 8010SOL     OW24928   2.448   1.863   6.857
 8010SOL    HW124929   2.523   1.885   6.795
 8010SOL    HW224930   2.440   1.934   6.927
 8011SOL     OW24931   2.561   2.063   0.832
 8011SOL    HW124932   2.478   2.107   0.867
 8011SOL    HW224933   2.595   1.998   0.900
 8012SOL     OW24934   1.357   6.391   1.440
 8012SOL    HW124935   1.414   6.315   1.471
 8012SOL    HW224936   1.408   6.447   1.375
 8013SOL     OW24937   6.104   4.774   4.435
 8013SOL    HW124938   6.125   4.681   4.465
 8013SOL    HW224939   6.185   4.814   4.393
 8014SOL     OW24940   1.770   5.792   6.499
 8014SOL    HW124941   1.813   5.711   6.459
 8014SOL    HW224942   1.754   5.777   6.597
 8015SOL     OW24943   2.988   2.677   0.710
 8015SOL    HW124944   3.004   2.687   0.808
 8015SOL    HW224945   3.000   2.581   0.684
 8016SOL     OW24946   4.627   0.365   0.551
 8016SOL    HW124947   4.727   0.359   0.547
 8016SOL    HW224948   4.599   0.407   0.637
 8017SOL     OW24949   0.329   4.048   5.889
 8017SOL    HW124950   0.270   4.016   5.815
 8017SOL    HW224951   0.276   4.058   5.973
 8018SOL     OW24952   4.964   1.577   5.547
 8018SOL    HW124953   4.950   1.508   5.618
 8018SOL    HW224954   4.878   1.595   5.500
 8019SOL     OW24955   1.608   4.675   0.647
 8019SOL    HW124956   1.687   4.637   0.599
 8019SOL    HW224957   1.607   4.643   0.742
 8020SOL     OW24958   5.625   6.230   6.684
 8020SOL    HW124959   5.593   6.210   6.591
 8020SOL    HW224960   5.724   6.222   6.688
 8021SOL     OW24961   0.860   1.356   1.806
 8021SOL    HW124962   0.959   1.343   1.800
 8021SOL    HW224963   0.816   1.312   1.729
 8022SOL     OW24964   4.270   0.247   2.732
 8022SOL    HW124965   4.354   0.197   2.752
 8022SOL    HW224966   4.277   0.292   2.643
 8023SOL     OW24967   6.164   6.308   2.898
 8023SOL    HW124968   6.207   6.351   2.977
 8023SOL    HW224969   6.208   6.341   2.814
 8024SOL     OW24970   4.026   5.786   6.475
 8024SOL    HW124971   4.022   5.692   6.442
 8024SOL    HW224972   4.061   5.788   6.568
 8025SOL     OW24973   3.559   6.608   6.258
 8025SOL    HW124974   3.519   6.539   6.318
 8025SOL    HW224975   3.492   6.682   6.244
 8026SOL     OW24976   0.594   3.937   6.852
 8026SOL    HW124977   0.618   3.896   6.940
 8026SOL    HW224978   0.678   3.967   6.805
 8027SOL     OW24979   4.759   1.829   5.007
 8027SOL    HW124980   4.757   1.769   4.927
 8027SOL    HW224981   4.796   1.779   5.086
 8028SOL     OW24982   4.343   5.533   6.011
 8028SOL    HW124983   4.387   5.511   6.097
 8028SOL    HW224984   4.411   5.537   5.938
 8029SOL     OW24985   4.833   4.127   6.532
 8029SOL    HW124986   4.825   4.069   6.451
 8029SOL    HW224987   4.835   4.070   6.614
 8030SOL     OW24988   5.248   4.604   5.537
 8030SOL    HW124989   5.323   4.609   5.470
 8030SOL    HW224990   5.280   4.557   5.619
 8031SOL     OW24991   4.827   4.877   2.182
 8031SOL    HW124992   4.730   4.854   2.186
 8031SOL    HW224993   4.865   4.875   2.275
 8032SOL     OW24994   6.209   3.682   4.760
 8032SOL    HW124995   6.307   3.703   4.751
 8032SOL    HW224996   6.198   3.586   4.784
 8033SOL     OW24997   5.527   2.451   6.906
 8033SOL    HW124998   5.435   2.429   6.874
 8033SOL    HW224999   5.529   2.449   7.006
 8034SOL     OW25000   6.242   6.752   5.182
 8034SOL    HW125001   6.231   6.799   5.269
 8034SOL    HW225002   6.340   6.740   5.162
 8035SOL     OW25003   5.902   6.309   5.655
 8035SOL    HW125004   5.817   6.260   5.635
 8035SOL    HW225005   5.980   6.247   5.645
 8036SOL     OW25006   2.020   3.652   1.554
 8036SOL    HW125007   2.011   3.552   1.551
 8036SOL    HW225008   2.068   3.678   1.638
 8037SOL     OW25009   2.256   3.324   1.050
 8037SOL    HW125010   2.320   3.322   1.127
 8037SOL    HW225011   2.189   3.397   1.064
 8038SOL     OW25012   6.871   2.048   3.265
 8038SOL    HW125013   6.794   1.984   3.264
 8038SOL    HW225014   6.838   2.140   3.244
 8039SOL     OW25015   1.853   6.599   2.615
 8039SOL    HW125016   1.774   6.588   2.675
 8039SOL    HW225017   1.853   6.527   2.546
 8040SOL     OW25018   0.397   5.706   0.855
 8040SOL    HW125019   0.455   5.786   0.844
 8040SOL    HW225020   0.440   5.627   0.813
 8041SOL     OW25021   3.252   1.203   1.279
 8041SOL    HW125022   3.254   1.214   1.379
 8041SOL    HW225023   3.329   1.146   1.250
 8042SOL     OW25024   3.701   2.949   2.032
 8042SOL    HW125025   3.746   2.905   1.955
 8042SOL    HW225026   3.755   2.935   2.115
 8043SOL     OW25027   2.633   0.746   0.890
 8043SOL    HW125028   2.599   0.677   0.826
 8043SOL    HW225029   2.704   0.800   0.846
 8044SOL     OW25030   3.137   2.950   1.609
 8044SOL    HW125031   3.191   2.865   1.612
 8044SOL    HW225032   3.159   3.001   1.526
 8045SOL     OW25033   6.143   1.553   2.816
 8045SOL    HW125034   6.056   1.585   2.778
 8045SOL    HW225035   6.149   1.580   2.912
 8046SOL     OW25036   5.398   4.486   5.751
 8046SOL    HW125037   5.442   4.398   5.729
 8046SOL    HW225038   5.448   4.531   5.825
 8047SOL     OW25039   3.148   5.665   4.561
 8047SOL    HW125040   3.216   5.592   4.565
 8047SOL    HW225041   3.061   5.628   4.530
 8048SOL     OW25042   5.676   0.835   5.457
 8048SOL    HW125043   5.608   0.765   5.480
 8048SOL    HW225044   5.765   0.807   5.493
 8049SOL     OW25045   0.351   0.014   1.035
 8049SOL    HW125046   0.293   0.029   1.115
 8049SOL    HW225047   0.434   6.992   1.064
 8050SOL     OW25048   1.437   3.128   1.524
 8050SOL    HW125049   1.534   3.143   1.507
 8050SOL    HW225050   1.390   3.116   1.436
 8051SOL     OW25051   4.508   0.534   2.670
 8051SOL    HW125052   4.560   0.606   2.624
 8051SOL    HW225053   4.445   0.491   2.605
 8052SOL     OW25054   3.247   1.411   2.232
 8052SOL    HW125055   3.231   1.479   2.160
 8052SOL    HW225056   3.175   1.418   2.301
 8053SOL     OW25057   4.008   3.795   2.878
 8053SOL    HW125058   4.064   3.783   2.960
 8053SOL    HW225059   3.952   3.877   2.888
 8054SOL     OW25060   4.495   6.670   4.714
 8054SOL    HW125061   4.591   6.654   4.693
 8054SOL    HW225062   4.456   6.586   4.754
 8055SOL     OW25063   0.530   0.349   6.379
 8055SOL    HW125064   0.543   0.349   6.280
 8055SOL    HW225065   0.505   0.258   6.410
 8056SOL     OW25066   4.413   1.380   2.764
 8056SOL    HW125067   4.326   1.409   2.724
 8056SOL    HW225068   4.446   1.452   2.826
 8057SOL     OW25069   3.064   0.351   2.464
 8057SOL    HW125070   3.025   0.315   2.379
 8057SOL    HW225071   3.048   0.449   2.469
 8058SOL     OW25072   2.928   0.290   2.243
 8058SOL    HW125073   2.941   0.251   2.152
 8058SOL    HW225074   2.831   0.288   2.267
 8059SOL     OW25075   3.877   2.046   4.583
 8059SOL    HW125076   3.874   1.947   4.576
 8059SOL    HW225077   3.918   2.072   4.670
 8060SOL     OW25078   0.063   1.268   4.525
 8060SOL    HW125079   0.134   1.260   4.595
 8060SOL    HW225080   0.026   1.361   4.526
 8061SOL     OW25081   6.325   5.470   2.664
 8061SOL    HW125082   6.415   5.459   2.622
 8061SOL    HW225083   6.290   5.562   2.646
 8062SOL     OW25084   1.518   4.267   4.478
 8062SOL    HW125085   1.497   4.169   4.476
 8062SOL    HW225086   1.459   4.313   4.544
 8063SOL     OW25087   2.476   3.924   0.074
 8063SOL    HW125088   2.559   3.869   0.062
 8063SOL    HW225089   2.396   3.868   0.056
 8064SOL     OW25090   0.352   4.481   0.177
 8064SOL    HW125091   0.398   4.404   0.222
 8064SOL    HW225092   0.259   4.489   0.212
 8065SOL     OW25093   4.401   0.071   4.600
 8065SOL    HW125094   4.405   0.028   4.510
 8065SOL    HW225095   4.313   0.050   4.643
 8066SOL     OW25096   1.558   1.125   6.869
 8066SOL    HW125097   1.486   1.067   6.908
 8066SOL    HW225098   1.646   1.099   6.909
 8067SOL     OW25099   4.059   2.926   1.549
 8067SOL    HW125100   4.013   2.854   1.498
 8067SOL    HW225101   4.145   2.892   1.586
 8068SOL     OW25102   6.887   5.184   5.092
 8068SOL    HW125103   6.958   5.141   5.148
 8068SOL    HW225104   6.895   5.152   4.998
 8069SOL     OW25105   2.005   6.439   1.331
 8069SOL    HW125106   1.945   6.377   1.280
 8069SOL    HW225107   2.088   6.391   1.357
 8070SOL     OW25108   3.340   5.857   1.541
 8070SOL    HW125109   3.364   5.952   1.518
 8070SOL    HW225110   3.390   5.795   1.481
 8071SOL     OW25111   4.283   6.662   5.285
 8071SOL    HW125112   4.243   6.624   5.201
 8071SOL    HW225113   4.251   6.611   5.364
 8072SOL     OW25114   4.865   1.345   0.689
 8072SOL    HW125115   4.802   1.310   0.758
 8072SOL    HW225116   4.890   1.439   0.711
 8073SOL     OW25117   4.873   6.715   6.094
 8073SOL    HW125118   4.869   6.811   6.064
 8073SOL    HW225119   4.852   6.709   6.191
 8074SOL     OW25120   2.922   3.418   0.570
 8074SOL    HW125121   2.978   3.491   0.610
 8074SOL    HW225122   2.862   3.457   0.501
 8075SOL     OW25123   6.762   1.112   1.532
 8075SOL    HW125124   6.774   1.211   1.528
 8075SOL    HW225125   6.827   1.073   1.597
 8076SOL     OW25126   5.335   2.432   5.354
 8076SOL    HW125127   5.332   2.386   5.442
 8076SOL    HW225128   5.261   2.398   5.295
 8077SOL     OW25129   1.080   6.913   1.463
 8077SOL    HW125130   1.134   6.985   1.506
 8077SOL    HW225131   1.056   6.940   1.370
 8078SOL     OW25132   6.766   1.613   0.498
 8078SOL    HW125133   6.718   1.527   0.519
 8078SOL    HW225134   6.711   1.690   0.530
 8079SOL     OW25135   6.690   2.139   2.925
 8079SOL    HW125136   6.693   2.231   2.965
 8079SOL    HW225137   6.721   2.143   2.830
 8080SOL     OW25138   2.050   3.906   0.809
 8080SOL    HW125139   1.975   3.852   0.847
 8080SOL    HW225140   2.051   3.996   0.853
 8081SOL     OW25141   5.538   1.053   5.781
 8081SOL    HW125142   5.542   1.062   5.682
 8081SOL    HW225143   5.536   1.144   5.823
 8082SOL     OW25144   6.181   2.335   3.307
 8082SOL    HW125145   6.183   2.417   3.250
 8082SOL    HW225146   6.187   2.361   3.403
 8083SOL     OW25147   5.330   3.118   2.538
 8083SOL    HW125148   5.336   3.169   2.624
 8083SOL    HW225149   5.374   3.171   2.465
 8084SOL     OW25150   6.522   5.999   1.428
 8084SOL    HW125151   6.571   6.063   1.368
 8084SOL    HW225152   6.496   6.046   1.512
 8085SOL     OW25153   5.542   0.095   1.273
 8085SOL    HW125154   5.454   0.053   1.296
 8085SOL    HW225155   5.527   0.192   1.252
 8086SOL     OW25156   4.221   0.361   4.250
 8086SOL    HW125157   4.265   0.339   4.336
 8086SOL    HW225158   4.283   0.341   4.174
 8087SOL     OW25159   2.822   2.233   0.836
 8087SOL    HW125160   2.780   2.142   0.838
 8087SOL    HW225161   2.765   2.297   0.888
 8088SOL     OW25162   5.957   0.955   2.299
 8088SOL    HW125163   5.990   1.040   2.340
 8088SOL    HW225164   5.929   0.972   2.205
 8089SOL     OW25165   5.055   3.222   0.077
 8089SOL    HW125166   5.126   3.159   0.045
 8089SOL    HW225167   4.993   3.244   0.002
 8090SOL     OW25168   5.346   1.631   6.567
 8090SOL    HW125169   5.295   1.709   6.603
 8090SOL    HW225170   5.441   1.635   6.600
 8091SOL     OW25171   3.225   4.462   6.792
 8091SOL    HW125172   3.264   4.522   6.722
 8091SOL    HW225173   3.128   4.447   6.772
 8092SOL     OW25174   1.419   1.587   4.631
 8092SOL    HW125175   1.417   1.657   4.703
 8092SOL    HW225176   1.455   1.627   4.547
 8093SOL     OW25177   5.439   5.477   1.814
 8093SOL    HW125178   5.452   5.386   1.852
 8093SOL    HW225179   5.466   5.546   1.881
 8094SOL     OW25180   1.170   4.289   6.286
 8094SOL    HW125181   1.161   4.315   6.190
 8094SOL    HW225182   1.189   4.371   6.341
 8095SOL     OW25183   5.924   3.368   4.238
 8095SOL    HW125184   6.013   3.322   4.248
 8095SOL    HW225185   5.885   3.347   4.149
 8096SOL     OW25186   2.938   5.659   2.416
 8096SOL    HW125187   2.900   5.580   2.369
 8096SOL    HW225188   3.034   5.642   2.438
 8097SOL     OW25189   4.965   0.305   2.980
 8097SOL    HW125190   5.001   0.214   2.959
 8097SOL    HW225191   5.012   0.341   3.060
 8098SOL     OW25192   2.087   5.968   3.997
 8098SOL    HW125193   2.097   6.018   3.911
 8098SOL    HW225194   1.993   5.974   4.029
 8099SOL     OW25195   5.531   6.952   4.422
 8099SOL    HW125196   5.450   6.977   4.368
 8099SOL    HW225197   5.567   0.006   4.468
 8100SOL     OW25198   0.307   6.626   0.145
 8100SOL    HW125199   0.246   6.702   0.124
 8100SOL    HW225200   0.265   6.565   0.212
 8101SOL     OW25201   1.380   7.019   5.017
 8101SOL    HW125202   1.390   6.946   5.084
 8101SOL    HW225203   1.447   7.007   4.943
 8102SOL     OW25204   0.364   5.179   6.179
 8102SOL    HW125205   0.294   5.148   6.243
 8102SOL    HW225206   0.389   5.104   6.118
 8103SOL     OW25207   3.901   1.313   1.706
 8103SOL    HW125208   3.813   1.273   1.730
 8103SOL    HW225209   3.930   1.377   1.777
 8104SOL     OW25210   3.555   6.838   5.953
 8104SOL    HW125211   3.582   6.743   5.962
 8104SOL    HW225212   3.595   6.876   5.869
 8105SOL     OW25213   2.832   2.342   3.865
 8105SOL    HW125214   2.785   2.424   3.897
 8105SOL    HW225215   2.824   2.334   3.766
 8106SOL     OW25216   1.282   4.135   3.270
 8106SOL    HW125217   1.246   4.066   3.207
 8106SOL    HW225218   1.345   4.093   3.334
 8107SOL     OW25219   2.267   6.585   5.850
 8107SOL    HW125220   2.268   6.508   5.913
 8107SOL    HW225221   2.213   6.561   5.769
 8108SOL     OW25222   6.896   3.683   4.689
 8108SOL    HW125223   6.947   3.600   4.665
 8108SOL    HW225224   6.831   3.662   4.762
 8109SOL     OW25225   2.152   4.634   5.329
 8109SOL    HW125226   2.232   4.666   5.279
 8109SOL    HW225227   2.082   4.603   5.265
 8110SOL     OW25228   2.119   6.804   0.602
 8110SOL    HW125229   2.214   6.794   0.634
 8110SOL    HW225230   2.102   6.900   0.580
 8111SOL     OW25231   2.794   6.241   5.049
 8111SOL    HW125232   2.798   6.170   4.978
 8111SOL    HW225233   2.763   6.201   5.135
 8112SOL     OW25234   2.927   0.525   5.445
 8112SOL    HW125235   2.984   0.462   5.497
 8112SOL    HW225236   2.918   0.493   5.351
 8113SOL     OW25237   3.484   2.307   0.180
 8113SOL    HW125238   3.499   2.225   0.125
 8113SOL    HW225239   3.530   2.297   0.268
 8114SOL     OW25240   2.182   3.080   2.527
 8114SOL    HW125241   2.236   2.996   2.514
 8114SOL    HW225242   2.152   3.113   2.438
 8115SOL     OW25243   3.014   1.334   1.519
 8115SOL    HW125244   2.949   1.315   1.446
 8115SOL    HW225245   3.075   1.409   1.491
 8116SOL     OW25246   6.181   6.922   5.380
 8116SOL    HW125247   6.253   6.953   5.317
 8116SOL    HW225248   6.147   7.000   5.432
 8117SOL     OW25249   1.458   1.705   4.395
 8117SOL    HW125250   1.497   1.780   4.340
 8117SOL    HW225251   1.464   1.620   4.343
 8118SOL     OW25252   1.005   4.296   5.557
 8118SOL    HW125253   1.072   4.327   5.489
 8118SOL    HW225254   1.043   4.311   5.649
 8119SOL     OW25255   0.304   5.207   3.832
 8119SOL    HW125256   0.286   5.305   3.842
 8119SOL    HW225257   0.288   5.162   3.920
 8120SOL     OW25258   4.262   4.416   0.414
 8120SOL    HW125259   4.306   4.360   0.343
 8120SOL    HW225260   4.232   4.357   0.489
 8121SOL     OW25261   0.114   6.881   2.964
 8121SOL    HW125262   0.109   6.960   3.025
 8121SOL    HW225263   0.131   6.913   2.870
 8122SOL     OW25264   0.595   5.900   1.483
 8122SOL    HW125265   0.556   5.810   1.463
 8122SOL    HW225266   0.530   5.953   1.538
 8123SOL     OW25267   1.106   6.689   6.332
 8123SOL    HW125268   1.194   6.732   6.354
 8123SOL    HW225269   1.108   6.655   6.238
 8124SOL     OW25270   1.457   5.556   1.039
 8124SOL    HW125271   1.367   5.515   1.029
 8124SOL    HW225272   1.488   5.549   1.134
 8125SOL     OW25273   6.093   4.580   2.661
 8125SOL    HW125274   6.006   4.545   2.697
 8125SOL    HW225275   6.127   4.653   2.720
 8126SOL     OW25276   5.862   4.257   3.188
 8126SOL    HW125277   5.806   4.339   3.170
 8126SOL    HW225278   5.917   4.273   3.270
 8127SOL     OW25279   2.326   5.293   0.510
 8127SOL    HW125280   2.245   5.267   0.458
 8127SOL    HW225281   2.345   5.390   0.497
 8128SOL     OW25282   3.036   2.715   6.516
 8128SOL    HW125283   2.961   2.755   6.465
 8128SOL    HW225284   3.011   2.707   6.613
 8129SOL     OW25285   5.395   0.684   6.404
 8129SOL    HW125286   5.463   0.642   6.463
 8129SOL    HW225287   5.305   0.645   6.423
 8130SOL     OW25288   0.949   5.207   6.364
 8130SOL    HW125289   0.861   5.199   6.410
 8130SOL    HW225290   0.944   5.278   6.294
 8131SOL     OW25291   3.372   0.711   0.416
 8131SOL    HW125292   3.439   0.648   0.377
 8131SOL    HW225293   3.396   0.732   0.510
 8132SOL     OW25294   6.123   5.246   4.565
 8132SOL    HW125295   6.159   5.263   4.473
 8132SOL    HW225296   6.064   5.166   4.563
 8133SOL     OW25297   3.180   4.901   3.334
 8133SOL    HW125298   3.130   4.920   3.418
 8133SOL    HW225299   3.207   4.988   3.291
 8134SOL     OW25300   2.046   2.139   4.084
 8134SOL    HW125301   2.133   2.090   4.077
 8134SOL    HW225302   2.024   2.155   4.180
 8135SOL     OW25303   3.456   5.210   2.242
 8135SOL    HW125304   3.445   5.111   2.226
 8135SOL    HW225305   3.389   5.260   2.188
 8136SOL     OW25306   3.655   5.381   2.406
 8136SOL    HW125307   3.735   5.323   2.419
 8136SOL    HW225308   3.591   5.336   2.343
 8137SOL     OW25309   1.816   3.494   4.952
 8137SOL    HW125310   1.862   3.578   4.922
 8137SOL    HW225311   1.729   3.518   4.995
 8138SOL     OW25312   5.775   1.543   2.112
 8138SOL    HW125313   5.802   1.449   2.131
 8138SOL    HW225314   5.819   1.605   2.178
 8139SOL     OW25315   0.892   3.050   3.328
 8139SOL    HW125316   0.793   3.047   3.344
 8139SOL    HW225317   0.938   3.086   3.409
 8140SOL     OW25318   4.684   0.017   0.271
 8140SOL    HW125319   4.605   7.002   0.316
 8140SOL    HW225320   4.706   6.994   0.188
 8141SOL     OW25321   5.167   1.254   5.748
 8141SOL    HW125322   5.209   1.295   5.667
 8141SOL    HW225323   5.235   1.250   5.822
 8142SOL     OW25324   2.324   5.972   0.301
 8142SOL    HW125325   2.255   5.899   0.302
 8142SOL    HW225326   2.415   5.931   0.297
 8143SOL     OW25327   4.997   4.171   0.764
 8143SOL    HW125328   4.987   4.097   0.698
 8143SOL    HW225329   4.921   4.167   0.830
 8144SOL     OW25330   0.550   5.736   6.054
 8144SOL    HW125331   0.484   5.799   6.013
 8144SOL    HW225332   0.531   5.727   6.152
 8145SOL     OW25333   5.861   5.694   0.689
 8145SOL    HW125334   5.923   5.740   0.624
 8145SOL    HW225335   5.876   5.732   0.781
 8146SOL     OW25336   5.807   0.255   4.213
 8146SOL    HW125337   5.725   0.285   4.261
 8146SOL    HW225338   5.812   0.156   4.214
 8147SOL     OW25339   0.878   0.474   6.317
 8147SOL    HW125340   0.859   0.381   6.347
 8147SOL    HW225341   0.963   0.506   6.357
 8148SOL     OW25342   4.025   4.181   6.517
 8148SOL    HW125343   3.976   4.216   6.437
 8148SOL    HW225344   4.087   4.251   6.552
 8149SOL     OW25345   1.024   0.033   4.804
 8149SOL    HW125346   1.055   0.028   4.709
 8149SOL    HW225347   0.926   0.052   4.806
 8150SOL     OW25348   0.940   3.376   1.096
 8150SOL    HW125349   0.908   3.467   1.070
 8150SOL    HW225350   0.871   3.330   1.152
 8151SOL     OW25351   6.295   4.754   3.906
 8151SOL    HW125352   6.248   4.838   3.934
 8151SOL    HW225353   6.299   4.690   3.982
 8152SOL     OW25354   4.867   1.672   3.015
 8152SOL    HW125355   4.872   1.696   2.918
 8152SOL    HW225356   4.790   1.720   3.057
 8153SOL     OW25357   1.051   0.824   3.814
 8153SOL    HW125358   1.066   0.895   3.745
 8153SOL    HW225359   0.956   0.828   3.845
 8154SOL     OW25360   2.597   1.699   3.509
 8154SOL    HW125361   2.566   1.718   3.602
 8154SOL    HW225362   2.535   1.743   3.444
 8155SOL     OW25363   1.588   4.346   2.392
 8155SOL    HW125364   1.648   4.295   2.452
 8155SOL    HW225365   1.610   4.444   2.399
 8156SOL     OW25366   6.008   5.276   1.342
 8156SOL    HW125367   5.961   5.231   1.266
 8156SOL    HW225368   6.081   5.335   1.307
 8157SOL     OW25369   6.040   2.946   6.306
 8157SOL    HW125370   6.072   2.932   6.212
 8157SOL    HW225371   5.974   3.021   6.307
 8158SOL     OW25372   5.819   4.728   6.194
 8158SOL    HW125373   5.880   4.805   6.214
 8158SOL    HW225374   5.780   4.739   6.103
 8159SOL     OW25375   3.796   6.365   5.867
 8159SOL    HW125376   3.733   6.443   5.865
 8159SOL    HW225377   3.796   6.325   5.959
 8160SOL     OW25378   5.394   1.673   3.247
 8160SOL    HW125379   5.489   1.702   3.240
 8160SOL    HW225380   5.388   1.591   3.304
 8161SOL     OW25381   5.430   3.530   0.365
 8161SOL    HW125382   5.443   3.541   0.464
 8161SOL    HW225383   5.366   3.599   0.332
 8162SOL     OW25384   0.028   4.683   6.686
 8162SOL    HW125385   0.070   4.662   6.775
 8162SOL    HW225386   0.094   4.732   6.629
 8163SOL     OW25387   4.602   4.566   5.335
 8163SOL    HW125388   4.671   4.622   5.291
 8163SOL    HW225389   4.621   4.559   5.433
 8164SOL     OW25390   4.935   0.963   6.974
 8164SOL    HW125391   5.003   0.967   6.901
 8164SOL    HW225392   4.859   0.905   6.945
 8165SOL     OW25393   6.314   2.720   6.593
 8165SOL    HW125394   6.269   2.809   6.601
 8165SOL    HW225395   6.413   2.730   6.606
 8166SOL     OW25396   1.320   1.924   4.005
 8166SOL    HW125397   1.360   1.832   3.998
 8166SOL    HW225398   1.392   1.992   4.013
 8167SOL     OW25399   6.528   1.296   3.978
 8167SOL    HW125400   6.450   1.244   4.012
 8167SOL    HW225401   6.496   1.368   3.916
 8168SOL     OW25402   1.951   0.567   1.335
 8168SOL    HW125403   1.861   0.569   1.292
 8168SOL    HW225404   1.944   0.597   1.430
 8169SOL     OW25405   4.984   2.011   0.162
 8169SOL    HW125406   5.043   2.053   0.230
 8169SOL    HW225407   4.898   1.983   0.205
 8170SOL     OW25408   6.761   4.246   2.079
 8170SOL    HW125409   6.818   4.326   2.066
 8170SOL    HW225410   6.766   4.188   1.998
 8171SOL     OW25411   1.644   1.413   6.922
 8171SOL    HW125412   1.604   1.326   6.895
 8171SOL    HW225413   1.584   1.459   6.988
 8172SOL     OW25414   0.427   2.068   1.497
 8172SOL    HW125415   0.474   2.091   1.412
 8172SOL    HW225416   0.431   1.969   1.512
 8173SOL     OW25417   5.800   2.267   2.355
 8173SOL    HW125418   5.811   2.325   2.436
 8173SOL    HW225419   5.739   2.191   2.376
 8174SOL     OW25420   1.386   6.216   2.422
 8174SOL    HW125421   1.462   6.194   2.360
 8174SOL    HW225422   1.304   6.235   2.369
 8175SOL     OW25423   1.133   2.225   4.183
 8175SOL    HW125424   1.102   2.131   4.198
 8175SOL    HW225425   1.233   2.227   4.185
 8176SOL     OW25426   1.927   4.475   1.490
 8176SOL    HW125427   1.973   4.443   1.573
 8176SOL    HW225428   1.863   4.404   1.458
 8177SOL     OW25429   3.735   1.141   2.719
 8177SOL    HW125430   3.667   1.145   2.647
 8177SOL    HW225431   3.719   1.060   2.776
 8178SOL     OW25432   2.608   6.679   0.590
 8178SOL    HW125433   2.561   6.737   0.657
 8178SOL    HW225434   2.701   6.711   0.578
 8179SOL     OW25435   5.021   0.884   4.146
 8179SOL    HW125436   5.101   0.883   4.085
 8179SOL    HW225437   5.037   0.949   4.220
 8180SOL     OW25438   5.796   6.682   6.601
 8180SOL    HW125439   5.713   6.733   6.622
 8180SOL    HW225440   5.853   6.677   6.683
 8181SOL     OW25441   0.862   1.101   0.779
 8181SOL    HW125442   0.776   1.140   0.745
 8181SOL    HW225443   0.842   1.015   0.827
 8182SOL     OW25444   3.617   3.896   4.756
 8182SOL    HW125445   3.523   3.914   4.727
 8182SOL    HW225446   3.662   3.838   4.688
 8183SOL     OW25447   6.483   0.630   5.089
 8183SOL    HW125448   6.538   0.685   5.026
 8183SOL    HW225449   6.470   0.681   5.174
 8184SOL     OW25450   1.203   6.635   6.618
 8184SOL    HW125451   1.189   6.734   6.618
 8184SOL    HW225452   1.123   6.590   6.659
 8185SOL     OW25453   1.086   0.681   0.487
 8185SOL    HW125454   1.078   0.780   0.497
 8185SOL    HW225455   1.011   0.647   0.431
 8186SOL     OW25456   1.676   5.227   6.698
 8186SOL    HW125457   1.663   5.128   6.704
 8186SOL    HW225458   1.606   5.267   6.639
 8187SOL     OW25459   1.924   1.729   5.124
 8187SOL    HW125460   1.939   1.764   5.217
 8187SOL    HW225461   1.953   1.634   5.119
 8188SOL     OW25462   4.193   2.035   3.982
 8188SOL    HW125463   4.189   1.962   3.914
 8188SOL    HW225464   4.105   2.041   4.030
 8189SOL     OW25465   4.967   4.967   3.441
 8189SOL    HW125466   4.952   4.966   3.540
 8189SOL    HW225467   4.983   4.874   3.409
 8190SOL     OW25468   5.330   3.597   3.251
 8190SOL    HW125469   5.247   3.622   3.202
 8190SOL    HW225470   5.406   3.591   3.186
 8191SOL     OW25471   4.325   4.983   1.933
 8191SOL    HW125472   4.258   4.912   1.956
 8191SOL    HW225473   4.373   4.956   1.850
 8192SOL     OW25474   1.669   4.996   3.203
 8192SOL    HW125475   1.687   5.029   3.110
 8192SOL    HW225476   1.716   4.909   3.217
 8193SOL     OW25477   6.877   5.128   4.842
 8193SOL    HW125478   6.903   5.134   4.745
 8193SOL    HW225479   6.788   5.085   4.850
 8194SOL     OW25480   4.428   0.059   1.070
 8194SOL    HW125481   4.448   0.140   1.015
 8194SOL    HW225482   4.514   0.013   1.094
 8195SOL     OW25483   5.965   6.696   3.814
 8195SOL    HW125484   6.026   6.673   3.889
 8195SOL    HW225485   5.913   6.778   3.836
 8196SOL     OW25486   4.773   0.961   0.337
 8196SOL    HW125487   4.682   0.949   0.377
 8196SOL    HW225488   4.797   0.880   0.284
 8197SOL     OW25489   4.539   1.739   1.739
 8197SOL    HW125490   4.630   1.772   1.765
 8197SOL    HW225491   4.517   1.772   1.647
 8198SOL     OW25492   2.898   0.484   1.740
 8198SOL    HW125493   2.967   0.555   1.724
 8198SOL    HW225494   2.807   0.523   1.728
 8199SOL     OW25495   4.985   2.508   5.955
 8199SOL    HW125496   5.065   2.566   5.970
 8199SOL    HW225497   4.935   2.539   5.875
 8200SOL     OW25498   5.794   4.022   1.935
 8200SOL    HW125499   5.719   4.055   1.992
 8200SOL    HW225500   5.881   4.042   1.979
 8201SOL     OW25501   0.508   0.874   5.161
 8201SOL    HW125502   0.421   0.834   5.190
 8201SOL    HW225503   0.553   0.916   5.239
 8202SOL     OW25504   0.035   6.220   2.114
 8202SOL    HW125505   6.965   6.218   2.137
 8202SOL    HW225506   0.056   6.145   2.051
 8203SOL     OW25507   1.834   2.658   6.847
 8203SOL    HW125508   1.896   2.722   6.892
 8203SOL    HW225509   1.749   2.705   6.824
 8204SOL     OW25510   4.377   3.547   0.828
 8204SOL    HW125511   4.349   3.476   0.893
 8204SOL    HW225512   4.477   3.553   0.827
 8205SOL     OW25513   0.742   2.807   0.248
 8205SOL    HW125514   0.704   2.816   0.340
 8205SOL    HW225515   0.750   2.898   0.207
 8206SOL     OW25516   4.318   1.337   0.026
 8206SOL    HW125517   4.332   1.241   0.004
 8206SOL    HW225518   4.324   1.392   6.970
 8207SOL     OW25519   3.614   2.914   4.281
 8207SOL    HW125520   3.621   2.879   4.374
 8207SOL    HW225521   3.543   2.985   4.277
 8208SOL     OW25522   0.670   1.069   6.917
 8208SOL    HW125523   0.594   1.120   6.956
 8208SOL    HW225524   0.670   1.080   6.817
 8209SOL     OW25525   0.313   0.633   5.191
 8209SOL    HW125526   0.283   0.646   5.285
 8209SOL    HW225527   0.234   0.634   5.130
 8210SOL     OW25528   1.875   3.013   6.839
 8210SOL    HW125529   1.785   3.040   6.804
 8210SOL    HW225530   1.932   3.094   6.849
 8211SOL     OW25531   3.497   4.374   1.171
 8211SOL    HW125532   3.592   4.401   1.157
 8211SOL    HW225533   3.483   4.282   1.135
 8212SOL     OW25534   1.382   2.195   2.917
 8212SOL    HW125535   1.302   2.152   2.877
 8212SOL    HW225536   1.416   2.266   2.856
 8213SOL     OW25537   6.928   5.047   2.137
 8213SOL    HW125538   6.861   4.976   2.159
 8213SOL    HW225539   6.916   5.077   2.042
 8214SOL     OW25540   5.818   4.988   3.350
 8214SOL    HW125541   5.884   4.998   3.276
 8214SOL    HW225542   5.788   5.078   3.381
 8215SOL     OW25543   3.595   5.429   4.710
 8215SOL    HW125544   3.562   5.346   4.755
 8215SOL    HW225545   3.674   5.464   4.759
 8216SOL     OW25546   5.278   5.377   4.178
 8216SOL    HW125547   5.179   5.366   4.187
 8216SOL    HW225548   5.298   5.468   4.142
 8217SOL     OW25549   2.035   5.031   0.728
 8217SOL    HW125550   2.039   4.960   0.799
 8217SOL    HW225551   2.047   4.989   0.638
 8218SOL     OW25552   0.602   2.022   6.883
 8218SOL    HW125553   0.592   2.118   6.854
 8218SOL    HW225554   0.529   1.967   6.842
 8219SOL     OW25555   4.874   2.149   0.868
 8219SOL    HW125556   4.874   2.052   0.892
 8219SOL    HW225557   4.967   2.185   0.875
 8220SOL     OW25558   4.081   3.166   3.155
 8220SOL    HW125559   4.167   3.158   3.104
 8220SOL    HW225560   4.018   3.095   3.124
 8221SOL     OW25561   5.052   6.253   4.196
 8221SOL    HW125562   5.004   6.194   4.261
 8221SOL    HW225563   5.127   6.202   4.153
 8222SOL     OW25564   5.338   1.703   2.249
 8222SOL    HW125565   5.251   1.688   2.296
 8222SOL    HW225566   5.347   1.801   2.227
 8223SOL     OW25567   0.616   4.581   5.621
 8223SOL    HW125568   0.638   4.484   5.613
 8223SOL    HW225569   0.664   4.632   5.550
 8224SOL     OW25570   1.175   2.681   3.156
 8224SOL    HW125571   1.128   2.671   3.068
 8224SOL    HW225572   1.119   2.734   3.219
 8225SOL     OW25573   4.241   1.067   0.466
 8225SOL    HW125574   4.233   1.111   0.377
 8225SOL    HW225575   4.222   1.133   0.539
 8226SOL     OW25576   5.192   0.447   1.899
 8226SOL    HW125577   5.238   0.530   1.931
 8226SOL    HW225578   5.260   0.385   1.859
 8227SOL     OW25579   0.565   2.339   3.924
 8227SOL    HW125580   0.663   2.318   3.913
 8227SOL    HW225581   0.539   2.330   4.020
 8228SOL     OW25582   6.968   2.731   5.691
 8228SOL    HW125583   6.872   2.748   5.715
 8228SOL    HW225584   7.025   2.807   5.722
 8229SOL     OW25585   3.504   5.250   0.255
 8229SOL    HW125586   3.534   5.258   0.350
 8229SOL    HW225587   3.418   5.301   0.243
 8230SOL     OW25588   5.687   6.899   5.316
 8230SOL    HW125589   5.673   6.986   5.268
 8230SOL    HW225590   5.634   6.899   5.401
 8231SOL     OW25591   3.992   5.880   1.547
 8231SOL    HW125592   3.951   5.863   1.637
 8231SOL    HW225593   3.982   5.798   1.490
 8232SOL     OW25594   4.669   1.254   0.832
 8232SOL    HW125595   4.620   1.203   0.761
 8232SOL    HW225596   4.612   1.330   0.863
 8233SOL     OW25597   0.945   5.823   6.609
 8233SOL    HW125598   0.956   5.733   6.566
 8233SOL    HW225599   1.033   5.855   6.643
 8234SOL     OW25600   2.523   3.074   0.245
 8234SOL    HW125601   2.470   3.150   0.283
 8234SOL    HW225602   2.460   3.010   0.199
 8235SOL     OW25603   2.314   2.843   0.628
 8235SOL    HW125604   2.287   2.879   0.717
 8235SOL    HW225605   2.411   2.861   0.612
 8236SOL     OW25606   6.779   3.954   0.042
 8236SOL    HW125607   6.833   3.884   0.090
 8236SOL    HW225608   6.804   3.956   6.973
 8237SOL     OW25609   4.964   6.230   4.508
 8237SOL    HW125610   4.890   6.274   4.558
 8237SOL    HW225611   5.047   6.232   4.563
 8238SOL     OW25612   1.741   4.146   0.416
 8238SOL    HW125613   1.738   4.046   0.418
 8238SOL    HW225614   1.670   4.180   0.354
 8239SOL     OW25615   6.073   2.126   5.526
 8239SOL    HW125616   6.165   2.094   5.547
 8239SOL    HW225617   6.032   2.164   5.609
 8240SOL     OW25618   3.788   3.544   2.699
 8240SOL    HW125619   3.820   3.624   2.647
 8240SOL    HW225620   3.789   3.566   2.796
 8241SOL     OW25621   3.063   6.771   0.366
 8241SOL    HW125622   3.114   6.695   0.405
 8241SOL    HW225623   3.126   6.845   0.343
 8242SOL     OW25624   1.158   4.417   5.980
 8242SOL    HW125625   1.075   4.400   5.927
 8242SOL    HW225626   1.235   4.370   5.938
 8243SOL     OW25627   0.738   3.072   6.629
 8243SOL    HW125628   0.795   2.995   6.601
 8243SOL    HW225629   0.679   3.100   6.554
 8244SOL     OW25630   0.857   6.627   3.573
 8244SOL    HW125631   0.888   6.597   3.664
 8244SOL    HW225632   0.765   6.664   3.580
 8245SOL     OW25633   3.935   1.601   2.726
 8245SOL    HW125634   3.905   1.658   2.650
 8245SOL    HW225635   3.867   1.529   2.744
 8246SOL     OW25636   6.617   4.348   5.670
 8246SOL    HW125637   6.550   4.279   5.696
 8246SOL    HW225638   6.571   4.434   5.651
 8247SOL     OW25639   1.072   1.324   1.501
 8247SOL    HW125640   1.120   1.250   1.548
 8247SOL    HW225641   1.053   1.297   1.407
 8248SOL     OW25642   6.184   4.698   3.630
 8248SOL    HW125643   6.107   4.762   3.629
 8248SOL    HW225644   6.215   4.685   3.724
 8249SOL     OW25645   1.711   4.044   4.786
 8249SOL    HW125646   1.754   4.064   4.874
 8249SOL    HW225647   1.757   4.097   4.715
 8250SOL     OW25648   3.371   4.167   2.193
 8250SOL    HW125649   3.311   4.239   2.158
 8250SOL    HW225650   3.447   4.153   2.129
 8251SOL     OW25651   5.934   2.323   4.768
 8251SOL    HW125652   5.957   2.343   4.673
 8251SOL    HW225653   5.840   2.351   4.787
 8252SOL     OW25654   3.101   3.653   7.014
 8252SOL    HW125655   3.104   3.751   0.007
 8252SOL    HW225656   3.194   3.619   7.000
 8253SOL     OW25657   3.536   3.186   5.088
 8253SOL    HW125658   3.453   3.239   5.107
 8253SOL    HW225659   3.581   3.221   5.006
 8254SOL     OW25660   4.262   5.005   4.560
 8254SOL    HW125661   4.263   5.098   4.522
 8254SOL    HW225662   4.335   4.997   4.629
 8255SOL     OW25663   3.692   6.194   4.569
 8255SOL    HW125664   3.699   6.241   4.481
 8255SOL    HW225665   3.760   6.231   4.632
 8256SOL     OW25666   6.268   6.965   3.160
 8256SOL    HW125667   6.226   6.877   3.180
 8256SOL    HW225668   6.205   0.012   3.186
 8257SOL     OW25669   6.949   4.525   3.308
 8257SOL    HW125670   6.990   4.550   3.395
 8257SOL    HW225671   6.919   4.429   3.311
 8258SOL     OW25672   5.239   1.383   0.755
 8258SOL    HW125673   5.294   1.303   0.783
 8258SOL    HW225674   5.195   1.363   0.667
 8259SOL     OW25675   4.153   1.540   3.630
 8259SOL    HW125676   4.171   1.629   3.671
 8259SOL    HW225677   4.233   1.512   3.577
 8260SOL     OW25678   2.821   0.547   1.381
 8260SOL    HW125679   2.812   0.604   1.462
 8260SOL    HW225680   2.766   0.584   1.307
 8261SOL     OW25681   5.743   1.194   1.598
 8261SOL    HW125682   5.776   1.109   1.558
 8261SOL    HW225683   5.796   1.217   1.679
 8262SOL     OW25684   0.487   2.413   0.739
 8262SOL    HW125685   0.507   2.458   0.826
 8262SOL    HW225686   0.556   2.342   0.722
 8263SOL     OW25687   0.391   2.150   0.267
 8263SOL    HW125688   0.301   2.155   0.224
 8263SOL    HW225689   0.419   2.054   0.274
 8264SOL     OW25690   1.356   5.888   2.418
 8264SOL    HW125691   1.391   5.963   2.473
 8264SOL    HW225692   1.311   5.821   2.477
 8265SOL     OW25693   1.347   6.995   1.792
 8265SOL    HW125694   1.330   6.898   1.810
 8265SOL    HW225695   1.422   7.004   1.727
 8266SOL     OW25696   2.159   0.599   2.688
 8266SOL    HW125697   2.238   0.562   2.738
 8266SOL    HW225698   2.115   0.526   2.637
 8267SOL     OW25699   2.002   3.350   1.609
 8267SOL    HW125700   2.026   3.309   1.521
 8267SOL    HW225701   2.066   3.319   1.679
 8268SOL     OW25702   2.354   6.512   6.315
 8268SOL    HW125703   2.412   6.592   6.327
 8268SOL    HW225704   2.258   6.540   6.316
 8269SOL     OW25705   5.710   1.205   1.208
 8269SOL    HW125706   5.705   1.114   1.249
 8269SOL    HW225707   5.797   1.214   1.159
 8270SOL     OW25708   2.412   0.025   4.440
 8270SOL    HW125709   2.323   7.013   4.464
 8270SOL    HW225710   2.479   7.024   4.509
 8271SOL     OW25711   6.917   0.435   2.089
 8271SOL    HW125712   6.862   0.383   2.153
 8271SOL    HW225713   7.012   0.401   2.092
 8272SOL     OW25714   4.829   1.078   1.336
 8272SOL    HW125715   4.899   1.129   1.284
 8272SOL    HW225716   4.873   1.027   1.409
 8273SOL     OW25717   1.506   6.428   0.924
 8273SOL    HW125718   1.494   6.388   0.833
 8273SOL    HW225719   1.602   6.421   0.951
 8274SOL     OW25720   4.663   4.831   3.457
 8274SOL    HW125721   4.614   4.911   3.425
 8274SOL    HW225722   4.761   4.845   3.447
 8275SOL     OW25723   4.569   1.823   6.336
 8275SOL    HW125724   4.564   1.826   6.236
 8275SOL    HW225725   4.642   1.884   6.367
 8276SOL     OW25726   0.985   2.230   3.715
 8276SOL    HW125727   1.023   2.139   3.729
 8276SOL    HW225728   1.024   2.271   3.632
 8277SOL     OW25729   0.455   0.633   6.874
 8277SOL    HW125730   0.421   0.553   6.921
 8277SOL    HW225731   0.388   0.662   6.804
 8278SOL     OW25732   2.495   1.896   6.575
 8278SOL    HW125733   2.399   1.921   6.587
 8278SOL    HW225734   2.551   1.978   6.563
 8279SOL     OW25735   1.212   0.429   4.302
 8279SOL    HW125736   1.222   0.385   4.213
 8279SOL    HW225737   1.116   0.444   4.322
 8280SOL     OW25738   2.775   3.064   0.422
 8280SOL    HW125739   2.789   3.079   0.324
 8280SOL    HW225740   2.837   2.993   0.454
 8281SOL     OW25741   1.364   5.313   1.238
 8281SOL    HW125742   1.322   5.336   1.150
 8281SOL    HW225743   1.456   5.351   1.242
 8282SOL     OW25744   5.512   3.458   6.713
 8282SOL    HW125745   5.509   3.525   6.787
 8282SOL    HW225746   5.459   3.492   6.635
 8283SOL     OW25747   0.998   4.600   6.500
 8283SOL    HW125748   1.041   4.512   6.480
 8283SOL    HW225749   1.028   4.667   6.432
 8284SOL     OW25750   0.663   3.705   1.887
 8284SOL    HW125751   0.734   3.729   1.821
 8284SOL    HW225752   0.614   3.624   1.854
 8285SOL     OW25753   4.154   3.095   5.420
 8285SOL    HW125754   4.149   3.190   5.452
 8285SOL    HW225755   4.083   3.080   5.351
 8286SOL     OW25756   5.287   3.314   6.899
 8286SOL    HW125757   5.264   3.229   6.945
 8286SOL    HW225758   5.381   3.310   6.866
 8287SOL     OW25759   2.031   5.278   4.734
 8287SOL    HW125760   2.036   5.225   4.819
 8287SOL    HW225761   2.086   5.233   4.664
 8288SOL     OW25762   2.898   1.946   2.292
 8288SOL    HW125763   2.931   1.880   2.225
 8288SOL    HW225764   2.955   2.028   2.289
 8289SOL     OW25765   0.248   6.972   1.496
 8289SOL    HW125766   0.187   6.980   1.574
 8289SOL    HW225767   0.276   6.876   1.485
 8290SOL     OW25768   6.435   1.073   0.251
 8290SOL    HW125769   6.368   1.070   0.326
 8290SOL    HW225770   6.450   1.168   0.223
 8291SOL     OW25771   4.943   6.717   6.682
 8291SOL    HW125772   4.891   6.679   6.758
 8291SOL    HW225773   5.029   6.666   6.672
 8292SOL     OW25774   2.416   6.451   6.982
 8292SOL    HW125775   2.447   6.362   7.016
 8292SOL    HW225776   2.457   6.469   6.892
 8293SOL     OW25777   3.268   0.265   0.144
 8293SOL    HW125778   3.251   0.362   0.125
 8293SOL    HW225779   3.246   0.246   0.239
 8294SOL     OW25780   5.940   4.225   5.487
 8294SOL    HW125781   5.845   4.198   5.503
 8294SOL    HW225782   5.948   4.325   5.493
 8295SOL     OW25783   5.104   5.190   2.188
 8295SOL    HW125784   5.159   5.170   2.269
 8295SOL    HW225785   5.133   5.131   2.113
 8296SOL     OW25786   2.102   6.664   6.366
 8296SOL    HW125787   2.109   6.750   6.316
 8296SOL    HW225788   2.006   6.636   6.373
 8297SOL     OW25789   6.555   2.846   2.473
 8297SOL    HW125790   6.482   2.792   2.515
 8297SOL    HW225791   6.518   2.934   2.444
 8298SOL     OW25792   5.802   2.308   1.511
 8298SOL    HW125793   5.755   2.321   1.598
 8298SOL    HW225794   5.835   2.214   1.504
 8299SOL     OW25795   0.039   2.645   1.909
 8299SOL    HW125796   7.023   2.717   1.964
 8299SOL    HW225797   0.136   2.638   1.932
 8300SOL     OW25798   1.236   5.707   6.019
 8300SOL    HW125799   1.228   5.650   5.937
 8300SOL    HW225800   1.293   5.786   5.999
 8301SOL     OW25801   3.427   1.555   1.151
 8301SOL    HW125802   3.417   1.638   1.207
 8301SOL    HW225803   3.485   1.489   1.199
 8302SOL     OW25804   6.080   6.055   5.523
 8302SOL    HW125805   6.045   6.022   5.610
 8302SOL    HW225806   6.029   6.013   5.448
 8303SOL     OW25807   6.840   0.362   3.943
 8303SOL    HW125808   6.830   0.399   3.850
 8303SOL    HW225809   6.867   0.266   3.937
 8304SOL     OW25810   1.136   3.308   6.774
 8304SOL    HW125811   1.194   3.299   6.854
 8304SOL    HW225812   1.148   3.399   6.734
 8305SOL     OW25813   3.682   5.073   4.481
 8305SOL    HW125814   3.724   5.078   4.391
 8305SOL    HW225815   3.735   5.012   4.540
 8306SOL     OW25816   0.461   2.973   4.870
 8306SOL    HW125817   0.440   3.046   4.935
 8306SOL    HW225818   0.560   2.962   4.862
 8307SOL     OW25819   4.271   5.366   1.965
 8307SOL    HW125820   4.289   5.397   1.872
 8307SOL    HW225821   4.345   5.396   2.025
 8308SOL     OW25822   4.417   5.810   1.420
 8308SOL    HW125823   4.352   5.886   1.434
 8308SOL    HW225824   4.414   5.749   1.500
 8309SOL     OW25825   6.271   5.736   3.611
 8309SOL    HW125826   6.332   5.677   3.665
 8309SOL    HW225827   6.324   5.810   3.570
 8310SOL     OW25828   1.299   4.204   0.867
 8310SOL    HW125829   1.358   4.254   0.803
 8310SOL    HW225830   1.313   4.238   0.960
 8311SOL     OW25831   0.229   1.144   5.315
 8311SOL    HW125832   0.328   1.160   5.308
 8311SOL    HW225833   0.208   1.053   5.279
 8312SOL     OW25834   4.355   5.882   1.773
 8312SOL    HW125835   4.341   5.966   1.719
 8312SOL    HW225836   4.267   5.852   1.810
 8313SOL     OW25837   4.193   1.137   1.971
 8313SOL    HW125838   4.158   1.184   2.052
 8313SOL    HW225839   4.293   1.145   1.969
 8314SOL     OW25840   4.933   6.440   1.060
 8314SOL    HW125841   4.902   6.346   1.065
 8314SOL    HW225842   4.928   6.481   1.152
 8315SOL     OW25843   4.031   3.376   0.760
 8315SOL    HW125844   4.113   3.400   0.812
 8315SOL    HW225845   4.039   3.281   0.727
 8316SOL     OW25846   0.860   2.770   1.630
 8316SOL    HW125847   0.841   2.735   1.538
 8316SOL    HW225848   0.865   2.693   1.694
 8317SOL     OW25849   2.061   3.209   2.297
 8317SOL    HW125850   1.985   3.149   2.323
 8317SOL    HW225851   2.045   3.246   2.206
 8318SOL     OW25852   4.637   1.758   4.543
 8318SOL    HW125853   4.710   1.825   4.528
 8318SOL    HW225854   4.550   1.796   4.509
 8319SOL     OW25855   2.851   1.999   6.363
 8319SOL    HW125856   2.784   1.997   6.289
 8319SOL    HW225857   2.935   2.044   6.331
 8320SOL     OW25858   3.518   4.901   1.221
 8320SOL    HW125859   3.558   4.810   1.206
 8320SOL    HW225860   3.469   4.901   1.309
 8321SOL     OW25861   7.022   1.270   6.770
 8321SOL    HW125862   0.049   1.349   6.802
 8321SOL    HW225863   6.964   1.237   6.844
 8322SOL     OW25864   0.329   6.992   0.388
 8322SOL    HW125865   0.402   6.982   0.455
 8322SOL    HW225866   0.282   6.905   0.376
 8323SOL     OW25867   6.872   6.706   2.714
 8323SOL    HW125868   6.910   6.633   2.770
 8323SOL    HW225869   6.946   6.765   2.682
 8324SOL     OW25870   6.553   0.181   2.300
 8324SOL    HW125871   6.569   0.169   2.202
 8324SOL    HW225872   6.570   0.276   2.325
 8325SOL     OW25873   3.332   3.264   4.566
 8325SOL    HW125874   3.344   3.359   4.593
 8325SOL    HW225875   3.398   3.241   4.495
 8326SOL     OW25876   4.548   3.187   5.339
 8326SOL    HW125877   4.541   3.231   5.428
 8326SOL    HW225878   4.483   3.111   5.334
 8327SOL     OW25879   5.465   2.272   6.161
 8327SOL    HW125880   5.445   2.290   6.064
 8327SOL    HW225881   5.476   2.358   6.209
 8328SOL     OW25882   2.640   4.334   6.165
 8328SOL    HW125883   2.662   4.268   6.094
 8328SOL    HW225884   2.651   4.427   6.128
 8329SOL     OW25885   0.315   3.800   6.213
 8329SOL    HW125886   0.380   3.778   6.140
 8329SOL    HW225887   0.351   3.768   6.300
 8330SOL     OW25888   1.600   0.280   0.121
 8330SOL    HW125889   1.506   0.308   0.142
 8330SOL    HW225890   1.609   0.268   0.022
 8331SOL     OW25891   2.788   0.684   0.646
 8331SOL    HW125892   2.819   0.615   0.712
 8331SOL    HW225893   2.867   0.727   0.603
 8332SOL     OW25894   4.928   4.565   2.745
 8332SOL    HW125895   4.932   4.646   2.803
 8332SOL    HW225896   5.010   4.509   2.760
 8333SOL     OW25897   0.313   5.850   6.857
 8333SOL    HW125898   0.379   5.814   6.790
 8333SOL    HW225899   0.353   5.929   6.904
 8334SOL     OW25900   5.331   1.837   3.721
 8334SOL    HW125901   5.321   1.847   3.622
 8334SOL    HW225902   5.394   1.763   3.741
 8335SOL     OW25903   6.644   5.464   5.229
 8335SOL    HW125904   6.723   5.419   5.188
 8335SOL    HW225905   6.593   5.512   5.157
 8336SOL     OW25906   0.137   0.887   1.575
 8336SOL    HW125907   0.182   0.810   1.528
 8336SOL    HW225908   0.042   0.863   1.594
 8337SOL     OW25909   1.285   6.574   3.072
 8337SOL    HW125910   1.283   6.674   3.076
 8337SOL    HW225911   1.214   6.537   3.131
 8338SOL     OW25912   1.887   4.928   2.438
 8338SOL    HW125913   1.851   5.018   2.412
 8338SOL    HW225914   1.817   4.876   2.486
 8339SOL     OW25915   5.902   0.775   1.368
 8339SOL    HW125916   5.995   0.811   1.371
 8339SOL    HW225917   5.897   0.700   1.302
 8340SOL     OW25918   4.854   3.937   0.904
 8340SOL    HW125919   4.851   3.931   0.805
 8340SOL    HW225920   4.832   4.030   0.933
 8341SOL     OW25921   2.477   6.286   0.473
 8341SOL    HW125922   2.379   6.279   0.490
 8341SOL    HW225923   2.503   6.382   0.464
 8342SOL     OW25924   3.399   0.279   1.591
 8342SOL    HW125925   3.349   0.275   1.504
 8342SOL    HW225926   3.399   0.373   1.625
 8343SOL     OW25927   0.960   4.927   6.318
 8343SOL    HW125928   0.952   5.025   6.332
 8343SOL    HW225929   0.880   4.892   6.271
 8344SOL     OW25930   5.012   6.683   5.651
 8344SOL    HW125931   5.002   6.618   5.726
 8344SOL    HW225932   4.922   6.713   5.620
 8345SOL     OW25933   5.157   2.227   3.273
 8345SOL    HW125934   5.176   2.310   3.326
 8345SOL    HW225935   5.081   2.244   3.210
 8346SOL     OW25936   3.079   4.830   0.097
 8346SOL    HW125937   2.986   4.794   0.111
 8346SOL    HW225938   3.146   4.766   0.135
 8347SOL     OW25939   3.376   6.823   4.947
 8347SOL    HW125940   3.439   6.746   4.936
 8347SOL    HW225941   3.423   6.898   4.994
 8348SOL     OW25942   1.304   0.050   1.470
 8348SOL    HW125943   1.383   7.019   1.491
 8348SOL    HW225944   1.330   0.146   1.480
 8349SOL     OW25945   5.741   4.769   1.675
 8349SOL    HW125946   5.699   4.776   1.584
 8349SOL    HW225947   5.802   4.847   1.689
 8350SOL     OW25948   4.426   1.060   4.779
 8350SOL    HW125949   4.472   1.002   4.712
 8350SOL    HW225950   4.358   1.118   4.733
 8351SOL     OW25951   4.516   4.998   4.653
 8351SOL    HW125952   4.528   4.906   4.692
 8351SOL    HW225953   4.597   5.053   4.671
 8352SOL     OW25954   6.586   0.038   2.048
 8352SOL    HW125955   6.591   6.965   2.060
 8352SOL    HW225956   6.672   0.070   2.007
 8353SOL     OW25957   5.634   3.799   1.882
 8353SOL    HW125958   5.647   3.897   1.898
 8353SOL    HW225959   5.721   3.752   1.896
 8354SOL     OW25960   3.544   0.775   6.773
 8354SOL    HW125961   3.485   0.830   6.833
 8354SOL    HW225962   3.620   0.738   6.826
 8355SOL     OW25963   3.238   0.590   6.702
 8355SOL    HW125964   3.167   0.548   6.758
 8355SOL    HW225965   3.254   0.684   6.733
 8356SOL     OW25966   1.186   6.972   0.552
 8356SOL    HW125967   1.163   6.898   0.615
 8356SOL    HW225968   1.111   6.984   0.486
 8357SOL     OW25969   3.846   6.656   6.191
 8357SOL    HW125970   3.752   6.676   6.216
 8357SOL    HW225971   3.863   6.686   6.097
 8358SOL     OW25972   1.911   3.031   4.799
 8358SOL    HW125973   1.817   3.064   4.804
 8358SOL    HW225974   1.919   2.963   4.725
 8359SOL     OW25975   3.216   6.288   4.562
 8359SOL    HW125976   3.142   6.351   4.541
 8359SOL    HW225977   3.241   6.236   4.480
 8360SOL     OW25978   3.579   6.624   2.560
 8360SOL    HW125979   3.486   6.588   2.570
 8360SOL    HW225980   3.583   6.716   2.599
 8361SOL     OW25981   1.485   1.220   1.879
 8361SOL    HW125982   1.572   1.240   1.835
 8361SOL    HW225983   1.456   1.298   1.935
 8362SOL     OW25984   2.587   2.310   0.110
 8362SOL    HW125985   2.662   2.359   0.066
 8362SOL    HW225986   2.572   2.347   0.202
 8363SOL     OW25987   1.019   2.772   0.266
 8363SOL    HW125988   1.054   2.819   0.185
 8363SOL    HW225989   0.923   2.749   0.251
 8364SOL     OW25990   6.888   3.373   3.540
 8364SOL    HW125991   6.868   3.439   3.612
 8364SOL    HW225992   6.944   3.416   3.469
 8365SOL     OW25993   1.530   4.307   1.857
 8365SOL    HW125994   1.533   4.223   1.803
 8365SOL    HW225995   1.437   4.323   1.890
 8366SOL     OW25996   4.187   5.680   2.297
 8366SOL    HW125997   4.253   5.748   2.264
 8366SOL    HW225998   4.236   5.605   2.341
 8367SOL     OW25999   3.916   6.101   4.278
 8367SOL    HW126000   3.892   6.011   4.316
 8367SOL    HW226001   4.001   6.133   4.318
 8368SOL     OW26002   3.277   6.490   6.094
 8368SOL    HW126003   3.206   6.461   6.159
 8368SOL    HW226004   3.349   6.421   6.091
 8369SOL     OW26005   1.945   1.060   6.599
 8369SOL    HW126006   1.951   0.979   6.658
 8369SOL    HW226007   1.979   1.140   6.649
 8370SOL     OW26008   3.420   2.073   5.946
 8370SOL    HW126009   3.442   2.079   5.848
 8370SOL    HW226010   3.487   2.124   5.998
 8371SOL     OW26011   1.616   4.303   1.199
 8371SOL    HW126012   1.628   4.371   1.126
 8371SOL    HW226013   1.521   4.302   1.227
 8372SOL     OW26014   0.922   6.165   2.578
 8372SOL    HW126015   0.859   6.089   2.593
 8372SOL    HW226016   0.912   6.231   2.652
 8373SOL     OW26017   0.679   0.361   4.836
 8373SOL    HW126018   0.616   0.363   4.913
 8373SOL    HW226019   0.755   0.424   4.852
 8374SOL     OW26020   6.758   0.312   6.707
 8374SOL    HW126021   6.735   0.409   6.709
 8374SOL    HW226022   6.852   0.300   6.674
 8375SOL     OW26023   3.453   6.282   6.031
 8375SOL    HW126024   3.539   6.261   6.078
 8375SOL    HW226025   3.409   6.197   6.002
 8376SOL     OW26026   2.245   0.159   4.250
 8376SOL    HW126027   2.285   0.132   4.337
 8376SOL    HW226028   2.274   0.251   4.226
 8377SOL     OW26029   5.508   5.667   1.972
 8377SOL    HW126030   5.482   5.754   2.013
 8377SOL    HW226031   5.602   5.673   1.938
 8378SOL     OW26032   4.430   4.531   2.874
 8378SOL    HW126033   4.460   4.442   2.909
 8378SOL    HW226034   4.336   4.524   2.842
 8379SOL     OW26035   6.800   2.856   1.001
 8379SOL    HW126036   6.808   2.946   1.043
 8379SOL    HW226037   6.890   2.811   1.002
 8380SOL     OW26038   6.319   1.027   2.388
 8380SOL    HW126039   6.228   1.067   2.390
 8380SOL    HW226040   6.358   1.026   2.480
 8381SOL     OW26041   0.855   4.418   4.698
 8381SOL    HW126042   0.886   4.323   4.700
 8381SOL    HW226043   0.914   4.471   4.636
 8382SOL     OW26044   1.088   1.673   2.103
 8382SOL    HW126045   1.012   1.609   2.091
 8382SOL    HW226046   1.119   1.670   2.198
 8383SOL     OW26047   2.279   1.865   6.383
 8383SOL    HW126048   2.270   1.775   6.426
 8383SOL    HW226049   2.376   1.883   6.365
 8384SOL     OW26050   0.214   6.796   0.538
 8384SOL    HW126051   0.295   6.828   0.588
 8384SOL    HW226052   0.134   6.799   0.599
 8385SOL     OW26053   6.352   2.835   1.844
 8385SOL    HW126054   6.342   2.756   1.783
 8385SOL    HW226055   6.377   2.915   1.790
 8386SOL     OW26056   0.954   4.307   2.665
 8386SOL    HW126057   1.007   4.368   2.606
 8386SOL    HW226058   0.899   4.362   2.729
 8387SOL     OW26059   0.952   1.597   1.229
 8387SOL    HW126060   1.005   1.560   1.152
 8387SOL    HW226061   0.981   1.692   1.245
 8388SOL     OW26062   1.630   6.334   1.285
 8388SOL    HW126063   1.655   6.242   1.313
 8388SOL    HW226064   1.582   6.331   1.197
 8389SOL     OW26065   5.408   3.243   2.274
 8389SOL    HW126066   5.413   3.341   2.253
 8389SOL    HW226067   5.372   3.194   2.195
 8390SOL     OW26068   3.593   1.593   6.393
 8390SOL    HW126069   3.576   1.653   6.315
 8390SOL    HW226070   3.505   1.568   6.435
 8391SOL     OW26071   5.811   6.185   0.991
 8391SOL    HW126072   5.840   6.237   1.072
 8391SOL    HW226073   5.884   6.185   0.924
 8392SOL     OW26074   5.719   3.930   3.946
 8392SOL    HW126075   5.636   3.874   3.951
 8392SOL    HW226076   5.749   3.938   3.851
 8393SOL     OW26077   5.614   0.502   2.486
 8393SOL    HW126078   5.684   0.507   2.415
 8393SOL    HW226079   5.580   0.594   2.506
 8394SOL     OW26080   6.121   3.511   1.798
 8394SOL    HW126081   6.146   3.436   1.736
 8394SOL    HW226082   6.064   3.577   1.748
 8395SOL     OW26083   3.096   6.606   5.895
 8395SOL    HW126084   3.147   6.554   5.963
 8395SOL    HW226085   3.100   6.703   5.917
 8396SOL     OW26086   4.456   4.657   3.435
 8396SOL    HW126087   4.534   4.719   3.446
 8396SOL    HW226088   4.457   4.618   3.344
 8397SOL     OW26089   0.879   0.999   3.655
 8397SOL    HW126090   0.892   1.056   3.574
 8397SOL    HW226091   0.836   1.053   3.727
 8398SOL     OW26092   5.049   2.035   6.556
 8398SOL    HW126093   4.992   2.107   6.594
 8398SOL    HW226094   4.992   1.956   6.532
 8399SOL     OW26095   6.532   6.412   6.624
 8399SOL    HW126096   6.436   6.385   6.615
 8399SOL    HW226097   6.545   6.457   6.712
 8400SOL     OW26098   1.523   2.106   4.076
 8400SOL    HW126099   1.459   2.182   4.084
 8400SOL    HW226100   1.616   2.141   4.067
 8401SOL     OW26101   2.214   1.024   5.331
 8401SOL    HW126102   2.248   1.081   5.406
 8401SOL    HW226103   2.259   1.050   5.246
 8402SOL     OW26104   5.393   1.356   6.121
 8402SOL    HW126105   5.394   1.377   6.219
 8402SOL    HW226106   5.341   1.427   6.073
 8403SOL     OW26107   0.278   4.041   4.593
 8403SOL    HW126108   0.193   3.998   4.625
 8403SOL    HW226109   0.301   4.116   4.655
 8404SOL     OW26110   3.194   0.882   5.662
 8404SOL    HW126111   3.154   0.840   5.581
 8404SOL    HW226112   3.240   0.812   5.716
 8405SOL     OW26113   3.885   1.736   6.393
 8405SOL    HW126114   3.803   1.756   6.339
 8405SOL    HW226115   3.961   1.792   6.360
 8406SOL     OW26116   4.570   0.516   0.803
 8406SOL    HW126117   4.666   0.496   0.787
 8406SOL    HW226118   4.560   0.608   0.841
 8407SOL     OW26119   4.733   5.990   3.920
 8407SOL    HW126120   4.767   6.057   3.986
 8407SOL    HW226121   4.634   6.000   3.911
 8408SOL     OW26122   5.083   5.950   6.904
 8408SOL    HW126123   5.100   6.022   6.972
 8408SOL    HW226124   5.171   5.912   6.874
 8409SOL     OW26125   4.577   2.505   1.824
 8409SOL    HW126126   4.493   2.480   1.775
 8409SOL    HW226127   4.583   2.604   1.832
 8410SOL     OW26128   5.987   2.138   1.776
 8410SOL    HW126129   5.898   2.097   1.799
 8410SOL    HW226130   6.003   2.217   1.835
 8411SOL     OW26131   0.366   6.157   1.225
 8411SOL    HW126132   0.434   6.198   1.286
 8411SOL    HW226133   0.373   6.199   1.134
 8412SOL     OW26134   3.852   2.770   0.864
 8412SOL    HW126135   3.795   2.851   0.848
 8412SOL    HW226136   3.936   2.797   0.911
 8413SOL     OW26137   4.065   6.016   6.281
 8413SOL    HW126138   4.051   5.955   6.359
 8413SOL    HW226139   4.147   5.988   6.231
 8414SOL     OW26140   1.968   1.571   2.457
 8414SOL    HW126141   2.017   1.637   2.514
 8414SOL    HW226142   1.881   1.611   2.428
 8415SOL     OW26143   2.840   6.745   3.758
 8415SOL    HW126144   2.814   6.836   3.726
 8415SOL    HW226145   2.779   6.715   3.831
 8416SOL     OW26146   6.209   1.780   4.941
 8416SOL    HW126147   6.228   1.781   4.842
 8416SOL    HW226148   6.268   1.712   4.985
 8417SOL     OW26149   2.136   3.124   5.551
 8417SOL    HW126150   2.198   3.171   5.488
 8417SOL    HW226151   2.165   3.141   5.645
 8418SOL     OW26152   0.589   5.688   2.253
 8418SOL    HW126153   0.601   5.764   2.189
 8418SOL    HW226154   0.611   5.718   2.346
 8419SOL     OW26155   6.110   1.636   3.404
 8419SOL    HW126156   6.122   1.730   3.436
 8419SOL    HW226157   6.090   1.637   3.305
 8420SOL     OW26158   3.234   7.008   2.021
 8420SOL    HW126159   3.258   0.055   1.957
 8420SOL    HW226160   3.244   6.920   1.975
 8421SOL     OW26161   2.812   6.101   0.016
 8421SOL    HW126162   2.805   6.188   6.994
 8421SOL    HW226163   2.740   6.039   7.012
 8422SOL     OW26164   4.483   2.449   2.268
 8422SOL    HW126165   4.400   2.394   2.264
 8422SOL    HW226166   4.472   2.529   2.208
 8423SOL     OW26167   4.393   4.389   5.755
 8423SOL    HW126168   4.364   4.477   5.795
 8423SOL    HW226169   4.439   4.335   5.825
 8424SOL     OW26170   1.947   1.409   3.581
 8424SOL    HW126171   2.024   1.395   3.643
 8424SOL    HW226172   1.918   1.320   3.544
 8425SOL     OW26173   3.380   3.921   4.582
 8425SOL    HW126174   3.377   3.851   4.511
 8425SOL    HW226175   3.287   3.947   4.608
 8426SOL     OW26176   3.650   3.242   2.454
 8426SOL    HW126177   3.611   3.209   2.368
 8426SOL    HW226178   3.604   3.197   2.531
 8427SOL     OW26179   3.182   3.674   3.238
 8427SOL    HW126180   3.180   3.768   3.271
 8427SOL    HW226181   3.143   3.670   3.146
 8428SOL     OW26182   0.405   0.391   1.291
 8428SOL    HW126183   0.462   0.309   1.296
 8428SOL    HW226184   0.317   0.368   1.251
 8429SOL     OW26185   2.092   5.397   5.876
 8429SOL    HW126186   2.167   5.348   5.833
 8429SOL    HW226187   2.122   5.489   5.900
 8430SOL     OW26188   3.915   4.857   3.984
 8430SOL    HW126189   3.968   4.795   4.041
 8430SOL    HW226190   3.914   4.823   3.890
 8431SOL     OW26191   3.115   4.032   6.764
 8431SOL    HW126192   3.156   4.122   6.778
 8431SOL    HW226193   3.023   4.043   6.727
 8432SOL     OW26194   6.667   5.339   5.714
 8432SOL    HW126195   6.650   5.362   5.619
 8432SOL    HW226196   6.655   5.420   5.771
 8433SOL     OW26197   4.332   2.565   0.994
 8433SOL    HW126198   4.327   2.641   1.059
 8433SOL    HW226199   4.299   2.596   0.905
 8434SOL     OW26200   2.097   5.622   5.433
 8434SOL    HW126201   2.034   5.665   5.368
 8434SOL    HW226202   2.188   5.616   5.392
 8435SOL     OW26203   5.377   0.687   3.007
 8435SOL    HW126204   5.388   0.655   3.101
 8435SOL    HW226205   5.351   0.783   3.007
 8436SOL     OW26206   2.591   6.126   3.900
 8436SOL    HW126207   2.536   6.057   3.854
 8436SOL    HW226208   2.608   6.202   3.838
 8437SOL     OW26209   1.804   2.696   2.403
 8437SOL    HW126210   1.804   2.747   2.317
 8437SOL    HW226211   1.877   2.730   2.462
 8438SOL     OW26212   2.195   3.805   2.884
 8438SOL    HW126213   2.261   3.863   2.837
 8438SOL    HW226214   2.105   3.849   2.883
 8439SOL     OW26215   6.482   5.551   3.709
 8439SOL    HW126216   6.516   5.609   3.783
 8439SOL    HW226217   6.430   5.475   3.748
 8440SOL     OW26218   2.542   1.902   3.808
 8440SOL    HW126219   2.590   1.819   3.835
 8440SOL    HW226220   2.600   1.982   3.825
 8441SOL     OW26221   5.309   5.393   5.251
 8441SOL    HW126222   5.329   5.444   5.167
 8441SOL    HW226223   5.253   5.450   5.312
 8442SOL     OW26224   3.336   0.242   5.161
 8442SOL    HW126225   3.342   0.293   5.247
 8442SOL    HW226226   3.241   0.234   5.133
 8443SOL     OW26227   2.268   5.042   3.688
 8443SOL    HW126228   2.244   5.105   3.614
 8443SOL    HW226229   2.240   4.949   3.663
 8444SOL     OW26230   3.590   6.197   3.540
 8444SOL    HW126231   3.641   6.123   3.584
 8444SOL    HW226232   3.565   6.264   3.609
 8445SOL     OW26233   2.272   0.537   0.012
 8445SOL    HW126234   2.235   0.455   6.996
 8445SOL    HW226235   2.199   0.586   0.060
 8446SOL     OW26236   0.390   6.170   4.768
 8446SOL    HW126237   0.440   6.115   4.835
 8446SOL    HW226238   0.394   6.125   4.678
 8447SOL     OW26239   3.640   1.181   2.203
 8447SOL    HW126240   3.633   1.268   2.155
 8447SOL    HW226241   3.550   1.156   2.240
 8448SOL     OW26242   4.992   5.987   3.863
 8448SOL    HW126243   4.894   5.988   3.880
 8448SOL    HW226244   5.038   5.932   3.932
 8449SOL     OW26245   0.861   3.237   3.951
 8449SOL    HW126246   0.774   3.190   3.965
 8449SOL    HW226247   0.927   3.173   3.911
 8450SOL     OW26248   0.318   0.606   0.351
 8450SOL    HW126249   0.366   0.566   0.429
 8450SOL    HW226250   0.233   0.557   0.334
 8451SOL     OW26251   3.292   1.110   0.486
 8451SOL    HW126252   3.226   1.180   0.511
 8451SOL    HW226253   3.266   1.068   0.399
 8452SOL     OW26254   4.901   2.418   4.436
 8452SOL    HW126255   4.984   2.453   4.393
 8452SOL    HW226256   4.925   2.357   4.511
 8453SOL     OW26257   0.334   5.030   6.683
 8453SOL    HW126258   0.370   5.107   6.632
 8453SOL    HW226259   0.377   4.946   6.652
 8454SOL     OW26260   0.549   4.680   0.140
 8454SOL    HW126261   0.511   4.754   0.085
 8454SOL    HW226262   0.482   4.606   0.148
 8455SOL     OW26263   0.264   0.719   2.635
 8455SOL    HW126264   0.175   0.674   2.633
 8455SOL    HW226265   0.303   0.711   2.727
 8456SOL     OW26266   5.024   0.544   3.474
 8456SOL    HW126267   5.072   0.555   3.560
 8456SOL    HW226268   4.926   0.564   3.487
 8457SOL     OW26269   6.556   6.483   4.553
 8457SOL    HW126270   6.480   6.418   4.546
 8457SOL    HW226271   6.542   6.557   4.487
 8458SOL     OW26272   0.596   0.245   0.304
 8458SOL    HW126273   0.680   0.198   0.332
 8458SOL    HW226274   0.615   0.343   0.294
 8459SOL     OW26275   1.845   5.680   3.329
 8459SOL    HW126276   1.817   5.717   3.418
 8459SOL    HW226277   1.785   5.716   3.258
 8460SOL     OW26278   4.330   3.776   5.541
 8460SOL    HW126279   4.313   3.857   5.485
 8460SOL    HW226280   4.399   3.719   5.496
 8461SOL     OW26281   0.339   2.267   5.375
 8461SOL    HW126282   0.322   2.187   5.318
 8461SOL    HW226283   0.269   2.272   5.446
 8462SOL     OW26284   3.352   1.724   1.348
 8462SOL    HW126285   3.279   1.791   1.333
 8462SOL    HW226286   3.434   1.771   1.381
 8463SOL     OW26287   6.164   7.017   2.092
 8463SOL    HW126288   6.085   6.964   2.123
 8463SOL    HW226289   6.243   6.995   2.150
 8464SOL     OW26290   5.975   3.632   4.617
 8464SOL    HW126291   5.898   3.677   4.663
 8464SOL    HW226292   6.057   3.643   4.673
 8465SOL     OW26293   1.467   2.000   0.203
 8465SOL    HW126294   1.524   1.940   0.258
 8465SOL    HW226295   1.370   1.984   0.224
 8466SOL     OW26296   1.402   5.792   3.765
 8466SOL    HW126297   1.364   5.849   3.839
 8466SOL    HW226298   1.374   5.830   3.677
 8467SOL     OW26299   2.624   5.993   1.079
 8467SOL    HW126300   2.569   6.073   1.055
 8467SOL    HW226301   2.577   5.939   1.148
 8468SOL     OW26302   3.887   2.117   0.356
 8468SOL    HW126303   3.807   2.178   0.363
 8468SOL    HW226304   3.901   2.093   0.260
 8469SOL     OW26305   3.166   2.947   6.850
 8469SOL    HW126306   3.212   2.991   6.927
 8469SOL    HW226307   3.192   2.993   6.765
 8470SOL     OW26308   1.960   2.844   0.947
 8470SOL    HW126309   2.010   2.833   1.033
 8470SOL    HW226310   1.869   2.804   0.957
 8471SOL     OW26311   2.390   0.481   3.755
 8471SOL    HW126312   2.410   0.512   3.848
 8471SOL    HW226313   2.419   0.386   3.744
 8472SOL     OW26314   0.523   6.937   4.337
 8472SOL    HW126315   0.563   6.851   4.302
 8472SOL    HW226316   0.458   6.972   4.270
 8473SOL     OW26317   0.082   5.859   0.143
 8473SOL    HW126318   0.147   5.893   0.211
 8473SOL    HW226319   0.056   5.934   0.082
 8474SOL     OW26320   3.160   3.167   1.771
 8474SOL    HW126321   3.159   3.139   1.867
 8474SOL    HW226322   3.155   3.085   1.713
 8475SOL     OW26323   6.006   2.033   2.148
 8475SOL    HW126324   5.992   1.975   2.228
 8475SOL    HW226325   6.076   1.991   2.089
 8476SOL     OW26326   5.946   6.844   2.146
 8476SOL    HW126327   6.000   6.831   2.229
 8476SOL    HW226328   5.855   6.875   2.170
 8477SOL     OW26329   2.768   6.741   1.032
 8477SOL    HW126330   2.773   6.678   0.954
 8477SOL    HW226331   2.798   6.694   1.115
 8478SOL     OW26332   1.707   0.629   5.744
 8478SOL    HW126333   1.715   0.714   5.796
 8478SOL    HW226334   1.771   0.561   5.781
 8479SOL     OW26335   5.928   0.954   0.124
 8479SOL    HW126336   6.014   0.915   0.093
 8479SOL    HW226337   5.927   0.960   0.224
 8480SOL     OW26338   2.893   0.685   1.055
 8480SOL    HW126339   2.801   0.669   1.091
 8480SOL    HW226340   2.925   0.775   1.082
 8481SOL     OW26341   4.067   1.257   4.469
 8481SOL    HW126342   4.101   1.179   4.521
 8481SOL    HW226343   4.141   1.295   4.413
 8482SOL     OW26344   2.056   6.899   2.132
 8482SOL    HW126345   1.968   6.946   2.132
 8482SOL    HW226346   2.047   6.810   2.088
 8483SOL     OW26347   3.218   5.566   2.466
 8483SOL    HW126348   3.256   5.618   2.390
 8483SOL    HW226349   3.292   5.516   2.512
 8484SOL     OW26350   0.252   4.636   3.349
 8484SOL    HW126351   0.232   4.552   3.298
 8484SOL    HW226352   0.195   4.710   3.313
 8485SOL     OW26353   1.802   3.752   0.819
 8485SOL    HW126354   1.850   3.754   0.907
 8485SOL    HW226355   1.773   3.658   0.799
 8486SOL     OW26356   5.514   1.262   2.762
 8486SOL    HW126357   5.430   1.255   2.708
 8486SOL    HW226358   5.494   1.307   2.849
 8487SOL     OW26359   5.325   0.049   0.985
 8487SOL    HW126360   5.349   0.146   0.985
 8487SOL    HW226361   5.397   7.024   0.940
 8488SOL     OW26362   5.529   5.046   4.586
 8488SOL    HW126363   5.457   5.027   4.519
 8488SOL    HW226364   5.560   5.141   4.576
 8489SOL     OW26365   5.663   5.037   1.509
 8489SOL    HW126366   5.601   4.964   1.539
 8489SOL    HW226367   5.640   5.063   1.415
 8490SOL     OW26368   4.676   5.792   3.124
 8490SOL    HW126369   4.609   5.734   3.171
 8490SOL    HW226370   4.638   5.883   3.112
 8491SOL     OW26371   2.500   0.467   1.857
 8491SOL    HW126372   2.433   0.541   1.867
 8491SOL    HW226373   2.570   0.476   1.929
 8492SOL     OW26374   5.214   3.394   5.453
 8492SOL    HW126375   5.311   3.416   5.446
 8492SOL    HW226376   5.163   3.445   5.383
 8493SOL     OW26377   3.678   1.737   0.243
 8493SOL    HW126378   3.749   1.801   0.273
 8493SOL    HW226379   3.703   1.644   0.268
 8494SOL     OW26380   2.424   5.591   6.704
 8494SOL    HW126381   2.327   5.615   6.702
 8494SOL    HW226382   2.479   5.674   6.693
 8495SOL     OW26383   6.646   3.215   0.492
 8495SOL    HW126384   6.704   3.270   0.551
 8495SOL    HW226385   6.699   3.140   0.453
 8496SOL     OW26386   0.287   1.758   3.972
 8496SOL    HW126387   0.334   1.727   4.055
 8496SOL    HW226388   0.336   1.837   3.934
 8497SOL     OW26389   5.368   5.652   4.152
 8497SOL    HW126390   5.452   5.599   4.162
 8497SOL    HW226391   5.390   5.743   4.115
 8498SOL     OW26392   0.130   7.021   1.774
 8498SOL    HW126393   0.224   0.024   1.789
 8498SOL    HW226394   0.073   0.074   1.753
 8499SOL     OW26395   2.630   5.097   6.328
 8499SOL    HW126396   2.625   5.069   6.232
 8499SOL    HW226397   2.618   5.196   6.334
 8500SOL     OW26398   2.829   0.036   5.476
 8500SOL    HW126399   2.905   7.014   5.433
 8500SOL    HW226400   2.840   0.134   5.462
 8501SOL     OW26401   1.652   3.159   6.687
 8501SOL    HW126402   1.592   3.234   6.716
 8501SOL    HW226403   1.743   3.195   6.665
 8502SOL     OW26404   0.880   5.604   1.631
 8502SOL    HW126405   0.841   5.694   1.650
 8502SOL    HW226406   0.819   5.533   1.668
 8503SOL     OW26407   1.215   5.084   3.568
 8503SOL    HW126408   1.246   5.095   3.474
 8503SOL    HW226409   1.156   5.162   3.593
 8504SOL     OW26410   1.877   6.159   3.814
 8504SOL    HW126411   1.839   6.202   3.732
 8504SOL    HW226412   1.969   6.194   3.831
 8505SOL     OW26413   5.433   4.369   3.651
 8505SOL    HW126414   5.351   4.382   3.595
 8505SOL    HW226415   5.409   4.316   3.733
 8506SOL     OW26416   1.041   6.233   0.338
 8506SOL    HW126417   0.948   6.268   0.341
 8506SOL    HW226418   1.070   6.223   0.243
 8507SOL     OW26419   2.385   0.902   5.640
 8507SOL    HW126420   2.455   0.831   5.634
 8507SOL    HW226421   2.404   0.961   5.718
 8508SOL     OW26422   6.450   2.843   5.221
 8508SOL    HW126423   6.361   2.861   5.179
 8508SOL    HW226424   6.447   2.757   5.272
 8509SOL     OW26425   6.544   1.111   4.550
 8509SOL    HW126426   6.541   1.107   4.450
 8509SOL    HW226427   6.603   1.187   4.578
 8510SOL     OW26428   6.459   5.509   3.171
 8510SOL    HW126429   6.465   5.435   3.104
 8510SOL    HW226430   6.534   5.500   3.237
 8511SOL     OW26431   5.492   4.146   1.650
 8511SOL    HW126432   5.442   4.089   1.715
 8511SOL    HW226433   5.550   4.210   1.701
 8512SOL     OW26434   4.311   2.173   0.340
 8512SOL    HW126435   4.292   2.245   0.407
 8512SOL    HW226436   4.270   2.198   0.252
 8513SOL     OW26437   4.989   3.659   0.587
 8513SOL    HW126438   5.012   3.744   0.636
 8513SOL    HW226439   5.022   3.581   0.640
 8514SOL     OW26440   2.445   2.404   3.737
 8514SOL    HW126441   2.536   2.388   3.699
 8514SOL    HW226442   2.377   2.394   3.665
 8515SOL     OW26443   0.381   1.295   6.787
 8515SOL    HW126444   0.389   1.261   6.881
 8515SOL    HW226445   0.441   1.241   6.728
 8516SOL     OW26446   6.054   2.742   2.645
 8516SOL    HW126447   6.021   2.712   2.735
 8516SOL    HW226448   5.979   2.738   2.579
 8517SOL     OW26449   1.849   2.901   5.881
 8517SOL    HW126450   1.925   2.935   5.937
 8517SOL    HW226451   1.762   2.919   5.928
 8518SOL     OW26452   4.999   4.084   6.122
 8518SOL    HW126453   4.969   4.023   6.048
 8518SOL    HW226454   5.093   4.113   6.105
 8519SOL     OW26455   0.966   4.551   0.365
 8519SOL    HW126456   0.964   4.641   0.321
 8519SOL    HW226457   0.907   4.552   0.446
 8520SOL     OW26458   3.277   3.262   5.214
 8520SOL    HW126459   3.238   3.296   5.128
 8520SOL    HW226460   3.210   3.269   5.287
 8521SOL     OW26461   2.379   6.488   5.539
 8521SOL    HW126462   2.415   6.457   5.451
 8521SOL    HW226463   2.429   6.569   5.569
 8522SOL     OW26464   1.075   0.674   1.089
 8522SOL    HW126465   0.978   0.685   1.114
 8522SOL    HW226466   1.105   0.581   1.111
 8523SOL     OW26467   3.127   6.939   6.535
 8523SOL    HW126468   3.212   6.909   6.578
 8523SOL    HW226469   3.054   6.939   6.603
 8524SOL     OW26470   1.291   4.447   5.074
 8524SOL    HW126471   1.263   4.533   5.116
 8524SOL    HW226472   1.212   4.386   5.067
 8525SOL     OW26473   5.390   4.820   1.198
 8525SOL    HW126474   5.327   4.848   1.270
 8525SOL    HW226475   5.481   4.805   1.236
 8526SOL     OW26476   3.067   6.477   0.857
 8526SOL    HW126477   3.123   6.549   0.815
 8526SOL    HW226478   3.126   6.407   0.895
 8527SOL     OW26479   3.350   0.419   6.883
 8527SOL    HW126480   3.337   0.483   6.807
 8527SOL    HW226481   3.314   0.459   6.967
 8528SOL     OW26482   4.905   1.734   1.127
 8528SOL    HW126483   4.875   1.762   1.218
 8528SOL    HW226484   4.975   1.798   1.094
 8529SOL     OW26485   1.319   6.396   0.208
 8529SOL    HW126486   1.273   6.477   0.172
 8529SOL    HW226487   1.350   6.338   0.132
 8530SOL     OW26488   2.941   3.838   4.513
 8530SOL    HW126489   2.993   3.882   4.439
 8530SOL    HW226490   2.844   3.841   4.491
 8531SOL     OW26491   0.211   5.291   3.292
 8531SOL    HW126492   0.180   5.349   3.216
 8531SOL    HW226493   0.171   5.325   3.377
 8532SOL     OW26494   3.585   6.658   4.339
 8532SOL    HW126495   3.652   6.651   4.265
 8532SOL    HW226496   3.499   6.617   4.309
 8533SOL     OW26497   1.091   5.892   6.867
 8533SOL    HW126498   1.011   5.860   6.918
 8533SOL    HW226499   1.068   5.975   6.817
 8534SOL     OW26500   4.788   2.906   3.686
 8534SOL    HW126501   4.814   2.837   3.618
 8534SOL    HW226502   4.694   2.935   3.670
 8535SOL     OW26503   6.305   1.305   4.555
 8535SOL    HW126504   6.402   1.315   4.576
 8535SOL    HW226505   6.293   1.311   4.456
 8536SOL     OW26506   1.420   2.471   5.206
 8536SOL    HW126507   1.349   2.436   5.267
 8536SOL    HW226508   1.462   2.396   5.156
 8537SOL     OW26509   6.327   1.406   3.467
 8537SOL    HW126510   6.305   1.318   3.507
 8537SOL    HW226511   6.244   1.458   3.450
 8538SOL     OW26512   1.863   1.775   0.236
 8538SOL    HW126513   1.898   1.869   0.230
 8538SOL    HW226514   1.883   1.727   0.151
 8539SOL     OW26515   6.534   2.274   2.261
 8539SOL    HW126516   6.580   2.363   2.266
 8539SOL    HW226517   6.552   2.223   2.346
 8540SOL     OW26518   4.831   0.214   6.537
 8540SOL    HW126519   4.790   0.123   6.537
 8540SOL    HW226520   4.875   0.232   6.449
 8541SOL     OW26521   2.918   1.963   3.711
 8541SOL    HW126522   2.957   1.993   3.624
 8541SOL    HW226523   2.975   1.889   3.748
 8542SOL     OW26524   3.127   4.693   6.106
 8542SOL    HW126525   3.186   4.709   6.027
 8542SOL    HW226526   3.093   4.599   6.104
 8543SOL     OW26527   1.448   2.101   0.535
 8543SOL    HW126528   1.425   2.119   0.439
 8543SOL    HW226529   1.506   2.174   0.569
 8544SOL     OW26530   5.786   3.053   4.110
 8544SOL    HW126531   5.837   3.134   4.081
 8544SOL    HW226532   5.711   3.035   4.046
 8545SOL     OW26533   4.936   6.631   6.391
 8545SOL    HW126534   4.922   6.641   6.489
 8545SOL    HW226535   4.979   6.543   6.372
 8546SOL     OW26536   6.364   1.934   3.284
 8546SOL    HW126537   6.318   1.975   3.206
 8546SOL    HW226538   6.382   1.837   3.265
 8547SOL     OW26539   1.847   5.951   6.304
 8547SOL    HW126540   1.934   5.997   6.314
 8547SOL    HW226541   1.829   5.895   6.385
 8548SOL     OW26542   6.139   2.141   5.139
 8548SOL    HW126543   6.095   2.077   5.201
 8548SOL    HW226544   6.081   2.221   5.127
 8549SOL     OW26545   6.950   4.180   4.363
 8549SOL    HW126546   6.933   4.248   4.292
 8549SOL    HW226547   6.962   4.090   4.320
 8550SOL     OW26548   1.890   4.808   0.305
 8550SOL    HW126549   1.825   4.738   0.336
 8550SOL    HW226550   1.926   4.781   0.215
 8551SOL     OW26551   3.281   4.322   6.512
 8551SOL    HW126552   3.308   4.360   6.424
 8551SOL    HW226553   3.226   4.390   6.562
 8552SOL     OW26554   2.970   5.523   3.392
 8552SOL    HW126555   2.973   5.612   3.436
 8552SOL    HW226556   3.047   5.514   3.329
 8553SOL     OW26557   5.213   5.945   0.215
 8553SOL    HW126558   5.268   5.945   0.298
 8553SOL    HW226559   5.260   5.894   0.144
 8554SOL     OW26560   0.331   4.827   0.320
 8554SOL    HW126561   0.345   4.886   0.400
 8554SOL    HW226562   0.381   4.863   0.242
 8555SOL     OW26563   1.267   0.610   2.672
 8555SOL    HW126564   1.317   0.557   2.604
 8555SOL    HW226565   1.191   0.657   2.628
 8556SOL     OW26566   0.778   0.403   3.166
 8556SOL    HW126567   0.760   0.399   3.068
 8556SOL    HW226568   0.825   0.488   3.188
 8557SOL     OW26569   6.442   0.205   1.899
 8557SOL    HW126570   6.452   0.304   1.913
 8557SOL    HW226571   6.500   0.156   1.964
 8558SOL     OW26572   1.926   5.318   2.697
 8558SOL    HW126573   2.014   5.276   2.675
 8558SOL    HW226574   1.940   5.400   2.752
 8559SOL     OW26575   0.659   0.833   2.042
 8559SOL    HW126576   0.700   0.832   2.133
 8559SOL    HW226577   0.637   0.928   2.017
 8560SOL     OW26578   6.977   0.436   0.676
 8560SOL    HW126579   6.922   0.450   0.758
 8560SOL    HW226580   6.965   0.343   0.643
 8561SOL     OW26581   4.363   5.920   2.459
 8561SOL    HW126582   4.395   6.015   2.464
 8561SOL    HW226583   4.352   5.894   2.364
 8562SOL     OW26584   4.723   6.549   4.585
 8562SOL    HW126585   4.756   6.466   4.630
 8562SOL    HW226586   4.636   6.530   4.539
 8563SOL     OW26587   2.934   3.272   6.699
 8563SOL    HW126588   2.835   3.263   6.710
 8563SOL    HW226589   2.954   3.319   6.614
 8564SOL     OW26590   1.309   0.776   3.098
 8564SOL    HW126591   1.336   0.858   3.149
 8564SOL    HW226592   1.259   0.714   3.160
 8565SOL     OW26593   4.015   7.005   1.396
 8565SOL    HW126594   3.938   7.001   1.333
 8565SOL    HW226595   4.039   0.074   1.413
 8566SOL     OW26596   1.236   1.885   3.004
 8566SOL    HW126597   1.323   1.909   3.047
 8566SOL    HW226598   1.165   1.948   3.034
 8567SOL     OW26599   6.184   1.316   1.588
 8567SOL    HW126600   6.190   1.219   1.614
 8567SOL    HW226601   6.150   1.323   1.494
 8568SOL     OW26602   5.051   1.584   6.901
 8568SOL    HW126603   4.993   1.523   6.954
 8568SOL    HW226604   5.137   1.600   6.950
 8569SOL     OW26605   4.806   1.203   5.221
 8569SOL    HW126606   4.794   1.219   5.123
 8569SOL    HW226607   4.751   1.269   5.273
 8570SOL     OW26608   1.469   4.558   6.235
 8570SOL    HW126609   1.438   4.463   6.231
 8570SOL    HW226610   1.480   4.592   6.142
 8571SOL     OW26611   0.097   5.277   5.607
 8571SOL    HW126612   0.100   5.357   5.546
 8571SOL    HW226613   0.005   5.238   5.606
 8572SOL     OW26614   2.219   5.457   5.631
 8572SOL    HW126615   2.168   5.518   5.571
 8572SOL    HW226616   2.222   5.365   5.591
 8573SOL     OW26617   4.053   6.078   6.797
 8573SOL    HW126618   4.086   5.985   6.783
 8573SOL    HW226619   4.131   6.136   6.823
 8574SOL     OW26620   0.891   4.659   6.002
 8574SOL    HW126621   0.885   4.585   6.069
 8574SOL    HW226622   0.979   4.706   6.012
 8575SOL     OW26623   2.708   2.493   6.716
 8575SOL    HW126624   2.750   2.526   6.801
 8575SOL    HW226625   2.637   2.426   6.737
 8576SOL     OW26626   0.517   7.004   1.542
 8576SOL    HW126627   0.424   7.023   1.509
 8576SOL    HW226628   0.512   6.940   1.619
 8577SOL     OW26629   6.348   5.241   4.116
 8577SOL    HW126630   6.274   5.309   4.109
 8577SOL    HW226631   6.423   5.268   4.055
 8578SOL     OW26632   4.657   0.218   4.679
 8578SOL    HW126633   4.715   0.198   4.600
 8578SOL    HW226634   4.568   0.173   4.667
 8579SOL     OW26635   1.106   4.866   3.448
 8579SOL    HW126636   1.136   4.946   3.500
 8579SOL    HW226637   1.008   4.870   3.433
 8580SOL     OW26638   2.260   6.953   1.744
 8580SOL    HW126639   2.341   6.899   1.763
 8580SOL    HW226640   2.234   7.005   1.825
 8581SOL     OW26641   3.536   1.945   1.404
 8581SOL    HW126642   3.599   1.923   1.478
 8581SOL    HW226643   3.515   2.043   1.407
 8582SOL     OW26644   5.086   4.521   2.275
 8582SOL    HW126645   5.059   4.425   2.264
 8582SOL    HW226646   5.083   4.566   2.186
 8583SOL     OW26647   6.113   0.684   6.298
 8583SOL    HW126648   6.102   0.649   6.391
 8583SOL    HW226649   6.070   0.621   6.234
 8584SOL     OW26650   0.149   4.313   0.534
 8584SOL    HW126651   0.154   4.340   0.437
 8584SOL    HW226652   0.149   4.395   0.591
 8585SOL     OW26653   0.392   0.589   0.834
 8585SOL    HW126654   0.381   0.502   0.883
 8585SOL    HW226655   0.303   0.634   0.825
 8586SOL     OW26656   2.958   6.262   3.063
 8586SOL    HW126657   2.884   6.231   3.124
 8586SOL    HW226658   2.920   6.290   2.976
 8587SOL     OW26659   0.483   1.412   3.097
 8587SOL    HW126660   0.495   1.455   3.008
 8587SOL    HW226661   0.428   1.329   3.087
 8588SOL     OW26662   3.247   1.716   0.787
 8588SOL    HW126663   3.205   1.661   0.859
 8588SOL    HW226664   3.217   1.683   0.697
 8589SOL     OW26665   3.834   1.114   4.710
 8589SOL    HW126666   3.785   1.089   4.793
 8589SOL    HW226667   3.817   1.210   4.688
 8590SOL     OW26668   6.650   5.858   4.803
 8590SOL    HW126669   6.590   5.921   4.852
 8590SOL    HW226670   6.676   5.783   4.864
 8591SOL     OW26671   0.609   4.673   6.351
 8591SOL    HW126672   0.678   4.728   6.304
 8591SOL    HW226673   0.655   4.606   6.411
 8592SOL     OW26674   0.070   4.447   0.268
 8592SOL    HW126675   7.002   4.463   0.239
 8592SOL    HW226676   0.099   4.520   0.329
 8593SOL     OW26677   0.970   6.915   2.235
 8593SOL    HW126678   1.069   6.924   2.244
 8593SOL    HW226679   0.949   6.851   2.161
 8594SOL     OW26680   3.323   3.750   4.352
 8594SOL    HW126681   3.364   3.747   4.261
 8594SOL    HW226682   3.228   3.783   4.345
 8595SOL     OW26683   2.074   2.315   2.766
 8595SOL    HW126684   2.151   2.265   2.806
 8595SOL    HW226685   2.064   2.289   2.670
 8596SOL     OW26686   5.491   5.244   1.924
 8596SOL    HW126687   5.454   5.276   2.011
 8596SOL    HW226688   5.480   5.145   1.918
 8597SOL     OW26689   3.404   2.159   1.095
 8597SOL    HW126690   3.342   2.082   1.084
 8597SOL    HW226691   3.363   2.240   1.053
 8598SOL     OW26692   0.016   5.387   1.020
 8598SOL    HW126693   0.029   5.375   1.118
 8598SOL    HW226694   7.001   5.477   1.003
 8599SOL     OW26695   1.013   2.784   3.886
 8599SOL    HW126696   0.957   2.793   3.969
 8599SOL    HW226697   1.029   2.687   3.868
 8600SOL     OW26698   6.311   4.769   6.573
 8600SOL    HW126699   6.389   4.722   6.614
 8600SOL    HW226700   6.230   4.756   6.630
 8601SOL     OW26701   0.072   1.508   4.771
 8601SOL    HW126702   0.079   1.515   4.672
 8601SOL    HW226703   0.160   1.536   4.812
 8602SOL     OW26704   2.755   6.529   2.973
 8602SOL    HW126705   2.784   6.617   2.934
 8602SOL    HW226706   2.659   6.513   2.951
 8603SOL     OW26707   3.397   3.855   0.094
 8603SOL    HW126708   3.382   3.952   0.114
 8603SOL    HW226709   3.439   3.847   0.004
 8604SOL     OW26710   6.486   2.721   4.004
 8604SOL    HW126711   6.421   2.689   4.073
 8604SOL    HW226712   6.441   2.791   3.947
 8605SOL     OW26713   3.777   5.239   3.913
 8605SOL    HW126714   3.713   5.179   3.962
 8605SOL    HW226715   3.750   5.244   3.816
 8606SOL     OW26716   2.668   4.171   5.933
 8606SOL    HW126717   2.619   4.107   5.874
 8606SOL    HW226718   2.763   4.177   5.903
 8607SOL     OW26719   3.717   5.857   1.172
 8607SOL    HW126720   3.758   5.790   1.110
 8607SOL    HW226721   3.717   5.821   1.266
 8608SOL     OW26722   4.552   5.063   2.766
 8608SOL    HW126723   4.640   5.060   2.814
 8608SOL    HW226724   4.479   5.033   2.827
 8609SOL     OW26725   3.821   0.250   4.447
 8609SOL    HW126726   3.724   0.258   4.468
 8609SOL    HW226727   3.850   0.329   4.392
 8610SOL     OW26728   1.087   0.271   3.095
 8610SOL    HW126729   1.144   0.256   3.175
 8610SOL    HW226730   1.134   0.235   3.014
 8611SOL     OW26731   1.254   2.201   4.861
 8611SOL    HW126732   1.263   2.195   4.762
 8611SOL    HW226733   1.167   2.161   4.889
 8612SOL     OW26734   3.034   3.542   6.482
 8612SOL    HW126735   2.949   3.569   6.528
 8612SOL    HW226736   3.086   3.623   6.456
 8613SOL     OW26737   2.279   1.440   1.180
 8613SOL    HW126738   2.268   1.435   1.081
 8613SOL    HW226739   2.189   1.443   1.224
 8614SOL     OW26740   0.744   3.982   2.909
 8614SOL    HW126741   0.814   3.982   2.980
 8614SOL    HW226742   0.787   3.979   2.819
 8615SOL     OW26743   4.600   2.058   5.244
 8615SOL    HW126744   4.532   2.114   5.293
 8615SOL    HW226745   4.643   2.113   5.173
 8616SOL     OW26746   0.624   4.750   0.431
 8616SOL    HW126747   0.547   4.787   0.482
 8616SOL    HW226748   0.596   4.733   0.336
 8617SOL     OW26749   6.595   1.852   0.512
 8617SOL    HW126750   6.562   1.840   0.418
 8617SOL    HW226751   6.519   1.838   0.576
 8618SOL     OW26752   4.513   6.792   2.432
 8618SOL    HW126753   4.431   6.762   2.382
 8618SOL    HW226754   4.528   6.731   2.509
 8619SOL     OW26755   4.272   4.973   0.389
 8619SOL    HW126756   4.260   5.012   0.480
 8619SOL    HW226757   4.195   4.912   0.368
 8620SOL     OW26758   6.282   6.444   2.705
 8620SOL    HW126759   6.263   6.455   2.607
 8620SOL    HW226760   6.255   6.527   2.753
 8621SOL     OW26761   6.274   1.121   3.843
 8621SOL    HW126762   6.282   1.100   3.940
 8621SOL    HW226763   6.363   1.108   3.798
 8622SOL     OW26764   4.509   4.123   0.022
 8622SOL    HW126765   4.529   4.145   6.954
 8622SOL    HW226766   4.442   4.049   0.026
 8623SOL     OW26767   0.830   4.811   3.343
 8623SOL    HW126768   0.774   4.891   3.322
 8623SOL    HW226769   0.797   4.732   3.291
 8624SOL     OW26770   1.247   4.395   3.396
 8624SOL    HW126771   1.264   4.332   3.320
 8624SOL    HW226772   1.229   4.342   3.479
 8625SOL     OW26773   4.514   0.437   4.258
 8625SOL    HW126774   4.443   0.417   4.326
 8625SOL    HW226775   4.486   0.399   4.169
 8626SOL     OW26776   3.680   3.266   4.180
 8626SOL    HW126777   3.709   3.360   4.199
 8626SOL    HW226778   3.600   3.243   4.236
 8627SOL     OW26779   1.572   0.886   1.482
 8627SOL    HW126780   1.494   0.831   1.511
 8627SOL    HW226781   1.636   0.897   1.558
 8628SOL     OW26782   6.407   0.131   0.260
 8628SOL    HW126783   6.507   0.125   0.261
 8628SOL    HW226784   6.374   0.149   0.353
 8629SOL     OW26785   1.455   4.581   4.361
 8629SOL    HW126786   1.466   4.495   4.311
 8629SOL    HW226787   1.533   4.641   4.342
 8630SOL     OW26788   5.912   4.179   4.554
 8630SOL    HW126789   5.943   4.087   4.528
 8630SOL    HW226790   5.901   4.183   4.653
 8631SOL     OW26791   4.020   6.168   5.824
 8631SOL    HW126792   4.049   6.247   5.878
 8631SOL    HW226793   3.995   6.093   5.885
 8632SOL     OW26794   3.462   6.807   4.086
 8632SOL    HW126795   3.459   6.735   4.018
 8632SOL    HW226796   3.382   6.799   4.147
 8633SOL     OW26797   5.477   1.275   3.919
 8633SOL    HW126798   5.396   1.217   3.932
 8633SOL    HW226799   5.488   1.335   3.999
 8634SOL     OW26800   6.533   3.810   1.555
 8634SOL    HW126801   6.600   3.779   1.488
 8634SOL    HW226802   6.505   3.904   1.534
 8635SOL     OW26803   5.809   3.664   5.815
 8635SOL    HW126804   5.831   3.731   5.886
 8635SOL    HW226805   5.717   3.681   5.780
 8636SOL     OW26806   6.048   5.187   6.823
 8636SOL    HW126807   6.048   5.111   6.887
 8636SOL    HW226808   6.051   5.153   6.729
 8637SOL     OW26809   2.013   0.860   0.509
 8637SOL    HW126810   1.917   0.831   0.516
 8637SOL    HW226811   2.024   0.922   0.433
 8638SOL     OW26812   2.011   3.692   0.456
 8638SOL    HW126813   1.956   3.625   0.506
 8638SOL    HW226814   1.978   3.784   0.478
 8639SOL     OW26815   5.274   2.544   1.788
 8639SOL    HW126816   5.277   2.446   1.770
 8639SOL    HW226817   5.185   2.580   1.761
 8640SOL     OW26818   4.480   4.007   0.320
 8640SOL    HW126819   4.494   4.023   0.418
 8640SOL    HW226820   4.416   4.074   0.283
 8641SOL     OW26821   6.814   3.979   3.601
 8641SOL    HW126822   6.900   4.017   3.569
 8641SOL    HW226823   6.832   3.890   3.644
 8642SOL     OW26824   4.392   0.287   2.309
 8642SOL    HW126825   4.439   0.365   2.267
 8642SOL    HW226826   4.439   0.203   2.283
 8643SOL     OW26827   4.884   0.076   6.964
 8643SOL    HW126828   4.825   0.035   6.894
 8643SOL    HW226829   4.830   0.137   7.022
 8644SOL     OW26830   5.560   2.347   5.036
 8644SOL    HW126831   5.565   2.423   5.100
 8644SOL    HW226832   5.491   2.282   5.067
 8645SOL     OW26833   5.663   4.775   1.296
 8645SOL    HW126834   5.714   4.844   1.245
 8645SOL    HW226835   5.714   4.689   1.297
 8646SOL     OW26836   5.022   1.144   1.148
 8646SOL    HW126837   5.023   1.059   1.095
 8646SOL    HW226838   4.953   1.206   1.110
 8647SOL     OW26839   3.903   5.041   0.036
 8647SOL    HW126840   3.868   4.951   0.012
 8647SOL    HW226841   3.944   5.084   6.982
 8648SOL     OW26842   5.933   0.980   4.464
 8648SOL    HW126843   5.913   0.922   4.543
 8648SOL    HW226844   5.924   1.076   4.491
 8649SOL     OW26845   6.297   4.484   5.878
 8649SOL    HW126846   6.216   4.463   5.823
 8649SOL    HW226847   6.326   4.401   5.927
 8650SOL     OW26848   2.086   4.750   3.962
 8650SOL    HW126849   2.030   4.797   3.894
 8650SOL    HW226850   2.173   4.798   3.972
 8651SOL     OW26851   3.863   0.949   0.544
 8651SOL    HW126852   3.864   1.010   0.623
 8651SOL    HW226853   3.843   0.856   0.575
 8652SOL     OW26854   1.734   4.037   3.406
 8652SOL    HW126855   1.708   4.065   3.314
 8652SOL    HW226856   1.817   4.086   3.433
 8653SOL     OW26857   6.990   2.276   6.284
 8653SOL    HW126858   0.012   2.202   6.331
 8653SOL    HW226859   6.962   2.244   6.194
 8654SOL     OW26860   0.269   6.167   2.644
 8654SOL    HW126861   0.293   6.124   2.731
 8654SOL    HW226862   0.193   6.230   2.657
 8655SOL     OW26863   5.937   0.228   3.887
 8655SOL    HW126864   5.948   0.180   3.974
 8655SOL    HW226865   6.004   0.193   3.821
 8656SOL     OW26866   6.049   0.895   1.122
 8656SOL    HW126867   5.996   0.868   1.042
 8656SOL    HW226868   6.138   0.850   1.121
 8657SOL     OW26869   4.062   5.320   6.236
 8657SOL    HW126870   4.035   5.227   6.263
 8657SOL    HW226871   4.099   5.318   6.143
 8658SOL     OW26872   5.225   5.218   6.978
 8658SOL    HW126873   5.218   5.125   7.014
 8658SOL    HW226874   5.134   5.257   6.966
 8659SOL     OW26875   4.747   0.718   3.245
 8659SOL    HW126876   4.704   0.807   3.259
 8659SOL    HW226877   4.759   0.701   3.147
 8660SOL     OW26878   5.902   3.808   0.507
 8660SOL    HW126879   5.946   3.724   0.538
 8660SOL    HW226880   5.822   3.786   0.452
 8661SOL     OW26881   5.985   4.146   2.058
 8661SOL    HW126882   5.984   4.094   2.144
 8661SOL    HW226883   6.067   4.202   2.055
 8662SOL     OW26884   5.531   6.447   1.688
 8662SOL    HW126885   5.619   6.438   1.641
 8662SOL    HW226886   5.543   6.502   1.771
 8663SOL     OW26887   2.499   5.765   0.433
 8663SOL    HW126888   2.536   5.758   0.526
 8663SOL    HW226889   2.573   5.784   0.369
 8664SOL     OW26890   4.329   5.101   0.123
 8664SOL    HW126891   4.273   5.108   0.040
 8664SOL    HW226892   4.268   5.096   0.203
 8665SOL     OW26893   5.022   5.781   5.606
 8665SOL    HW126894   4.975   5.723   5.672
 8665SOL    HW226895   4.997   5.753   5.513
 8666SOL     OW26896   5.240   1.645   4.824
 8666SOL    HW126897   5.224   1.706   4.901
 8666SOL    HW226898   5.158   1.641   4.766
 8667SOL     OW26899   5.132   1.752   3.107
 8667SOL    HW126900   5.128   1.754   3.207
 8667SOL    HW226901   5.038   1.751   3.070
 8668SOL     OW26902   5.333   2.392   3.632
 8668SOL    HW126903   5.256   2.389   3.568
 8668SOL    HW226904   5.406   2.332   3.598
 8669SOL     OW26905   3.546   0.429   6.253
 8669SOL    HW126906   3.505   0.342   6.280
 8669SOL    HW226907   3.479   0.485   6.205
 8670SOL     OW26908   3.842   5.646   5.180
 8670SOL    HW126909   3.792   5.703   5.244
 8670SOL    HW226910   3.925   5.612   5.223
 8671SOL     OW26911   5.416   0.341   3.848
 8671SOL    HW126912   5.473   0.349   3.766
 8671SOL    HW226913   5.473   0.347   3.930
 8672SOL     OW26914   2.488   5.688   4.775
 8672SOL    HW126915   2.586   5.696   4.792
 8672SOL    HW226916   2.464   5.592   4.761
 8673SOL     OW26917   0.336   0.952   0.166
 8673SOL    HW126918   0.357   0.857   0.141
 8673SOL    HW226919   0.240   0.958   0.193
 8674SOL     OW26920   0.019   6.110   2.373
 8674SOL    HW126921   0.054   6.150   2.289
 8674SOL    HW226922   0.061   6.020   2.388
 8675SOL     OW26923   3.638   2.141   4.465
 8675SOL    HW126924   3.726   2.131   4.511
 8675SOL    HW226925   3.566   2.159   4.533
 8676SOL     OW26926   3.095   0.697   2.942
 8676SOL    HW126927   3.182   0.660   2.974
 8676SOL    HW226928   3.103   0.796   2.930
 8677SOL     OW26929   2.350   5.501   6.385
 8677SOL    HW126930   2.420   5.524   6.452
 8677SOL    HW226931   2.272   5.460   6.431
 8678SOL     OW26932   0.407   6.913   0.087
 8678SOL    HW126933   0.354   6.982   0.135
 8678SOL    HW226934   0.348   6.864   0.022
 8679SOL     OW26935   6.024   2.041   4.402
 8679SOL    HW126936   6.020   2.018   4.499
 8679SOL    HW226937   5.934   2.074   4.372
 8680SOL     OW26938   1.029   3.938   1.380
 8680SOL    HW126939   1.060   3.895   1.295
 8680SOL    HW226940   1.084   3.905   1.457
 8681SOL     OW26941   4.862   4.858   6.835
 8681SOL    HW126942   4.793   4.929   6.841
 8681SOL    HW226943   4.871   4.813   6.924
 8682SOL     OW26944   3.638   6.480   3.182
 8682SOL    HW126945   3.555   6.527   3.153
 8682SOL    HW226946   3.649   6.491   3.281
 8683SOL     OW26947   1.364   2.536   2.411
 8683SOL    HW126948   1.454   2.519   2.371
 8683SOL    HW226949   1.316   2.449   2.423
 8684SOL     OW26950   0.618   2.769   4.614
 8684SOL    HW126951   0.668   2.806   4.692
 8684SOL    HW226952   0.523   2.752   4.640
 8685SOL     OW26953   1.326   2.092   5.908
 8685SOL    HW126954   1.290   1.998   5.906
 8685SOL    HW226955   1.343   2.118   6.003
 8686SOL     OW26956   6.641   2.063   2.079
 8686SOL    HW126957   6.736   2.043   2.104
 8686SOL    HW226958   6.601   2.126   2.144
 8687SOL     OW26959   3.665   6.158   2.675
 8687SOL    HW126960   3.681   6.253   2.647
 8687SOL    HW226961   3.734   6.130   2.742
 8688SOL     OW26962   2.532   6.612   0.343
 8688SOL    HW126963   2.570   6.624   0.434
 8688SOL    HW226964   2.480   6.694   0.317
 8689SOL     OW26965   3.829   6.163   0.178
 8689SOL    HW126966   3.799   6.157   0.083
 8689SOL    HW226967   3.750   6.149   0.238
 8690SOL     OW26968   1.713   2.427   3.943
 8690SOL    HW126969   1.722   2.332   3.916
 8690SOL    HW226970   1.639   2.470   3.891
 8691SOL     OW26971   4.192   2.506   6.559
 8691SOL    HW126972   4.152   2.426   6.514
 8691SOL    HW226973   4.179   2.586   6.502
 8692SOL     OW26974   3.600   2.059   2.864
 8692SOL    HW126975   3.503   2.081   2.861
 8692SOL    HW226976   3.633   2.064   2.958
 8693SOL     OW26977   5.478   1.807   0.930
 8693SOL    HW126978   5.508   1.903   0.924
 8693SOL    HW226979   5.412   1.798   1.005
 8694SOL     OW26980   4.899   6.995   6.089
 8694SOL    HW126981   4.993   6.963   6.083
 8694SOL    HW226982   4.891   0.037   6.161
 8695SOL     OW26983   4.699   2.395   5.803
 8695SOL    HW126984   4.658   2.392   5.894
 8695SOL    HW226985   4.628   2.391   5.733
 8696SOL     OW26986   3.227   5.552   0.985
 8696SOL    HW126987   3.176   5.594   0.910
 8696SOL    HW226988   3.324   5.554   0.964
 8697SOL     OW26989   6.467   3.838   0.547
 8697SOL    HW126990   6.390   3.789   0.507
 8697SOL    HW226991   6.543   3.841   0.482
 8698SOL     OW26992   5.378   5.952   3.713
 8698SOL    HW126993   5.451   5.990   3.656
 8698SOL    HW226994   5.396   5.855   3.730
 8699SOL     OW26995   0.787   2.054   5.430
 8699SOL    HW126996   0.841   2.012   5.357
 8699SOL    HW226997   0.785   2.153   5.417
 8700SOL     OW26998   2.145   0.773   4.970
 8700SOL    HW126999   2.139   0.859   5.019
 8700SOL    HW227000   2.099   0.701   5.022
 8701SOL     OW27001   1.040   0.803   6.063
 8701SOL    HW127002   1.050   0.899   6.089
 8701SOL    HW227003   1.094   0.747   6.126
 8702SOL     OW27004   5.367   4.774   0.116
 8702SOL    HW127005   5.335   4.690   0.161
 8702SOL    HW227006   5.427   4.750   0.039
 8703SOL     OW27007   2.946   5.717   1.429
 8703SOL    HW127008   2.869   5.664   1.465
 8703SOL    HW227009   3.019   5.721   1.496
 8704SOL     OW27010   6.183   3.684   2.715
 8704SOL    HW127011   6.260   3.742   2.744
 8704SOL    HW227012   6.106   3.742   2.688
 8705SOL     OW27013   5.324   0.940   6.335
 8705SOL    HW127014   5.383   0.987   6.269
 8705SOL    HW227015   5.367   0.853   6.361
 8706SOL     OW27016   4.892   2.362   5.610
 8706SOL    HW127017   4.920   2.266   5.606
 8706SOL    HW227018   4.814   2.372   5.672
 8707SOL     OW27019   4.697   2.356   0.489
 8707SOL    HW127020   4.696   2.454   0.512
 8707SOL    HW227021   4.788   2.318   0.510
 8708SOL     OW27022   3.727   0.993   1.800
 8708SOL    HW127023   3.810   0.993   1.854
 8708SOL    HW227024   3.680   1.081   1.811
 8709SOL     OW27025   6.446   4.912   0.002
 8709SOL    HW127026   6.392   4.889   0.084
 8709SOL    HW227027   6.405   4.867   6.949
 8710SOL     OW27028   1.970   3.030   3.118
 8710SOL    HW127029   1.937   3.100   3.181
 8710SOL    HW227030   1.956   2.939   3.158
 8711SOL     OW27031   6.939   6.383   2.479
 8711SOL    HW127032   6.951   6.287   2.455
 8711SOL    HW227033   7.026   6.431   2.470
 8712SOL     OW27034   3.890   1.999   3.752
 8712SOL    HW127035   3.837   1.988   3.668
 8712SOL    HW227036   3.838   2.054   3.818
 8713SOL     OW27037   0.026   4.133   3.539
 8713SOL    HW127038   0.067   4.203   3.597
 8713SOL    HW227039   0.019   4.166   3.445
 8714SOL     OW27040   0.921   1.026   5.679
 8714SOL    HW127041   0.976   0.970   5.617
 8714SOL    HW227042   0.881   0.968   5.750
 8715SOL     OW27043   5.694   0.718   1.026
 8715SOL    HW127044   5.731   0.694   0.936
 8715SOL    HW227045   5.737   0.662   1.096
 8716SOL     OW27046   1.228   1.905   1.154
 8716SOL    HW127047   1.148   1.877   1.209
 8716SOL    HW227048   1.258   1.828   1.098
 8717SOL     OW27049   4.106   3.661   2.395
 8717SOL    HW127050   4.191   3.711   2.412
 8717SOL    HW227051   4.107   3.575   2.447
 8718SOL     OW27052   0.600   1.982   5.247
 8718SOL    HW127053   0.634   2.008   5.337
 8718SOL    HW227054   0.649   1.901   5.214
 8719SOL     OW27055   1.846   0.424   5.803
 8719SOL    HW127056   1.936   0.466   5.812
 8719SOL    HW227057   1.839   0.347   5.867
 8720SOL     OW27058   7.024   5.496   5.431
 8720SOL    HW127059   6.983   5.572   5.482
 8720SOL    HW227060   6.953   5.430   5.406
 8721SOL     OW27061   5.656   1.830   3.917
 8721SOL    HW127062   5.638   1.756   3.981
 8721SOL    HW227063   5.754   1.840   3.904
 8722SOL     OW27064   3.919   0.809   0.980
 8722SOL    HW127065   3.972   0.725   0.989
 8722SOL    HW227066   3.981   0.887   0.966
 8723SOL     OW27067   5.920   5.834   0.931
 8723SOL    HW127068   5.971   5.913   0.898
 8723SOL    HW227069   5.828   5.862   0.958
 8724SOL     OW27070   5.879   0.112   4.754
 8724SOL    HW127071   5.890   0.027   4.806
 8724SOL    HW227072   5.887   0.190   4.817
 8725SOL     OW27073   1.896   0.856   6.771
 8725SOL    HW127074   1.922   0.819   6.860
 8725SOL    HW227075   1.941   0.804   6.699
 8726SOL     OW27076   6.270   0.228   1.420
 8726SOL    HW127077   6.231   0.289   1.490
 8726SOL    HW227078   6.365   0.254   1.402
 8727SOL     OW27079   6.423   6.624   2.083
 8727SOL    HW127080   6.379   6.666   2.004
 8727SOL    HW227081   6.519   6.653   2.086
 8728SOL     OW27082   4.163   0.370   4.894
 8728SOL    HW127083   4.226   0.419   4.834
 8728SOL    HW227084   4.196   0.277   4.909
 8729SOL     OW27085   5.247   5.772   3.488
 8729SOL    HW127086   5.169   5.710   3.502
 8729SOL    HW227087   5.310   5.764   3.564
 8730SOL     OW27088   7.004   5.498   2.887
 8730SOL    HW127089   6.925   5.540   2.931
 8730SOL    HW227090   6.989   5.495   2.788
 8731SOL     OW27091   2.289   1.840   3.409
 8731SOL    HW127092   2.234   1.757   3.420
 8731SOL    HW227093   2.309   1.853   3.312
 8732SOL     OW27094   5.553   4.068   2.062
 8732SOL    HW127095   5.510   4.076   1.972
 8732SOL    HW227096   5.508   4.130   2.126
 8733SOL     OW27097   1.142   6.240   3.147
 8733SOL    HW127098   1.127   6.236   3.048
 8733SOL    HW227099   1.156   6.148   3.183
 8734SOL     OW27100   1.132   4.825   1.845
 8734SOL    HW127101   1.159   4.801   1.938
 8734SOL    HW227102   1.212   4.822   1.785
 8735SOL     OW27103   0.646   1.887   0.074
 8735SOL    HW127104   0.620   1.956   0.006
 8735SOL    HW227105   0.732   1.845   0.047
 8736SOL     OW27106   0.579   6.415   0.175
 8736SOL    HW127107   0.505   6.441   0.238
 8736SOL    HW227108   0.572   6.470   0.092
 8737SOL     OW27109   4.086   6.767   6.296
 8737SOL    HW127110   4.162   6.785   6.234
 8737SOL    HW227111   4.002   6.757   6.243
 8738SOL     OW27112   1.199   3.904   4.683
 8738SOL    HW127113   1.289   3.925   4.644
 8738SOL    HW227114   1.194   3.939   4.777
 8739SOL     OW27115   6.489   4.725   6.786
 8739SOL    HW127116   6.532   4.635   6.793
 8739SOL    HW227117   6.556   4.792   6.754
 8740SOL     OW27118   3.973   0.712   6.202
 8740SOL    HW127119   4.053   0.689   6.145
 8740SOL    HW227120   3.999   0.782   6.269
 8741SOL     OW27121   1.961   1.871   1.485
 8741SOL    HW127122   1.871   1.845   1.523
 8741SOL    HW227123   1.979   1.967   1.506
 8742SOL     OW27124   4.890   6.165   1.905
 8742SOL    HW127125   4.802   6.122   1.925
 8742SOL    HW227126   4.884   6.215   1.819
 8743SOL     OW27127   2.179   6.491   2.556
 8743SOL    HW127128   2.086   6.476   2.524
 8743SOL    HW227129   2.244   6.474   2.482
 8744SOL     OW27130   3.964   2.486   5.985
 8744SOL    HW127131   3.971   2.572   6.035
 8744SOL    HW227132   3.956   2.505   5.887
 8745SOL     OW27133   6.206   2.347   5.343
 8745SOL    HW127134   6.209   2.282   5.267
 8745SOL    HW227135   6.166   2.303   5.423
 8746SOL     OW27136   4.348   4.104   5.707
 8746SOL    HW127137   4.366   4.200   5.685
 8746SOL    HW227138   4.325   4.055   5.624
 8747SOL     OW27139   0.568   2.434   3.460
 8747SOL    HW127140   0.483   2.430   3.513
 8747SOL    HW227141   0.615   2.520   3.479
 8748SOL     OW27142   0.727   0.464   6.767
 8748SOL    HW127143   0.818   0.422   6.773
 8748SOL    HW227144   0.663   0.412   6.824
 8749SOL     OW27145   2.830   0.377   4.333
 8749SOL    HW127146   2.820   0.362   4.432
 8749SOL    HW227147   2.889   0.306   4.294
 8750SOL     OW27148   2.478   2.902   5.420
 8750SOL    HW127149   2.455   2.811   5.386
 8750SOL    HW227150   2.495   2.963   5.343
 8751SOL     OW27151   6.854   0.135   1.960
 8751SOL    HW127152   6.889   0.182   1.879
 8751SOL    HW227153   6.923   0.140   2.033
 8752SOL     OW27154   3.322   4.105   0.113
 8752SOL    HW127155   3.278   4.148   0.192
 8752SOL    HW227156   3.371   4.174   0.060
 8753SOL     OW27157   4.750   1.101   4.654
 8753SOL    HW127158   4.698   1.068   4.574
 8753SOL    HW227159   4.744   1.034   4.727
 8754SOL     OW27160   0.647   1.946   5.642
 8754SOL    HW127161   0.692   1.987   5.562
 8754SOL    HW227162   0.564   1.997   5.664
 8755SOL     OW27163   2.846   1.558   6.705
 8755SOL    HW127164   2.792   1.617   6.645
 8755SOL    HW227165   2.943   1.581   6.696
 8756SOL     OW27166   2.234   2.776   3.252
 8756SOL    HW127167   2.251   2.815   3.343
 8756SOL    HW227168   2.135   2.770   3.236
 8757SOL     OW27169   6.062   6.438   5.968
 8757SOL    HW127170   6.114   6.489   5.899
 8757SOL    HW227171   5.968   6.425   5.935
 8758SOL     OW27172   5.395   6.189   2.172
 8758SOL    HW127173   5.406   6.230   2.082
 8758SOL    HW227174   5.356   6.256   2.236
 8759SOL     OW27175   4.473   1.533   6.320
 8759SOL    HW127176   4.525   1.605   6.365
 8759SOL    HW227177   4.408   1.494   6.384
 8760SOL     OW27178   2.049   1.663   4.409
 8760SOL    HW127179   2.054   1.599   4.485
 8760SOL    HW227180   2.118   1.639   4.340
 8761SOL     OW27181   4.962   0.438   1.068
 8761SOL    HW127182   5.043   0.402   1.023
 8761SOL    HW227183   4.880   0.411   1.017
 8762SOL     OW27184   1.206   3.492   2.807
 8762SOL    HW127185   1.299   3.463   2.788
 8762SOL    HW227186   1.204   3.591   2.822
 8763SOL     OW27187   6.301   6.263   5.081
 8763SOL    HW127188   6.260   6.349   5.111
 8763SOL    HW227189   6.316   6.266   4.982
 8764SOL     OW27190   5.179   1.835   3.960
 8764SOL    HW127191   5.086   1.802   3.978
 8764SOL    HW227192   5.210   1.802   3.871
 8765SOL     OW27193   5.912   6.860   4.852
 8765SOL    HW127194   5.831   6.807   4.829
 8765SOL    HW227195   5.990   6.825   4.800
 8766SOL     OW27196   3.678   4.913   3.595
 8766SOL    HW127197   3.676   4.916   3.695
 8766SOL    HW227198   3.598   4.864   3.561
 8767SOL     OW27199   4.304   0.418   2.517
 8767SOL    HW127200   4.211   0.445   2.493
 8767SOL    HW227201   4.347   0.372   2.440
 8768SOL     OW27202   2.216   3.524   0.106
 8768SOL    HW127203   2.130   3.478   0.129
 8768SOL    HW227204   2.287   3.494   0.170
 8769SOL     OW27205   0.377   0.322   5.279
 8769SOL    HW127206   0.438   0.319   5.199
 8769SOL    HW227207   0.416   0.383   5.348
 8770SOL     OW27208   4.828   3.948   2.013
 8770SOL    HW127209   4.791   4.038   1.992
 8770SOL    HW227210   4.817   3.929   2.110
 8771SOL     OW27211   1.987   1.416   6.248
 8771SOL    HW127212   1.937   1.419   6.334
 8771SOL    HW227213   1.991   1.508   6.209
 8772SOL     OW27214   5.989   0.670   6.836
 8772SOL    HW127215   5.920   0.733   6.871
 8772SOL    HW227216   6.038   0.629   6.912
 8773SOL     OW27217   4.138   2.074   3.647
 8773SOL    HW127218   4.065   2.053   3.712
 8773SOL    HW227219   4.202   2.139   3.687
 8774SOL     OW27220   1.432   1.569   0.358
 8774SOL    HW127221   1.496   1.575   0.435
 8774SOL    HW227222   1.346   1.613   0.383
 8775SOL     OW27223   5.617   0.107   4.009
 8775SOL    HW127224   5.613   0.103   3.909
 8775SOL    HW227225   5.693   0.052   4.042
 8776SOL     OW27226   3.757   3.078   4.864
 8776SOL    HW127227   3.706   2.993   4.880
 8776SOL    HW227228   3.698   3.144   4.818
 8777SOL     OW27229   0.147   5.120   1.570
 8777SOL    HW127230   0.196   5.043   1.529
 8777SOL    HW227231   0.211   5.194   1.590
 8778SOL     OW27232   0.257   1.780   3.692
 8778SOL    HW127233   0.330   1.840   3.660
 8778SOL    HW227234   0.262   1.774   3.792
 8779SOL     OW27235   1.729   5.109   2.698
 8779SOL    HW127236   1.641   5.143   2.663
 8779SOL    HW227237   1.795   5.184   2.701
 8780SOL     OW27238   1.755   5.754   3.586
 8780SOL    HW127239   1.739   5.665   3.630
 8780SOL    HW227240   1.748   5.826   3.654
 8781SOL     OW27241   6.864   0.948   3.247
 8781SOL    HW127242   6.870   0.947   3.347
 8781SOL    HW227243   6.777   0.906   3.218
 8782SOL     OW27244   5.936   1.019   2.025
 8782SOL    HW127245   5.904   1.020   1.930
 8782SOL    HW227246   6.032   0.990   2.028
 8783SOL     OW27247   6.098   3.847   3.679
 8783SOL    HW127248   6.126   3.828   3.773
 8783SOL    HW227249   6.159   3.799   3.616
 8784SOL     OW27250   5.383   4.399   5.039
 8784SOL    HW127251   5.349   4.392   4.945
 8784SOL    HW227252   5.472   4.444   5.038
 8785SOL     OW27253   5.407   3.854   0.384
 8785SOL    HW127254   5.444   3.945   0.407
 8785SOL    HW227255   5.322   3.864   0.333
 8786SOL     OW27256   2.128   6.786   6.922
 8786SOL    HW127257   2.148   6.830   7.009
 8786SOL    HW227258   2.102   6.691   6.938
 8787SOL     OW27259   1.487   3.131   2.224
 8787SOL    HW127260   1.527   3.180   2.301
 8787SOL    HW227261   1.508   3.181   2.139
 8788SOL     OW27262   6.885   1.919   5.429
 8788SOL    HW127263   6.799   1.957   5.397
 8788SOL    HW227264   6.961   1.972   5.392
 8789SOL     OW27265   6.377   0.334   6.643
 8789SOL    HW127266   6.366   0.395   6.722
 8789SOL    HW227267   6.447   0.266   6.663
 8790SOL     OW27268   6.918   1.418   0.029
 8790SOL    HW127269   6.910   1.385   0.123
 8790SOL    HW227270   6.827   1.420   7.013
 8791SOL     OW27271   5.209   6.830   5.814
 8791SOL    HW127272   5.156   6.759   5.768
 8791SOL    HW227273   5.161   6.917   5.808
 8792SOL     OW27274   3.911   6.723   3.247
 8792SOL    HW127275   3.823   6.770   3.240
 8792SOL    HW227276   3.909   6.660   3.325
 8793SOL     OW27277   2.299   5.846   4.641
 8793SOL    HW127278   2.368   5.790   4.687
 8793SOL    HW227279   2.286   5.812   4.548
 8794SOL     OW27280   3.395   6.914   3.202
 8794SOL    HW127281   3.385   6.911   3.102
 8794SOL    HW227282   3.435   6.828   3.234
 8795SOL     OW27283   1.604   6.671   5.406
 8795SOL    HW127284   1.635   6.580   5.433
 8795SOL    HW227285   1.512   6.665   5.368
 8796SOL     OW27286   4.612   1.878   5.471
 8796SOL    HW127287   4.622   1.934   5.389
 8796SOL    HW227288   4.514   1.864   5.490
 8797SOL     OW27289   1.964   6.455   6.547
 8797SOL    HW127290   2.054   6.481   6.581
 8797SOL    HW227291   1.899   6.451   6.624
 8798SOL     OW27292   5.781   4.012   5.733
 8798SOL    HW127293   5.736   4.016   5.644
 8798SOL    HW227294   5.873   3.973   5.722
 8799SOL     OW27295   2.278   4.152   3.801
 8799SOL    HW127296   2.307   4.235   3.755
 8799SOL    HW227297   2.192   4.169   3.850
 8800SOL     OW27298   4.873   4.039   5.729
 8800SOL    HW127299   4.870   3.974   5.653
 8800SOL    HW227300   4.960   4.088   5.728
 8801SOL     OW27301   2.398   1.461   4.199
 8801SOL    HW127302   2.300   1.481   4.197
 8801SOL    HW227303   2.449   1.544   4.224
 8802SOL     OW27304   1.111   0.145   1.230
 8802SOL    HW127305   1.189   0.104   1.278
 8802SOL    HW227306   1.070   0.077   1.169
 8803SOL     OW27307   1.677   4.931   6.770
 8803SOL    HW127308   1.718   4.861   6.711
 8803SOL    HW227309   1.705   4.915   6.864
 8804SOL     OW27310   4.046   0.949   1.627
 8804SOL    HW127311   4.017   0.945   1.722
 8804SOL    HW227312   4.049   1.044   1.597
 8805SOL     OW27313   1.673   0.392   3.662
 8805SOL    HW127314   1.615   0.457   3.710
 8805SOL    HW227315   1.687   0.422   3.568
 8806SOL     OW27316   1.991   5.479   0.915
 8806SOL    HW127317   2.051   5.496   0.836
 8806SOL    HW227318   1.944   5.392   0.903
 8807SOL     OW27319   6.201   5.403   6.019
 8807SOL    HW127320   6.118   5.360   6.053
 8807SOL    HW227321   6.279   5.373   6.075
 8808SOL     OW27322   5.598   1.419   0.762
 8808SOL    HW127323   5.535   1.474   0.707
 8808SOL    HW227324   5.606   1.328   0.722
 8809SOL     OW27325   5.650   3.523   1.710
 8809SOL    HW127326   5.551   3.539   1.706
 8809SOL    HW227327   5.678   3.514   1.805
 8810SOL     OW27328   5.801   1.455   4.664
 8810SOL    HW127329   5.707   1.458   4.698
 8810SOL    HW227330   5.846   1.543   4.681
 8811SOL     OW27331   2.714   1.733   4.137
 8811SOL    HW127332   2.693   1.827   4.108
 8811SOL    HW227333   2.655   1.708   4.213
 8812SOL     OW27334   0.666   0.901   0.195
 8812SOL    HW127335   0.614   0.986   0.186
 8812SOL    HW227336   0.638   0.837   0.123
 8813SOL     OW27337   0.807   5.342   1.424
 8813SOL    HW127338   0.886   5.403   1.431
 8813SOL    HW227339   0.787   5.326   1.327
 8814SOL     OW27340   0.106   0.456   6.915
 8814SOL    HW127341   0.196   0.415   6.896
 8814SOL    HW227342   0.107   0.496   7.006
 8815SOL     OW27343   6.799   5.577   1.500
 8815SOL    HW127344   6.749   5.572   1.414
 8815SOL    HW227345   6.837   5.669   1.511
 8816SOL     OW27346   1.026   6.941   1.134
 8816SOL    HW127347   1.066   6.851   1.115
 8816SOL    HW227348   0.930   6.941   1.104
 8817SOL     OW27349   0.882   6.037   5.614
 8817SOL    HW127350   0.947   6.113   5.627
 8817SOL    HW227351   0.789   6.073   5.613
 8818SOL     OW27352   0.105   3.642   3.606
 8818SOL    HW127353   0.174   3.713   3.593
 8818SOL    HW227354   0.019   3.671   3.562
 8819SOL     OW27355   4.351   6.474   4.120
 8819SOL    HW127356   4.344   6.464   4.020
 8819SOL    HW227357   4.369   6.384   4.161
 8820SOL     OW27358   1.996   2.649   4.268
 8820SOL    HW127359   1.941   2.733   4.263
 8820SOL    HW227360   1.941   2.571   4.237
 8821SOL     OW27361   2.015   7.001   6.573
 8821SOL    HW127362   2.012   6.902   6.578
 8821SOL    HW227363   2.017   0.004   6.478
 8822SOL     OW27364   0.655   0.679   2.854
 8822SOL    HW127365   0.638   0.767   2.810
 8822SOL    HW227366   0.709   0.693   2.937
 8823SOL     OW27367   1.963   0.156   1.129
 8823SOL    HW127368   1.987   0.062   1.149
 8823SOL    HW227369   1.880   0.181   1.179
 8824SOL     OW27370   2.453   4.113   0.941
 8824SOL    HW127371   2.412   4.024   0.960
 8824SOL    HW227372   2.394   4.164   0.879
 8825SOL     OW27373   1.523   0.921   2.591
 8825SOL    HW127374   1.563   0.972   2.666
 8825SOL    HW227375   1.488   0.985   2.522
 8826SOL     OW27376   6.091   1.979   0.065
 8826SOL    HW127377   6.002   1.949   0.031
 8826SOL    HW227378   6.085   2.075   0.092
 8827SOL     OW27379   2.766   1.064   3.262
 8827SOL    HW127380   2.697   1.007   3.217
 8827SOL    HW227381   2.857   1.036   3.234
 8828SOL     OW27382   3.875   5.500   3.642
 8828SOL    HW127383   3.924   5.586   3.625
 8828SOL    HW227384   3.792   5.498   3.587
 8829SOL     OW27385   0.063   3.534   0.104
 8829SOL    HW127386   0.019   3.448   0.128
 8829SOL    HW227387   0.161   3.519   0.091
 8830SOL     OW27388   6.429   1.146   6.922
 8830SOL    HW127389   6.478   1.084   6.984
 8830SOL    HW227390   6.350   1.185   6.970
 8831SOL     OW27391   5.714   1.147   3.556
 8831SOL    HW127392   5.689   1.168   3.462
 8831SOL    HW227393   5.678   1.056   3.580
 8832SOL     OW27394   0.142   6.731   1.810
 8832SOL    HW127395   0.124   6.829   1.816
 8832SOL    HW227396   0.083   6.682   1.873
 8833SOL     OW27397   1.613   5.613   4.999
 8833SOL    HW127398   1.707   5.623   5.032
 8833SOL    HW227399   1.615   5.575   4.906
 8834SOL     OW27400   5.463   3.235   4.565
 8834SOL    HW127401   5.455   3.267   4.471
 8834SOL    HW227402   5.473   3.313   4.627
 8835SOL     OW27403   6.367   0.047   5.244
 8835SOL    HW127404   6.333   0.136   5.276
 8835SOL    HW227405   6.360   0.043   5.145
 8836SOL     OW27406   4.183   0.687   0.752
 8836SOL    HW127407   4.240   0.739   0.816
 8836SOL    HW227408   4.232   0.603   0.725
 8837SOL     OW27409   0.937   0.611   2.241
 8837SOL    HW127410   0.924   0.516   2.212
 8837SOL    HW227411   1.033   0.637   2.228
 8838SOL     OW27412   2.815   5.082   3.657
 8838SOL    HW127413   2.761   5.002   3.631
 8838SOL    HW227414   2.758   5.148   3.705
 8839SOL     OW27415   6.189   6.025   2.963
 8839SOL    HW127416   6.183   6.120   2.932
 8839SOL    HW227417   6.119   6.008   3.033
 8840SOL     OW27418   6.097   2.273   2.193
 8840SOL    HW127419   6.047   2.326   2.124
 8840SOL    HW227420   6.053   2.184   2.205
 8841SOL     OW27421   1.206   1.321   5.056
 8841SOL    HW127422   1.232   1.410   5.019
 8841SOL    HW227423   1.156   1.270   4.986
 8842SOL     OW27424   3.343   3.127   1.162
 8842SOL    HW127425   3.337   3.028   1.169
 8842SOL    HW227426   3.420   3.160   1.216
 8843SOL     OW27427   1.192   3.044   5.536
 8843SOL    HW127428   1.115   2.981   5.541
 8843SOL    HW227429   1.199   3.082   5.443
 8844SOL     OW27430   6.030   1.360   6.253
 8844SOL    HW127431   6.010   1.325   6.345
 8844SOL    HW227432   6.025   1.285   6.187
 8845SOL     OW27433   4.132   4.041   6.987
 8845SOL    HW127434   4.207   4.000   0.012
 8845SOL    HW227435   4.165   4.070   6.897
 8846SOL     OW27436   1.988   5.144   3.654
 8846SOL    HW127437   2.057   5.217   3.651
 8846SOL    HW227438   1.953   5.129   3.562
 8847SOL     OW27439   2.644   0.539   2.411
 8847SOL    HW127440   2.708   0.616   2.402
 8847SOL    HW227441   2.568   0.566   2.471
 8848SOL     OW27442   2.286   1.171   1.254
 8848SOL    HW127443   2.292   1.266   1.225
 8848SOL    HW227444   2.193   1.150   1.283
 8849SOL     OW27445   1.771   5.673   2.745
 8849SOL    HW127446   1.813   5.747   2.691
 8849SOL    HW227447   1.843   5.616   2.785
 8850SOL     OW27448   2.455   1.825   0.141
 8850SOL    HW127449   2.486   1.915   0.108
 8850SOL    HW227450   2.477   1.756   0.072
 8851SOL     OW27451   1.654   4.885   2.570
 8851SOL    HW127452   1.654   4.959   2.637
 8851SOL    HW227453   1.567   4.837   2.572
 8852SOL     OW27454   1.022   1.911   5.542
 8852SOL    HW127455   1.111   1.944   5.511
 8852SOL    HW227456   0.962   1.898   5.463
 8853SOL     OW27457   2.977   0.843   1.653
 8853SOL    HW127458   2.879   0.842   1.631
 8853SOL    HW227459   3.017   0.927   1.618
 8854SOL     OW27460   1.596   2.880   5.057
 8854SOL    HW127461   1.514   2.877   5.114
 8854SOL    HW227462   1.670   2.922   5.109
 8855SOL     OW27463   6.103   5.790   1.518
 8855SOL    HW127464   6.096   5.830   1.426
 8855SOL    HW227465   6.032   5.721   1.530
 8856SOL     OW27466   6.294   5.666   6.003
 8856SOL    HW127467   6.225   5.739   6.008
 8856SOL    HW227468   6.249   5.577   5.999
 8857SOL     OW27469   6.687   1.797   5.570
 8857SOL    HW127470   6.773   1.833   5.535
 8857SOL    HW227471   6.616   1.867   5.562
 8858SOL     OW27472   0.268   4.977   5.522
 8858SOL    HW127473   0.325   4.934   5.592
 8858SOL    HW227474   0.300   5.070   5.505
 8859SOL     OW27475   1.051   0.625   3.564
 8859SOL    HW127476   1.127   0.674   3.607
 8859SOL    HW227477   0.971   0.685   3.559
 8860SOL     OW27478   0.001   2.714   0.998
 8860SOL    HW127479   0.002   2.629   1.051
 8860SOL    HW227480   0.080   2.717   0.937
 8861SOL     OW27481   3.812   1.420   0.926
 8861SOL    HW127482   3.753   1.496   0.902
 8861SOL    HW227483   3.892   1.454   0.976
 8862SOL     OW27484   4.658   6.077   4.267
 8862SOL    HW127485   4.603   5.993   4.276
 8862SOL    HW227486   4.745   6.064   4.315
 8863SOL     OW27487   1.956   4.236   3.488
 8863SOL    HW127488   1.942   4.275   3.397
 8863SOL    HW227489   2.045   4.189   3.492
 8864SOL     OW27490   5.228   3.277   6.295
 8864SOL    HW127491   5.224   3.199   6.357
 8864SOL    HW227492   5.164   3.348   6.326
 8865SOL     OW27493   2.967   1.688   5.893
 8865SOL    HW127494   3.005   1.706   5.983
 8865SOL    HW227495   2.877   1.645   5.902
 8866SOL     OW27496   5.553   6.165   2.806
 8866SOL    HW127497   5.532   6.254   2.846
 8866SOL    HW227498   5.649   6.162   2.779
 8867SOL     OW27499   6.304   3.490   2.923
 8867SOL    HW127500   6.220   3.513   2.876
 8867SOL    HW227501   6.382   3.510   2.864
 8868SOL     OW27502   0.194   3.383   2.632
 8868SOL    HW127503   0.146   3.350   2.550
 8868SOL    HW227504   0.179   3.320   2.708
 8869SOL     OW27505   3.960   5.403   4.699
 8869SOL    HW127506   3.928   5.439   4.787
 8869SOL    HW227507   4.056   5.376   4.707
 8870SOL     OW27508   1.756   6.894   1.891
 8870SOL    HW127509   1.680   6.838   1.925
 8870SOL    HW227510   1.794   6.948   1.966
 8871SOL     OW27511   1.822   0.882   2.955
 8871SOL    HW127512   1.900   0.850   2.900
 8871SOL    HW227513   1.745   0.819   2.943
 8872SOL     OW27514   0.440   4.160   6.266
 8872SOL    HW127515   0.502   4.101   6.215
 8872SOL    HW227516   0.477   4.253   6.268
 8873SOL     OW27517   1.896   0.260   2.287
 8873SOL    HW127518   1.874   0.357   2.279
 8873SOL    HW227519   1.857   0.223   2.371
 8874SOL     OW27520   1.873   5.204   0.866
 8874SOL    HW127521   1.942   5.153   0.815
 8874SOL    HW227522   1.812   5.251   0.803
 8875SOL     OW27523   6.815   2.962   3.619
 8875SOL    HW127524   6.862   3.035   3.669
 8875SOL    HW227525   6.725   2.995   3.589
 8876SOL     OW27526   3.263   0.541   5.955
 8876SOL    HW127527   3.180   0.503   5.915
 8876SOL    HW227528   3.265   0.521   6.053
 8877SOL     OW27529   1.067   3.651   1.595
 8877SOL    HW127530   1.097   3.596   1.517
 8877SOL    HW227531   1.144   3.704   1.630
 8878SOL     OW27532   3.899   4.553   0.750
 8878SOL    HW127533   3.922   4.519   0.659
 8878SOL    HW227534   3.813   4.511   0.780
 8879SOL     OW27535   6.410   4.702   2.625
 8879SOL    HW127536   6.452   4.706   2.716
 8879SOL    HW227537   6.363   4.614   2.614
 8880SOL     OW27538   4.315   6.714   3.652
 8880SOL    HW127539   4.407   6.753   3.648
 8880SOL    HW227540   4.268   6.730   3.565
 8881SOL     OW27541   4.384   5.372   4.021
 8881SOL    HW127542   4.401   5.299   3.955
 8881SOL    HW227543   4.339   5.449   3.975
 8882SOL     OW27544   3.967   1.036   0.287
 8882SOL    HW127545   4.051   0.987   0.263
 8882SOL    HW227546   3.936   1.006   0.377
 8883SOL     OW27547   0.179   6.643   6.513
 8883SOL    HW127548   0.161   6.556   6.469
 8883SOL    HW227549   0.140   6.643   6.605
 8884SOL     OW27550   5.554   4.289   4.813
 8884SOL    HW127551   5.558   4.262   4.910
 8884SOL    HW227552   5.544   4.208   4.756
 8885SOL     OW27553   5.425   5.601   0.046
 8885SOL    HW127554   5.504   5.539   0.043
 8885SOL    HW227555   5.362   5.578   6.998
 8886SOL     OW27556   3.891   5.112   6.794
 8886SOL    HW127557   3.945   5.097   6.711
 8886SOL    HW227558   3.794   5.098   6.773
 8887SOL     OW27559   4.464   0.182   0.401
 8887SOL    HW127560   4.409   0.265   0.399
 8887SOL    HW227561   4.555   0.203   0.434
 8888SOL     OW27562   2.319   1.535   3.800
 8888SOL    HW127563   2.342   1.506   3.707
 8888SOL    HW227564   2.393   1.508   3.863
 8889SOL     OW27565   6.930   6.539   6.184
 8889SOL    HW127566   6.994   6.566   6.112
 8889SOL    HW227567   6.838   6.568   6.159
 8890SOL     OW27568   6.974   6.401   0.203
 8890SOL    HW127569   0.006   6.331   0.245
 8890SOL    HW227570   6.898   6.357   0.156
 8891SOL     OW27571   5.710   4.397   6.710
 8891SOL    HW127572   5.733   4.363   6.801
 8891SOL    HW227573   5.661   4.484   6.718
 8892SOL     OW27574   3.262   4.970   3.643
 8892SOL    HW127575   3.337   4.914   3.608
 8892SOL    HW227576   3.291   5.065   3.647
 8893SOL     OW27577   1.657   5.117   4.699
 8893SOL    HW127578   1.677   5.171   4.781
 8893SOL    HW227579   1.568   5.143   4.663
 8894SOL     OW27580   4.935   2.258   0.580
 8894SOL    HW127581   5.012   2.322   0.579
 8894SOL    HW227582   4.911   2.236   0.675
 8895SOL     OW27583   0.736   3.271   0.846
 8895SOL    HW127584   0.732   3.275   0.946
 8895SOL    HW227585   0.716   3.178   0.816
 8896SOL     OW27586   0.561   2.283   4.405
 8896SOL    HW127587   0.566   2.195   4.452
 8896SOL    HW227588   0.643   2.296   4.348
 8897SOL     OW27589   1.483   3.938   3.548
 8897SOL    HW127590   1.446   3.855   3.508
 8897SOL    HW227591   1.558   3.972   3.492
 8898SOL     OW27592   4.911   3.585   2.709
 8898SOL    HW127593   5.009   3.601   2.713
 8898SOL    HW227594   4.879   3.595   2.614
 8899SOL     OW27595   7.012   4.538   6.461
 8899SOL    HW127596   7.022   4.613   6.527
 8899SOL    HW227597   6.932   4.482   6.486
 8900SOL     OW27598   5.821   1.812   3.465
 8900SOL    HW127599   5.869   1.756   3.533
 8900SOL    HW227600   5.778   1.890   3.510
 8901SOL     OW27601   0.648   2.181   3.530
 8901SOL    HW127602   0.734   2.161   3.483
 8901SOL    HW227603   0.607   2.263   3.491
 8902SOL     OW27604   1.317   4.760   0.175
 8902SOL    HW127605   1.337   4.680   0.232
 8902SOL    HW227606   1.386   4.830   0.190
 8903SOL     OW27607   1.970   1.499   4.676
 8903SOL    HW127608   2.001   1.558   4.751
 8903SOL    HW227609   1.873   1.515   4.659
 8904SOL     OW27610   0.450   1.230   2.450
 8904SOL    HW127611   0.522   1.238   2.518
 8904SOL    HW227612   0.461   1.302   2.381
 8905SOL     OW27613   1.603   3.283   2.455
 8905SOL    HW127614   1.677   3.226   2.491
 8905SOL    HW227615   1.622   3.379   2.475
 8906SOL     OW27616   0.640   6.796   0.861
 8906SOL    HW127617   0.666   6.700   0.860
 8906SOL    HW227618   0.560   6.809   0.802
 8907SOL     OW27619   3.303   2.510   5.369
 8907SOL    HW127620   3.268   2.452   5.296
 8907SOL    HW227621   3.233   2.575   5.397
 8908SOL     OW27622   1.326   5.041   0.614
 8908SOL    HW127623   1.262   5.101   0.566
 8908SOL    HW227624   1.337   5.072   0.708
 8909SOL     OW27625   2.539   1.362   6.446
 8909SOL    HW127626   2.510   1.334   6.537
 8909SOL    HW227627   2.594   1.290   6.404
 8910SOL     OW27628   0.854   2.381   5.100
 8910SOL    HW127629   0.916   2.401   5.024
 8910SOL    HW227630   0.763   2.418   5.080
 8911SOL     OW27631   5.388   1.881   4.142
 8911SOL    HW127632   5.448   1.860   4.065
 8911SOL    HW227633   5.294   1.858   4.117
 8912SOL     OW27634   3.772   3.823   5.239
 8912SOL    HW127635   3.733   3.805   5.149
 8912SOL    HW227636   3.785   3.737   5.288
 8913SOL     OW27637   5.501   5.151   0.018
 8913SOL    HW127638   5.478   5.114   0.108
 8913SOL    HW227639   5.418   5.181   6.998
 8914SOL     OW27640   5.234   6.373   4.862
 8914SOL    HW127641   5.318   6.339   4.905
 8914SOL    HW227642   5.243   6.471   4.843
 8915SOL     OW27643   1.115   1.277   4.117
 8915SOL    HW127644   1.035   1.332   4.137
 8915SOL    HW227645   1.087   1.183   4.095
 8916SOL     OW27646   5.885   1.726   6.488
 8916SOL    HW127647   5.952   1.741   6.415
 8916SOL    HW227648   5.857   1.815   6.525
 8917SOL     OW27649   6.216   1.870   0.520
 8917SOL    HW127650   6.117   1.878   0.512
 8917SOL    HW227651   6.255   1.959   0.543
 8918SOL     OW27652   1.611   5.626   1.289
 8918SOL    HW127653   1.637   5.570   1.367
 8918SOL    HW227654   1.687   5.686   1.264
 8919SOL     OW27655   5.504   4.430   6.417
 8919SOL    HW127656   5.589   4.477   6.394
 8919SOL    HW227657   5.490   4.432   6.515
 8920SOL     OW27658   0.169   1.107   6.323
 8920SOL    HW127659   0.101   1.138   6.389
 8920SOL    HW227660   0.159   1.159   6.238
 8921SOL     OW27661   0.958   2.792   1.053
 8921SOL    HW127662   0.997   2.714   1.103
 8921SOL    HW227663   1.001   2.876   1.084
 8922SOL     OW27664   3.401   6.642   3.159
 8922SOL    HW127665   3.347   6.569   3.201
 8922SOL    HW227666   3.365   6.662   3.068
 8923SOL     OW27667   1.385   2.035   5.669
 8923SOL    HW127668   1.355   2.079   5.753
 8923SOL    HW227669   1.473   1.990   5.685
 8924SOL     OW27670   5.393   5.368   4.666
 8924SOL    HW127671   5.373   5.310   4.586
 8924SOL    HW227672   5.490   5.363   4.687
 8925SOL     OW27673   1.093   1.050   2.709
 8925SOL    HW127674   1.019   1.008   2.655
 8925SOL    HW227675   1.146   0.978   2.754
 8926SOL     OW27676   6.285   3.770   5.927
 8926SOL    HW127677   6.383   3.752   5.916
 8926SOL    HW227678   6.236   3.684   5.941
 8927SOL     OW27679   6.544   2.316   5.375
 8927SOL    HW127680   6.536   2.287   5.280
 8927SOL    HW227681   6.548   2.416   5.379
 8928SOL     OW27682   2.604   0.381   5.297
 8928SOL    HW127683   2.549   0.416   5.222
 8928SOL    HW227684   2.555   0.305   5.342
 8929SOL     OW27685   6.277   2.506   5.031
 8929SOL    HW127686   6.255   2.594   4.989
 8929SOL    HW227687   6.194   2.451   5.041
 8930SOL     OW27688   0.960   3.731   2.935
 8930SOL    HW127689   1.060   3.723   2.930
 8930SOL    HW227690   0.919   3.702   2.849
 8931SOL     OW27691   3.293   2.720   1.598
 8931SOL    HW127692   3.354   2.683   1.668
 8931SOL    HW227693   3.207   2.667   1.598
 8932SOL     OW27694   0.550   1.806   3.103
 8932SOL    HW127695   0.545   1.757   3.189
 8932SOL    HW227696   0.561   1.904   3.120
 8933SOL     OW27697   3.371   2.651   6.713
 8933SOL    HW127698   3.434   2.609   6.647
 8933SOL    HW227699   3.402   2.743   6.735
 8934SOL     OW27700   3.755   5.579   4.011
 8934SOL    HW127701   3.752   5.489   3.966
 8934SOL    HW227702   3.663   5.603   4.042
 8935SOL     OW27703   6.972   5.700   0.974
 8935SOL    HW127704   0.038   5.712   1.010
 8935SOL    HW227705   6.972   5.723   0.876
 8936SOL     OW27706   1.755   3.518   0.566
 8936SOL    HW127707   1.719   3.500   0.658
 8936SOL    HW227708   1.680   3.518   0.501
 8937SOL     OW27709   0.425   6.776   5.049
 8937SOL    HW127710   0.342   6.723   5.064
 8937SOL    HW227711   0.500   6.716   5.021
 8938SOL     OW27712   6.933   5.328   1.329
 8938SOL    HW127713   6.948   5.238   1.368
 8938SOL    HW227714   6.999   5.393   1.367
 8939SOL     OW27715   5.000   2.181   4.572
 8939SOL    HW127716   4.964   2.205   4.663
 8939SOL    HW227717   5.092   2.144   4.581
 8940SOL     OW27718   6.721   0.797   4.018
 8940SOL    HW127719   6.690   0.717   4.069
 8940SOL    HW227720   6.774   0.857   4.078
 8941SOL     OW27721   5.711   2.110   5.636
 8941SOL    HW127722   5.729   2.019   5.601
 8941SOL    HW227723   5.795   2.150   5.672
 8942SOL     OW27724   6.929   3.069   5.662
 8942SOL    HW127725   6.893   3.146   5.610
 8942SOL    HW227726   7.010   3.033   5.617
 8943SOL     OW27727   5.395   4.103   0.545
 8943SOL    HW127728   5.364   4.188   0.501
 8943SOL    HW227729   5.319   4.039   0.551
 8944SOL     OW27730   5.149   5.539   5.942
 8944SOL    HW127731   5.230   5.531   6.000
 8944SOL    HW227732   5.080   5.474   5.972
 8945SOL     OW27733   2.153   0.414   4.340
 8945SOL    HW127734   2.103   0.334   4.373
 8945SOL    HW227735   2.089   0.483   4.307
 8946SOL     OW27736   3.241   1.998   4.972
 8946SOL    HW127737   3.172   1.961   4.910
 8946SOL    HW227738   3.213   2.088   5.003
 8947SOL     OW27739   2.037   3.445   5.386
 8947SOL    HW127740   1.958   3.388   5.363
 8947SOL    HW227741   2.101   3.447   5.308
 8948SOL     OW27742   5.781   5.421   3.454
 8948SOL    HW127743   5.748   5.452   3.365
 8948SOL    HW227744   5.759   5.490   3.523
 8949SOL     OW27745   2.209   0.127   6.707
 8949SOL    HW127746   2.284   0.065   6.682
 8949SOL    HW227747   2.122   0.085   6.681
 8950SOL     OW27748   4.701   2.990   5.709
 8950SOL    HW127749   4.733   2.896   5.722
 8950SOL    HW227750   4.746   3.029   5.628
 8951SOL     OW27751   1.586   2.536   5.424
 8951SOL    HW127752   1.534   2.535   5.339
 8951SOL    HW227753   1.564   2.456   5.478
 8952SOL     OW27754   1.105   1.233   2.325
 8952SOL    HW127755   1.090   1.135   2.338
 8952SOL    HW227756   1.033   1.284   2.371
 8953SOL     OW27757   1.321   3.750   0.067
 8953SOL    HW127758   1.340   3.840   0.029
 8953SOL    HW227759   1.271   3.760   0.153
 8954SOL     OW27760   7.020   6.135   5.423
 8954SOL    HW127761   6.944   6.189   5.458
 8954SOL    HW227762   0.074   6.193   5.412
 8955SOL     OW27763   6.873   4.264   3.260
 8955SOL    HW127764   6.827   4.197   3.318
 8955SOL    HW227765   6.926   4.216   3.190
 8956SOL     OW27766   6.995   1.133   6.539
 8956SOL    HW127767   0.002   1.196   6.609
 8956SOL    HW227768   6.950   1.055   6.583
 8957SOL     OW27769   3.284   4.688   1.794
 8957SOL    HW127770   3.380   4.674   1.814
 8957SOL    HW227771   3.247   4.608   1.746
 8958SOL     OW27772   0.738   0.226   4.217
 8958SOL    HW127773   0.749   0.146   4.158
 8958SOL    HW227774   0.800   0.219   4.295
 8959SOL     OW27775   1.302   4.639   1.131
 8959SOL    HW127776   1.216   4.668   1.091
 8959SOL    HW227777   1.342   4.565   1.077
 8960SOL     OW27778   4.558   5.448   2.750
 8960SOL    HW127779   4.535   5.542   2.724
 8960SOL    HW227780   4.501   5.419   2.827
 8961SOL     OW27781   1.639   1.875   4.257
 8961SOL    HW127782   1.593   1.951   4.213
 8961SOL    HW227783   1.707   1.910   4.322
 8962SOL     OW27784   5.835   6.541   2.633
 8962SOL    HW127785   5.870   6.635   2.626
 8962SOL    HW227786   5.739   6.539   2.607
 8963SOL     OW27787   4.719   6.460   4.021
 8963SOL    HW127788   4.627   6.499   4.014
 8963SOL    HW227789   4.785   6.526   3.985
 8964SOL     OW27790   5.630   4.494   2.550
 8964SOL    HW127791   5.583   4.565   2.497
 8964SOL    HW227792   5.643   4.413   2.493
 8965SOL     OW27793   1.704   4.978   1.060
 8965SOL    HW127794   1.753   5.064   1.058
 8965SOL    HW227795   1.707   4.940   1.153
 8966SOL     OW27796   1.858   3.047   5.603
 8966SOL    HW127797   1.951   3.079   5.584
 8966SOL    HW227798   1.855   3.006   5.694
 8967SOL     OW27799   3.405   6.682   1.787
 8967SOL    HW127800   3.421   6.592   1.745
 8967SOL    HW227801   3.358   6.670   1.874
 8968SOL     OW27802   5.016   5.360   2.901
 8968SOL    HW127803   4.939   5.393   2.847
 8968SOL    HW227804   5.094   5.422   2.891
 8969SOL     OW27805   5.918   0.925   3.553
 8969SOL    HW127806   6.002   0.953   3.600
 8969SOL    HW227807   5.903   0.984   3.474
 8970SOL     OW27808   3.088   2.827   0.947
 8970SOL    HW127809   3.165   2.822   1.011
 8970SOL    HW227810   3.052   2.920   0.945
 8971SOL     OW27811   3.569   5.957   2.526
 8971SOL    HW127812   3.486   5.914   2.562
 8971SOL    HW227813   3.598   6.029   2.589
 8972SOL     OW27814   4.877   6.167   0.162
 8972SOL    HW127815   4.798   6.225   0.140
 8972SOL    HW227816   4.955   6.194   0.106
 8973SOL     OW27817   0.950   4.096   2.038
 8973SOL    HW127818   0.957   4.196   2.047
 8973SOL    HW227819   0.901   4.074   1.954
 8974SOL     OW27820   0.826   4.447   6.209
 8974SOL    HW127821   0.739   4.436   6.162
 8974SOL    HW227822   0.815   4.422   6.306
 8975SOL     OW27823   2.439   0.878   0.067
 8975SOL    HW127824   2.461   0.831   7.008
 8975SOL    HW227825   2.506   0.852   0.137
 8976SOL     OW27826   1.220   5.307   4.953
 8976SOL    HW127827   1.187   5.336   4.863
 8976SOL    HW227828   1.247   5.211   4.950
 8977SOL     OW27829   6.354   1.579   6.664
 8977SOL    HW127830   6.379   1.553   6.757
 8977SOL    HW227831   6.256   1.599   6.660
 8978SOL     OW27832   5.982   6.036   6.828
 8978SOL    HW127833   6.052   6.041   6.756
 8978SOL    HW227834   5.946   6.128   6.845
 8979SOL     OW27835   1.723   3.652   4.597
 8979SOL    HW127836   1.642   3.648   4.657
 8979SOL    HW227837   1.791   3.713   4.638
 8980SOL     OW27838   2.850   3.583   5.578
 8980SOL    HW127839   2.907   3.508   5.613
 8980SOL    HW227840   2.760   3.579   5.622
 8981SOL     OW27841   4.317   1.376   4.987
 8981SOL    HW127842   4.292   1.463   5.029
 8981SOL    HW227843   4.415   1.377   4.964
 8982SOL     OW27844   2.177   3.085   0.490
 8982SOL    HW127845   2.081   3.057   0.490
 8982SOL    HW227846   2.234   3.007   0.466
 8983SOL     OW27847   3.085   6.082   6.639
 8983SOL    HW127848   3.184   6.076   6.622
 8983SOL    HW227849   3.069   6.145   6.715
 8984SOL     OW27850   1.680   6.606   2.840
 8984SOL    HW127851   1.696   6.664   2.920
 8984SOL    HW227852   1.631   6.523   2.867
 8985SOL     OW27853   3.677   2.306   0.429
 8985SOL    HW127854   3.752   2.372   0.435
 8985SOL    HW227855   3.621   2.312   0.512
 8986SOL     OW27856   3.562   4.886   2.927
 8986SOL    HW127857   3.651   4.927   2.911
 8986SOL    HW227858   3.558   4.796   2.884
 8987SOL     OW27859   3.917   6.158   3.243
 8987SOL    HW127860   3.932   6.254   3.218
 8987SOL    HW227861   3.873   6.110   3.167
 8988SOL     OW27862   0.942   5.655   3.944
 8988SOL    HW127863   0.994   5.571   3.955
 8988SOL    HW227864   0.853   5.646   3.989
 8989SOL     OW27865   4.194   3.224   6.837
 8989SOL    HW127866   4.100   3.219   6.803
 8989SOL    HW227867   4.238   3.305   6.798
 8990SOL     OW27868   0.446   4.799   4.037
 8990SOL    HW127869   0.382   4.722   4.041
 8990SOL    HW227870   0.535   4.770   4.071
 8991SOL     OW27871   1.190   3.443   4.613
 8991SOL    HW127872   1.192   3.391   4.698
 8991SOL    HW227873   1.096   3.449   4.580
 8992SOL     OW27874   5.252   1.703   1.075
 8992SOL    HW127875   5.152   1.699   1.077
 8992SOL    HW227876   5.287   1.629   1.018
 8993SOL     OW27877   3.766   3.103   0.318
 8993SOL    HW127878   3.688   3.164   0.324
 8993SOL    HW227879   3.850   3.157   0.307
 8994SOL     OW27880   1.449   4.732   4.628
 8994SOL    HW127881   1.536   4.756   4.670
 8994SOL    HW227882   1.466   4.675   4.547
 8995SOL     OW27883   6.974   1.760   0.154
 8995SOL    HW127884   6.999   1.855   0.135
 8995SOL    HW227885   0.023   1.700   0.127
 8996SOL     OW27886   5.354   4.034   6.569
 8996SOL    HW127887   5.344   4.124   6.525
 8996SOL    HW227888   5.264   3.999   6.594
 8997SOL     OW27889   4.719   1.147   5.871
 8997SOL    HW127890   4.729   1.243   5.897
 8997SOL    HW227891   4.622   1.123   5.871
 8998SOL     OW27892   5.999   3.008   4.443
 8998SOL    HW127893   5.985   3.012   4.542
 8998SOL    HW227894   5.919   2.964   4.400
 8999SOL     OW27895   5.330   6.608   6.226
 8999SOL    HW127896   5.418   6.585   6.184
 8999SOL    HW227897   5.326   6.571   6.318
 9000SOL     OW27898   1.814   3.065   2.288
 9000SOL    HW127899   1.759   3.059   2.371
 9000SOL    HW227900   1.807   2.979   2.237
 9001SOL     OW27901   0.646   5.379   1.657
 9001SOL    HW127902   0.654   5.304   1.723
 9001SOL    HW227903   0.693   5.353   1.573
 9002SOL     OW27904   1.809   4.363   5.120
 9002SOL    HW127905   1.729   4.385   5.176
 9002SOL    HW227906   1.848   4.447   5.083
 9003SOL     OW27907   5.099   3.592   1.511
 9003SOL    HW127908   5.110   3.494   1.494
 9003SOL    HW227909   5.182   3.641   1.484
 9004SOL     OW27910   4.584   4.970   0.988
 9004SOL    HW127911   4.620   4.896   0.931
 9004SOL    HW227912   4.547   4.932   1.073
 9005SOL     OW27913   6.377   1.796   5.537
 9005SOL    HW127914   6.424   1.782   5.449
 9005SOL    HW227915   6.326   1.713   5.560
 9006SOL     OW27916   3.268   6.403   1.061
 9006SOL    HW127917   3.172   6.380   1.079
 9006SOL    HW227918   3.292   6.486   1.112
 9007SOL     OW27919   2.771   1.597   2.207
 9007SOL    HW127920   2.701   1.657   2.246
 9007SOL    HW227921   2.829   1.561   2.280
 9008SOL     OW27922   6.726   5.110   2.931
 9008SOL    HW127923   6.772   5.022   2.942
 9008SOL    HW227924   6.682   5.114   2.842
 9009SOL     OW27925   3.473   5.572   0.842
 9009SOL    HW127926   3.486   5.475   0.862
 9009SOL    HW227927   3.515   5.594   0.754
 9010SOL     OW27928   2.336   6.152   4.318
 9010SOL    HW127929   2.285   6.212   4.379
 9010SOL    HW227930   2.434   6.168   4.330
 9011SOL     OW27931   4.120   0.796   1.408
 9011SOL    HW127932   4.127   0.697   1.402
 9011SOL    HW227933   4.094   0.822   1.501
 9012SOL     OW27934   2.308   5.540   0.177
 9012SOL    HW127935   2.307   5.577   0.271
 9012SOL    HW227936   2.390   5.574   0.130
 9013SOL     OW27937   0.963   0.623   5.633
 9013SOL    HW127938   1.034   0.680   5.674
 9013SOL    HW227939   0.936   0.661   5.544
 9014SOL     OW27940   6.345   2.607   0.828
 9014SOL    HW127941   6.426   2.621   0.885
 9014SOL    HW227942   6.299   2.523   0.856
 9015SOL     OW27943   4.831   2.134   1.594
 9015SOL    HW127944   4.733   2.152   1.581
 9015SOL    HW227945   4.883   2.193   1.532
 9016SOL     OW27946   5.723   5.633   6.492
 9016SOL    HW127947   5.783   5.707   6.520
 9016SOL    HW227948   5.637   5.639   6.543
 9017SOL     OW27949   4.461   1.253   4.034
 9017SOL    HW127950   4.525   1.176   4.037
 9017SOL    HW227951   4.459   1.297   4.124
 9018SOL     OW27952   2.447   3.919   5.764
 9018SOL    HW127953   2.380   3.886   5.697
 9018SOL    HW227954   2.410   4.000   5.811
 9019SOL     OW27955   0.775   4.602   2.760
 9019SOL    HW127956   0.713   4.539   2.713
 9019SOL    HW227957   0.751   4.607   2.857
 9020SOL     OW27958   0.046   4.467   1.075
 9020SOL    HW127959   0.114   4.536   1.048
 9020SOL    HW227960   0.001   4.431   0.994
 9021SOL     OW27961   6.612   0.847   3.178
 9021SOL    HW127962   6.584   0.828   3.084
 9021SOL    HW227963   6.545   0.806   3.240
 9022SOL     OW27964   3.463   1.325   6.848
 9022SOL    HW127965   3.559   1.330   6.820
 9022SOL    HW227966   3.442   1.401   6.910
 9023SOL     OW27967   4.067   3.572   1.547
 9023SOL    HW127968   4.106   3.586   1.639
 9023SOL    HW227969   4.012   3.651   1.522
 9024SOL     OW27970   1.139   4.505   5.387
 9024SOL    HW127971   1.168   4.548   5.473
 9024SOL    HW227972   1.173   4.558   5.310
 9025SOL     OW27973   6.952   5.801   0.698
 9025SOL    HW127974   6.907   5.865   0.760
 9025SOL    HW227975   6.931   5.826   0.604
 9026SOL     OW27976   3.522   2.314   0.650
 9026SOL    HW127977   3.475   2.387   0.700
 9026SOL    HW227978   3.560   2.248   0.714
 9027SOL     OW27979   0.596   3.215   2.966
 9027SOL    HW127980   0.560   3.165   3.044
 9027SOL    HW227981   0.522   3.233   2.901
 9028SOL     OW27982   3.740   3.149   5.291
 9028SOL    HW127983   3.710   3.177   5.382
 9028SOL    HW227984   3.660   3.128   5.235
 9029SOL     OW27985   4.166   0.073   5.021
 9029SOL    HW127986   4.264   0.094   5.020
 9029SOL    HW227987   4.153   7.003   5.041
 9030SOL     OW27988   2.312   2.107   3.975
 9030SOL    HW127989   2.363   2.040   4.030
 9030SOL    HW227990   2.275   2.061   3.894
 9031SOL     OW27991   4.122   6.871   4.471
 9031SOL    HW127992   4.059   6.821   4.411
 9031SOL    HW227993   4.077   6.890   4.558
 9032SOL     OW27994   4.709   3.713   1.041
 9032SOL    HW127995   4.643   3.717   1.115
 9032SOL    HW227996   4.721   3.804   1.001
 9033SOL     OW27997   0.318   4.830   2.407
 9033SOL    HW127998   0.259   4.796   2.334
 9033SOL    HW227999   0.281   4.802   2.496
 9034SOL     OW28000   3.671   5.932   4.644
 9034SOL    HW128001   3.589   5.920   4.699
 9034SOL    HW228002   3.684   6.029   4.624
 9035SOL     OW28003   2.403   5.871   0.016
 9035SOL    HW128004   2.305   5.858   7.023
 9035SOL    HW228005   2.440   5.786   0.054
 9036SOL     OW28006   1.883   3.833   5.467
 9036SOL    HW128007   1.909   3.929   5.480
 9036SOL    HW228008   1.920   3.799   5.381
 9037SOL     OW28009   1.094   3.060   3.908
 9037SOL    HW128010   1.093   2.961   3.924
 9037SOL    HW228011   1.118   3.107   3.993
 9038SOL     OW28012   4.835   2.841   6.926
 9038SOL    HW128013   4.832   2.926   6.873
 9038SOL    HW228014   4.815   2.764   6.866
 9039SOL     OW28015   3.268   4.902   6.640
 9039SOL    HW128016   3.319   4.819   6.664
 9039SOL    HW228017   3.170   4.882   6.638
 9040SOL     OW28018   2.663   2.286   2.244
 9040SOL    HW128019   2.723   2.336   2.181
 9040SOL    HW228020   2.705   2.285   2.335
 9041SOL     OW28021   1.661   2.351   1.086
 9041SOL    HW128022   1.663   2.306   0.996
 9041SOL    HW228023   1.620   2.289   1.153
 9042SOL     OW28024   3.667   0.006   4.592
 9042SOL    HW128025   3.611   0.057   4.657
 9042SOL    HW228026   3.748   0.059   4.568
 9043SOL     OW28027   2.336   1.562   6.322
 9043SOL    HW128028   2.272   1.588   6.394
 9043SOL    HW228029   2.410   1.507   6.361
 9044SOL     OW28030   0.444   1.168   0.006
 9044SOL    HW128031   0.493   1.216   0.078
 9044SOL    HW228032   0.427   1.074   0.034
 9045SOL     OW28033   3.636   0.405   3.088
 9045SOL    HW128034   3.594   0.450   3.166
 9045SOL    HW228035   3.711   0.462   3.053
 9046SOL     OW28036   3.920   3.777   2.606
 9046SOL    HW128037   3.980   3.762   2.527
 9046SOL    HW228038   3.976   3.805   2.684
 9047SOL     OW28039   1.029   3.869   5.074
 9047SOL    HW128040   0.971   3.944   5.043
 9047SOL    HW228041   1.115   3.906   5.110
 9048SOL     OW28042   6.110   2.384   6.287
 9048SOL    HW128043   6.133   2.438   6.368
 9048SOL    HW228044   6.113   2.443   6.206
 9049SOL     OW28045   4.152   6.381   5.620
 9049SOL    HW128046   4.113   6.428   5.699
 9049SOL    HW228047   4.082   6.325   5.576
 9050SOL     OW28048   0.331   3.213   1.273
 9050SOL    HW128049   0.263   3.140   1.277
 9050SOL    HW228050   0.320   3.264   1.188
 9051SOL     OW28051   2.267   0.055   1.995
 9051SOL    HW128052   2.201   7.027   2.046
 9051SOL    HW228053   2.321   0.110   2.059
 9052SOL     OW28054   1.993   3.257   4.027
 9052SOL    HW128055   2.032   3.165   4.035
 9052SOL    HW228056   1.921   3.268   4.095
 9053SOL     OW28057   1.574   1.565   0.832
 9053SOL    HW128058   1.670   1.551   0.854
 9053SOL    HW228059   1.527   1.607   0.910
 9054SOL     OW28060   2.184   6.062   4.729
 9054SOL    HW128061   2.215   5.974   4.693
 9054SOL    HW228062   2.097   6.049   4.776
 9055SOL     OW28063   6.344   3.078   4.530
 9055SOL    HW128064   6.335   2.985   4.566
 9055SOL    HW228065   6.320   3.078   4.432
 9056SOL     OW28066   6.632   1.613   2.130
 9056SOL    HW128067   6.680   1.688   2.176
 9056SOL    HW228068   6.596   1.550   2.199
 9057SOL     OW28069   4.726   2.493   4.735
 9057SOL    HW128070   4.661   2.549   4.785
 9057SOL    HW228071   4.688   2.466   4.647
 9058SOL     OW28072   1.323   0.468   0.926
 9058SOL    HW128073   1.240   0.448   0.977
 9058SOL    HW228074   1.301   0.482   0.829
 9059SOL     OW28075   1.199   2.395   3.058
 9059SOL    HW128076   1.104   2.395   3.026
 9059SOL    HW228077   1.233   2.301   3.064
 9060SOL     OW28078   5.887   2.602   4.346
 9060SOL    HW128079   5.808   2.560   4.301
 9060SOL    HW228080   5.870   2.700   4.358
 9061SOL     OW28081   3.330   5.182   2.526
 9061SOL    HW128082   3.336   5.274   2.564
 9061SOL    HW228083   3.377   5.179   2.439
 9062SOL     OW28084   1.283   5.850   1.761
 9062SOL    HW128085   1.212   5.795   1.804
 9062SOL    HW228086   1.256   5.872   1.667
 9063SOL     OW28087   2.463   0.529   3.489
 9063SOL    HW128088   2.449   0.562   3.582
 9063SOL    HW228089   2.521   0.593   3.438
 9064SOL     OW28090   6.671   3.777   6.297
 9064SOL    HW128091   6.608   3.835   6.246
 9064SOL    HW228092   6.704   3.704   6.238
 9065SOL     OW28093   3.666   6.836   0.375
 9065SOL    HW128094   3.733   6.772   0.338
 9065SOL    HW228095   3.578   6.822   0.329
 9066SOL     OW28096   5.207   0.248   0.740
 9066SOL    HW128097   5.119   0.208   0.713
 9066SOL    HW228098   5.228   0.325   0.680
 9067SOL     OW28099   1.745   0.163   3.538
 9067SOL    HW128100   1.795   0.205   3.463
 9067SOL    HW228101   1.724   0.233   3.607
 9068SOL     OW28102   0.737   0.010   4.530
 9068SOL    HW128103   0.789   6.953   4.543
 9068SOL    HW228104   0.668   7.023   4.460
 9069SOL     OW28105   1.106   3.050   6.711
 9069SOL    HW128106   1.127   3.145   6.690
 9069SOL    HW228107   1.063   3.006   6.632
 9070SOL     OW28108   2.240   4.002   4.696
 9070SOL    HW128109   2.212   3.912   4.663
 9070SOL    HW228110   2.257   3.997   4.795
 9071SOL     OW28111   6.477   5.945   1.062
 9071SOL    HW128112   6.455   6.037   1.030
 9071SOL    HW228113   6.415   5.920   1.136
 9072SOL     OW28114   6.721   3.488   0.994
 9072SOL    HW128115   6.792   3.426   1.027
 9072SOL    HW228116   6.742   3.516   0.900
 9073SOL     OW28117   1.659   0.141   1.773
 9073SOL    HW128118   1.639   0.162   1.677
 9073SOL    HW228119   1.742   0.087   1.779
 9074SOL     OW28120   1.572   0.670   2.663
 9074SOL    HW128121   1.510   0.597   2.636
 9074SOL    HW228122   1.532   0.759   2.639
 9075SOL     OW28123   6.492   0.617   2.138
 9075SOL    HW128124   6.424   0.689   2.150
 9075SOL    HW228125   6.512   0.574   2.227
 9076SOL     OW28126   0.658   1.050   6.275
 9076SOL    HW128127   0.636   0.953   6.264
 9076SOL    HW228128   0.580   1.097   6.318
 9077SOL     OW28129   4.329   6.188   2.201
 9077SOL    HW128130   4.274   6.271   2.202
 9077SOL    HW228131   4.302   6.131   2.123
 9078SOL     OW28132   3.992   3.406   5.093
 9078SOL    HW128133   4.040   3.402   5.181
 9078SOL    HW228134   4.009   3.322   5.042
 9079SOL     OW28135   3.258   0.466   4.409
 9079SOL    HW128136   3.288   0.452   4.314
 9079SOL    HW228137   3.218   0.557   4.418
 9080SOL     OW28138   5.239   2.374   6.879
 9080SOL    HW128139   5.209   2.459   6.837
 9080SOL    HW228140   5.217   2.375   6.976
 9081SOL     OW28141   5.455   6.418   2.908
 9081SOL    HW128142   5.436   6.483   2.835
 9081SOL    HW228143   5.427   6.458   2.996
 9082SOL     OW28144   2.212   0.370   3.519
 9082SOL    HW128145   2.197   0.291   3.579
 9082SOL    HW228146   2.299   0.413   3.543
 9083SOL     OW28147   4.746   4.755   5.571
 9083SOL    HW128148   4.683   4.676   5.573
 9083SOL    HW228149   4.703   4.830   5.520
 9084SOL     OW28150   3.307   3.617   2.979
 9084SOL    HW128151   3.360   3.670   3.045
 9084SOL    HW228152   3.356   3.533   2.956
 9085SOL     OW28153   2.291   1.117   0.875
 9085SOL    HW128154   2.243   1.055   0.812
 9085SOL    HW228155   2.341   1.186   0.822
 9086SOL     OW28156   1.018   3.988   0.576
 9086SOL    HW128157   0.988   3.950   0.489
 9086SOL    HW228158   0.988   4.083   0.584
 9087SOL     OW28159   5.104   2.961   2.573
 9087SOL    HW128160   5.079   2.919   2.486
 9087SOL    HW228161   5.196   3.000   2.567
 9088SOL     OW28162   6.273   0.482   0.223
 9088SOL    HW128163   6.238   0.426   0.298
 9088SOL    HW228164   6.373   0.482   0.226
 9089SOL     OW28165   4.991   6.287   6.051
 9089SOL    HW128166   5.033   6.378   6.055
 9089SOL    HW228167   5.057   6.222   6.013
 9090SOL     OW28168   6.238   0.614   4.810
 9090SOL    HW128169   6.189   0.626   4.897
 9090SOL    HW228170   6.326   0.570   4.827
 9091SOL     OW28171   2.907   4.118   6.580
 9091SOL    HW128172   2.868   4.028   6.563
 9091SOL    HW228173   2.853   4.187   6.533
 9092SOL     OW28174   6.817   1.775   6.898
 9092SOL    HW128175   6.801   1.768   6.996
 9092SOL    HW228176   6.894   1.717   6.872
 9093SOL     OW28177   1.498   6.375   5.480
 9093SOL    HW128178   1.439   6.306   5.439
 9093SOL    HW228179   1.447   6.426   5.550
 9094SOL     OW28180   0.680   3.160   2.616
 9094SOL    HW128181   0.701   3.220   2.539
 9094SOL    HW228182   0.583   3.170   2.640
 9095SOL     OW28183   4.666   5.032   5.775
 9095SOL    HW128184   4.704   4.998   5.689
 9095SOL    HW228185   4.659   5.132   5.771
 9096SOL     OW28186   6.920   5.275   3.394
 9096SOL    HW128187   6.997   5.281   3.457
 9096SOL    HW228188   6.952   5.243   3.305
 9097SOL     OW28189   0.628   2.491   6.288
 9097SOL    HW128190   0.716   2.529   6.315
 9097SOL    HW228191   0.620   2.397   6.323
 9098SOL     OW28192   2.176   2.303   5.162
 9098SOL    HW128193   2.173   2.212   5.122
 9098SOL    HW228194   2.241   2.360   5.112
 9099SOL     OW28195   2.231   3.185   5.817
 9099SOL    HW128196   2.217   3.096   5.860
 9099SOL    HW228197   2.323   3.188   5.777
 9100SOL     OW28198   1.430   4.175   2.246
 9100SOL    HW128199   1.349   4.142   2.295
 9100SOL    HW228200   1.477   4.243   2.302
 9101SOL     OW28201   2.917   1.179   2.158
 9101SOL    HW128202   2.841   1.220   2.106
 9101SOL    HW228203   2.929   1.229   2.244
 9102SOL     OW28204   4.917   6.485   2.827
 9102SOL    HW128205   5.007   6.493   2.868
 9102SOL    HW228206   4.915   6.534   2.740
 9103SOL     OW28207   6.166   1.900   6.698
 9103SOL    HW128208   6.106   1.971   6.733
 9103SOL    HW228209   6.174   1.910   6.598
 9104SOL     OW28210   0.461   0.504   0.553
 9104SOL    HW128211   0.557   0.534   0.544
 9104SOL    HW228212   0.433   0.513   0.648
 9105SOL     OW28213   2.227   6.956   5.786
 9105SOL    HW128214   2.206   0.018   5.745
 9105SOL    HW228215   2.241   6.968   5.884
 9106SOL     OW28216   0.867   4.171   0.167
 9106SOL    HW128217   0.875   4.216   0.078
 9106SOL    HW228218   0.815   4.230   0.229
 9107SOL     OW28219   2.753   0.908   6.329
 9107SOL    HW128220   2.729   1.005   6.321
 9107SOL    HW228221   2.793   0.876   6.243
 9108SOL     OW28222   5.070   5.135   5.412
 9108SOL    HW128223   5.078   5.038   5.389
 9108SOL    HW228224   5.161   5.176   5.421
 9109SOL     OW28225   5.409   3.127   2.036
 9109SOL    HW128226   5.495   3.166   2.002
 9109SOL    HW228227   5.417   3.028   2.040
 9110SOL     OW28228   1.530   5.670   5.451
 9110SOL    HW128229   1.573   5.723   5.525
 9110SOL    HW228230   1.600   5.644   5.385
 9111SOL     OW28231   4.835   2.896   5.442
 9111SOL    HW128232   4.931   2.876   5.423
 9111SOL    HW228233   4.786   2.810   5.460
 9112SOL     OW28234   2.010   5.081   3.048
 9112SOL    HW128235   2.003   5.039   2.958
 9112SOL    HW228236   1.997   5.011   3.119
 9113SOL     OW28237   5.298   2.225   2.969
 9113SOL    HW128238   5.295   2.144   3.028
 9113SOL    HW228239   5.256   2.204   2.881
 9114SOL     OW28240   1.651   6.078   5.114
 9114SOL    HW128241   1.637   6.167   5.157
 9114SOL    HW228242   1.707   6.020   5.174
 9115SOL     OW28243   5.673   4.864   3.643
 9115SOL    HW128244   5.607   4.896   3.575
 9115SOL    HW228245   5.765   4.893   3.617
 9116SOL     OW28246   0.971   6.701   3.315
 9116SOL    HW128247   1.035   6.627   3.294
 9116SOL    HW228248   0.919   6.679   3.398
 9117SOL     OW28249   4.223   0.941   6.764
 9117SOL    HW128250   4.159   1.017   6.759
 9117SOL    HW228251   4.184   0.862   6.716
 9118SOL     OW28252   6.135   3.923   0.704
 9118SOL    HW128253   6.084   3.956   0.783
 9118SOL    HW228254   6.106   3.972   0.621
 9119SOL     OW28255   3.657   6.256   0.826
 9119SOL    HW128256   3.586   6.222   0.888
 9119SOL    HW228257   3.614   6.297   0.746
 9120SOL     OW28258   6.320   2.758   5.850
 9120SOL    HW128259   6.221   2.755   5.837
 9120SOL    HW228260   6.354   2.665   5.866
 9121SOL     OW28261   3.840   0.338   5.734
 9121SOL    HW128262   3.802   0.326   5.825
 9121SOL    HW228263   3.826   0.254   5.681
 9122SOL     OW28264   2.510   4.549   1.897
 9122SOL    HW128265   2.519   4.453   1.870
 9122SOL    HW228266   2.569   4.605   1.839
 9123SOL     OW28267   1.227   0.570   3.323
 9123SOL    HW128268   1.158   0.582   3.394
 9123SOL    HW228269   1.303   0.515   3.359
 9124SOL     OW28270   3.421   5.215   1.365
 9124SOL    HW128271   3.402   5.130   1.414
 9124SOL    HW228272   3.432   5.196   1.268
 9125SOL     OW28273   3.429   6.744   0.294
 9125SOL    HW128274   3.367   6.700   0.360
 9125SOL    HW228275   3.393   6.732   0.201
 9126SOL     OW28276   4.047   4.843   0.420
 9126SOL    HW128277   3.988   4.840   0.501
 9126SOL    HW228278   4.046   4.754   0.375
 9127SOL     OW28279   6.893   3.234   5.443
 9127SOL    HW128280   6.972   3.294   5.456
 9127SOL    HW228281   6.887   3.208   5.346
 9128SOL     OW28282   5.747   2.860   4.820
 9128SOL    HW128283   5.682   2.932   4.796
 9128SOL    HW228284   5.714   2.772   4.787
 9129SOL     OW28285   2.256   1.633   0.459
 9129SOL    HW128286   2.214   1.720   0.432
 9129SOL    HW228287   2.306   1.646   0.545
 9130SOL     OW28288   3.155   4.205   5.493
 9130SOL    HW128289   3.070   4.153   5.482
 9130SOL    HW228290   3.147   4.291   5.443
 9131SOL     OW28291   5.831   2.895   0.690
 9131SOL    HW128292   5.910   2.833   0.697
 9131SOL    HW228293   5.762   2.868   0.757
 9132SOL     OW28294   1.049   3.989   3.516
 9132SOL    HW128295   0.966   4.029   3.555
 9132SOL    HW228296   1.073   3.906   3.566
 9133SOL     OW28297   4.535   0.716   0.979
 9133SOL    HW128298   4.624   0.707   1.022
 9133SOL    HW228299   4.498   0.807   0.996
 9134SOL     OW28300   4.548   5.321   1.090
 9134SOL    HW128301   4.536   5.420   1.100
 9134SOL    HW228302   4.548   5.278   1.181
 9135SOL     OW28303   0.907   6.201   1.996
 9135SOL    HW128304   0.858   6.262   2.057
 9135SOL    HW228305   0.842   6.139   1.952
 9136SOL     OW28306   5.978   4.680   6.445
 9136SOL    HW128307   5.978   4.713   6.539
 9136SOL    HW228308   5.884   4.683   6.409
 9137SOL     OW28309   4.322   6.188   6.809
 9137SOL    HW128310   4.301   6.093   6.782
 9137SOL    HW228311   4.303   6.200   6.906
 9138SOL     OW28312   3.147   3.144   0.803
 9138SOL    HW128313   3.179   3.214   0.740
 9138SOL    HW228314   3.157   3.054   0.761
 9139SOL     OW28315   0.043   0.248   1.184
 9139SOL    HW128316   6.983   0.292   1.206
 9139SOL    HW228317   0.034   0.196   1.098
 9140SOL     OW28318   0.606   4.437   2.647
 9140SOL    HW128319   0.511   4.420   2.621
 9140SOL    HW228320   0.664   4.365   2.609
 9141SOL     OW28321   6.687   5.413   6.213
 9141SOL    HW128322   6.619   5.485   6.203
 9141SOL    HW228323   6.727   5.416   6.305
 9142SOL     OW28324   1.224   3.773   2.875
 9142SOL    HW128325   1.318   3.799   2.849
 9142SOL    HW228326   1.162   3.847   2.850
 9143SOL     OW28327   0.150   3.453   3.052
 9143SOL    HW128328   0.074   3.448   2.986
 9143SOL    HW228329   0.213   3.525   3.024
 9144SOL     OW28330   2.845   4.970   5.425
 9144SOL    HW128331   2.820   4.909   5.350
 9144SOL    HW228332   2.764   4.992   5.479
 9145SOL     OW28333   1.394   6.769   6.313
 9145SOL    HW128334   1.395   6.847   6.252
 9145SOL    HW228335   1.487   6.736   6.327
 9146SOL     OW28336   5.542   3.675   3.405
 9146SOL    HW128337   5.447   3.652   3.384
 9146SOL    HW228338   5.545   3.737   3.484
 9147SOL     OW28339   5.063   0.287   4.150
 9147SOL    HW128340   5.037   0.384   4.153
 9147SOL    HW228341   5.073   0.259   4.054
 9148SOL     OW28342   6.248   6.920   1.624
 9148SOL    HW128343   6.249   6.977   1.706
 9148SOL    HW228344   6.155   6.887   1.608
 9149SOL     OW28345   6.387   4.198   1.238
 9149SOL    HW128346   6.321   4.188   1.163
 9149SOL    HW228347   6.358   4.271   1.299
 9150SOL     OW28348   2.898   3.753   6.834
 9150SOL    HW128349   2.982   3.719   6.877
 9150SOL    HW228350   2.877   3.697   6.754
 9151SOL     OW28351   1.662   3.585   3.551
 9151SOL    HW128352   1.597   3.623   3.617
 9151SOL    HW228353   1.718   3.659   3.514
 9152SOL     OW28354   1.852   4.005   3.900
 9152SOL    HW128355   1.944   4.020   3.937
 9152SOL    HW228356   1.792   3.972   3.972
 9153SOL     OW28357   0.227   3.077   6.594
 9153SOL    HW128358   0.170   2.999   6.620
 9153SOL    HW228359   0.170   3.150   6.557
 9154SOL     OW28360   6.191   4.765   3.183
 9154SOL    HW128361   6.215   4.680   3.231
 9154SOL    HW228362   6.264   4.832   3.195
 9155SOL     OW28363   0.578   5.684   2.831
 9155SOL    HW128364   0.551   5.770   2.875
 9155SOL    HW228365   0.611   5.621   2.901
 9156SOL     OW28366   6.681   4.201   0.096
 9156SOL    HW128367   6.714   4.112   0.065
 9156SOL    HW228368   6.596   4.223   0.048
 9157SOL     OW28369   3.074   4.968   6.131
 9157SOL    HW128370   3.068   4.989   6.034
 9157SOL    HW228371   3.067   4.869   6.144
 9158SOL     OW28372   0.143   3.669   3.924
 9158SOL    HW128373   0.104   3.624   3.843
 9158SOL    HW228374   0.128   3.611   4.005
 9159SOL     OW28375   3.600   0.804   3.165
 9159SOL    HW128376   3.652   0.722   3.139
 9159SOL    HW228377   3.661   0.869   3.210
 9160SOL     OW28378   0.274   4.484   6.516
 9160SOL    HW128379   0.175   4.483   6.531
 9160SOL    HW228380   0.299   4.563   6.461
 9161SOL     OW28381   6.182   4.067   1.684
 9161SOL    HW128382   6.222   4.076   1.593
 9161SOL    HW228383   6.086   4.040   1.675
 9162SOL     OW28384   4.921   2.110   2.008
 9162SOL    HW128385   4.862   2.050   2.060
 9162SOL    HW228386   4.875   2.198   1.992
 9163SOL     OW28387   1.334   2.471   3.295
 9163SOL    HW128388   1.267   2.446   3.226
 9163SOL    HW228389   1.380   2.555   3.269
 9164SOL     OW28390   2.480   0.416   6.634
 9164SOL    HW128391   2.407   0.360   6.674
 9164SOL    HW228392   2.445   0.508   6.617
 9165SOL     OW28393   5.300   2.797   5.779
 9165SOL    HW128394   5.368   2.737   5.736
 9165SOL    HW228395   5.291   2.881   5.725
 9166SOL     OW28396   5.177   5.371   1.786
 9166SOL    HW128397   5.237   5.451   1.782
 9166SOL    HW228398   5.153   5.353   1.882
 9167SOL     OW28399   1.790   0.780   5.371
 9167SOL    HW128400   1.776   0.851   5.440
 9167SOL    HW228401   1.728   0.703   5.388
 9168SOL     OW28402   6.931   6.264   4.761
 9168SOL    HW128403   6.852   6.237   4.817
 9168SOL    HW228404   6.940   6.201   4.684
 9169SOL     OW28405   6.244   6.326   0.624
 9169SOL    HW128406   6.202   6.273   0.550
 9169SOL    HW228407   6.319   6.382   0.588
 9170SOL     OW28408   1.533   1.542   5.547
 9170SOL    HW128409   1.593   1.462   5.550
 9170SOL    HW228410   1.462   1.533   5.618
 9171SOL     OW28411   3.230   4.877   0.646
 9171SOL    HW128412   3.168   4.904   0.571
 9171SOL    HW228413   3.251   4.957   0.701
 9172SOL     OW28414   5.162   1.567   4.136
 9172SOL    HW128415   5.114   1.590   4.052
 9172SOL    HW228416   5.118   1.611   4.213
 9173SOL     OW28417   6.332   2.631   4.202
 9173SOL    HW128418   6.282   2.647   4.288
 9173SOL    HW228419   6.418   2.583   4.222
 9174SOL     OW28420   0.239   5.502   0.171
 9174SOL    HW128421   0.311   5.547   0.224
 9174SOL    HW228422   0.215   5.559   0.092
 9175SOL     OW28423   1.347   0.148   6.708
 9175SOL    HW128424   1.282   0.217   6.740
 9175SOL    HW228425   1.345   0.142   6.609
 9176SOL     OW28426   1.216   1.730   2.411
 9176SOL    HW128427   1.243   1.792   2.338
 9176SOL    HW228428   1.150   1.775   2.471
 9177SOL     OW28429   0.184   4.471   4.140
 9177SOL    HW128430   0.194   4.462   4.041
 9177SOL    HW228431   0.222   4.390   4.185
 9178SOL     OW28432   1.335   6.673   0.587
 9178SOL    HW128433   1.251   6.622   0.601
 9178SOL    HW228434   1.412   6.610   0.575
 9179SOL     OW28435   4.274   6.081   5.061
 9179SOL    HW128436   4.351   6.133   5.099
 9179SOL    HW228437   4.292   6.058   4.966
 9180SOL     OW28438   0.279   1.355   4.192
 9180SOL    HW128439   0.350   1.285   4.194
 9180SOL    HW228440   0.189   1.312   4.195
 9181SOL     OW28441   3.497   1.974   3.754
 9181SOL    HW128442   3.493   2.065   3.794
 9181SOL    HW228443   3.554   1.914   3.811
 9182SOL     OW28444   1.659   0.972   3.193
 9182SOL    HW128445   1.589   1.034   3.159
 9182SOL    HW228446   1.713   0.936   3.116
 9183SOL     OW28447   6.041   2.831   5.704
 9183SOL    HW128448   5.990   2.877   5.777
 9183SOL    HW228449   5.998   2.742   5.685
 9184SOL     OW28450   3.681   2.905   1.221
 9184SOL    HW128451   3.725   2.985   1.262
 9184SOL    HW228452   3.608   2.873   1.281
 9185SOL     OW28453   0.991   0.171   6.359
 9185SOL    HW128454   0.992   0.075   6.333
 9185SOL    HW228455   0.906   0.192   6.408
 9186SOL     OW28456   5.422   0.596   6.000
 9186SOL    HW128457   5.415   0.677   5.942
 9186SOL    HW228458   5.483   0.616   6.077
 9187SOL     OW28459   5.251   1.537   0.081
 9187SOL    HW128460   5.227   1.457   0.136
 9187SOL    HW228461   5.205   1.618   0.118
 9188SOL     OW28462   0.909   0.377   2.080
 9188SOL    HW128463   0.928   0.288   2.040
 9188SOL    HW228464   0.862   0.435   2.012
 9189SOL     OW28465   3.657   1.717   3.865
 9189SOL    HW128466   3.748   1.715   3.824
 9189SOL    HW228467   3.665   1.747   3.961
 9190SOL     OW28468   5.828   3.978   5.284
 9190SOL    HW128469   5.784   4.029   5.357
 9190SOL    HW228470   5.764   3.967   5.208
 9191SOL     OW28471   5.318   6.219   6.574
 9191SOL    HW128472   5.258   6.222   6.654
 9191SOL    HW228473   5.413   6.211   6.605
 9192SOL     OW28474   6.458   4.500   5.430
 9192SOL    HW128475   6.376   4.456   5.394
 9192SOL    HW228476   6.436   4.545   5.517
 9193SOL     OW28477   3.447   3.029   3.749
 9193SOL    HW128478   3.531   3.003   3.796
 9193SOL    HW228479   3.370   2.979   3.789
 9194SOL     OW28480   2.717   5.198   3.215
 9194SOL    HW128481   2.660   5.165   3.290
 9194SOL    HW228482   2.814   5.183   3.236
 9195SOL     OW28483   0.240   3.234   2.901
 9195SOL    HW128484   0.229   3.300   2.975
 9195SOL    HW228485   0.181   3.155   2.918
 9196SOL     OW28486   4.912   0.253   3.567
 9196SOL    HW128487   4.943   0.162   3.594
 9196SOL    HW228488   4.990   0.306   3.532
 9197SOL     OW28489   3.428   3.206   6.223
 9197SOL    HW128490   3.449   3.253   6.309
 9197SOL    HW228491   3.370   3.127   6.241
 9198SOL     OW28492   5.903   2.997   5.446
 9198SOL    HW128493   5.873   2.904   5.424
 9198SOL    HW228494   5.956   2.995   5.531
 9199SOL     OW28495   1.247   4.254   6.716
 9199SOL    HW128496   1.172   4.214   6.663
 9199SOL    HW228497   1.329   4.197   6.708
 9200SOL     OW28498   6.335   0.168   0.541
 9200SOL    HW128499   6.300   0.082   0.578
 9200SOL    HW228500   6.407   0.203   0.602
 9201SOL     OW28501   0.571   3.777   2.305
 9201SOL    HW128502   0.480   3.734   2.305
 9201SOL    HW228503   0.624   3.741   2.382
 9202SOL     OW28504   3.174   5.527   4.289
 9202SOL    HW128505   3.262   5.565   4.318
 9202SOL    HW228506   3.145   5.458   4.354
 9203SOL     OW28507   5.237   0.950   5.416
 9203SOL    HW128508   5.156   1.008   5.409
 9203SOL    HW228509   5.211   0.860   5.451
 9204SOL     OW28510   4.991   3.983   3.000
 9204SOL    HW128511   4.946   3.935   2.925
 9204SOL    HW228512   4.924   4.004   3.071
 9205SOL     OW28513   5.159   2.493   2.433
 9205SOL    HW128514   5.137   2.461   2.341
 9205SOL    HW228515   5.079   2.538   2.473
 9206SOL     OW28516   0.787   6.352   3.539
 9206SOL    HW128517   0.804   6.315   3.630
 9206SOL    HW228518   0.830   6.442   3.530
 9207SOL     OW28519   4.168   6.376   0.441
 9207SOL    HW128520   4.131   6.443   0.504
 9207SOL    HW228521   4.241   6.418   0.387
 9208SOL     OW28522   5.205   3.593   2.067
 9208SOL    HW128523   5.189   3.550   1.978
 9208SOL    HW228524   5.118   3.623   2.106
 9209SOL     OW28525   4.108   1.289   2.419
 9209SOL    HW128526   4.200   1.312   2.390
 9209SOL    HW228527   4.062   1.238   2.345
 9210SOL     OW28528   1.403   0.006   1.147
 9210SOL    HW128529   1.479   7.007   1.089
 9210SOL    HW228530   1.381   6.958   1.210
 9211SOL     OW28531   5.095   1.517   6.620
 9211SOL    HW128532   5.194   1.522   6.606
 9211SOL    HW228533   5.073   1.542   6.714
 9212SOL     OW28534   5.673   3.664   4.375
 9212SOL    HW128535   5.688   3.566   4.374
 9212SOL    HW228536   5.581   3.685   4.344
 9213SOL     OW28537   5.934   6.710   3.377
 9213SOL    HW128538   5.928   6.809   3.390
 9213SOL    HW228539   5.913   6.664   3.463
 9214SOL     OW28540   2.459   2.245   4.592
 9214SOL    HW128541   2.516   2.327   4.594
 9214SOL    HW228542   2.406   2.239   4.677
 9215SOL     OW28543   0.447   3.863   2.903
 9215SOL    HW128544   0.527   3.911   2.937
 9215SOL    HW228545   0.461   3.837   2.807
 9216SOL     OW28546   1.931   5.767   4.950
 9216SOL    HW128547   1.984   5.703   4.894
 9216SOL    HW228548   1.849   5.795   4.899
 9217SOL     OW28549   4.524   1.228   6.314
 9217SOL    HW128550   4.604   1.195   6.263
 9217SOL    HW228551   4.524   1.328   6.315
 9218SOL     OW28552   6.048   5.796   6.002
 9218SOL    HW128553   6.006   5.725   5.944
 9218SOL    HW228554   6.096   5.861   5.944
 9219SOL     OW28555   3.713   2.775   5.259
 9219SOL    HW128556   3.639   2.821   5.210
 9219SOL    HW228557   3.677   2.695   5.307
 9220SOL     OW28558   1.803   6.001   3.311
 9220SOL    HW128559   1.784   5.987   3.214
 9220SOL    HW228560   1.725   6.043   3.355
 9221SOL     OW28561   2.500   0.880   6.518
 9221SOL    HW128562   2.561   0.898   6.595
 9221SOL    HW228563   2.548   0.899   6.432
 9222SOL     OW28564   1.323   3.765   3.404
 9222SOL    HW128565   1.257   3.823   3.357
 9222SOL    HW228566   1.366   3.704   3.337
 9223SOL     OW28567   0.874   3.643   4.368
 9223SOL    HW128568   0.814   3.564   4.382
 9223SOL    HW228569   0.951   3.638   4.431
 9224SOL     OW28570   1.936   4.103   4.296
 9224SOL    HW128571   1.970   4.196   4.281
 9224SOL    HW228572   2.013   4.040   4.303
 9225SOL     OW28573   4.723   7.009   6.759
 9225SOL    HW128574   4.717   6.925   6.813
 9225SOL    HW228575   4.731   6.985   6.662
 9226SOL     OW28576   0.716   0.896   0.479
 9226SOL    HW128577   0.672   0.966   0.535
 9226SOL    HW228578   0.700   0.917   0.382
 9227SOL     OW28579   2.627   5.315   0.594
 9227SOL    HW128580   2.684   5.383   0.640
 9227SOL    HW228581   2.659   5.301   0.500
 9228SOL     OW28582   3.090   2.825   5.741
 9228SOL    HW128583   3.016   2.759   5.752
 9228SOL    HW228584   3.144   2.828   5.826
 9229SOL     OW28585   6.859   4.574   6.959
 9229SOL    HW128586   6.797   4.575   6.880
 9229SOL    HW228587   6.936   4.514   6.940
 9230SOL     OW28588   4.823   1.803   4.000
 9230SOL    HW128589   4.804   1.780   4.096
 9230SOL    HW228590   4.870   1.891   3.996
 9231SOL     OW28591   0.296   5.743   4.294
 9231SOL    HW128592   0.213   5.700   4.332
 9231SOL    HW228593   0.364   5.751   4.367
 9232SOL     OW28594   1.247   5.464   1.809
 9232SOL    HW128595   1.242   5.450   1.710
 9232SOL    HW228596   1.319   5.406   1.847
 9233SOL     OW28597   0.924   0.113   0.091
 9233SOL    HW128598   0.940   0.191   0.152
 9233SOL    HW228599   0.834   0.074   0.112
 9234SOL     OW28600   2.122   4.537   0.714
 9234SOL    HW128601   2.188   4.571   0.781
 9234SOL    HW228602   2.043   4.499   0.762
 9235SOL     OW28603   2.695   2.424   4.108
 9235SOL    HW128604   2.607   2.379   4.092
 9235SOL    HW228605   2.686   2.522   4.090
 9236SOL     OW28606   2.286   3.774   6.477
 9236SOL    HW128607   2.324   3.707   6.413
 9236SOL    HW228608   2.213   3.731   6.531
 9237SOL     OW28609   6.347   5.124   3.761
 9237SOL    HW128610   6.445   5.110   3.771
 9237SOL    HW228611   6.315   5.081   3.676
 9238SOL     OW28612   1.523   3.303   5.267
 9238SOL    HW128613   1.618   3.332   5.272
 9238SOL    HW228614   1.506   3.256   5.180
 9239SOL     OW28615   0.479   4.861   6.948
 9239SOL    HW128616   0.417   4.799   6.901
 9239SOL    HW228617   0.495   4.942   6.891
 9240SOL     OW28618   4.522   2.514   2.708
 9240SOL    HW128619   4.524   2.611   2.684
 9240SOL    HW228620   4.456   2.498   2.780
 9241SOL     OW28621   5.713   6.855   0.924
 9241SOL    HW128622   5.736   6.865   1.020
 9241SOL    HW228623   5.701   6.758   0.902
 9242SOL     OW28624   1.310   2.377   0.861
 9242SOL    HW128625   1.314   2.354   0.764
 9242SOL    HW228626   1.323   2.294   0.915
 9243SOL     OW28627   0.997   0.593   0.211
 9243SOL    HW128628   0.921   0.609   0.148
 9243SOL    HW228629   1.077   0.646   0.182
 9244SOL     OW28630   4.383   6.469   4.855
 9244SOL    HW128631   4.289   6.448   4.882
 9244SOL    HW228632   4.419   6.394   4.800
 9245SOL     OW28633   0.789   4.319   2.917
 9245SOL    HW128634   0.742   4.313   3.005
 9245SOL    HW228635   0.885   4.342   2.931
 9246SOL     OW28636   6.826   0.802   4.818
 9246SOL    HW128637   6.830   0.901   4.810
 9246SOL    HW228638   6.845   0.776   4.913
 9247SOL     OW28639   4.000   5.765   3.682
 9247SOL    HW128640   3.995   5.856   3.724
 9247SOL    HW228641   4.004   5.776   3.582
 9248SOL     OW28642   2.900   0.953   5.303
 9248SOL    HW128643   2.873   0.980   5.395
 9248SOL    HW228644   2.821   0.917   5.254
 9249SOL     OW28645   3.742   4.912   1.913
 9249SOL    HW128646   3.703   4.978   1.848
 9249SOL    HW228647   3.688   4.828   1.912
 9250SOL     OW28648   0.350   2.933   3.921
 9250SOL    HW128649   0.343   2.991   4.002
 9250SOL    HW228650   0.268   2.877   3.912
 9251SOL     OW28651   2.971   3.089   0.995
 9251SOL    HW128652   3.021   3.136   0.922
 9251SOL    HW228653   2.970   3.146   1.077
 9252SOL     OW28654   5.432   0.428   5.778
 9252SOL    HW128655   5.440   0.503   5.845
 9252SOL    HW228656   5.424   0.466   5.686
 9253SOL     OW28657   1.044   4.892   5.439
 9253SOL    HW128658   1.081   4.983   5.424
 9253SOL    HW228659   0.961   4.879   5.385
 9254SOL     OW28660   6.702   5.031   3.232
 9254SOL    HW128661   6.680   5.124   3.261
 9254SOL    HW228662   6.725   4.975   3.311
 9255SOL     OW28663   6.808   4.484   0.554
 9255SOL    HW128664   6.811   4.393   0.512
 9255SOL    HW228665   6.890   4.498   0.610
 9256SOL     OW28666   1.623   6.567   1.463
 9256SOL    HW128667   1.647   6.481   1.418
 9256SOL    HW228668   1.644   6.562   1.560
 9257SOL     OW28669   0.206   5.741   4.037
 9257SOL    HW128670   0.119   5.707   4.002
 9257SOL    HW228671   0.197   5.764   4.134
 9258SOL     OW28672   3.569   4.539   0.772
 9258SOL    HW128673   3.553   4.440   0.776
 9258SOL    HW228674   3.506   4.581   0.707
 9259SOL     OW28675   2.214   1.872   6.699
 9259SOL    HW128676   2.178   1.959   6.666
 9259SOL    HW228677   2.277   1.888   6.775
 9260SOL     OW28678   5.202   3.223   4.692
 9260SOL    HW128679   5.301   3.231   4.681
 9260SOL    HW228680   5.181   3.198   4.787
 9261SOL     OW28681   4.036   2.335   1.804
 9261SOL    HW128682   4.047   2.363   1.709
 9261SOL    HW228683   3.940   2.310   1.820
 9262SOL     OW28684   6.293   6.087   3.701
 9262SOL    HW128685   6.329   6.051   3.614
 9262SOL    HW228686   6.359   6.068   3.774
 9263SOL     OW28687   2.030   3.714   3.862
 9263SOL    HW128688   1.967   3.742   3.934
 9263SOL    HW228689   2.027   3.615   3.851
 9264SOL     OW28690   4.453   3.753   6.719
 9264SOL    HW128691   4.447   3.655   6.740
 9264SOL    HW228692   4.363   3.795   6.735
 9265SOL     OW28693   5.258   2.120   0.250
 9265SOL    HW128694   5.283   2.148   0.343
 9265SOL    HW228695   5.321   2.049   0.218
 9266SOL     OW28696   0.240   4.166   1.119
 9266SOL    HW128697   0.224   4.132   1.212
 9266SOL    HW228698   0.163   4.221   1.089
 9267SOL     OW28699   0.640   1.054   4.125
 9267SOL    HW128700   0.615   1.128   4.187
 9267SOL    HW228701   0.575   0.979   4.134
 9268SOL     OW28702   0.589   6.723   2.079
 9268SOL    HW128703   0.527   6.707   2.155
 9268SOL    HW228704   0.582   6.648   2.013
 9269SOL     OW28705   3.815   0.481   0.981
 9269SOL    HW128706   3.835   0.528   0.895
 9269SOL    HW228707   3.900   0.455   1.026
 9270SOL     OW28708   2.256   0.871   5.928
 9270SOL    HW128709   2.299   0.953   5.891
 9270SOL    HW228710   2.297   0.790   5.886
 9271SOL     OW28711   1.262   0.320   5.581
 9271SOL    HW128712   1.165   0.343   5.586
 9271SOL    HW228713   1.317   0.397   5.612
 9272SOL     OW28714   6.908   6.188   5.808
 9272SOL    HW128715   6.921   6.089   5.808
 9272SOL    HW228716   6.815   6.209   5.777
 9273SOL     OW28717   4.688   5.219   4.617
 9273SOL    HW128718   4.613   5.267   4.571
 9273SOL    HW228719   4.685   5.238   4.715
 9274SOL     OW28720   0.860   3.278   0.357
 9274SOL    HW128721   0.846   3.265   0.259
 9274SOL    HW228722   0.955   3.305   0.373
 9275SOL     OW28723   0.765   6.571   0.907
 9275SOL    HW128724   0.744   6.577   1.004
 9275SOL    HW228725   0.843   6.510   0.894
 9276SOL     OW28726   3.617   5.025   0.108
 9276SOL    HW128727   3.548   5.090   0.139
 9276SOL    HW228728   3.700   5.074   0.083
 9277SOL     OW28729   4.943   4.878   2.423
 9277SOL    HW128730   5.004   4.808   2.459
 9277SOL    HW228731   4.951   4.961   2.479
 9278SOL     OW28732   0.537   0.900   4.622
 9278SOL    HW128733   0.510   0.820   4.675
 9278SOL    HW228734   0.600   0.872   4.549
 9279SOL     OW28735   4.462   5.655   1.663
 9279SOL    HW128736   4.461   5.724   1.735
 9279SOL    HW228737   4.411   5.574   1.693
 9280SOL     OW28738   1.397   1.080   2.866
 9280SOL    HW128739   1.486   1.073   2.822
 9280SOL    HW228740   1.353   0.990   2.865
 9281SOL     OW28741   3.282   4.714   0.245
 9281SOL    HW128742   3.239   4.724   0.335
 9281SOL    HW228743   3.375   4.678   0.257
 9282SOL     OW28744   3.205   0.172   4.813
 9282SOL    HW128745   3.172   0.078   4.800
 9282SOL    HW228746   3.131   0.228   4.850
 9283SOL     OW28747   4.406   6.616   6.865
 9283SOL    HW128748   4.463   6.547   6.820
 9283SOL    HW228749   4.310   6.590   6.856
 9284SOL     OW28750   3.247   4.092   5.178
 9284SOL    HW128751   3.199   4.115   5.262
 9284SOL    HW228752   3.331   4.146   5.173
 9285SOL     OW28753   6.992   4.199   2.466
 9285SOL    HW128754   0.018   4.272   2.423
 9285SOL    HW228755   0.018   4.161   2.542
 9286SOL     OW28756   4.737   5.587   1.618
 9286SOL    HW128757   4.806   5.520   1.646
 9286SOL    HW228758   4.650   5.565   1.661
 9287SOL     OW28759   3.139   4.365   6.081
 9287SOL    HW128760   3.065   4.318   6.032
 9287SOL    HW228761   3.221   4.368   6.024
 9288SOL     OW28762   4.493   2.105   3.452
 9288SOL    HW128763   4.423   2.042   3.417
 9288SOL    HW228764   4.522   2.074   3.543
 9289SOL     OW28765   4.695   7.012   6.483
 9289SOL    HW128766   4.718   6.936   6.422
 9289SOL    HW228767   4.602   7.000   6.518
 9290SOL     OW28768   5.464   0.220   4.780
 9290SOL    HW128769   5.492   0.201   4.874
 9290SOL    HW228770   5.459   0.319   4.766
 9291SOL     OW28771   1.551   4.983   5.695
 9291SOL    HW128772   1.469   5.040   5.707
 9291SOL    HW228773   1.626   5.021   5.750
 9292SOL     OW28774   1.883   1.885   6.159
 9292SOL    HW128775   1.903   1.949   6.085
 9292SOL    HW228776   1.902   1.929   6.247
 9293SOL     OW28777   4.910   2.950   5.957
 9293SOL    HW128778   4.877   2.898   5.879
 9293SOL    HW228779   4.846   3.025   5.976
 9294SOL     OW28780   4.557   1.341   0.168
 9294SOL    HW128781   4.618   1.360   0.091
 9294SOL    HW228782   4.466   1.317   0.134
 9295SOL     OW28783   0.888   1.304   5.655
 9295SOL    HW128784   0.957   1.348   5.598
 9295SOL    HW228785   0.908   1.206   5.661
 9296SOL     OW28786   2.205   4.378   0.253
 9296SOL    HW128787   2.202   4.294   0.199
 9296SOL    HW228788   2.285   4.377   0.313
 9297SOL     OW28789   5.879   6.692   2.956
 9297SOL    HW128790   5.883   6.592   2.957
 9297SOL    HW228791   5.818   6.721   2.882
 9298SOL     OW28792   1.386   6.119   5.879
 9298SOL    HW128793   1.466   6.178   5.890
 9298SOL    HW228794   1.374   6.064   5.961
 9299SOL     OW28795   2.310   2.597   4.745
 9299SOL    HW128796   2.216   2.595   4.781
 9299SOL    HW228797   2.307   2.590   4.645
 9300SOL     OW28798   1.633   6.208   5.968
 9300SOL    HW128799   1.628   6.242   6.062
 9300SOL    HW228800   1.706   6.139   5.962
 9301SOL     OW28801   0.247   4.098   4.954
 9301SOL    HW128802   0.232   3.999   4.959
 9301SOL    HW228803   0.190   4.143   5.023
 9302SOL     OW28804   2.117   3.656   4.855
 9302SOL    HW128805   2.146   3.666   4.950
 9302SOL    HW228806   2.032   3.707   4.841
 9303SOL     OW28807   2.538   4.902   1.084
 9303SOL    HW128808   2.600   4.919   1.161
 9303SOL    HW228809   2.504   4.808   1.089
 9304SOL     OW28810   4.810   5.111   0.418
 9304SOL    HW128811   4.909   5.111   0.406
 9304SOL    HW228812   4.788   5.146   0.510
 9305SOL     OW28813   2.630   1.698   1.538
 9305SOL    HW128814   2.552   1.741   1.492
 9305SOL    HW228815   2.652   1.751   1.620
 9306SOL     OW28816   0.453   5.408   4.522
 9306SOL    HW128817   0.462   5.348   4.443
 9306SOL    HW228818   0.500   5.495   4.503
 9307SOL     OW28819   2.715   2.879   1.724
 9307SOL    HW128820   2.624   2.844   1.702
 9307SOL    HW228821   2.783   2.809   1.704
 9308SOL     OW28822   1.885   3.784   1.825
 9308SOL    HW128823   1.892   3.878   1.859
 9308SOL    HW228824   1.977   3.744   1.818
 9309SOL     OW28825   4.538   5.728   5.236
 9309SOL    HW128826   4.579   5.819   5.227
 9309SOL    HW228827   4.585   5.677   5.308
 9310SOL     OW28828   5.003   6.009   6.212
 9310SOL    HW128829   5.091   6.027   6.256
 9310SOL    HW228830   5.019   5.966   6.123
 9311SOL     OW28831   4.776   3.211   1.486
 9311SOL    HW128832   4.705   3.281   1.487
 9311SOL    HW228833   4.805   3.192   1.580
 9312SOL     OW28834   0.542   2.485   1.072
 9312SOL    HW128835   0.491   2.553   1.125
 9312SOL    HW228836   0.639   2.511   1.069
 9313SOL     OW28837   0.762   6.807   1.805
 9313SOL    HW128838   0.860   6.788   1.806
 9313SOL    HW228839   0.745   6.898   1.843
 9314SOL     OW28840   4.847   2.628   0.088
 9314SOL    HW128841   4.815   2.719   0.062
 9314SOL    HW228842   4.779   2.584   0.147
 9315SOL     OW28843   5.811   0.723   6.533
 9315SOL    HW128844   5.890   0.662   6.530
 9315SOL    HW228845   5.808   0.778   6.449
 9316SOL     OW28846   4.192   1.128   5.545
 9316SOL    HW128847   4.176   1.029   5.547
 9316SOL    HW228848   4.210   1.157   5.451
 9317SOL     OW28849   3.923   5.985   3.453
 9317SOL    HW128850   3.949   5.894   3.420
 9317SOL    HW228851   3.918   6.048   3.375
 9318SOL     OW28852   5.162   5.879   1.225
 9318SOL    HW128853   5.085   5.899   1.285
 9318SOL    HW228854   5.202   5.791   1.250
 9319SOL     OW28855   2.441   4.416   0.494
 9319SOL    HW128856   2.479   4.497   0.538
 9319SOL    HW228857   2.403   4.355   0.564
 9320SOL     OW28858   6.686   6.690   6.155
 9320SOL    HW128859   6.620   6.644   6.096
 9320SOL    HW228860   6.648   6.698   6.248
 9321SOL     OW28861   0.385   3.499   4.952
 9321SOL    HW128862   0.286   3.512   4.946
 9321SOL    HW228863   0.406   3.436   5.027
 9322SOL     OW28864   5.591   4.207   6.020
 9322SOL    HW128865   5.566   4.293   6.064
 9322SOL    HW228866   5.673   4.221   5.964
 9323SOL     OW28867   1.547   2.779   3.890
 9323SOL    HW128868   1.644   2.788   3.867
 9323SOL    HW228869   1.500   2.729   3.818
 9324SOL     OW28870   0.415   3.929   1.427
 9324SOL    HW128871   0.504   3.965   1.400
 9324SOL    HW228872   0.363   3.905   1.345
 9325SOL     OW28873   1.280   4.996   2.763
 9325SOL    HW128874   1.360   5.045   2.726
 9325SOL    HW228875   1.308   4.939   2.840
 9326SOL     OW28876   4.153   4.273   0.605
 9326SOL    HW128877   4.169   4.327   0.688
 9326SOL    HW228878   4.127   4.180   0.629
 9327SOL     OW28879   4.338   0.636   3.364
 9327SOL    HW128880   4.353   0.625   3.266
 9327SOL    HW228881   4.363   0.729   3.391
 9328SOL     OW28882   2.840   6.169   4.223
 9328SOL    HW128883   2.750   6.152   4.264
 9328SOL    HW228884   2.904   6.098   4.254
 9329SOL     OW28885   0.361   5.453   6.593
 9329SOL    HW128886   0.301   5.431   6.669
 9329SOL    HW228887   0.381   5.551   6.594
 9330SOL     OW28888   6.137   6.067   6.266
 9330SOL    HW128889   6.081   5.991   6.233
 9330SOL    HW228890   6.228   6.062   6.226
 9331SOL     OW28891   1.309   3.090   4.506
 9331SOL    HW128892   1.291   3.088   4.605
 9331SOL    HW228893   1.340   3.181   4.479
 9332SOL     OW28894   4.751   5.465   0.938
 9332SOL    HW128895   4.848   5.475   0.961
 9332SOL    HW228896   4.707   5.407   1.007
 9333SOL     OW28897   3.532   4.804   0.378
 9333SOL    HW128898   3.554   4.778   0.284
 9333SOL    HW228899   3.582   4.888   0.401
 9334SOL     OW28900   5.290   6.092   5.551
 9334SOL    HW128901   5.200   6.129   5.574
 9334SOL    HW228902   5.282   6.029   5.474
 9335SOL     OW28903   2.318   2.649   1.273
 9335SOL    HW128904   2.337   2.726   1.212
 9335SOL    HW228905   2.256   2.679   1.345
 9336SOL     OW28906   6.876   0.742   5.451
 9336SOL    HW128907   6.807   0.788   5.395
 9336SOL    HW228908   6.967   0.766   5.417
 9337SOL     OW28909   3.003   0.285   6.404
 9337SOL    HW128910   2.952   0.355   6.354
 9337SOL    HW228911   3.085   0.326   6.445
 9338SOL     OW28912   6.262   5.960   6.975
 9338SOL    HW128913   6.323   5.882   6.990
 9338SOL    HW228914   6.174   5.928   6.940
 9339SOL     OW28915   6.234   4.709   5.476
 9339SOL    HW128916   6.254   4.739   5.382
 9339SOL    HW228917   6.318   4.705   5.529
 9340SOL     OW28918   3.946   6.073   2.316
 9340SOL    HW128919   4.033   6.023   2.311
 9340SOL    HW228920   3.930   6.119   2.229
 9341SOL     OW28921   5.481   3.903   0.054
 9341SOL    HW128922   5.516   3.949   7.000
 9341SOL    HW228923   5.551   3.844   0.092
 9342SOL     OW28924   2.730   7.017   4.061
 9342SOL    HW128925   2.715   0.019   4.156
 9342SOL    HW228926   2.774   6.927   4.061
 9343SOL     OW28927   4.813   4.165   1.773
 9343SOL    HW128928   4.816   4.211   1.861
 9343SOL    HW228929   4.777   4.228   1.704
 9344SOL     OW28930   5.944   5.395   4.856
 9344SOL    HW128931   6.044   5.397   4.850
 9344SOL    HW228932   5.912   5.301   4.841
 9345SOL     OW28933   0.059   6.614   0.887
 9345SOL    HW128934   0.104   6.565   0.812
 9345SOL    HW228935   0.016   6.697   0.853
 9346SOL     OW28936   5.448   6.777   1.699
 9346SOL    HW128937   5.422   6.721   1.620
 9346SOL    HW228938   5.380   6.764   1.771
 9347SOL     OW28939   4.274   5.657   0.528
 9347SOL    HW128940   4.312   5.684   0.439
 9347SOL    HW228941   4.325   5.702   0.601
 9348SOL     OW28942   2.237   5.932   1.920
 9348SOL    HW128943   2.292   5.917   1.837
 9348SOL    HW228944   2.141   5.917   1.899
 9349SOL     OW28945   6.114   5.078   1.605
 9349SOL    HW128946   6.047   5.066   1.678
 9349SOL    HW228947   6.081   5.147   1.541
 9350SOL     OW28948   0.148   0.925   5.037
 9350SOL    HW128949   0.223   0.989   5.020
 9350SOL    HW228950   0.126   0.876   4.953
 9351SOL     OW28951   3.128   1.321   6.020
 9351SOL    HW128952   3.176   1.352   6.102
 9351SOL    HW228953   3.192   1.275   5.959
 9352SOL     OW28954   3.286   2.270   6.070
 9352SOL    HW128955   3.331   2.198   6.018
 9352SOL    HW228956   3.230   2.326   6.009
 9353SOL     OW28957   0.859   4.110   1.495
 9353SOL    HW128958   0.767   4.094   1.459
 9353SOL    HW228959   0.923   4.045   1.452
 9354SOL     OW28960   5.574   1.802   1.290
 9354SOL    HW128961   5.522   1.886   1.272
 9354SOL    HW228962   5.510   1.726   1.302
 9355SOL     OW28963   6.750   6.828   3.622
 9355SOL    HW128964   6.674   6.782   3.668
 9355SOL    HW228965   6.836   6.792   3.659
 9356SOL     OW28966   4.412   5.170   2.119
 9356SOL    HW128967   4.475   5.168   2.196
 9356SOL    HW228968   4.447   5.111   2.046
 9357SOL     OW28969   3.120   3.140   1.331
 9357SOL    HW128970   3.162   3.140   1.240
 9357SOL    HW228971   3.183   3.181   1.397
 9358SOL     OW28972   6.271   4.358   1.969
 9358SOL    HW128973   6.230   4.444   1.937
 9358SOL    HW228974   6.370   4.366   1.965
 9359SOL     OW28975   6.951   4.122   6.417
 9359SOL    HW128976   0.022   4.143   6.411
 9359SOL    HW228977   6.938   4.023   6.416
 9360SOL     OW28978   2.438   0.790   6.154
 9360SOL    HW128979   2.427   0.756   6.061
 9360SOL    HW228980   2.493   0.726   6.207
 9361SOL     OW28981   2.855   6.372   1.978
 9361SOL    HW128982   2.908   6.400   1.898
 9361SOL    HW228983   2.904   6.400   2.061
 9362SOL     OW28984   2.357   1.408   2.236
 9362SOL    HW128985   2.364   1.471   2.158
 9362SOL    HW228986   2.266   1.367   2.237
 9363SOL     OW28987   3.469   6.189   3.069
 9363SOL    HW128988   3.388   6.232   3.109
 9363SOL    HW228989   3.544   6.190   3.136
 9364SOL     OW28990   4.520   2.860   6.642
 9364SOL    HW128991   4.557   2.792   6.579
 9364SOL    HW228992   4.488   2.815   6.725
 9365SOL     OW28993   2.901   1.726   4.814
 9365SOL    HW128994   2.917   1.629   4.798
 9365SOL    HW228995   2.873   1.769   4.729
 9366SOL     OW28996   3.505   2.000   0.561
 9366SOL    HW128997   3.496   1.958   0.652
 9366SOL    HW228998   3.560   2.083   0.568
 9367SOL     OW28999   6.954   5.894   3.243
 9367SOL    HW129000   7.005   5.809   3.250
 9367SOL    HW229001   6.961   5.944   3.329
 9368SOL     OW29002   3.314   2.178   1.622
 9368SOL    HW129003   3.248   2.157   1.694
 9368SOL    HW229004   3.275   2.157   1.533
 9369SOL     OW29005   6.739   1.531   5.555
 9369SOL    HW129006   6.768   1.527   5.459
 9369SOL    HW229007   6.699   1.621   5.574
 9370SOL     OW29008   6.176   0.761   2.911
 9370SOL    HW129009   6.168   0.753   2.811
 9370SOL    HW229010   6.257   0.710   2.942
 9371SOL     OW29011   1.283   5.746   0.370
 9371SOL    HW129012   1.184   5.747   0.354
 9371SOL    HW229013   1.330   5.718   0.286
 9372SOL     OW29014   5.552   6.680   3.611
 9372SOL    HW129015   5.490   6.641   3.543
 9372SOL    HW229016   5.647   6.657   3.588
 9373SOL     OW29017   4.148   1.392   3.025
 9373SOL    HW129018   4.112   1.320   2.966
 9373SOL    HW229019   4.180   1.468   2.968
 9374SOL     OW29020   5.778   2.607   0.195
 9374SOL    HW129021   5.861   2.652   0.228
 9374SOL    HW229022   5.705   2.619   0.262
 9375SOL     OW29023   6.931   0.920   2.749
 9375SOL    HW129024   6.903   0.959   2.661
 9375SOL    HW229025   7.001   0.851   2.734
 9376SOL     OW29026   3.102   3.631   0.630
 9376SOL    HW129027   3.178   3.697   0.624
 9376SOL    HW229028   3.015   3.680   0.627
 9377SOL     OW29029   6.756   5.462   3.981
 9377SOL    HW129030   6.694   5.388   4.007
 9377SOL    HW229031   6.844   5.423   3.952
 9378SOL     OW29032   2.621   6.938   6.837
 9378SOL    HW129033   2.585   6.998   6.765
 9378SOL    HW229034   2.650   6.994   6.915
 9379SOL     OW29035   4.536   4.456   3.987
 9379SOL    HW129036   4.447   4.455   4.034
 9379SOL    HW229037   4.599   4.516   4.037
 9380SOL     OW29038   6.673   6.944   5.768
 9380SOL    HW129039   6.687   0.008   5.729
 9380SOL    HW229040   6.633   6.884   5.699
 9381SOL     OW29041   2.632   2.669   5.256
 9381SOL    HW129042   2.695   2.742   5.231
 9381SOL    HW229043   2.550   2.674   5.200
 9382SOL     OW29044   4.081   0.772   3.181
 9382SOL    HW129045   4.154   0.727   3.130
 9382SOL    HW229046   4.073   0.867   3.152
 9383SOL     OW29047   3.267   0.073   4.472
 9383SOL    HW129048   3.171   0.053   4.491
 9383SOL    HW229049   3.325   0.004   4.515
 9384SOL     OW29050   4.973   6.176   2.548
 9384SOL    HW129051   5.018   6.117   2.482
 9384SOL    HW229052   4.874   6.158   2.547
 9385SOL     OW29053   3.837   1.348   3.193
 9385SOL    HW129054   3.895   1.386   3.265
 9385SOL    HW229055   3.741   1.356   3.219
 9386SOL     OW29056   3.497   6.531   5.052
 9386SOL    HW129057   3.443   6.451   5.077
 9386SOL    HW229058   3.543   6.515   4.965
 9387SOL     OW29059   3.334   6.628   1.241
 9387SOL    HW129060   3.392   6.703   1.211
 9387SOL    HW229061   3.240   6.661   1.253
 9388SOL     OW29062   0.689   6.712   2.886
 9388SOL    HW129063   0.779   6.678   2.859
 9388SOL    HW229064   0.627   6.635   2.898
 9389SOL     OW29065   2.661   0.631   5.378
 9389SOL    HW129066   2.688   0.700   5.311
 9389SOL    HW229067   2.664   0.541   5.336
 9390SOL     OW29068   3.971   5.783   3.139
 9390SOL    HW129069   3.969   5.724   3.058
 9390SOL    HW229070   4.028   5.863   3.121
 9391SOL     OW29071   1.470   1.433   5.257
 9391SOL    HW129072   1.420   1.349   5.278
 9391SOL    HW229073   1.536   1.452   5.330
 9392SOL     OW29074   0.677   6.397   5.151
 9392SOL    HW129075   0.677   6.458   5.072
 9392SOL    HW229076   0.722   6.311   5.127
 9393SOL     OW29077   4.095   1.945   5.407
 9393SOL    HW129078   4.060   1.867   5.355
 9393SOL    HW229079   4.019   1.993   5.450
 9394SOL     OW29080   6.217   2.599   3.181
 9394SOL    HW129081   6.268   2.638   3.105
 9394SOL    HW229082   6.128   2.567   3.150
 9395SOL     OW29083   2.800   2.633   0.345
 9395SOL    HW129084   2.825   2.587   0.430
 9395SOL    HW229085   2.704   2.661   0.349
 9396SOL     OW29086   6.743   6.744   4.774
 9396SOL    HW129087   6.683   6.804   4.826
 9396SOL    HW229088   6.701   6.653   4.767
 9397SOL     OW29089   1.951   0.813   0.016
 9397SOL    HW129090   1.922   0.739   0.076
 9397SOL    HW229091   2.006   0.878   0.068
 9398SOL     OW29092   2.592   1.521   0.080
 9398SOL    HW129093   2.502   1.482   0.061
 9398SOL    HW229094   2.654   1.500   0.005
 9399SOL     OW29095   6.660   2.005   6.374
 9399SOL    HW129096   6.754   1.976   6.357
 9399SOL    HW229097   6.659   2.074   6.446
 9400SOL     OW29098   5.140   3.310   1.554
 9400SOL    HW129099   5.084   3.343   1.631
 9400SOL    HW229100   5.207   3.244   1.588
 9401SOL     OW29101   2.477   6.413   3.747
 9401SOL    HW129102   2.461   6.361   3.830
 9401SOL    HW229103   2.394   6.464   3.723
 9402SOL     OW29104   2.530   5.316   6.544
 9402SOL    HW129105   2.577   5.280   6.625
 9402SOL    HW229106   2.592   5.373   6.491
 9403SOL     OW29107   5.481   1.449   3.420
 9403SOL    HW129108   5.503   1.413   3.511
 9403SOL    HW229109   5.566   1.459   3.367
 9404SOL     OW29110   0.479   4.803   6.619
 9404SOL    HW129111   0.510   4.755   6.701
 9404SOL    HW229112   0.539   4.780   6.542
 9405SOL     OW29113   5.817   6.591   1.491
 9405SOL    HW129114   5.736   6.640   1.458
 9405SOL    HW229115   5.797   6.494   1.498
 9406SOL     OW29116   0.068   2.148   5.367
 9406SOL    HW129117   0.103   2.127   5.459
 9406SOL    HW229118   0.019   2.235   5.369
 9407SOL     OW29119   2.964   6.670   3.332
 9407SOL    HW129120   2.992   6.765   3.344
 9407SOL    HW229121   2.964   6.623   3.420
 9408SOL     OW29122   4.295   1.277   6.685
 9408SOL    HW129123   4.218   1.214   6.694
 9408SOL    HW229124   4.380   1.225   6.677
 9409SOL     OW29125   5.132   4.103   4.088
 9409SOL    HW129126   5.072   4.182   4.103
 9409SOL    HW229127   5.076   4.022   4.072
 9410SOL     OW29128   3.719   6.292   2.067
 9410SOL    HW129129   3.816   6.314   2.074
 9410SOL    HW229130   3.680   6.288   2.159
 9411SOL     OW29131   4.066   5.363   1.061
 9411SOL    HW129132   4.103   5.401   1.146
 9411SOL    HW229133   3.972   5.393   1.049
 9412SOL     OW29134   0.707   3.028   1.626
 9412SOL    HW129135   0.782   2.964   1.642
 9412SOL    HW229136   0.700   3.092   1.703
 9413SOL     OW29137   4.085   5.810   5.402
 9413SOL    HW129138   4.079   5.874   5.326
 9413SOL    HW229139   3.995   5.800   5.445
 9414SOL     OW29140   2.813   1.562   2.497
 9414SOL    HW129141   2.910   1.573   2.520
 9414SOL    HW229142   2.786   1.467   2.512
 9415SOL     OW29143   1.622   6.812   2.667
 9415SOL    HW129144   1.586   6.761   2.589
 9415SOL    HW229145   1.638   6.749   2.743
 9416SOL     OW29146   0.714   1.451   1.275
 9416SOL    HW129147   0.796   1.500   1.247
 9416SOL    HW229148   0.674   1.495   1.356
 9417SOL     OW29149   3.212   6.208   5.455
 9417SOL    HW129150   3.186   6.282   5.392
 9417SOL    HW229151   3.264   6.246   5.531
 9418SOL     OW29152   2.447   5.545   0.757
 9418SOL    HW129153   2.439   5.645   0.760
 9418SOL    HW229154   2.518   5.515   0.821
 9419SOL     OW29155   3.295   6.723   5.483
 9419SOL    HW129156   3.308   6.687   5.576
 9419SOL    HW229157   3.322   6.653   5.417
 9420SOL     OW29158   0.030   1.558   4.512
 9420SOL    HW129159   6.980   1.608   4.552
 9420SOL    HW229160   0.061   1.604   4.429
 9421SOL     OW29161   2.226   5.163   5.356
 9421SOL    HW129162   2.308   5.212   5.324
 9421SOL    HW229163   2.217   5.077   5.306
 9422SOL     OW29164   5.382   0.200   2.463
 9422SOL    HW129165   5.369   0.179   2.366
 9422SOL    HW229166   5.354   0.294   2.481
 9423SOL     OW29167   4.399   0.651   3.091
 9423SOL    HW129168   4.374   0.725   3.029
 9423SOL    HW229169   4.478   0.602   3.053
 9424SOL     OW29170   5.040   0.059   5.779
 9424SOL    HW129171   5.027   0.069   5.680
 9424SOL    HW229172   4.978   0.120   5.828
 9425SOL     OW29173   0.516   3.355   5.934
 9425SOL    HW129174   0.443   3.417   5.903
 9425SOL    HW229175   0.535   3.372   6.030
 9426SOL     OW29176   2.879   1.790   0.214
 9426SOL    HW129177   2.814   1.851   0.169
 9426SOL    HW229178   2.958   1.842   0.246
 9427SOL     OW29179   2.898   4.944   4.875
 9427SOL    HW129180   2.854   4.854   4.881
 9427SOL    HW229181   2.841   5.012   4.921
 9428SOL     OW29182   5.882   6.831   2.619
 9428SOL    HW129183   5.858   6.914   2.569
 9428SOL    HW229184   5.948   6.854   2.691
 9429SOL     OW29185   1.307   3.852   2.179
 9429SOL    HW129186   1.241   3.851   2.104
 9429SOL    HW229187   1.320   3.759   2.213
 9430SOL     OW29188   6.360   6.706   2.331
 9430SOL    HW129189   6.372   6.683   2.235
 9430SOL    HW229190   6.312   6.794   2.338
 9431SOL     OW29191   6.241   4.057   0.295
 9431SOL    HW129192   6.232   3.970   0.248
 9431SOL    HW229193   6.190   4.054   0.381
 9432SOL     OW29194   6.147   0.075   3.721
 9432SOL    HW129195   6.196   0.010   3.779
 9432SOL    HW229196   6.066   0.032   3.682
 9433SOL     OW29197   3.426   4.944   4.807
 9433SOL    HW129198   3.389   4.872   4.749
 9433SOL    HW229199   3.361   4.966   4.879
 9434SOL     OW29200   5.675   4.479   3.458
 9434SOL    HW129201   5.747   4.549   3.456
 9434SOL    HW229202   5.610   4.496   3.384
 9435SOL     OW29203   1.653   1.281   4.418
 9435SOL    HW129204   1.615   1.216   4.352
 9435SOL    HW229205   1.616   1.372   4.400
 9436SOL     OW29206   1.596   3.521   1.077
 9436SOL    HW129207   1.612   3.608   1.124
 9436SOL    HW229208   1.545   3.459   1.136
 9437SOL     OW29209   1.257   5.977   3.146
 9437SOL    HW129210   1.357   5.984   3.144
 9437SOL    HW229211   1.224   5.954   3.054
 9438SOL     OW29212   0.807   6.442   1.594
 9438SOL    HW129213   0.867   6.378   1.545
 9438SOL    HW229214   0.843   6.534   1.584
 9439SOL     OW29215   6.727   2.968   2.091
 9439SOL    HW129216   6.684   2.894   2.039
 9439SOL    HW229217   6.665   3.046   2.097
 9440SOL     OW29218   4.811   6.327   4.724
 9440SOL    HW129219   4.884   6.347   4.790
 9440SOL    HW229220   4.762   6.244   4.753
 9441SOL     OW29221   1.357   5.481   5.559
 9441SOL    HW129222   1.424   5.550   5.532
 9441SOL    HW229223   1.393   5.389   5.538
 9442SOL     OW29224   6.474   1.861   0.229
 9442SOL    HW129225   6.378   1.832   0.227
 9442SOL    HW229226   6.478   1.961   0.229
 9443SOL     OW29227   2.017   4.503   1.214
 9443SOL    HW129228   2.033   4.412   1.175
 9443SOL    HW229229   1.975   4.493   1.305
 9444SOL     OW29230   0.410   3.398   6.893
 9444SOL    HW129231   0.319   3.367   6.922
 9444SOL    HW229232   0.470   3.319   6.884
 9445SOL     OW29233   4.910   3.576   2.076
 9445SOL    HW129234   4.824   3.623   2.057
 9445SOL    HW229235   4.900   3.520   2.159
 9446SOL     OW29236   6.556   6.632   3.046
 9446SOL    HW129237   6.547   6.574   2.965
 9446SOL    HW229238   6.466   6.649   3.086
 9447SOL     OW29239   5.566   3.374   2.551
 9447SOL    HW129240   5.481   3.418   2.579
 9447SOL    HW229241   5.548   3.281   2.522
 9448SOL     OW29242   5.174   6.104   5.915
 9448SOL    HW129243   5.238   6.033   5.944
 9448SOL    HW229244   5.136   6.080   5.826
 9449SOL     OW29245   6.842   5.308   5.406
 9449SOL    HW129246   6.755   5.355   5.389
 9449SOL    HW229247   6.832   5.211   5.383
 9450SOL     OW29248   2.685   5.093   5.000
 9450SOL    HW129249   2.610   5.100   4.934
 9450SOL    HW229250   2.656   5.131   5.088
 9451SOL     OW29251   4.739   5.880   6.011
 9451SOL    HW129252   4.778   5.971   5.993
 9451SOL    HW229253   4.700   5.844   5.927
 9452SOL     OW29254   2.212   3.345   0.543
 9452SOL    HW129255   2.178   3.378   0.631
 9452SOL    HW229256   2.163   3.261   0.517
 9453SOL     OW29257   1.997   4.018   2.923
 9453SOL    HW129258   2.058   4.049   2.996
 9453SOL    HW229259   1.927   4.087   2.906
 9454SOL     OW29260   1.392   4.137   6.302
 9454SOL    HW129261   1.360   4.067   6.239
 9454SOL    HW229262   1.316   4.198   6.324
 9455SOL     OW29263   3.302   1.421   2.576
 9455SOL    HW129264   3.272   1.334   2.536
 9455SOL    HW229265   3.350   1.475   2.507
 9456SOL     OW29266   0.406   4.517   0.897
 9456SOL    HW129267   0.403   4.498   0.995
 9456SOL    HW229268   0.383   4.433   0.846
 9457SOL     OW29269   1.855   3.821   6.691
 9457SOL    HW129270   1.887   3.890   6.756
 9457SOL    HW229271   1.850   3.860   6.600
 9458SOL     OW29272   0.504   5.002   5.984
 9458SOL    HW129273   0.544   5.032   5.898
 9458SOL    HW229274   0.521   4.904   5.995
 9459SOL     OW29275   6.271   5.187   2.031
 9459SOL    HW129276   6.285   5.130   1.949
 9459SOL    HW229277   6.353   5.181   2.088
 9460SOL     OW29278   6.981   2.469   4.999
 9460SOL    HW129279   0.034   2.410   5.007
 9460SOL    HW229280   7.004   2.561   5.030
 9461SOL     OW29281   6.711   1.205   3.095
 9461SOL    HW129282   6.750   1.148   3.168
 9461SOL    HW229283   6.635   1.156   3.052
 9462SOL     OW29284   1.875   3.187   3.304
 9462SOL    HW129285   1.810   3.248   3.258
 9462SOL    HW229286   1.824   3.117   3.354
 9463SOL     OW29287   0.127   0.611   0.810
 9463SOL    HW129288   0.059   0.568   0.751
 9463SOL    HW229289   0.157   0.545   0.880
 9464SOL     OW29290   5.728   6.502   6.358
 9464SOL    HW129291   5.787   6.541   6.429
 9464SOL    HW229292   5.639   6.481   6.397
 9465SOL     OW29293   0.073   0.520   2.885
 9465SOL    HW129294   0.133   0.441   2.892
 9465SOL    HW229295   0.063   0.562   2.975
 9466SOL     OW29296   2.717   3.209   5.611
 9466SOL    HW129297   2.770   3.128   5.635
 9466SOL    HW229298   2.741   3.238   5.518
 9467SOL     OW29299   1.572   2.638   1.433
 9467SOL    HW129300   1.561   2.584   1.516
 9467SOL    HW229301   1.548   2.733   1.452
 9468SOL     OW29302   5.614   2.597   6.005
 9468SOL    HW129303   5.518   2.625   6.004
 9468SOL    HW229304   5.652   2.609   5.914
 9469SOL     OW29305   6.267   5.448   2.357
 9469SOL    HW129306   6.200   5.522   2.353
 9469SOL    HW229307   6.234   5.377   2.420
 9470SOL     OW29308   5.103   2.627   6.815
 9470SOL    HW129309   5.005   2.622   6.832
 9470SOL    HW229310   5.141   2.706   6.863
 9471SOL     OW29311   6.571   2.574   5.479
 9471SOL    HW129312   6.591   2.522   5.561
 9471SOL    HW229313   6.642   2.642   5.464
 9472SOL     OW29314   6.602   3.959   4.616
 9472SOL    HW129315   6.541   4.035   4.595
 9472SOL    HW229316   6.662   3.942   4.538
 9473SOL     OW29317   3.643   6.723   5.222
 9473SOL    HW129318   3.564   6.708   5.281
 9473SOL    HW229319   3.652   6.647   5.158
 9474SOL     OW29320   5.793   4.494   2.094
 9474SOL    HW129321   5.742   4.566   2.047
 9474SOL    HW229322   5.826   4.428   2.027
 9475SOL     OW29323   3.501   3.506   0.991
 9475SOL    HW129324   3.425   3.503   1.056
 9475SOL    HW229325   3.499   3.593   0.941
 9476SOL     OW29326   3.196   3.273   4.943
 9476SOL    HW129327   3.097   3.267   4.934
 9476SOL    HW229328   3.234   3.181   4.956
 9477SOL     OW29329   0.713   3.196   1.137
 9477SOL    HW129330   0.688   3.174   1.231
 9477SOL    HW229331   0.655   3.146   1.074
 9478SOL     OW29332   5.153   3.624   5.708
 9478SOL    HW129333   5.146   3.553   5.778
 9478SOL    HW229334   5.203   3.589   5.629
 9479SOL     OW29335   5.922   5.787   6.250
 9479SOL    HW129336   5.833   5.744   6.230
 9479SOL    HW229337   5.978   5.787   6.168
 9480SOL     OW29338   4.225   4.392   6.434
 9480SOL    HW129339   4.206   4.489   6.415
 9480SOL    HW229340   4.202   4.337   6.354
 9481SOL     OW29341   6.547   3.873   1.811
 9481SOL    HW129342   6.595   3.961   1.812
 9481SOL    HW229343   6.547   3.837   1.718
 9482SOL     OW29344   5.882   0.760   3.345
 9482SOL    HW129345   5.935   0.829   3.296
 9482SOL    HW229346   5.877   0.784   3.442
 9483SOL     OW29347   1.629   1.884   0.764
 9483SOL    HW129348   1.691   1.820   0.809
 9483SOL    HW229349   1.536   1.849   0.768
 9484SOL     OW29350   6.204   1.602   3.776
 9484SOL    HW129351   6.200   1.659   3.693
 9484SOL    HW229352   6.158   1.515   3.758
 9485SOL     OW29353   1.440   0.353   1.700
 9485SOL    HW129354   1.540   0.356   1.704
 9485SOL    HW229355   1.411   0.340   1.606
 9486SOL     OW29356   2.267   5.204   0.767
 9486SOL    HW129357   2.176   5.168   0.788
 9486SOL    HW229358   2.258   5.287   0.711
 9487SOL     OW29359   3.130   3.923   3.329
 9487SOL    HW129360   3.132   3.960   3.422
 9487SOL    HW229361   3.147   3.997   3.264
 9488SOL     OW29362   1.734   6.070   1.314
 9488SOL    HW129363   1.806   6.025   1.368
 9488SOL    HW229364   1.654   6.010   1.310
 9489SOL     OW29365   3.778   4.303   1.024
 9489SOL    HW129366   3.835   4.357   1.086
 9489SOL    HW229367   3.796   4.206   1.037
 9490SOL     OW29368   5.492   0.318   1.125
 9490SOL    HW129369   5.477   0.374   1.207
 9490SOL    HW229370   5.409   0.315   1.070
 9491SOL     OW29371   0.098   4.938   4.911
 9491SOL    HW129372   0.055   5.020   4.872
 9491SOL    HW229373   0.141   4.962   4.997
 9492SOL     OW29374   3.271   3.761   2.413
 9492SOL    HW129375   3.316   3.794   2.330
 9492SOL    HW229376   3.258   3.837   2.477
 9493SOL     OW29377   4.824   5.111   3.845
 9493SOL    HW129378   4.771   5.028   3.859
 9493SOL    HW229379   4.800   5.179   3.915
 9494SOL     OW29380   5.200   3.742   0.802
 9494SOL    HW129381   5.173   3.724   0.896
 9494SOL    HW229382   5.288   3.788   0.800
 9495SOL     OW29383   6.420   1.941   3.599
 9495SOL    HW129384   6.453   1.963   3.507
 9495SOL    HW229385   6.494   1.900   3.652
 9496SOL     OW29386   5.090   4.182   6.692
 9496SOL    HW129387   5.016   4.164   6.628
 9496SOL    HW229388   5.099   4.281   6.705
 9497SOL     OW29389   4.106   4.148   0.921
 9497SOL    HW129390   4.173   4.127   0.992
 9497SOL    HW229391   4.039   4.212   0.958
 9498SOL     OW29392   4.768   6.786   5.578
 9498SOL    HW129393   4.754   6.864   5.639
 9498SOL    HW229394   4.682   6.736   5.567
 9499SOL     OW29395   2.143   3.514   5.752
 9499SOL    HW129396   2.065   3.541   5.697
 9499SOL    HW229397   2.152   3.576   5.830
 9500SOL     OW29398   3.801   6.694   1.612
 9500SOL    HW129399   3.792   6.594   1.622
 9500SOL    HW229400   3.794   6.719   1.516
 9501SOL     OW29401   3.642   2.132   4.800
 9501SOL    HW129402   3.567   2.157   4.739
 9501SOL    HW229403   3.723   2.186   4.775
 9502SOL     OW29404   6.782   2.290   4.849
 9502SOL    HW129405   6.755   2.378   4.811
 9502SOL    HW229406   6.872   2.299   4.892
 9503SOL     OW29407   7.025   1.312   1.323
 9503SOL    HW129408   0.011   1.391   1.383
 9503SOL    HW229409   0.067   1.243   1.343
 9504SOL     OW29410   6.691   2.655   1.141
 9504SOL    HW129411   6.718   2.570   1.097
 9504SOL    HW229412   6.738   2.732   1.098
 9505SOL     OW29413   5.802   3.931   3.680
 9505SOL    HW129414   5.760   3.978   3.602
 9505SOL    HW229415   5.892   3.896   3.654
 9506SOL     OW29416   0.151   3.284   6.885
 9506SOL    HW129417   0.155   3.185   6.870
 9506SOL    HW229418   0.059   3.310   6.915
 9507SOL     OW29419   2.310   1.008   4.297
 9507SOL    HW129420   2.392   1.063   4.286
 9507SOL    HW229421   2.238   1.045   4.238
 9508SOL     OW29422   5.377   2.555   0.493
 9508SOL    HW129423   5.450   2.593   0.550
 9508SOL    HW229424   5.370   2.608   0.408
 9509SOL     OW29425   1.078   6.576   5.718
 9509SOL    HW129426   1.084   6.572   5.618
 9509SOL    HW229427   1.097   6.669   5.749
 9510SOL     OW29428   0.248   3.765   1.933
 9510SOL    HW129429   0.309   3.837   1.964
 9510SOL    HW229430   0.219   3.784   1.839
 9511SOL     OW29431   0.698   1.992   0.311
 9511SOL    HW129432   0.627   1.957   0.372
 9511SOL    HW229433   0.690   1.948   0.222
 9512SOL     OW29434   6.675   1.826   3.647
 9512SOL    HW129435   6.688   1.831   3.548
 9512SOL    HW229436   6.714   1.740   3.681
 9513SOL     OW29437   1.861   3.761   4.846
 9513SOL    HW129438   1.856   3.848   4.795
 9513SOL    HW229439   1.847   3.779   4.943
 9514SOL     OW29440   1.781   3.526   6.939
 9514SOL    HW129441   1.768   3.625   6.930
 9514SOL    HW229442   1.747   3.495   0.000
 9515SOL     OW29443   1.256   5.907   0.079
 9515SOL    HW129444   1.239   5.902   7.007
 9515SOL    HW229445   1.182   5.860   0.128
 9516SOL     OW29446   4.879   3.373   4.219
 9516SOL    HW129447   4.866   3.320   4.303
 9516SOL    HW229448   4.874   3.313   4.140
 9517SOL     OW29449   1.153   5.019   1.079
 9517SOL    HW129450   1.253   5.020   1.075
 9517SOL    HW229451   1.124   5.061   1.165
 9518SOL     OW29452   1.626   2.267   6.216
 9518SOL    HW129453   1.636   2.179   6.262
 9518SOL    HW229454   1.710   2.288   6.165
 9519SOL     OW29455   2.993   3.279   3.120
 9519SOL    HW129456   3.035   3.221   3.050
 9519SOL    HW229457   2.938   3.349   3.076
 9520SOL     OW29458   6.846   0.973   4.169
 9520SOL    HW129459   6.892   1.009   4.250
 9520SOL    HW229460   6.881   1.020   4.088
 9521SOL     OW29461   3.057   5.007   1.613
 9521SOL    HW129462   3.050   4.908   1.604
 9521SOL    HW229463   3.028   5.035   1.704
 9522SOL     OW29464   4.296   5.165   2.553
 9522SOL    HW129465   4.385   5.210   2.539
 9522SOL    HW229466   4.277   5.158   2.651
 9523SOL     OW29467   2.334   5.307   5.043
 9523SOL    HW129468   2.364   5.233   4.983
 9523SOL    HW229469   2.410   5.368   5.062
 9524SOL     OW29470   1.409   3.478   1.817
 9524SOL    HW129471   1.353   3.503   1.896
 9524SOL    HW229472   1.468   3.556   1.793
 9525SOL     OW29473   2.156   1.709   5.881
 9525SOL    HW129474   2.179   1.661   5.796
 9525SOL    HW229475   2.064   1.747   5.875
 9526SOL     OW29476   5.477   4.811   0.640
 9526SOL    HW129477   5.500   4.757   0.559
 9526SOL    HW229478   5.387   4.853   0.628
 9527SOL     OW29479   2.590   6.588   4.384
 9527SOL    HW129480   2.530   6.643   4.326
 9527SOL    HW229481   2.672   6.562   4.332
 9528SOL     OW29482   5.939   1.220   1.779
 9528SOL    HW129483   5.971   1.284   1.849
 9528SOL    HW229484   6.016   1.185   1.727
 9529SOL     OW29485   5.754   3.632   0.807
 9529SOL    HW129486   5.688   3.698   0.770
 9529SOL    HW229487   5.708   3.545   0.825
 9530SOL     OW29488   1.239   5.135   4.250
 9530SOL    HW129489   1.249   5.061   4.184
 9530SOL    HW229490   1.329   5.174   4.270
 9531SOL     OW29491   4.090   4.847   2.844
 9531SOL    HW129492   4.117   4.766   2.792
 9531SOL    HW229493   4.128   4.840   2.937
 9532SOL     OW29494   6.270   4.996   1.384
 9532SOL    HW129495   6.348   5.056   1.365
 9532SOL    HW229496   6.239   5.011   1.478
 9533SOL     OW29497   0.910   5.876   4.222
 9533SOL    HW129498   0.962   5.961   4.232
 9533SOL    HW229499   0.863   5.876   4.134
 9534SOL     OW29500   6.251   4.007   5.103
 9534SOL    HW129501   6.155   3.989   5.123
 9534SOL    HW229502   6.288   4.068   5.173
 9535SOL     OW29503   1.998   1.865   5.608
 9535SOL    HW129504   2.097   1.850   5.601
 9535SOL    HW229505   1.976   1.898   5.700
 9536SOL     OW29506   3.477   2.937   4.641
 9536SOL    HW129507   3.405   2.945   4.572
 9536SOL    HW229508   3.436   2.923   4.731
 9537SOL     OW29509   2.911   1.553   4.114
 9537SOL    HW129510   2.850   1.633   4.118
 9537SOL    HW229511   2.977   1.558   4.188
 9538SOL     OW29512   4.301   1.028   4.304
 9538SOL    HW129513   4.273   1.122   4.287
 9538SOL    HW229514   4.222   0.975   4.335
 9539SOL     OW29515   3.135   3.001   4.253
 9539SOL    HW129516   3.102   3.084   4.297
 9539SOL    HW229517   3.086   2.987   4.167
 9540SOL     OW29518   4.724   5.512   4.072
 9540SOL    HW129519   4.673   5.568   4.007
 9540SOL    HW229520   4.704   5.416   4.056
 9541SOL     OW29521   1.373   0.996   5.540
 9541SOL    HW129522   1.426   0.960   5.617
 9541SOL    HW229523   1.429   1.061   5.489
 9542SOL     OW29524   5.548   4.787   4.913
 9542SOL    HW129525   5.576   4.765   4.819
 9542SOL    HW229526   5.573   4.881   4.935
 9543SOL     OW29527   3.065   0.411   5.836
 9543SOL    HW129528   3.053   0.400   5.738
 9543SOL    HW229529   3.023   0.334   5.884
 9544SOL     OW29530   4.870   4.022   3.938
 9544SOL    HW129531   4.790   4.083   3.935
 9544SOL    HW229532   4.863   3.955   3.865
 9545SOL     OW29533   0.300   5.570   2.170
 9545SOL    HW129534   0.381   5.623   2.195
 9545SOL    HW229535   0.263   5.606   2.084
 9546SOL     OW29536   3.722   1.860   5.587
 9546SOL    HW129537   3.801   1.810   5.621
 9546SOL    HW229538   3.656   1.795   5.548
 9547SOL     OW29539   2.672   5.739   3.924
 9547SOL    HW129540   2.700   5.706   3.834
 9547SOL    HW229541   2.625   5.827   3.914
 9548SOL     OW29542   0.926   5.747   4.644
 9548SOL    HW129543   0.994   5.818   4.627
 9548SOL    HW229544   0.959   5.685   4.715
 9549SOL     OW29545   3.354   0.592   2.603
 9549SOL    HW129546   3.327   0.563   2.512
 9549SOL    HW229547   3.355   0.513   2.664
 9550SOL     OW29548   6.205   2.393   0.859
 9550SOL    HW129549   6.234   2.378   0.953
 9550SOL    HW229550   6.133   2.328   0.836
 9551SOL     OW29551   6.101   3.256   6.173
 9551SOL    HW129552   6.061   3.251   6.081
 9551SOL    HW229553   6.185   3.202   6.175
 9552SOL     OW29554   2.314   0.057   6.131
 9552SOL    HW129555   2.278   0.146   6.104
 9552SOL    HW229556   2.414   0.058   6.123
 9553SOL     OW29557   5.442   1.924   0.137
 9553SOL    HW129558   5.532   1.965   0.121
 9553SOL    HW229559   5.417   1.867   0.058
 9554SOL     OW29560   2.246   6.825   3.613
 9554SOL    HW129561   2.229   6.883   3.534
 9554SOL    HW229562   2.183   6.747   3.612
 9555SOL     OW29563   0.329   1.502   3.310
 9555SOL    HW129564   0.362   1.473   3.220
 9555SOL    HW229565   0.375   1.586   3.337
 9556SOL     OW29566   1.825   4.720   1.555
 9556SOL    HW129567   1.907   4.772   1.534
 9556SOL    HW229568   1.838   4.624   1.530
 9557SOL     OW29569   4.745   7.014   1.644
 9557SOL    HW129570   4.777   6.934   1.696
 9557SOL    HW229571   4.824   0.041   1.615
 9558SOL     OW29572   5.388   6.374   5.352
 9558SOL    HW129573   5.394   6.438   5.429
 9558SOL    HW229574   5.476   6.330   5.339
 9559SOL     OW29575   1.092   3.864   6.901
 9559SOL    HW129576   1.105   3.767   6.924
 9559SOL    HW229577   1.169   3.917   6.935
 9560SOL     OW29578   2.398   0.971   2.555
 9560SOL    HW129579   2.412   0.882   2.512
 9560SOL    HW229580   2.301   0.996   2.548
 9561SOL     OW29581   0.350   0.821   1.330
 9561SOL    HW129582   0.383   0.887   1.398
 9561SOL    HW229583   0.318   0.869   1.249
 9562SOL     OW29584   2.660   6.646   3.972
 9562SOL    HW129585   2.661   6.547   3.988
 9562SOL    HW229586   2.566   6.675   3.952
 9563SOL     OW29587   0.290   6.287   0.349
 9563SOL    HW129588   0.253   6.372   0.385
 9563SOL    HW229589   0.216   6.222   0.333
 9564SOL     OW29590   2.231   1.487   0.895
 9564SOL    HW129591   2.147   1.503   0.843
 9564SOL    HW229592   2.296   1.435   0.839
 9565SOL     OW29593   3.269   1.464   4.720
 9565SOL    HW129594   3.278   1.486   4.623
 9565SOL    HW229595   3.274   1.548   4.774
 9566SOL     OW29596   2.824   5.670   0.046
 9566SOL    HW129597   2.886   5.748   0.044
 9566SOL    HW229598   2.866   5.592   7.025
 9567SOL     OW29599   5.968   4.133   0.935
 9567SOL    HW129600   5.936   4.046   0.896
 9567SOL    HW229601   6.039   4.115   1.003
 9568SOL     OW29602   4.229   1.402   0.277
 9568SOL    HW129603   4.274   1.379   0.191
 9568SOL    HW229604   4.131   1.386   0.268
 9569SOL     OW29605   0.303   0.977   1.805
 9569SOL    HW129606   0.243   0.945   1.731
 9569SOL    HW229607   0.336   0.899   1.858
 9570SOL     OW29608   0.387   2.830   0.761
 9570SOL    HW129609   0.304   2.853   0.711
 9570SOL    HW229610   0.363   2.782   0.845
 9571SOL     OW29611   2.924   2.736   6.026
 9571SOL    HW129612   2.954   2.653   6.073
 9571SOL    HW229613   2.953   2.731   5.930
 9572SOL     OW29614   2.145   4.902   2.519
 9572SOL    HW129615   2.059   4.908   2.468
 9572SOL    HW229616   2.221   4.928   2.460
 9573SOL     OW29617   6.858   1.252   6.152
 9573SOL    HW129618   6.812   1.338   6.133
 9573SOL    HW229619   6.942   1.247   6.098
 9574SOL     OW29620   3.464   2.842   2.078
 9574SOL    HW129621   3.465   2.765   2.014
 9574SOL    HW229622   3.550   2.892   2.071
 9575SOL     OW29623   6.557   0.968   1.838
 9575SOL    HW129624   6.569   0.917   1.923
 9575SOL    HW229625   6.644   0.970   1.788
 9576SOL     OW29626   1.632   2.282   0.103
 9576SOL    HW129627   1.574   2.215   0.149
 9576SOL    HW229628   1.715   2.297   0.156
 9577SOL     OW29629   0.553   6.169   6.010
 9577SOL    HW129630   0.502   6.254   5.999
 9577SOL    HW229631   0.493   6.092   5.989
 9578SOL     OW29632   1.580   2.819   2.530
 9578SOL    HW129633   1.501   2.769   2.564
 9578SOL    HW229634   1.645   2.756   2.488
 9579SOL     OW29635   7.008   6.149   2.953
 9579SOL    HW129636   6.942   6.074   2.949
 9579SOL    HW229637   6.961   6.233   2.981
 9580SOL     OW29638   5.338   3.643   1.403
 9580SOL    HW129639   5.365   3.640   1.499
 9580SOL    HW229640   5.420   3.638   1.345
 9581SOL     OW29641   0.714   6.804   6.527
 9581SOL    HW129642   0.739   6.843   6.615
 9581SOL    HW229643   0.627   6.756   6.534
 9582SOL     OW29644   3.948   5.878   4.646
 9582SOL    HW129645   3.996   5.793   4.667
 9582SOL    HW229646   3.849   5.861   4.649
 9583SOL     OW29647   2.801   4.242   1.460
 9583SOL    HW129648   2.761   4.292   1.383
 9583SOL    HW229649   2.900   4.252   1.457
 9584SOL     OW29650   1.030   5.030   6.030
 9584SOL    HW129651   0.990   4.964   6.093
 9584SOL    HW229652   1.130   5.020   6.031
 9585SOL     OW29653   5.109   6.629   2.978
 9585SOL    HW129654   5.082   6.671   3.065
 9585SOL    HW229655   5.128   6.701   2.911
 9586SOL     OW29656   4.510   5.308   2.501
 9586SOL    HW129657   4.571   5.368   2.553
 9586SOL    HW229658   4.563   5.254   2.436
 9587SOL     OW29659   1.035   6.877   1.750
 9587SOL    HW129660   1.021   6.849   1.655
 9587SOL    HW229661   1.133   6.888   1.768
 9588SOL     OW29662   6.170   6.190   0.376
 9588SOL    HW129663   6.221   6.171   0.292
 9588SOL    HW229664   6.073   6.200   0.355
 9589SOL     OW29665   1.708   4.292   6.859
 9589SOL    HW129666   1.669   4.371   6.812
 9589SOL    HW229667   1.675   4.289   6.953
 9590SOL     OW29668   6.381   2.619   1.652
 9590SOL    HW129669   6.405   2.576   1.565
 9590SOL    HW229670   6.328   2.555   1.707
 9591SOL     OW29671   3.716   5.794   6.368
 9591SOL    HW129672   3.775   5.816   6.446
 9591SOL    HW229673   3.650   5.869   6.354
 9592SOL     OW29674   3.382   5.107   1.117
 9592SOL    HW129675   3.440   5.033   1.151
 9592SOL    HW229676   3.290   5.099   1.156
 9593SOL     OW29677   1.147   1.673   6.258
 9593SOL    HW129678   1.143   1.620   6.174
 9593SOL    HW229679   1.191   1.619   6.330
 9594SOL     OW29680   2.679   6.046   4.715
 9594SOL    HW129681   2.683   5.965   4.774
 9594SOL    HW229682   2.759   6.103   4.731
 9595SOL     OW29683   0.340   2.513   3.912
 9595SOL    HW129684   0.370   2.423   3.880
 9595SOL    HW229685   0.418   2.563   3.949
 9596SOL     OW29686   0.794   5.043   0.195
 9596SOL    HW129687   0.698   5.016   0.201
 9596SOL    HW229688   0.826   5.075   0.284
 9597SOL     OW29689   0.023   4.273   1.497
 9597SOL    HW129690   6.978   4.250   1.432
 9597SOL    HW229691   7.011   4.325   1.573
 9598SOL     OW29692   2.244   4.151   3.507
 9598SOL    HW129693   2.263   4.103   3.593
 9598SOL    HW229694   2.292   4.239   3.508
 9599SOL     OW29695   2.929   0.386   3.627
 9599SOL    HW129696   3.016   0.342   3.647
 9599SOL    HW229697   2.894   0.353   3.539
 9600SOL     OW29698   3.040   0.466   6.873
 9600SOL    HW129699   3.010   0.548   6.922
 9600SOL    HW229700   2.964   0.402   6.865
 9601SOL     OW29701   5.289   4.367   0.425
 9601SOL    HW129702   5.296   4.414   0.337
 9601SOL    HW229703   5.195   4.368   0.456
 9602SOL     OW29704   5.382   3.854   6.072
 9602SOL    HW129705   5.391   3.935   6.129
 9602SOL    HW229706   5.335   3.877   5.987
 9603SOL     OW29707   4.630   0.383   6.485
 9603SOL    HW129708   4.690   0.326   6.542
 9603SOL    HW229709   4.635   0.353   6.390
 9604SOL     OW29710   5.104   6.937   1.056
 9604SOL    HW129711   5.067   6.860   1.004
 9604SOL    HW229712   5.174   6.984   1.002
 9605SOL     OW29713   1.519   5.465   3.437
 9605SOL    HW129714   1.421   5.446   3.446
 9605SOL    HW229715   1.562   5.393   3.383
 9606SOL     OW29716   1.591   6.565   6.417
 9606SOL    HW129717   1.664   6.607   6.364
 9606SOL    HW229718   1.604   6.586   6.514
 9607SOL     OW29719   2.733   1.405   6.910
 9607SOL    HW129720   2.761   1.488   6.862
 9607SOL    HW229721   2.811   1.342   6.914
 9608SOL     OW29722   0.111   4.335   1.828
 9608SOL    HW129723   0.131   4.238   1.839
 9608SOL    HW229724   0.195   4.385   1.806
 9609SOL     OW29725   3.319   3.210   0.519
 9609SOL    HW129726   3.318   3.290   0.579
 9609SOL    HW229727   3.225   3.185   0.495
 9610SOL     OW29728   1.663   4.587   3.437
 9610SOL    HW129729   1.683   4.552   3.529
 9610SOL    HW229730   1.566   4.571   3.416
 9611SOL     OW29731   1.163   6.269   0.693
 9611SOL    HW129732   1.181   6.340   0.624
 9611SOL    HW229733   1.232   6.197   0.684
 9612SOL     OW29734   0.409   3.266   1.964
 9612SOL    HW129735   0.333   3.330   1.948
 9612SOL    HW229736   0.434   3.221   1.879
 9613SOL     OW29737   4.580   6.474   3.728
 9613SOL    HW129738   4.563   6.523   3.814
 9613SOL    HW229739   4.670   6.432   3.731
 9614SOL     OW29740   3.891   2.059   1.847
 9614SOL    HW129741   3.816   2.124   1.838
 9614SOL    HW229742   3.920   2.054   1.942
 9615SOL     OW29743   2.299   0.721   1.521
 9615SOL    HW129744   2.286   0.624   1.498
 9615SOL    HW229745   2.275   0.777   1.442
 9616SOL     OW29746   3.452   4.115   1.145
 9616SOL    HW129747   3.497   4.043   1.091
 9616SOL    HW229748   3.456   4.091   1.242
 9617SOL     OW29749   1.931   2.817   3.464
 9617SOL    HW129750   2.029   2.836   3.465
 9617SOL    HW229751   1.881   2.903   3.478
 9618SOL     OW29752   2.615   0.112   0.467
 9618SOL    HW129753   2.555   0.056   0.409
 9618SOL    HW229754   2.692   0.056   0.500
 9619SOL     OW29755   1.916   0.416   6.584
 9619SOL    HW129756   1.864   0.345   6.631
 9619SOL    HW229757   1.853   0.486   6.550
 9620SOL     OW29758   4.573   6.895   5.974
 9620SOL    HW129759   4.539   6.975   5.924
 9620SOL    HW229760   4.648   6.924   6.035
 9621SOL     OW29761   1.782   2.810   2.168
 9621SOL    HW129762   1.701   2.766   2.130
 9621SOL    HW229763   1.858   2.801   2.105
 9622SOL     OW29764   0.228   1.511   0.425
 9622SOL    HW129765   0.146   1.567   0.431
 9622SOL    HW229766   0.272   1.507   0.514
 9623SOL     OW29767   2.899   3.573   5.317
 9623SOL    HW129768   2.952   3.488   5.309
 9623SOL    HW229769   2.863   3.581   5.410
 9624SOL     OW29770   6.756   4.336   2.987
 9624SOL    HW129771   6.816   4.413   2.966
 9624SOL    HW229772   6.780   4.299   3.077
 9625SOL     OW29773   4.933   5.698   6.914
 9625SOL    HW129774   4.984   5.776   6.951
 9625SOL    HW229775   4.923   5.708   6.815
 9626SOL     OW29776   4.597   5.207   0.759
 9626SOL    HW129777   4.555   5.247   0.677
 9626SOL    HW229778   4.690   5.243   0.769
 9627SOL     OW29779   0.373   5.682   5.614
 9627SOL    HW129780   0.348   5.636   5.699
 9627SOL    HW229781   0.468   5.713   5.619
 9628SOL     OW29782   5.216   4.881   0.817
 9628SOL    HW129783   5.201   4.800   0.761
 9628SOL    HW229784   5.163   4.874   0.901
 9629SOL     OW29785   1.144   0.405   1.160
 9629SOL    HW129786   1.138   0.445   1.252
 9629SOL    HW229787   1.143   0.305   1.167
 9630SOL     OW29788   6.215   6.866   4.402
 9630SOL    HW129789   6.120   6.860   4.434
 9630SOL    HW229790   6.271   6.911   4.472
 9631SOL     OW29791   0.018   6.611   6.753
 9631SOL    HW129792   0.078   6.566   6.820
 9631SOL    HW229793   6.962   6.556   6.741
 9632SOL     OW29794   1.609   0.271   3.225
 9632SOL    HW129795   1.562   0.324   3.155
 9632SOL    HW229796   1.653   0.192   3.183
 9633SOL     OW29797   5.130   5.150   6.316
 9633SOL    HW129798   5.119   5.078   6.385
 9633SOL    HW229799   5.073   5.129   6.237
 9634SOL     OW29800   1.485   6.465   3.968
 9634SOL    HW129801   1.409   6.436   4.026
 9634SOL    HW229802   1.550   6.390   3.958
 9635SOL     OW29803   2.004   6.116   5.131
 9635SOL    HW129804   2.016   6.134   5.033
 9635SOL    HW229805   2.041   6.025   5.153
 9636SOL     OW29806   4.317   1.591   5.506
 9636SOL    HW129807   4.271   1.578   5.594
 9636SOL    HW229808   4.273   1.533   5.437
 9637SOL     OW29809   2.557   2.483   6.090
 9637SOL    HW129810   2.545   2.582   6.093
 9637SOL    HW229811   2.534   2.449   5.999
 9638SOL     OW29812   0.184   3.566   6.230
 9638SOL    HW129813   0.136   3.594   6.313
 9638SOL    HW229814   0.235   3.644   6.193
 9639SOL     OW29815   3.757   1.583   2.217
 9639SOL    HW129816   3.777   1.663   2.162
 9639SOL    HW229817   3.669   1.595   2.263
 9640SOL     OW29818   1.963   2.577   3.884
 9640SOL    HW129819   1.873   2.536   3.896
 9640SOL    HW229820   2.031   2.525   3.937
 9641SOL     OW29821   4.358   6.644   0.526
 9641SOL    HW129822   4.373   6.737   0.494
 9641SOL    HW229823   4.262   6.618   0.512
 9642SOL     OW29824   3.136   6.926   4.789
 9642SOL    HW129825   3.109   6.871   4.710
 9642SOL    HW229826   3.229   6.903   4.816
 9643SOL     OW29827   5.233   4.853   4.097
 9643SOL    HW129828   5.235   4.948   4.066
 9643SOL    HW229829   5.294   4.798   4.040
 9644SOL     OW29830   0.962   4.127   6.153
 9644SOL    HW129831   0.985   4.216   6.194
 9644SOL    HW229832   1.035   4.062   6.174
 9645SOL     OW29833   2.767   5.375   4.651
 9645SOL    HW129834   2.841   5.308   4.662
 9645SOL    HW229835   2.691   5.333   4.601
 9646SOL     OW29836   3.176   4.873   2.405
 9646SOL    HW129837   3.260   4.834   2.441
 9646SOL    HW229838   3.190   4.969   2.383
 9647SOL     OW29839   6.076   4.880   1.045
 9647SOL    HW129840   6.145   4.953   1.037
 9647SOL    HW229841   6.082   4.839   1.136
 9648SOL     OW29842   4.284   1.221   0.939
 9648SOL    HW129843   4.350   1.287   0.975
 9648SOL    HW229844   4.193   1.241   0.975
 9649SOL     OW29845   2.982   0.082   0.117
 9649SOL    HW129846   2.971   0.127   0.206
 9649SOL    HW229847   2.897   0.092   0.064
 9650SOL     OW29848   6.466   5.206   2.276
 9650SOL    HW129849   6.564   5.224   2.269
 9650SOL    HW229850   6.417   5.292   2.294
 9651SOL     OW29851   6.946   1.867   5.865
 9651SOL    HW129852   6.971   1.835   5.956
 9651SOL    HW229853   6.864   1.923   5.870
 9652SOL     OW29854   1.448   4.675   1.363
 9652SOL    HW129855   1.450   4.596   1.424
 9652SOL    HW229856   1.379   4.660   1.291
 9653SOL     OW29857   4.270   4.840   4.867
 9653SOL    HW129858   4.248   4.827   4.771
 9653SOL    HW229859   4.285   4.752   4.911
 9654SOL     OW29860   3.034   2.345   0.987
 9654SOL    HW129861   2.991   2.431   1.015
 9654SOL    HW229862   3.019   2.330   0.890
 9655SOL     OW29863   0.441   1.203   6.356
 9655SOL    HW129864   0.416   1.298   6.374
 9655SOL    HW229865   0.358   1.148   6.347
 9656SOL     OW29866   2.437   0.608   2.169
 9656SOL    HW129867   2.528   0.583   2.202
 9656SOL    HW229868   2.431   0.707   2.159
 9657SOL     OW29869   5.348   0.903   4.228
 9657SOL    HW129870   5.385   0.865   4.143
 9657SOL    HW229871   5.286   0.837   4.270
 9658SOL     OW29872   0.174   1.856   2.600
 9658SOL    HW129873   0.092   1.885   2.649
 9658SOL    HW229874   0.251   1.850   2.664
 9659SOL     OW29875   6.355   4.305   0.447
 9659SOL    HW129876   6.345   4.256   0.360
 9659SOL    HW229877   6.358   4.403   0.429
 9660SOL     OW29878   0.472   5.782   0.555
 9660SOL    HW129879   0.526   5.838   0.617
 9660SOL    HW229880   0.379   5.773   0.590
 9661SOL     OW29881   4.515   5.597   1.132
 9661SOL    HW129882   4.432   5.621   1.183
 9661SOL    HW229883   4.587   5.662   1.155
 9662SOL     OW29884   6.599   3.152   4.651
 9662SOL    HW129885   6.512   3.121   4.611
 9662SOL    HW229886   6.580   3.212   4.729
 9663SOL     OW29887   1.573   5.831   4.113
 9663SOL    HW129888   1.575   5.760   4.183
 9663SOL    HW229889   1.491   5.821   4.057
 9664SOL     OW29890   4.823   0.109   2.702
 9664SOL    HW129891   4.886   0.163   2.648
 9664SOL    HW229892   4.736   0.158   2.711
 9665SOL     OW29893   5.796   4.738   5.692
 9665SOL    HW129894   5.757   4.815   5.640
 9665SOL    HW229895   5.896   4.743   5.688
 9666SOL     OW29896   5.896   3.968   1.699
 9666SOL    HW129897   5.853   4.016   1.622
 9666SOL    HW229898   5.846   3.988   1.783
 9667SOL     OW29899   3.908   3.227   4.560
 9667SOL    HW129900   3.863   3.139   4.574
 9667SOL    HW229901   3.951   3.257   4.645
 9668SOL     OW29902   6.566   1.890   6.122
 9668SOL    HW129903   6.482   1.840   6.145
 9668SOL    HW229904   6.642   1.855   6.176
 9669SOL     OW29905   0.543   1.247   0.912
 9669SOL    HW129906   0.488   1.325   0.884
 9669SOL    HW229907   0.608   1.276   0.983
 9670SOL     OW29908   4.320   4.753   5.812
 9670SOL    HW129909   4.291   4.677   5.871
 9670SOL    HW229910   4.367   4.822   5.866
 9671SOL     OW29911   0.121   4.948   6.109
 9671SOL    HW129912   0.083   4.979   6.022
 9671SOL    HW229913   0.113   4.849   6.115
 9672SOL     OW29914   1.141   6.896   5.110
 9672SOL    HW129915   1.164   6.968   5.045
 9672SOL    HW229916   1.215   6.828   5.111
 9673SOL     OW29917   3.995   4.546   6.951
 9673SOL    HW129918   4.075   4.555   7.009
 9673SOL    HW229919   4.022   4.510   6.861
 9674SOL     OW29920   2.634   6.178   2.555
 9674SOL    HW129921   2.608   6.171   2.459
 9674SOL    HW229922   2.711   6.241   2.564
 9675SOL     OW29923   5.969   0.732   2.520
 9675SOL    HW129924   5.949   0.807   2.457
 9675SOL    HW229925   6.065   0.735   2.546
 9676SOL     OW29926   1.278   3.698   5.786
 9676SOL    HW129927   1.373   3.700   5.817
 9676SOL    HW229928   1.257   3.782   5.736
 9677SOL     OW29929   2.421   4.426   5.931
 9677SOL    HW129930   2.507   4.375   5.936
 9677SOL    HW229931   2.418   4.493   6.005
 9678SOL     OW29932   3.413   4.164   2.899
 9678SOL    HW129933   3.479   4.097   2.865
 9678SOL    HW229934   3.347   4.184   2.827
 9679SOL     OW29935   0.714   2.197   1.962
 9679SOL    HW129936   0.703   2.270   2.030
 9679SOL    HW229937   0.650   2.123   1.983
 9680SOL     OW29938   5.655   7.010   3.319
 9680SOL    HW129939   5.691   6.979   3.407
 9680SOL    HW229940   5.668   6.938   3.250
 9681SOL     OW29941   2.317   0.842   1.246
 9681SOL    HW129942   2.271   0.771   1.193
 9681SOL    HW229943   2.316   0.929   1.196
 9682SOL     OW29944   5.081   5.530   3.272
 9682SOL    HW129945   5.165   5.491   3.235
 9682SOL    HW229946   5.011   5.532   3.202
 9683SOL     OW29947   4.264   5.388   0.597
 9683SOL    HW129948   4.261   5.487   0.579
 9683SOL    HW229949   4.355   5.354   0.574
 9684SOL     OW29950   0.476   3.639   5.369
 9684SOL    HW129951   0.556   3.580   5.362
 9684SOL    HW229952   0.501   3.733   5.347
 9685SOL     OW29953   2.392   2.838   1.089
 9685SOL    HW129954   2.340   2.855   1.005
 9685SOL    HW229955   2.445   2.919   1.113
 9686SOL     OW29956   6.555   1.523   0.683
 9686SOL    HW129957   6.490   1.461   0.640
 9686SOL    HW229958   6.513   1.613   0.695
 9687SOL     OW29959   1.815   0.701   2.543
 9687SOL    HW129960   1.876   0.771   2.579
 9687SOL    HW229961   1.729   0.702   2.594
 9688SOL     OW29962   6.993   1.978   3.023
 9688SOL    HW129963   6.980   1.880   3.009
 9688SOL    HW229964   6.957   2.003   3.113
 9689SOL     OW29965   1.867   6.956   0.318
 9689SOL    HW129966   1.862   0.022   0.281
 9689SOL    HW229967   1.777   6.914   0.315
 9690SOL     OW29968   5.808   4.659   6.874
 9690SOL    HW129969   5.838   4.570   6.910
 9690SOL    HW229970   5.884   4.704   6.829
 9691SOL     OW29971   2.331   4.867   1.780
 9691SOL    HW129972   2.360   4.930   1.851
 9691SOL    HW229973   2.250   4.817   1.811
 9692SOL     OW29974   2.217   5.265   3.054
 9692SOL    HW129975   2.155   5.186   3.044
 9692SOL    HW229976   2.282   5.265   2.977
 9693SOL     OW29977   0.183   5.620   1.911
 9693SOL    HW129978   0.249   5.641   1.839
 9693SOL    HW229979   0.095   5.662   1.888
 9694SOL     OW29980   1.864   1.497   6.511
 9694SOL    HW129981   1.890   1.593   6.500
 9694SOL    HW229982   1.795   1.490   6.583
 9695SOL     OW29983   5.749   4.308   0.933
 9695SOL    HW129984   5.828   4.249   0.915
 9695SOL    HW229985   5.673   4.253   0.966
 9696SOL     OW29986   4.065   2.447   1.565
 9696SOL    HW129987   4.020   2.435   1.476
 9696SOL    HW229988   4.137   2.516   1.557
 9697SOL     OW29989   0.565   5.126   6.907
 9697SOL    HW129990   0.633   5.187   6.948
 9697SOL    HW229991   0.491   5.180   6.868
 9698SOL     OW29992   6.166   0.858   5.312
 9698SOL    HW129993   6.234   0.883   5.243
 9698SOL    HW229994   6.080   0.904   5.293
 9699SOL     OW29995   0.497   3.743   6.002
 9699SOL    HW129996   0.579   3.795   6.027
 9699SOL    HW229997   0.510   3.703   5.912
 9700SOL     OW29998   3.683   4.835   5.455
 9700SOL    HW129999   3.732   4.749   5.473
 9700SOL    HW230000   3.680   4.851   5.356
 9701SOL     OW30001   4.080   6.062   5.254
 9701SOL    HW130002   4.151   6.061   5.183
 9701SOL    HW230003   3.993   6.035   5.214
 9702SOL     OW30004   5.291   0.618   0.132
 9702SOL    HW130005   5.264   0.714   0.131
 9702SOL    HW230006   5.348   0.597   0.052
 9703SOL     OW30007   3.309   6.124   4.343
 9703SOL    HW130008   3.389   6.113   4.285
 9703SOL    HW230009   3.280   6.034   4.377
 9704SOL     OW30010   3.106   0.138   2.669
 9704SOL    HW130011   3.203   0.130   2.693
 9704SOL    HW230012   3.096   0.201   2.592
 9705SOL     OW30013   4.877   4.905   0.106
 9705SOL    HW130014   4.823   4.836   0.154
 9705SOL    HW230015   4.816   4.975   0.070
 9706SOL     OW30016   6.665   2.203   0.569
 9706SOL    HW130017   6.670   2.219   0.667
 9706SOL    HW230018   6.657   2.104   0.552
 9707SOL     OW30019   0.530   4.296   1.791
 9707SOL    HW130020   0.498   4.202   1.802
 9707SOL    HW230021   0.611   4.311   1.847
 9708SOL     OW30022   1.818   2.372   3.374
 9708SOL    HW130023   1.863   2.284   3.387
 9708SOL    HW230024   1.719   2.359   3.370
 9709SOL     OW30025   0.811   5.921   3.617
 9709SOL    HW130026   0.841   5.908   3.523
 9709SOL    HW230027   0.882   5.890   3.680
 9710SOL     OW30028   0.401   0.964   2.595
 9710SOL    HW130029   0.456   0.975   2.512
 9710SOL    HW230030   0.350   0.878   2.590
 9711SOL     OW30031   1.236   3.473   6.154
 9711SOL    HW130032   1.279   3.410   6.090
 9711SOL    HW230033   1.303   3.543   6.181
 9712SOL     OW30034   5.157   2.861   4.934
 9712SOL    HW130035   5.149   2.771   4.976
 9712SOL    HW230036   5.235   2.862   4.871
 9713SOL     OW30037   0.268   4.707   3.078
 9713SOL    HW130038   0.201   4.764   3.126
 9713SOL    HW230039   0.252   4.611   3.101
 9714SOL     OW30040   1.740   1.788   1.611
 9714SOL    HW130041   1.742   1.712   1.677
 9714SOL    HW230042   1.682   1.762   1.534
 9715SOL     OW30043   7.004   5.461   4.731
 9715SOL    HW130044   6.926   5.422   4.681
 9715SOL    HW230045   7.014   5.558   4.708
 9716SOL     OW30046   3.608   2.021   6.806
 9716SOL    HW130047   3.635   1.967   6.726
 9716SOL    HW230048   3.654   2.110   6.803
 9717SOL     OW30049   5.687   5.954   4.418
 9717SOL    HW130050   5.605   6.011   4.427
 9717SOL    HW230051   5.666   5.861   4.447
 9718SOL     OW30052   4.251   2.578   1.400
 9718SOL    HW130053   4.255   2.481   1.421
 9718SOL    HW230054   4.322   2.626   1.452
 9719SOL     OW30055   0.728   2.241   0.180
 9719SOL    HW130056   0.726   2.146   0.211
 9719SOL    HW230057   0.664   2.296   0.235
 9720SOL     OW30058   0.458   6.313   1.598
 9720SOL    HW130059   0.529   6.356   1.654
 9720SOL    HW230060   0.382   6.285   1.657
 9721SOL     OW30061   0.827   2.801   2.045
 9721SOL    HW130062   0.771   2.878   2.075
 9721SOL    HW230063   0.777   2.715   2.060
 9722SOL     OW30064   0.705   0.232   3.569
 9722SOL    HW130065   0.687   0.316   3.620
 9722SOL    HW230066   0.635   0.164   3.591
 9723SOL     OW30067   0.916   6.392   2.719
 9723SOL    HW130068   0.937   6.480   2.761
 9723SOL    HW230069   0.820   6.370   2.734
 9724SOL     OW30070   3.055   2.814   1.849
 9724SOL    HW130071   3.096   2.723   1.842
 9724SOL    HW230072   3.063   2.861   1.761
 9725SOL     OW30073   4.260   3.399   6.233
 9725SOL    HW130074   4.236   3.330   6.301
 9725SOL    HW230075   4.177   3.439   6.195
 9726SOL     OW30076   5.184   0.668   4.929
 9726SOL    HW130077   5.210   0.762   4.952
 9726SOL    HW230078   5.265   0.610   4.935
 9727SOL     OW30079   1.414   3.987   5.450
 9727SOL    HW130080   1.374   3.975   5.541
 9727SOL    HW230081   1.488   3.920   5.438
 9728SOL     OW30082   1.779   6.438   6.784
 9728SOL    HW130083   1.722   6.357   6.792
 9728SOL    HW230084   1.864   6.425   6.835
 9729SOL     OW30085   1.552   4.506   2.983
 9729SOL    HW130086   1.507   4.555   2.909
 9729SOL    HW230087   1.495   4.430   3.013
 9730SOL     OW30088   0.425   3.154   2.675
 9730SOL    HW130089   0.420   3.068   2.726
 9730SOL    HW230090   0.358   3.219   2.710
 9731SOL     OW30091   4.265   5.019   0.854
 9731SOL    HW130092   4.173   5.056   0.860
 9731SOL    HW230093   4.274   4.966   0.770
 9732SOL     OW30094   6.629   6.091   3.108
 9732SOL    HW130095   6.605   6.184   3.080
 9732SOL    HW230096   6.559   6.027   3.075
 9733SOL     OW30097   5.995   5.011   4.527
 9733SOL    HW130098   6.035   4.935   4.477
 9733SOL    HW230099   5.924   4.977   4.589
 9734SOL     OW30100   5.431   1.488   4.107
 9734SOL    HW130101   5.345   1.539   4.099
 9734SOL    HW230102   5.443   1.456   4.201
 9735SOL     OW30103   2.092   4.681   3.016
 9735SOL    HW130104   2.112   4.777   3.033
 9735SOL    HW230105   2.176   4.627   3.023
 9736SOL     OW30106   5.035   1.166   6.624
 9736SOL    HW130107   5.048   1.116   6.538
 9736SOL    HW230108   4.988   1.252   6.605
 9737SOL     OW30109   4.598   2.674   4.941
 9737SOL    HW130110   4.667   2.747   4.944
 9737SOL    HW230111   4.509   2.712   4.915
 9738SOL     OW30112   1.838   0.475   2.740
 9738SOL    HW130113   1.819   0.497   2.644
 9738SOL    HW230114   1.754   0.444   2.784
 9739SOL     OW30115   0.586   5.293   1.068
 9739SOL    HW130116   0.676   5.260   1.040
 9739SOL    HW230117   0.594   5.387   1.101
 9740SOL     OW30118   5.965   3.601   3.232
 9740SOL    HW130119   5.886   3.661   3.245
 9740SOL    HW230120   6.040   3.654   3.192
 9741SOL     OW30121   4.367   0.909   2.626
 9741SOL    HW130122   4.394   1.003   2.604
 9741SOL    HW230123   4.282   0.910   2.679
 9742SOL     OW30124   4.665   0.289   3.087
 9742SOL    HW130125   4.686   0.275   3.184
 9742SOL    HW230126   4.750   0.298   3.036
 9743SOL     OW30127   1.838   2.666   5.764
 9743SOL    HW130128   1.861   2.755   5.803
 9743SOL    HW230129   1.868   2.663   5.668
 9744SOL     OW30130   1.187   0.763   1.989
 9744SOL    HW130131   1.155   0.858   1.996
 9744SOL    HW230132   1.186   0.735   1.893
 9745SOL     OW30133   0.454   2.549   5.359
 9745SOL    HW130134   0.453   2.602   5.444
 9745SOL    HW230135   0.395   2.469   5.369
 9746SOL     OW30136   5.214   1.366   5.264
 9746SOL    HW130137   5.154   1.440   5.234
 9746SOL    HW230138   5.305   1.379   5.225
 9747SOL     OW30139   1.511   1.592   1.103
 9747SOL    HW130140   1.525   1.691   1.116
 9747SOL    HW230141   1.575   1.542   1.161
 9748SOL     OW30142   0.905   6.892   5.337
 9748SOL    HW130143   0.820   6.914   5.288
 9748SOL    HW230144   0.983   6.915   5.280
 9749SOL     OW30145   1.417   2.634   5.638
 9749SOL    HW130146   1.500   2.631   5.694
 9749SOL    HW230147   1.442   2.621   5.542
 9750SOL     OW30148   5.748   5.247   3.966
 9750SOL    HW130149   5.812   5.170   3.967
 9750SOL    HW230150   5.698   5.248   3.880
 9751SOL     OW30151   2.089   2.155   1.098
 9751SOL    HW130152   2.103   2.254   1.107
 9751SOL    HW230153   2.116   2.126   1.006
 9752SOL     OW30154   4.905   0.904   6.210
 9752SOL    HW130155   4.993   0.899   6.162
 9752SOL    HW230156   4.898   0.827   6.274
 9753SOL     OW30157   6.313   6.258   4.793
 9753SOL    HW130158   6.299   6.333   4.729
 9753SOL    HW230159   6.237   6.194   4.786
 9754SOL     OW30160   1.161   1.635   6.851
 9754SOL    HW130161   1.148   1.540   6.880
 9754SOL    HW230162   1.150   1.642   6.752
 9755SOL     OW30163   4.229   3.625   5.200
 9755SOL    HW130164   4.158   3.658   5.263
 9755SOL    HW230165   4.196   3.633   5.106
 9756SOL     OW30166   5.774   3.060   0.111
 9756SOL    HW130167   5.797   3.129   0.042
 9756SOL    HW230168   5.758   2.972   0.066
 9757SOL     OW30169   5.231   3.265   3.751
 9757SOL    HW130170   5.215   3.166   3.751
 9757SOL    HW230171   5.263   3.293   3.660
 9758SOL     OW30172   2.107   0.229   5.881
 9758SOL    HW130173   2.149   0.298   5.940
 9758SOL    HW230174   2.160   0.220   5.797
 9759SOL     OW30175   2.282   0.047   1.149
 9759SOL    HW130176   2.245   0.125   1.099
 9759SOL    HW230177   2.250   0.051   1.244
 9760SOL     OW30178   5.112   4.331   5.124
 9760SOL    HW130179   5.083   4.238   5.100
 9760SOL    HW230180   5.211   4.337   5.120
 9761SOL     OW30181   5.719   5.235   1.759
 9761SOL    HW130182   5.651   5.242   1.832
 9761SOL    HW230183   5.703   5.151   1.707
 9762SOL     OW30184   2.232   2.024   4.560
 9762SOL    HW130185   2.319   2.072   4.555
 9762SOL    HW230186   2.240   1.945   4.621
 9763SOL     OW30187   4.656   1.337   2.033
 9763SOL    HW130188   4.650   1.350   1.934
 9763SOL    HW230189   4.564   1.321   2.070
 9764SOL     OW30190   1.665   2.127   3.253
 9764SOL    HW130191   1.624   2.202   3.304
 9764SOL    HW230192   1.764   2.140   3.249
 9765SOL     OW30193   6.718   2.115   5.370
 9765SOL    HW130194   6.742   2.152   5.280
 9765SOL    HW230195   6.685   2.189   5.429
 9766SOL     OW30196   2.730   0.578   2.676
 9766SOL    HW130197   2.794   0.513   2.717
 9766SOL    HW230198   2.779   0.641   2.616
 9767SOL     OW30199   5.336   1.763   4.595
 9767SOL    HW130200   5.431   1.734   4.592
 9767SOL    HW230201   5.296   1.740   4.684
 9768SOL     OW30202   4.715   2.285   1.916
 9768SOL    HW130203   4.662   2.359   1.874
 9768SOL    HW230204   4.697   2.284   2.015
 9769SOL     OW30205   1.258   2.473   1.135
 9769SOL    HW130206   1.293   2.460   1.042
 9769SOL    HW230207   1.328   2.516   1.192
 9770SOL     OW30208   5.936   5.593   5.877
 9770SOL    HW130209   5.989   5.512   5.852
 9770SOL    HW230210   5.843   5.565   5.902
 9771SOL     OW30211   4.317   4.380   1.018
 9771SOL    HW130212   4.340   4.433   1.099
 9771SOL    HW230213   4.292   4.287   1.046
 9772SOL     OW30214   6.743   6.845   1.814
 9772SOL    HW130215   6.645   6.866   1.817
 9772SOL    HW230216   6.763   6.795   1.729
 9773SOL     OW30217   5.816   6.124   3.725
 9773SOL    HW130218   5.883   6.066   3.678
 9773SOL    HW230219   5.724   6.099   3.696
 9774SOL     OW30220   5.959   5.051   3.906
 9774SOL    HW130221   5.929   4.978   3.967
 9774SOL    HW230222   6.058   5.046   3.894
 9775SOL     OW30223   2.023   2.294   4.902
 9775SOL    HW130224   1.930   2.259   4.910
 9775SOL    HW230225   2.050   2.338   4.988
 9776SOL     OW30226   6.947   5.458   4.246
 9776SOL    HW130227   6.881   5.487   4.177
 9776SOL    HW230228   6.993   5.538   4.284
 9777SOL     OW30229   6.150   4.885   6.023
 9777SOL    HW130230   6.235   4.833   6.009
 9777SOL    HW230231   6.107   4.904   5.935
 9778SOL     OW30232   4.855   0.041   3.098
 9778SOL    HW130233   4.812   0.091   3.173
 9778SOL    HW230234   4.806   6.983   3.081
 9779SOL     OW30235   2.565   1.356   4.824
 9779SOL    HW130236   2.606   1.265   4.836
 9779SOL    HW230237   2.490   1.349   4.759
 9780SOL     OW30238   1.973   2.896   0.623
 9780SOL    HW130239   2.011   2.967   0.682
 9780SOL    HW230240   1.891   2.859   0.665
 9781SOL     OW30241   1.751   4.385   4.646
 9781SOL    HW130242   1.811   4.308   4.624
 9781SOL    HW230243   1.686   4.399   4.571
 9782SOL     OW30244   6.771   0.171   0.995
 9782SOL    HW130245   6.799   0.202   1.086
 9782SOL    HW230246   6.677   0.138   0.998
 9783SOL     OW30247   6.174   0.804   1.483
 9783SOL    HW130248   6.264   0.846   1.480
 9783SOL    HW230249   6.180   0.710   1.449
 9784SOL     OW30250   4.208   1.244   3.546
 9784SOL    HW130251   4.131   1.296   3.511
 9784SOL    HW230252   4.294   1.291   3.524
 9785SOL     OW30253   6.997   2.976   2.852
 9785SOL    HW130254   6.898   2.974   2.865
 9785SOL    HW230255   0.000   2.889   2.814
 9786SOL     OW30256   2.021   4.899   6.159
 9786SOL    HW130257   2.010   4.801   6.141
 9786SOL    HW230258   2.072   4.941   6.083
 9787SOL     OW30259   4.966   3.279   1.821
 9787SOL    HW130260   5.027   3.230   1.884
 9787SOL    HW230261   4.902   3.214   1.779
 9788SOL     OW30262   0.184   6.849   4.206
 9788SOL    HW130263   0.126   6.860   4.287
 9788SOL    HW230264   0.228   6.936   4.184
 9789SOL     OW30265   2.489   5.178   5.868
 9789SOL    HW130266   2.530   5.264   5.897
 9789SOL    HW230267   2.419   5.196   5.799
 9790SOL     OW30268   5.649   1.655   4.120
 9790SOL    HW130269   5.658   1.701   4.208
 9790SOL    HW230270   5.569   1.594   4.122
 9791SOL     OW30271   1.321   1.618   1.473
 9791SOL    HW130272   1.234   1.597   1.517
 9791SOL    HW230273   1.362   1.698   1.517
 9792SOL     OW30274   4.735   5.160   1.787
 9792SOL    HW130275   4.789   5.158   1.703
 9792SOL    HW230276   4.729   5.068   1.825
 9793SOL     OW30277   5.265   6.199   2.997
 9793SOL    HW130278   5.304   6.132   3.061
 9793SOL    HW230279   5.334   6.268   2.975
 9794SOL     OW30280   5.016   3.274   6.014
 9794SOL    HW130281   5.004   3.342   6.086
 9794SOL    HW230282   4.935   3.273   5.955
 9795SOL     OW30283   1.031   3.011   4.422
 9795SOL    HW130284   0.976   3.044   4.345
 9795SOL    HW230285   1.127   3.034   4.408
 9796SOL     OW30286   2.928   5.256   0.849
 9796SOL    HW130287   2.860   5.254   0.922
 9796SOL    HW230288   3.019   5.272   0.889
 9797SOL     OW30289   4.450   3.465   6.855
 9797SOL    HW130290   4.508   3.468   6.773
 9797SOL    HW230291   4.505   3.488   6.935
 9798SOL     OW30292   2.164   0.272   1.005
 9798SOL    HW130293   2.199   0.317   1.087
 9798SOL    HW230294   2.065   0.258   1.014
 9799SOL     OW30295   3.277   2.865   2.589
 9799SOL    HW130296   3.322   2.834   2.505
 9799SOL    HW230297   3.333   2.840   2.668
 9800SOL     OW30298   4.201   6.236   6.406
 9800SOL    HW130299   4.157   6.156   6.364
 9800SOL    HW230300   4.131   6.296   6.444
 9801SOL     OW30301   5.132   5.409   0.520
 9801SOL    HW130302   5.146   5.385   0.424
 9801SOL    HW230303   5.112   5.507   0.527
 9802SOL     OW30304   0.787   3.424   1.450
 9802SOL    HW130305   0.711   3.419   1.386
 9802SOL    HW230306   0.863   3.474   1.408
 9803SOL     OW30307   5.986   6.952   6.789
 9803SOL    HW130308   5.955   0.004   6.843
 9803SOL    HW230309   6.068   6.976   6.738
 9804SOL     OW30310   0.186   5.010   3.706
 9804SOL    HW130311   0.236   5.085   3.749
 9804SOL    HW230312   0.245   4.929   3.700
 9805SOL     OW30313   1.246   5.230   6.804
 9805SOL    HW130314   1.173   5.293   6.829
 9805SOL    HW230315   1.225   5.139   6.840
 9806SOL     OW30316   0.744   2.423   1.552
 9806SOL    HW130317   0.825   2.411   1.609
 9806SOL    HW230318   0.760   2.381   1.463
 9807SOL     OW30319   4.264   1.595   0.461
 9807SOL    HW130320   4.250   1.519   0.397
 9807SOL    HW230321   4.290   1.676   0.410
 9808SOL     OW30322   5.922   1.676   5.018
 9808SOL    HW130323   5.844   1.649   4.960
 9808SOL    HW230324   5.998   1.704   4.960
 9809SOL     OW30325   0.989   1.546   5.177
 9809SOL    HW130326   0.993   1.592   5.088
 9809SOL    HW230327   1.080   1.511   5.200
 9810SOL     OW30328   2.608   1.461   3.262
 9810SOL    HW130329   2.550   1.495   3.188
 9810SOL    HW230330   2.635   1.538   3.321
 9811SOL     OW30331   0.089   6.184   3.232
 9811SOL    HW130332   0.030   6.216   3.306
 9811SOL    HW230333   0.032   6.152   3.156
 9812SOL     OW30334   4.529   2.068   5.976
 9812SOL    HW130335   4.439   2.103   6.003
 9812SOL    HW230336   4.527   1.968   5.974
 9813SOL     OW30337   6.271   5.605   0.182
 9813SOL    HW130338   6.333   5.550   0.239
 9813SOL    HW230339   6.186   5.620   0.231
 9814SOL     OW30340   6.617   0.180   5.305
 9814SOL    HW130341   6.548   0.156   5.237
 9814SOL    HW230342   6.614   0.279   5.322
 9815SOL     OW30343   6.667   3.296   1.385
 9815SOL    HW130344   6.645   3.355   1.463
 9815SOL    HW230345   6.600   3.310   1.313
 9816SOL     OW30346   6.537   0.552   0.175
 9816SOL    HW130347   6.532   0.571   0.077
 9816SOL    HW230348   6.575   0.631   0.223
 9817SOL     OW30349   3.241   6.014   1.811
 9817SOL    HW130350   3.269   5.946   1.744
 9817SOL    HW230351   3.301   6.009   1.891
 9818SOL     OW30352   1.897   1.140   3.560
 9818SOL    HW130353   1.962   1.122   3.634
 9818SOL    HW230354   1.898   1.064   3.496
 9819SOL     OW30355   5.784   3.515   4.980
 9819SOL    HW130356   5.770   3.449   5.053
 9819SOL    HW230357   5.838   3.473   4.907
 9820SOL     OW30358   2.708   2.056   6.111
 9820SOL    HW130359   2.804   2.080   6.098
 9820SOL    HW230360   2.660   2.130   6.157
 9821SOL     OW30361   4.342   1.886   1.883
 9821SOL    HW130362   4.260   1.878   1.827
 9821SOL    HW230363   4.420   1.849   1.832
 9822SOL     OW30364   4.257   5.886   4.525
 9822SOL    HW130365   4.207   5.970   4.504
 9822SOL    HW230366   4.195   5.808   4.519
 9823SOL     OW30367   1.158   0.962   2.359
 9823SOL    HW130368   1.240   1.009   2.325
 9823SOL    HW230369   1.162   0.865   2.332
 9824SOL     OW30370   1.906   6.460   5.803
 9824SOL    HW130371   1.923   6.383   5.741
 9824SOL    HW230372   1.878   6.425   5.892
 9825SOL     OW30373   5.029   6.050   5.672
 9825SOL    HW130374   4.942   6.099   5.664
 9825SOL    HW230375   5.012   5.952   5.670
 9826SOL     OW30376   3.175   6.774   5.194
 9826SOL    HW130377   3.265   6.793   5.154
 9826SOL    HW230378   3.171   6.679   5.225
 9827SOL     OW30379   1.814   5.640   2.341
 9827SOL    HW130380   1.736   5.700   2.355
 9827SOL    HW230381   1.898   5.695   2.336
 9828SOL     OW30382   4.312   1.797   4.949
 9828SOL    HW130383   4.295   1.708   4.991
 9828SOL    HW230384   4.347   1.860   5.019
 9829SOL     OW30385   4.584   6.063   5.475
 9829SOL    HW130386   4.513   6.134   5.470
 9829SOL    HW230387   4.547   5.983   5.523
 9830SOL     OW30388   5.723   2.088   2.581
 9830SOL    HW130389   5.681   2.060   2.495
 9830SOL    HW230390   5.822   2.071   2.577
 9831SOL     OW30391   0.827   4.036   2.260
 9831SOL    HW130392   0.867   4.055   2.171
 9831SOL    HW230393   0.892   3.985   2.316
 9832SOL     OW30394   4.846   4.188   4.945
 9832SOL    HW130395   4.923   4.246   4.917
 9832SOL    HW230396   4.858   4.096   4.907
 9833SOL     OW30397   3.498   4.199   4.256
 9833SOL    HW130398   3.584   4.182   4.304
 9833SOL    HW230399   3.512   4.188   4.158
 9834SOL     OW30400   2.471   5.477   5.750
 9834SOL    HW130401   2.481   5.542   5.825
 9834SOL    HW230402   2.377   5.478   5.716
 9835SOL     OW30403   3.670   4.126   5.060
 9835SOL    HW130404   3.764   4.101   5.082
 9835SOL    HW230405   3.664   4.156   4.965
 9836SOL     OW30406   0.726   3.241   5.797
 9836SOL    HW130407   0.775   3.327   5.789
 9836SOL    HW230408   0.634   3.257   5.832
 9837SOL     OW30409   5.632   1.978   1.598
 9837SOL    HW130410   5.726   1.952   1.622
 9837SOL    HW230411   5.631   2.016   1.505
 9838SOL     OW30412   0.723   6.020   1.262
 9838SOL    HW130413   0.685   5.934   1.295
 9838SOL    HW230414   0.664   6.095   1.292
 9839SOL     OW30415   4.370   1.344   2.377
 9839SOL    HW130416   4.377   1.349   2.277
 9839SOL    HW230417   4.394   1.433   2.416
 9840SOL     OW30418   5.866   1.801   6.963
 9840SOL    HW130419   5.873   1.710   7.003
 9840SOL    HW230420   5.826   1.795   6.872
 9841SOL     OW30421   0.174   5.885   3.457
 9841SOL    HW130422   0.240   5.960   3.448
 9841SOL    HW230423   0.085   5.923   3.486
 9842SOL     OW30424   3.327   2.170   0.399
 9842SOL    HW130425   3.390   2.092   0.401
 9842SOL    HW230426   3.338   2.220   0.313
 9843SOL     OW30427   6.891   6.216   0.966
 9843SOL    HW130428   6.907   6.182   1.059
 9843SOL    HW230429   6.972   6.263   0.933
 9844SOL     OW30430   4.888   0.213   4.417
 9844SOL    HW130431   4.850   0.282   4.355
 9844SOL    HW230432   4.958   0.255   4.475
 9845SOL     OW30433   1.647   2.487   1.987
 9845SOL    HW130434   1.746   2.497   1.991
 9845SOL    HW230435   1.621   2.448   1.899
 9846SOL     OW30436   5.288   1.297   1.489
 9846SOL    HW130437   5.262   1.221   1.429
 9846SOL    HW230438   5.387   1.305   1.490
 9847SOL     OW30439   3.845   3.583   0.705
 9847SOL    HW130440   3.927   3.532   0.729
 9847SOL    HW230441   3.774   3.567   0.774
 9848SOL     OW30442   3.769   3.427   5.268
 9848SOL    HW130443   3.790   3.490   5.193
 9848SOL    HW230444   3.797   3.335   5.243
 9849SOL     OW30445   0.883   1.223   6.255
 9849SOL    HW130446   0.853   1.301   6.200
 9849SOL    HW230447   0.808   1.158   6.266
 9850SOL     OW30448   0.773   0.556   4.192
 9850SOL    HW130449   0.859   0.536   4.240
 9850SOL    HW230450   0.717   0.473   4.188
 9851SOL     OW30451   3.739   5.012   4.231
 9851SOL    HW130452   3.666   4.966   4.181
 9851SOL    HW230453   3.825   5.003   4.180
 9852SOL     OW30454   1.398   1.359   6.240
 9852SOL    HW130455   1.448   1.277   6.212
 9852SOL    HW230456   1.454   1.440   6.223
 9853SOL     OW30457   0.205   4.189   4.136
 9853SOL    HW130458   0.254   4.121   4.189
 9853SOL    HW230459   0.119   4.211   4.181
 9854SOL     OW30460   0.700   5.574   6.349
 9854SOL    HW130461   0.664   5.483   6.327
 9854SOL    HW230462   0.626   5.640   6.351
 9855SOL     OW30463   1.427   3.213   1.020
 9855SOL    HW130464   1.351   3.274   1.042
 9855SOL    HW230465   1.431   3.140   1.088
 9856SOL     OW30466   5.525   4.198   3.324
 9856SOL    HW130467   5.528   4.225   3.228
 9856SOL    HW230468   5.443   4.143   3.340
 9857SOL     OW30469   4.607   1.960   3.736
 9857SOL    HW130470   4.698   1.986   3.702
 9857SOL    HW230471   4.596   1.993   3.830
 9858SOL     OW30472   0.165   5.870   2.368
 9858SOL    HW130473   0.179   5.771   2.368
 9858SOL    HW230474   0.251   5.916   2.390
 9859SOL     OW30475   0.505   5.692   4.481
 9859SOL    HW130476   0.472   5.690   4.575
 9859SOL    HW230477   0.593   5.740   4.478
 9860SOL     OW30478   1.811   2.654   5.485
 9860SOL    HW130479   1.722   2.611   5.468
 9860SOL    HW230480   1.814   2.743   5.440
 9861SOL     OW30481   3.287   1.518   4.445
 9861SOL    HW130482   3.343   1.600   4.433
 9861SOL    HW230483   3.191   1.539   4.425
 9862SOL     OW30484   1.902   5.159   1.123
 9862SOL    HW130485   1.910   5.150   1.023
 9862SOL    HW230486   1.973   5.103   1.167
 9863SOL     OW30487   3.222   5.882   1.189
 9863SOL    HW130488   3.225   5.790   1.229
 9863SOL    HW230489   3.147   5.934   1.231
 9864SOL     OW30490   3.107   6.097   5.081
 9864SOL    HW130491   3.075   6.154   5.157
 9864SOL    HW230492   3.110   6.152   4.998
 9865SOL     OW30493   0.648   6.187   5.693
 9865SOL    HW130494   0.636   6.167   5.790
 9865SOL    HW230495   0.694   6.275   5.682
 9866SOL     OW30496   6.376   4.593   4.516
 9866SOL    HW130497   6.357   4.495   4.525
 9866SOL    HW230498   6.416   4.627   4.601
 9867SOL     OW30499   5.067   1.918   1.655
 9867SOL    HW130500   5.054   1.908   1.753
 9867SOL    HW230501   4.984   1.956   1.614
 9868SOL     OW30502   1.187   4.580   3.049
 9868SOL    HW130503   1.135   4.517   3.106
 9868SOL    HW230504   1.201   4.666   3.098
 9869SOL     OW30505   0.085   2.754   1.340
 9869SOL    HW130506   0.097   2.707   1.427
 9869SOL    HW230507   0.000   2.807   1.343
 9870SOL     OW30508   3.354   1.228   1.780
 9870SOL    HW130509   3.327   1.145   1.732
 9870SOL    HW230510   3.307   1.234   1.868
 9871SOL     OW30511   0.006   3.672   5.204
 9871SOL    HW130512   6.984   3.740   5.149
 9871SOL    HW230513   0.036   3.714   5.289
 9872SOL     OW30514   1.814   4.899   5.389
 9872SOL    HW130515   1.848   4.893   5.295
 9872SOL    HW230516   1.890   4.922   5.449
 9873SOL     OW30517   2.612   1.956   5.671
 9873SOL    HW130518   2.587   1.934   5.765
 9873SOL    HW230519   2.641   2.052   5.665
 9874SOL     OW30520   6.825   2.732   4.924
 9874SOL    HW130521   6.760   2.660   4.898
 9874SOL    HW230522   6.811   2.757   5.020
 9875SOL     OW30523   6.866   5.918   0.480
 9875SOL    HW130524   6.842   6.015   0.480
 9875SOL    HW230525   6.881   5.888   0.386
 9876SOL     OW30526   2.105   6.363   3.059
 9876SOL    HW130527   2.036   6.334   3.126
 9876SOL    HW230528   2.116   6.462   3.063
 9877SOL     OW30529   0.899   4.871   5.012
 9877SOL    HW130530   0.817   4.859   5.068
 9877SOL    HW230531   0.912   4.790   4.954
 9878SOL     OW30532   1.881   3.134   0.075
 9878SOL    HW130533   1.825   3.117   0.157
 9878SOL    HW230534   1.842   3.085   7.025
 9879SOL     OW30535   0.506   4.691   5.948
 9879SOL    HW130536   0.567   4.637   6.006
 9879SOL    HW230537   0.411   4.672   5.973
 9880SOL     OW30538   3.156   1.836   0.323
 9880SOL    HW130539   3.237   1.790   0.286
 9880SOL    HW230540   3.185   1.919   0.372
 9881SOL     OW30541   5.330   0.449   5.013
 9881SOL    HW130542   5.352   0.445   5.111
 9881SOL    HW230543   5.304   0.358   4.981
 9882SOL     OW30544   4.122   3.411   4.441
 9882SOL    HW130545   4.100   3.335   4.380
 9882SOL    HW230546   4.130   3.377   4.535
 9883SOL     OW30547   2.146   6.952   1.493
 9883SOL    HW130548   2.172   6.956   1.589
 9883SOL    HW230549   2.214   6.900   1.442
 9884SOL     OW30550   2.107   3.676   6.676
 9884SOL    HW130551   2.025   3.731   6.691
 9884SOL    HW230552   2.106   3.597   6.737
 9885SOL     OW30553   6.682   3.348   4.214
 9885SOL    HW130554   6.693   3.291   4.296
 9885SOL    HW230555   6.743   3.314   4.142
 9886SOL     OW30556   4.771   6.476   1.800
 9886SOL    HW130557   4.794   6.396   1.744
 9886SOL    HW230558   4.674   6.475   1.821
 9887SOL     OW30559   3.846   6.939   0.642
 9887SOL    HW130560   3.799   6.874   0.583
 9887SOL    HW230561   3.929   6.897   0.679
 9888SOL     OW30562   5.955   5.400   2.290
 9888SOL    HW130563   5.875   5.440   2.334
 9888SOL    HW230564   5.993   5.328   2.349
 9889SOL     OW30565   0.648   5.019   3.411
 9889SOL    HW130566   0.594   4.948   3.457
 9889SOL    HW230567   0.692   5.077   3.479
 9890SOL     OW30568   6.714   4.085   1.832
 9890SOL    HW130569   6.682   4.173   1.795
 9890SOL    HW230570   6.767   4.038   1.763
 9891SOL     OW30571   5.043   4.387   0.988
 9891SOL    HW130572   5.077   4.295   0.969
 9891SOL    HW230573   5.121   4.450   0.994
 9892SOL     OW30574   2.007   5.422   4.105
 9892SOL    HW130575   2.058   5.419   4.018
 9892SOL    HW230576   1.988   5.517   4.128
 9893SOL     OW30577   6.259   4.969   3.544
 9893SOL    HW130578   6.172   4.921   3.537
 9893SOL    HW230579   6.332   4.913   3.505
 9894SOL     OW30580   3.752   2.827   5.761
 9894SOL    HW130581   3.801   2.884   5.696
 9894SOL    HW230582   3.658   2.813   5.729
 9895SOL     OW30583   5.239   2.605   6.591
 9895SOL    HW130584   5.319   2.666   6.593
 9895SOL    HW230585   5.193   2.608   6.679
 9896SOL     OW30586   4.075   4.051   0.407
 9896SOL    HW130587   4.157   4.105   0.385
 9896SOL    HW230588   4.089   4.004   0.494
 9897SOL     OW30589   5.932   2.203   2.813
 9897SOL    HW130590   5.964   2.171   2.724
 9897SOL    HW230591   5.943   2.131   2.881
 9898SOL     OW30592   1.576   5.244   5.817
 9898SOL    HW130593   1.478   5.261   5.825
 9898SOL    HW230594   1.611   5.291   5.736
 9899SOL     OW30595   5.283   4.754   2.712
 9899SOL    HW130596   5.333   4.686   2.766
 9899SOL    HW230597   5.243   4.710   2.632
 9900SOL     OW30598   1.375   2.340   4.126
 9900SOL    HW130599   1.349   2.413   4.189
 9900SOL    HW230600   1.336   2.359   4.035
 9901SOL     OW30601   2.984   2.083   6.097
 9901SOL    HW130602   3.080   2.107   6.112
 9901SOL    HW230603   2.963   2.092   5.999
 9902SOL     OW30604   3.800   3.702   0.447
 9902SOL    HW130605   3.700   3.703   0.446
 9902SOL    HW230606   3.832   3.662   0.532
 9903SOL     OW30607   3.899   1.439   2.005
 9903SOL    HW130608   3.829   1.482   2.063
 9903SOL    HW230609   3.976   1.503   1.994
 9904SOL     OW30610   6.370   2.088   0.569
 9904SOL    HW130611   6.388   2.134   0.656
 9904SOL    HW230612   6.380   2.154   0.494
 9905SOL     OW30613   1.501   6.715   6.041
 9905SOL    HW130614   1.537   6.624   6.024
 9905SOL    HW230615   1.449   6.715   6.126
 9906SOL     OW30616   2.400   3.569   6.335
 9906SOL    HW130617   2.426   3.491   6.392
 9906SOL    HW230618   2.473   3.589   6.269
 9907SOL     OW30619   2.800   6.202   3.282
 9907SOL    HW130620   2.781   6.300   3.285
 9907SOL    HW230621   2.717   6.151   3.305
 9908SOL     OW30622   0.722   3.711   6.284
 9908SOL    HW130623   0.663   3.774   6.334
 9908SOL    HW230624   0.791   3.674   6.345
 9909SOL     OW30625   3.395   1.206   2.857
 9909SOL    HW130626   3.433   1.256   2.779
 9909SOL    HW230627   3.398   1.108   2.837
 9910SOL     OW30628   6.444   4.672   0.849
 9910SOL    HW130629   6.362   4.729   0.850
 9910SOL    HW230630   6.433   4.600   0.781
 9911SOL     OW30631   3.779   4.895   3.322
 9911SOL    HW130632   3.871   4.859   3.308
 9911SOL    HW230633   3.762   4.903   3.421
 9912SOL     OW30634   5.086   0.361   1.564
 9912SOL    HW130635   5.104   0.310   1.648
 9912SOL    HW230636   5.050   0.452   1.588
 9913SOL     OW30637   5.390   2.557   2.861
 9913SOL    HW130638   5.389   2.487   2.790
 9913SOL    HW230639   5.347   2.521   2.944
 9914SOL     OW30640   0.926   0.491   4.822
 9914SOL    HW130641   0.971   0.520   4.906
 9914SOL    HW230642   0.985   0.427   4.773
 9915SOL     OW30643   4.950   3.234   3.949
 9915SOL    HW130644   5.042   3.259   3.918
 9915SOL    HW230645   4.928   3.142   3.917
 9916SOL     OW30646   2.293   2.800   2.499
 9916SOL    HW130647   2.303   2.794   2.599
 9916SOL    HW230648   2.325   2.716   2.457
 9917SOL     OW30649   3.215   4.026   5.713
 9917SOL    HW130650   3.229   4.111   5.662
 9917SOL    HW230651   3.239   3.948   5.655
 9918SOL     OW30652   2.173   2.070   5.697
 9918SOL    HW130653   2.150   2.019   5.614
 9918SOL    HW230654   2.156   2.167   5.681
 9919SOL     OW30655   0.855   5.609   2.685
 9919SOL    HW130656   0.909   5.602   2.601
 9919SOL    HW230657   0.772   5.554   2.675
 9920SOL     OW30658   3.708   6.397   1.264
 9920SOL    HW130659   3.608   6.404   1.270
 9920SOL    HW230660   3.733   6.306   1.233
 9921SOL     OW30661   5.882   0.165   2.981
 9921SOL    HW130662   5.824   0.228   3.033
 9921SOL    HW230663   5.846   0.157   2.887
 9922SOL     OW30664   4.234   4.817   0.658
 9922SOL    HW130665   4.278   4.731   0.635
 9922SOL    HW230666   4.144   4.799   0.698
 9923SOL     OW30667   6.525   2.559   5.893
 9923SOL    HW130668   6.469   2.476   5.880
 9923SOL    HW230669   6.591   2.543   5.966
 9924SOL     OW30670   6.811   0.644   2.794
 9924SOL    HW130671   6.846   0.679   2.882
 9924SOL    HW230672   6.749   0.568   2.811
 9925SOL     OW30673   2.865   2.979   5.666
 9925SOL    HW130674   2.852   2.955   5.570
 9925SOL    HW230675   2.953   2.943   5.698
 9926SOL     OW30676   1.136   1.183   0.364
 9926SOL    HW130677   1.226   1.216   0.336
 9926SOL    HW230678   1.116   1.214   0.457
 9927SOL     OW30679   7.005   1.749   2.466
 9927SOL    HW130680   0.059   1.782   2.515
 9927SOL    HW230681   6.930   1.736   2.530
 9928SOL     OW30682   0.164   3.749   2.189
 9928SOL    HW130683   0.192   3.725   2.096
 9928SOL    HW230684   0.200   3.680   2.253
 9929SOL     OW30685   2.817   4.633   0.058
 9929SOL    HW130686   2.720   4.624   0.081
 9929SOL    HW230687   2.844   4.557   7.025
 9930SOL     OW30688   0.011   6.980   6.118
 9930SOL    HW130689   0.069   0.034   6.109
 9930SOL    HW230690   0.052   6.917   6.183
 9931SOL     OW30691   1.587   5.751   5.728
 9931SOL    HW130692   1.516   5.818   5.706
 9931SOL    HW230693   1.546   5.672   5.774
 9932SOL     OW30694   1.457   1.513   0.101
 9932SOL    HW130695   1.464   1.534   0.199
 9932SOL    HW230696   1.422   1.593   0.053
 9933SOL     OW30697   2.370   1.927   3.172
 9933SOL    HW130698   2.368   2.012   3.224
 9933SOL    HW230699   2.305   1.932   3.097
 9934SOL     OW30700   5.293   1.566   5.968
 9934SOL    HW130701   5.327   1.624   6.042
 9934SOL    HW230702   5.355   1.572   5.890
 9935SOL     OW30703   3.112   2.247   0.580
 9935SOL    HW130704   3.195   2.245   0.523
 9935SOL    HW230705   3.127   2.193   0.662
 9936SOL     OW30706   5.963   5.868   5.327
 9936SOL    HW130707   6.029   5.882   5.253
 9936SOL    HW230708   5.876   5.837   5.288
 9937SOL     OW30709   0.461   0.092   2.884
 9937SOL    HW130710   0.531   0.038   2.838
 9937SOL    HW230711   0.454   0.064   2.979
 9938SOL     OW30712   6.812   0.572   4.204
 9938SOL    HW130713   6.858   0.517   4.134
 9938SOL    HW230714   6.785   0.513   4.280
 9939SOL     OW30715   2.405   4.325   1.088
 9939SOL    HW130716   2.430   4.241   1.039
 9939SOL    HW230717   2.416   4.311   1.186
 9940SOL     OW30718   0.738   0.420   2.906
 9940SOL    HW130719   0.682   0.500   2.887
 9940SOL    HW230720   0.795   0.399   2.826
 9941SOL     OW30721   4.408   5.017   5.909
 9941SOL    HW130722   4.484   5.017   5.844
 9941SOL    HW230723   4.438   5.057   5.995
 9942SOL     OW30724   4.322   4.922   3.701
 9942SOL    HW130725   4.400   4.964   3.655
 9942SOL    HW230726   4.338   4.920   3.800
 9943SOL     OW30727   2.590   3.949   6.800
 9943SOL    HW130728   2.663   4.015   6.819
 9943SOL    HW230729   2.567   3.900   6.884
 9944SOL     OW30730   1.466   4.987   0.264
 9944SOL    HW130731   1.523   5.031   0.195
 9944SOL    HW230732   1.520   4.970   0.346
 9945SOL     OW30733   6.026   4.215   0.184
 9945SOL    HW130734   5.994   4.208   0.090
 9945SOL    HW230735   6.100   4.150   0.200
 9946SOL     OW30736   5.460   1.595   2.750
 9946SOL    HW130737   5.463   1.538   2.668
 9946SOL    HW230738   5.522   1.673   2.739
 9947SOL     OW30739   1.916   1.363   4.106
 9947SOL    HW130740   1.847   1.371   4.177
 9947SOL    HW230741   1.892   1.289   4.044
 9948SOL     OW30742   6.429   0.550   4.545
 9948SOL    HW130743   6.492   0.617   4.584
 9948SOL    HW230744   6.336   0.588   4.546
 9949SOL     OW30745   6.536   4.222   4.598
 9949SOL    HW130746   6.507   4.317   4.606
 9949SOL    HW230747   6.548   4.183   4.690
 9950SOL     OW30748   6.379   5.110   5.781
 9950SOL    HW130749   6.401   5.205   5.806
 9950SOL    HW230750   6.445   5.048   5.823
 9951SOL     OW30751   0.722   2.489   2.656
 9951SOL    HW130752   0.626   2.481   2.686
 9951SOL    HW230753   0.762   2.398   2.650
 9952SOL     OW30754   0.231   4.400   1.414
 9952SOL    HW130755   0.141   4.360   1.430
 9952SOL    HW230756   0.297   4.358   1.477
 9953SOL     OW30757   5.956   2.204   3.209
 9953SOL    HW130758   6.039   2.245   3.246
 9953SOL    HW230759   5.980   2.138   3.138
 9954SOL     OW30760   2.945   1.898   5.733
 9954SOL    HW130761   2.896   1.867   5.651
 9954SOL    HW230762   2.955   1.821   5.796
 9955SOL     OW30763   5.369   3.236   1.273
 9955SOL    HW130764   5.370   3.171   1.196
 9955SOL    HW230765   5.276   3.272   1.283
 9956SOL     OW30766   2.214   4.065   3.237
 9956SOL    HW130767   2.130   4.105   3.201
 9956SOL    HW230768   2.230   4.100   3.330
 9957SOL     OW30769   5.597   6.727   1.378
 9957SOL    HW130770   5.529   6.655   1.366
 9957SOL    HW230771   5.559   6.801   1.433
 9958SOL     OW30772   4.488   4.800   6.637
 9958SOL    HW130773   4.499   4.701   6.625
 9958SOL    HW230774   4.554   4.848   6.580
 9959SOL     OW30775   4.029   4.429   1.080
 9959SOL    HW130776   4.120   4.471   1.088
 9959SOL    HW230777   3.961   4.501   1.062
 9960SOL     OW30778   6.461   6.980   6.856
 9960SOL    HW130779   6.367   6.965   6.825
 9960SOL    HW230780   6.502   0.027   6.801
 9961SOL     OW30781   2.380   4.876   2.330
 9961SOL    HW130782   2.391   4.791   2.381
 9961SOL    HW230783   2.322   4.860   2.250
 9962SOL     OW30784   3.140   5.987   2.516
 9962SOL    HW130785   3.144   6.085   2.535
 9962SOL    HW230786   3.047   5.963   2.487
 9963SOL     OW30787   1.537   1.578   6.185
 9963SOL    HW130788   1.571   1.628   6.265
 9963SOL    HW230789   1.514   1.642   6.112
 9964SOL     OW30790   4.826   4.081   5.452
 9964SOL    HW130791   4.783   4.132   5.526
 9964SOL    HW230792   4.877   4.144   5.393
 9965SOL     OW30793   2.789   5.398   4.935
 9965SOL    HW130794   2.869   5.340   4.954
 9965SOL    HW230795   2.775   5.405   4.837
 9966SOL     OW30796   3.406   4.948   2.195
 9966SOL    HW130797   3.400   4.920   2.099
 9966SOL    HW230798   3.479   4.897   2.241
 9967SOL     OW30799   6.828   6.711   3.091
 9967SOL    HW130800   6.731   6.685   3.091
 9967SOL    HW230801   6.836   6.808   3.114
 9968SOL     OW30802   3.952   6.225   0.686
 9968SOL    HW130803   3.963   6.126   0.676
 9968SOL    HW230804   3.900   6.245   0.769
 9969SOL     OW30805   1.529   5.258   3.703
 9969SOL    HW130806   1.440   5.278   3.663
 9969SOL    HW230807   1.520   5.252   3.802
 9970SOL     OW30808   6.070   4.241   1.437
 9970SOL    HW130809   6.082   4.162   1.377
 9970SOL    HW230810   6.101   4.324   1.390
 9971SOL     OW30811   1.347   3.578   2.247
 9971SOL    HW130812   1.443   3.574   2.219
 9971SOL    HW230813   1.330   3.510   2.318
 9972SOL     OW30814   3.652   3.981   0.353
 9972SOL    HW130815   3.691   4.030   0.431
 9972SOL    HW230816   3.722   3.971   0.282
 9973SOL     OW30817   3.739   1.714   3.590
 9973SOL    HW130818   3.661   1.713   3.653
 9973SOL    HW230819   3.824   1.698   3.641
 9974SOL     OW30820   0.228   2.065   3.474
 9974SOL    HW130821   0.133   2.053   3.502
 9974SOL    HW230822   0.252   2.162   3.478
 9975SOL     OW30823   1.021   4.977   6.592
 9975SOL    HW130824   1.011   4.955   6.495
 9975SOL    HW230825   1.037   4.892   6.644
 9976SOL     OW30826   2.549   4.796   6.172
 9976SOL    HW130827   2.467   4.739   6.163
 9976SOL    HW230828   2.568   4.811   6.269
 9977SOL     OW30829   5.335   5.518   4.988
 9977SOL    HW130830   5.394   5.578   4.936
 9977SOL    HW230831   5.240   5.529   4.957
 9978SOL     OW30832   0.429   2.254   6.133
 9978SOL    HW130833   0.479   2.323   6.081
 9978SOL    HW230834   0.337   2.245   6.096
 9979SOL     OW30835   5.119   3.021   5.250
 9979SOL    HW130836   5.041   3.067   5.207
 9979SOL    HW230837   5.153   2.949   5.189
 9980SOL     OW30838   0.944   0.826   6.816
 9980SOL    HW130839   0.874   0.785   6.874
 9980SOL    HW230840   0.982   0.907   6.862
 9981SOL     OW30841   0.357   2.239   1.188
 9981SOL    HW130842   0.371   2.307   1.116
 9981SOL    HW230843   0.296   2.276   1.258
 9982SOL     OW30844   2.547   1.794   4.744
 9982SOL    HW130845   2.603   1.724   4.787
 9982SOL    HW230846   2.564   1.882   4.789
 9983SOL     OW30847   7.003   3.222   2.002
 9983SOL    HW130848   7.004   3.300   1.939
 9983SOL    HW230849   6.915   3.219   2.050
 9984SOL     OW30850   6.769   6.117   1.601
 9984SOL    HW130851   6.838   6.047   1.581
 9984SOL    HW230852   6.805   6.206   1.574
 9985SOL     OW30853   4.282   5.333   0.879
 9985SOL    HW130854   4.201   5.361   0.930
 9985SOL    HW230855   4.266   5.347   0.781
 9986SOL     OW30856   4.863   4.439   0.066
 9986SOL    HW130857   4.901   4.357   0.022
 9986SOL    HW230858   4.793   4.411   0.132
 9987SOL     OW30859   5.303   2.867   1.443
 9987SOL    HW130860   5.311   2.965   1.426
 9987SOL    HW230861   5.384   2.820   1.408
 9988SOL     OW30862   5.889   6.189   4.408
 9988SOL    HW130863   5.881   6.254   4.484
 9988SOL    HW230864   5.816   6.121   4.415
 9989SOL     OW30865   6.575   4.658   2.154
 9989SOL    HW130866   6.492   4.692   2.198
 9989SOL    HW230867   6.591   4.563   2.183
 9990SOL     OW30868   0.486   7.006   3.131
 9990SOL    HW130869   0.416   6.935   3.145
 9990SOL    HW230870   0.577   6.964   3.135
 9991SOL     OW30871   1.243   4.153   4.061
 9991SOL    HW130872   1.257   4.210   4.142
 9991SOL    HW230873   1.323   4.160   4.001
 9992SOL     OW30874   3.448   4.732   0.914
 9992SOL    HW130875   3.467   4.659   0.849
 9992SOL    HW230876   3.512   4.807   0.899
 9993SOL     OW30877   3.792   6.753   3.734
 9993SOL    HW130878   3.772   6.838   3.685
 9993SOL    HW230879   3.778   6.767   3.832
 9994SOL     OW30880   0.034   3.936   4.717
 9994SOL    HW130881   0.004   3.950   4.811
 9994SOL    HW230882   7.006   3.863   4.675
 9995SOL     OW30883   2.647   0.659   4.685
 9995SOL    HW130884   2.631   0.683   4.590
 9995SOL    HW230885   2.683   0.566   4.691
 9996SOL     OW30886   2.265   4.250   0.773
 9996SOL    HW130887   2.167   4.249   0.795
 9996SOL    HW230888   2.278   4.218   0.679
 9997SOL     OW30889   6.167   1.915   4.188
 9997SOL    HW130890   6.184   2.003   4.231
 9997SOL    HW230891   6.091   1.869   4.234
 9998SOL     OW30892   4.945   3.584   3.011
 9998SOL    HW130893   4.892   3.587   2.926
 9998SOL    HW230894   5.027   3.528   2.996
 9999SOL     OW30895   0.328   6.774   3.706
 9999SOL    HW130896   0.269   6.792   3.785
 9999SOL    HW230897   0.297   6.692   3.658
10000SOL     OW30898   5.474   1.744   1.611
10000SOL    HW130899   5.494   1.687   1.532
10000SOL    HW230900   5.532   1.826   1.609
10001SOL     OW30901   2.818   6.303   2.814
10001SOL    HW130902   2.873   6.297   2.730
10001SOL    HW230903   2.802   6.399   2.837
10002SOL     OW30904   2.421   1.339   0.749
10002SOL    HW130905   2.399   1.360   0.654
10002SOL    HW230906   2.515   1.368   0.769
10003SOL     OW30907   2.108   1.933   2.766
10003SOL    HW130908   2.017   1.944   2.804
10003SOL    HW230909   2.166   2.010   2.794
10004SOL     OW30910   5.340   4.536   4.798
10004SOL    HW130911   5.278   4.576   4.730
10004SOL    HW230912   5.427   4.514   4.754
10005SOL     OW30913   2.951   5.751   3.546
10005SOL    HW130914   2.988   5.839   3.518
10005SOL    HW230915   2.973   5.735   3.642
10006SOL     OW30916   5.617   0.364   5.436
10006SOL    HW130917   5.689   0.296   5.421
10006SOL    HW230918   5.655   0.443   5.484
10007SOL     OW30919   0.839   4.065   5.040
10007SOL    HW130920   0.862   4.103   4.950
10007SOL    HW230921   0.741   4.042   5.041
10008SOL     OW30922   3.536   1.861   4.099
10008SOL    HW130923   3.483   1.945   4.085
10008SOL    HW230924   3.476   1.788   4.128
10009SOL     OW30925   2.434   4.242   1.893
10009SOL    HW130926   2.365   4.245   1.821
10009SOL    HW230927   2.389   4.259   1.982
10010SOL     OW30928   3.012   4.894   6.636
10010SOL    HW130929   2.956   4.890   6.718
10010SOL    HW230930   2.958   4.930   6.560
10011SOL     OW30931   0.336   4.124   0.532
10011SOL    HW130932   0.253   4.181   0.529
10011SOL    HW230933   0.410   4.171   0.485
10012SOL     OW30934   5.053   0.614   2.166
10012SOL    HW130935   5.121   0.639   2.097
10012SOL    HW230936   5.017   0.697   2.209
10013SOL     OW30937   1.653   5.231   4.995
10013SOL    HW130938   1.747   5.265   5.000
10013SOL    HW230939   1.596   5.279   5.062
10014SOL     OW30940   0.469   6.530   2.936
10014SOL    HW130941   0.404   6.567   2.870
10014SOL    HW230942   0.435   6.547   3.029
10015SOL     OW30943   3.827   5.567   6.615
10015SOL    HW130944   3.878   5.548   6.699
10015SOL    HW230945   3.806   5.664   6.610
10016SOL     OW30946   1.726   0.620   4.678
10016SOL    HW130947   1.805   0.609   4.618
10016SOL    HW230948   1.751   0.677   4.756
10017SOL     OW30949   2.624   1.841   2.903
10017SOL    HW130950   2.532   1.839   2.865
10017SOL    HW230951   2.651   1.935   2.921
10018SOL     OW30952   6.793   4.095   5.871
10018SOL    HW130953   6.883   4.139   5.875
10018SOL    HW230954   6.727   4.149   5.923
10019SOL     OW30955   0.315   1.161   2.786
10019SOL    HW130956   0.271   1.224   2.722
10019SOL    HW230957   0.337   1.076   2.738
10020SOL     OW30958   6.848   1.014   1.784
10020SOL    HW130959   6.871   0.928   1.831
10020SOL    HW230960   6.919   1.082   1.802
10021SOL     OW30961   1.590   3.452   1.506
10021SOL    HW130962   1.633   3.394   1.438
10021SOL    HW230963   1.641   3.538   1.515
10022SOL     OW30964   2.225   6.161   0.084
10022SOL    HW130965   2.270   6.124   0.165
10022SOL    HW230966   2.126   6.164   0.099
10023SOL     OW30967   2.519   6.685   5.657
10023SOL    HW130968   2.603   6.738   5.670
10023SOL    HW230969   2.456   6.704   5.732
10024SOL     OW30970   1.664   4.785   2.877
10024SOL    HW130971   1.710   4.786   2.966
10024SOL    HW230972   1.722   4.829   2.809
10025SOL     OW30973   1.549   3.860   1.839
10025SOL    HW130974   1.598   3.937   1.799
10025SOL    HW230975   1.454   3.861   1.808
10026SOL     OW30976   4.900   1.251   2.604
10026SOL    HW130977   4.818   1.295   2.641
10026SOL    HW230978   4.920   1.290   2.514
10027SOL     OW30979   1.631   3.070   4.837
10027SOL    HW130980   1.651   2.997   4.903
10027SOL    HW230981   1.579   3.032   4.760
10028SOL     OW30982   3.351   0.987   1.639
10028SOL    HW130983   3.438   0.994   1.591
10028SOL    HW230984   3.336   0.892   1.668
10029SOL     OW30985   6.863   2.588   4.317
10029SOL    HW130986   6.949   2.601   4.268
10029SOL    HW230987   6.871   2.628   4.409
10030SOL     OW30988   2.563   6.966   4.634
10030SOL    HW130989   2.536   6.974   4.730
10030SOL    HW230990   2.587   6.870   4.614
10031SOL     OW30991   4.221   5.120   4.914
10031SOL    HW130992   4.261   5.180   4.845
10031SOL    HW230993   4.237   5.024   4.890
10032SOL     OW30994   3.356   6.555   5.701
10032SOL    HW130995   3.334   6.463   5.733
10032SOL    HW230996   3.313   6.622   5.762
10033SOL     OW30997   4.456   1.408   3.532
10033SOL    HW130998   4.445   1.425   3.630
10033SOL    HW230999   4.545   1.366   3.515
10034SOL     OW31000   1.729   0.883   3.710
10034SOL    HW131001   1.689   0.897   3.620
10034SOL    HW231002   1.780   0.797   3.711
10035SOL     OW31003   6.159   3.832   0.140
10035SOL    HW131004   6.182   3.831   0.043
10035SOL    HW231005   6.146   3.738   0.173
10036SOL     OW31006   6.524   0.596   6.938
10036SOL    HW131007   6.439   0.603   6.885
10036SOL    HW231008   6.595   0.553   6.882
10037SOL     OW31009   6.384   6.997   6.250
10037SOL    HW131010   6.425   6.961   6.166
10037SOL    HW231011   6.299   0.017   6.227
10038SOL     OW31012   4.662   6.756   6.858
10038SOL    HW131013   4.713   6.684   6.905
10038SOL    HW231014   4.577   6.718   6.821
10039SOL     OW31015   5.064   5.797   4.647
10039SOL    HW131016   5.129   5.743   4.700
10039SOL    HW231017   4.971   5.766   4.667
10040SOL     OW31018   4.485   6.170   0.669
10040SOL    HW131019   4.388   6.171   0.694
10040SOL    HW231020   4.511   6.258   0.630
10041SOL     OW31021   6.438   5.064   5.336
10041SOL    HW131022   6.466   5.015   5.418
10041SOL    HW231023   6.499   5.141   5.320
10042SOL     OW31024   0.656   0.940   5.403
10042SOL    HW131025   0.715   0.978   5.332
10042SOL    HW231026   0.678   0.981   5.491
10043SOL     OW31027   0.553   0.633   2.503
10043SOL    HW131028   0.641   0.589   2.522
10043SOL    HW231029   0.482   0.590   2.559
10044SOL     OW31030   2.754   1.571   4.517
10044SOL    HW131031   2.657   1.559   4.537
10044SOL    HW231032   2.777   1.668   4.522
10045SOL     OW31033   4.427   0.302   4.050
10045SOL    HW131034   4.432   0.214   4.098
10045SOL    HW231035   4.506   0.311   3.990
10046SOL     OW31036   0.060   1.770   1.799
10046SOL    HW131037   0.017   1.821   1.725
10046SOL    HW231038   7.020   1.753   1.871
10047SOL     OW31039   6.165   2.922   5.215
10047SOL    HW131040   6.118   2.857   5.275
10047SOL    HW231041   6.097   2.983   5.173
10048SOL     OW31042   2.934   1.724   1.524
10048SOL    HW131043   2.852   1.670   1.506
10048SOL    HW231044   3.015   1.665   1.519
10049SOL     OW31045   0.695   0.768   6.937
10049SOL    HW131046   0.706   0.867   6.929
10049SOL    HW231047   0.604   0.742   6.903
10050SOL     OW31048   5.514   2.975   4.697
10050SOL    HW131049   5.523   3.067   4.659
10050SOL    HW231050   5.555   2.909   4.635
10051SOL     OW31051   0.071   3.151   4.743
10051SOL    HW131052   0.044   3.240   4.779
10051SOL    HW231053   0.006   3.123   4.673
10052SOL     OW31054   2.104   2.847   1.665
10052SOL    HW131055   2.187   2.892   1.696
10052SOL    HW231056   2.075   2.780   1.734
10053SOL     OW31057   3.659   4.886   2.331
10053SOL    HW131058   3.670   4.867   2.429
10053SOL    HW231059   3.706   4.816   2.278
10054SOL     OW31060   4.405   5.845   6.282
10054SOL    HW131061   4.352   5.891   6.211
10054SOL    HW231062   4.344   5.789   6.338
10055SOL     OW31063   6.399   2.381   4.768
10055SOL    HW131064   6.315   2.337   4.800
10055SOL    HW231065   6.395   2.478   4.788
10056SOL     OW31066   5.850   5.005   0.920
10056SOL    HW131067   5.934   4.979   0.969
10056SOL    HW231068   5.804   4.922   0.887
10057SOL     OW31069   3.702   1.642   4.129
10057SOL    HW131070   3.658   1.558   4.162
10057SOL    HW231071   3.635   1.716   4.128
10058SOL     OW31072   7.009   3.940   4.973
10058SOL    HW131073   6.914   3.933   4.945
10058SOL    HW231074   7.017   4.004   5.050
10059SOL     OW31075   5.378   6.290   1.023
10059SOL    HW131076   5.352   6.351   1.099
10059SOL    HW231077   5.313   6.302   0.948
10060SOL     OW31078   2.272   2.068   2.356
10060SOL    HW131079   2.174   2.078   2.345
10060SOL    HW231080   2.319   2.125   2.289
10061SOL     OW31081   5.041   1.304   4.177
10061SOL    HW131082   5.103   1.378   4.152
10061SOL    HW231083   4.956   1.342   4.213
10062SOL     OW31084   6.378   6.860   4.637
10062SOL    HW131085   6.386   6.830   4.732
10062SOL    HW231086   6.459   6.911   4.611
10063SOL     OW31087   1.428   2.021   3.133
10063SOL    HW131088   1.522   2.047   3.155
10063SOL    HW231089   1.396   2.074   3.055
10064SOL     OW31090   5.963   5.672   5.618
10064SOL    HW131091   6.039   5.731   5.591
10064SOL    HW231092   5.961   5.666   5.718
10065SOL     OW31093   1.358   0.558   1.851
10065SOL    HW131094   1.387   0.475   1.804
10065SOL    HW231095   1.319   0.622   1.785
10066SOL     OW31096   1.457   1.148   4.236
10066SOL    HW131097   1.440   1.172   4.140
10066SOL    HW231098   1.432   1.053   4.252
10067SOL     OW31099   5.420   4.695   5.114
10067SOL    HW131100   5.471   4.728   5.035
10067SOL    HW231101   5.346   4.636   5.084
10068SOL     OW31102   5.556   2.933   4.013
10068SOL    HW131103   5.515   2.951   3.923
10068SOL    HW231104   5.572   2.835   4.023
10069SOL     OW31105   2.039   6.651   3.613
10069SOL    HW131106   1.951   6.637   3.657
10069SOL    HW231107   2.026   6.690   3.522
10070SOL     OW31108   0.419   6.943   4.594
10070SOL    HW131109   0.435   6.945   4.496
10070SOL    HW231110   0.429   6.849   4.628
10071SOL     OW31111   4.564   5.023   4.140
10071SOL    HW131112   4.593   4.948   4.199
10071SOL    HW231113   4.512   5.089   4.195
10072SOL     OW31114   1.197   6.795   4.229
10072SOL    HW131115   1.110   6.789   4.181
10072SOL    HW231116   1.272   6.780   4.165
10073SOL     OW31117   6.475   3.907   4.953
10073SOL    HW131118   6.537   3.839   4.992
10073SOL    HW231119   6.385   3.899   4.996
10074SOL     OW31120   0.592   0.372   6.109
10074SOL    HW131121   0.686   0.374   6.075
10074SOL    HW231122   0.533   0.426   6.050
10075SOL     OW31123   1.269   2.274   2.507
10075SOL    HW131124   1.343   2.234   2.561
10075SOL    HW231125   1.226   2.348   2.559
10076SOL     OW31126   5.533   0.347   4.088
10076SOL    HW131127   5.586   0.271   4.051
10076SOL    HW231128   5.503   0.325   4.181
10077SOL     OW31129   3.670   2.279   6.743
10077SOL    HW131130   3.579   2.298   6.705
10077SOL    HW231131   3.698   2.354   6.803
10078SOL     OW31132   6.351   6.479   4.197
10078SOL    HW131133   6.276   6.416   4.215
10078SOL    HW231134   6.350   6.553   4.265
10079SOL     OW31135   1.544   2.732   2.075
10079SOL    HW131136   1.444   2.739   2.078
10079SOL    HW231137   1.571   2.651   2.023
10080SOL     OW31138   3.169   2.103   6.353
10080SOL    HW131139   3.203   2.197   6.347
10080SOL    HW231140   3.205   2.050   6.276
10081SOL     OW31141   0.451   0.021   6.424
10081SOL    HW131142   0.455   6.976   6.493
10081SOL    HW231143   0.355   0.046   6.408
10082SOL     OW31144   6.779   2.587   2.624
10082SOL    HW131145   6.811   2.681   2.620
10082SOL    HW231146   6.818   2.535   2.547
10083SOL     OW31147   5.156   0.836   3.330
10083SOL    HW131148   5.072   0.782   3.325
10083SOL    HW231149   5.133   0.933   3.327
10084SOL     OW31150   3.766   0.327   6.004
10084SOL    HW131151   3.694   0.360   6.065
10084SOL    HW231152   3.853   0.370   6.029
10085SOL     OW31153   0.098   5.102   2.924
10085SOL    HW131154   0.191   5.128   2.946
10085SOL    HW231155   0.080   5.121   2.827
10086SOL     OW31156   5.675   5.402   2.388
10086SOL    HW131157   5.630   5.482   2.428
10086SOL    HW231158   5.641   5.387   2.295
10087SOL     OW31159   1.037   1.021   4.108
10087SOL    HW131160   1.116   0.969   4.140
10087SOL    HW231161   0.970   1.031   4.183
10088SOL     OW31162   0.085   6.621   5.969
10088SOL    HW131163   0.109   6.536   5.923
10088SOL    HW231164   0.054   6.688   5.901
10089SOL     OW31165   2.566   1.766   3.220
10089SOL    HW131166   2.503   1.831   3.178
10089SOL    HW231167   2.651   1.813   3.244
10090SOL     OW31168   0.195   4.917   1.370
10090SOL    HW131169   0.099   4.899   1.348
10090SOL    HW231170   0.253   4.864   1.309
10091SOL     OW31171   1.201   3.287   4.839
10091SOL    HW131172   1.151   3.202   4.822
10091SOL    HW231173   1.213   3.300   4.937
10092SOL     OW31174   1.593   3.601   5.078
10092SOL    HW131175   1.528   3.553   5.020
10092SOL    HW231176   1.603   3.552   5.165
10093SOL     OW31177   1.390   4.773   4.161
10093SOL    HW131178   1.470   4.829   4.138
10093SOL    HW231179   1.395   4.745   4.257
10094SOL     OW31180   2.593   6.338   1.953
10094SOL    HW131181   2.548   6.258   1.913
10094SOL    HW231182   2.692   6.328   1.946
10095SOL     OW31183   6.372   1.416   5.305
10095SOL    HW131184   6.370   1.371   5.395
10095SOL    HW231185   6.429   1.497   5.310
10096SOL     OW31186   6.304   4.970   2.889
10096SOL    HW131187   6.364   4.913   2.945
10096SOL    HW231188   6.297   5.061   2.929
10097SOL     OW31189   0.870   1.192   6.677
10097SOL    HW131190   0.903   1.100   6.655
10097SOL    HW231191   0.913   1.222   6.763
10098SOL     OW31192   2.083   6.788   5.627
10098SOL    HW131193   2.013   6.808   5.696
10098SOL    HW231194   2.158   6.854   5.635
10099SOL     OW31195   6.805   4.712   6.430
10099SOL    HW131196   6.886   4.724   6.373
10099SOL    HW231197   6.724   4.747   6.381
10100SOL     OW31198   5.197   0.139   4.797
10100SOL    HW131199   5.148   0.221   4.767
10100SOL    HW231200   5.292   0.143   4.764
10101SOL     OW31201   5.668   4.635   1.871
10101SOL    HW131202   5.642   4.552   1.821
10101SOL    HW231203   5.693   4.707   1.805
10102SOL     OW31204   2.416   0.701   2.514
10102SOL    HW131205   2.363   0.633   2.462
10102SOL    HW231206   2.407   0.683   2.612
10103SOL     OW31207   2.644   1.068   4.755
10103SOL    HW131208   2.628   1.052   4.658
10103SOL    HW231209   2.605   0.992   4.808
10104SOL     OW31210   1.032   3.327   5.383
10104SOL    HW131211   0.988   3.270   5.452
10104SOL    HW231212   1.073   3.407   5.428
10105SOL     OW31213   1.109   1.349   6.442
10105SOL    HW131214   1.038   1.281   6.461
10105SOL    HW231215   1.152   1.329   6.354
10106SOL     OW31216   5.079   4.899   1.053
10106SOL    HW131217   5.134   4.981   1.068
10106SOL    HW231218   5.111   4.826   1.114
10107SOL     OW31219   6.854   1.725   6.411
10107SOL    HW131220   6.805   1.643   6.380
10107SOL    HW231221   6.814   1.758   6.496
10108SOL     OW31222   6.554   6.151   7.013
10108SOL    HW131223   6.605   6.234   0.010
10108SOL    HW231224   6.460   6.176   6.990
10109SOL     OW31225   3.751   6.406   2.528
10109SOL    HW131226   3.752   6.372   2.434
10109SOL    HW231227   3.680   6.476   2.537
10110SOL     OW31228   4.143   6.524   5.103
10110SOL    HW131229   4.152   6.474   5.017
10110SOL    HW231230   4.064   6.489   5.153
10111SOL     OW31231   6.472   3.103   4.006
10111SOL    HW131232   6.420   3.189   4.016
10111SOL    HW231233   6.412   3.033   3.967
10112SOL     OW31234   5.294   4.030   4.861
10112SOL    HW131235   5.212   4.066   4.906
10112SOL    HW231236   5.270   3.949   4.806
10113SOL     OW31237   3.679   1.342   6.488
10113SOL    HW131238   3.679   1.372   6.583
10113SOL    HW231239   3.676   1.422   6.428
10114SOL     OW31240   5.593   0.437   0.880
10114SOL    HW131241   5.685   0.464   0.851
10114SOL    HW231242   5.597   0.394   0.970
10115SOL     OW31243   3.053   1.920   3.065
10115SOL    HW131244   3.081   1.831   3.102
10115SOL    HW231245   3.126   1.987   3.080
10116SOL     OW31246   0.791   6.343   0.381
10116SOL    HW131247   0.730   6.383   0.312
10116SOL    HW231248   0.808   6.410   0.452
10117SOL     OW31249   6.500   0.156   4.718
10117SOL    HW131250   6.575   0.193   4.774
10117SOL    HW231251   6.539   0.097   4.647
10118SOL     OW31252   0.088   4.821   3.224
10118SOL    HW131253   0.089   4.911   3.268
10118SOL    HW231254   7.022   4.798   3.197
10119SOL     OW31255   1.707   6.576   4.848
10119SOL    HW131256   1.701   6.607   4.753
10119SOL    HW231257   1.798   6.539   4.865
10120SOL     OW31258   0.600   3.420   4.264
10120SOL    HW131259   0.538   3.404   4.187
10120SOL    HW231260   0.613   3.519   4.276
10121SOL     OW31261   6.522   4.978   5.575
10121SOL    HW131262   6.449   5.029   5.620
10121SOL    HW231263   6.588   4.946   5.643
10122SOL     OW31264   5.442   3.107   0.644
10122SOL    HW131265   5.391   3.123   0.560
10122SOL    HW231266   5.498   3.187   0.665
10123SOL     OW31267   6.622   6.109   0.563
10123SOL    HW131268   6.653   6.190   0.612
10123SOL    HW231269   6.639   6.028   0.618
10124SOL     OW31270   2.002   3.722   0.058
10124SOL    HW131271   2.038   3.629   0.063
10124SOL    HW231272   1.908   3.719   0.023
10125SOL     OW31273   1.705   1.162   2.420
10125SOL    HW131274   1.747   1.234   2.475
10125SOL    HW231275   1.649   1.203   2.348
10126SOL     OW31276   6.674   6.685   6.439
10126SOL    HW131277   6.724   6.599   6.448
10126SOL    HW231278   6.656   6.723   6.529
10127SOL     OW31279   2.853   5.236   5.908
10127SOL    HW131280   2.885   5.153   5.955
10127SOL    HW231281   2.815   5.211   5.819
10128SOL     OW31282   0.966   1.884   1.286
10128SOL    HW131283   0.903   1.893   1.210
10128SOL    HW231284   0.945   1.952   1.356
10129SOL     OW31285   4.746   2.856   4.131
10129SOL    HW131286   4.708   2.786   4.070
10129SOL    HW231287   4.740   2.825   4.225
10130SOL     OW31288   2.137   4.267   2.526
10130SOL    HW131289   2.110   4.172   2.510
10130SOL    HW231290   2.085   4.327   2.466
10131SOL     OW31291   0.526   1.089   3.501
10131SOL    HW131292   0.451   1.152   3.479
10131SOL    HW231293   0.553   1.102   3.596
10132SOL     OW31294   2.153   6.535   3.321
10132SOL    HW131295   2.237   6.556   3.370
10132SOL    HW231296   2.110   6.619   3.289
10133SOL     OW31297   4.619   6.148   2.118
10133SOL    HW131298   4.591   6.059   2.154
10133SOL    HW231299   4.573   6.165   2.031
10134SOL     OW31300   6.942   0.120   3.957
10134SOL    HW131301   0.006   0.159   3.971
10134SOL    HW231302   6.941   0.026   3.993
10135SOL     OW31303   5.353   3.299   3.505
10135SOL    HW131304   5.353   3.210   3.458
10135SOL    HW231305   5.300   3.365   3.451
10136SOL     OW31306   5.559   0.295   2.640
10136SOL    HW131307   5.597   0.366   2.582
10136SOL    HW231308   5.479   0.255   2.595
10137SOL     OW31309   6.631   5.031   4.131
10137SOL    HW131310   6.624   4.937   4.097
10137SOL    HW231311   6.630   5.031   4.231
10138SOL     OW31312   4.245   2.321   1.297
10138SOL    HW131313   4.172   2.336   1.230
10138SOL    HW231314   4.334   2.329   1.252
10139SOL     OW31315   3.959   3.427   3.026
10139SOL    HW131316   3.968   3.343   3.080
10139SOL    HW231317   3.898   3.490   3.074
10140SOL     OW31318   6.477   6.015   5.596
10140SOL    HW131319   6.447   5.938   5.653
10140SOL    HW231320   6.447   5.999   5.502
10141SOL     OW31321   3.308   1.334   4.122
10141SOL    HW131322   3.222   1.335   4.173
10141SOL    HW231323   3.291   1.358   4.027
10142SOL     OW31324   5.883   6.545   4.390
10142SOL    HW131325   5.887   6.478   4.464
10142SOL    HW231326   5.882   6.637   4.429
10143SOL     OW31327   4.833   0.470   0.804
10143SOL    HW131328   4.872   0.556   0.836
10143SOL    HW231329   4.878   0.442   0.719
10144SOL     OW31330   4.364   6.668   6.564
10144SOL    HW131331   4.288   6.647   6.503
10144SOL    HW231332   4.423   6.587   6.572
10145SOL     OW31333   3.812   6.139   6.351
10145SOL    HW131334   3.844   6.233   6.352
10145SOL    HW231335   3.890   6.077   6.338
10146SOL     OW31336   3.730   5.220   4.972
10146SOL    HW131337   3.769   5.136   4.935
10146SOL    HW231338   3.740   5.220   5.072
10147SOL     OW31339   5.055   4.766   4.796
10147SOL    HW131340   5.030   4.685   4.849
10147SOL    HW231341   4.985   4.836   4.807
10148SOL     OW31342   5.753   5.178   6.716
10148SOL    HW131343   5.685   5.106   6.731
10148SOL    HW231344   5.837   5.156   6.766
10149SOL     OW31345   5.398   2.054   0.705
10149SOL    HW131346   5.449   1.971   0.679
10149SOL    HW231347   5.306   2.029   0.733
10150SOL     OW31348   4.601   3.589   0.404
10150SOL    HW131349   4.626   3.503   0.449
10150SOL    HW231350   4.682   3.646   0.393
10151SOL     OW31351   0.908   6.628   6.488
10151SOL    HW131352   0.843   6.703   6.473
10151SOL    HW231353   0.996   6.652   6.448
10152SOL     OW31354   1.583   6.335   4.459
10152SOL    HW131355   1.517   6.410   4.467
10152SOL    HW231356   1.536   6.252   4.430
10153SOL     OW31357   5.246   5.612   4.395
10153SOL    HW131358   5.292   5.649   4.314
10153SOL    HW231359   5.224   5.515   4.380
10154SOL     OW31360   5.981   0.087   4.502
10154SOL    HW131361   5.940   0.097   4.593
10154SOL    HW231362   5.970   0.172   4.451
10155SOL     OW31363   4.330   1.853   5.486
10155SOL    HW131364   4.238   1.877   5.455
10155SOL    HW231365   4.340   1.754   5.486
10156SOL     OW31366   6.355   7.001   2.305
10156SOL    HW131367   6.296   0.007   2.378
10156SOL    HW231368   6.433   0.036   2.295
10157SOL     OW31369   5.997   2.816   6.060
10157SOL    HW131370   5.922   2.767   6.104
10157SOL    HW231371   5.961   2.874   5.987
10158SOL     OW31372   4.569   3.314   0.535
10158SOL    HW131373   4.627   3.302   0.615
10158SOL    HW231374   4.497   3.381   0.555
10159SOL     OW31375   2.755   3.342   6.421
10159SOL    HW131376   2.750   3.440   6.400
10159SOL    HW231377   2.771   3.291   6.336
10160SOL     OW31378   1.781   3.344   2.218
10160SOL    HW131379   1.852   3.375   2.154
10160SOL    HW231380   1.793   3.246   2.234
10161SOL     OW31381   3.434   3.698   6.680
10161SOL    HW131382   3.412   3.787   6.719
10161SOL    HW231383   3.441   3.705   6.581
10162SOL     OW31384   2.384   4.629   0.310
10162SOL    HW131385   2.387   4.666   0.403
10162SOL    HW231386   2.388   4.530   0.314
10163SOL     OW31387   5.281   5.360   6.358
10163SOL    HW131388   5.211   5.426   6.386
10163SOL    HW231389   5.239   5.271   6.343
10164SOL     OW31390   5.753   3.178   4.692
10164SOL    HW131391   5.676   3.231   4.727
10164SOL    HW231392   5.806   3.234   4.628
10165SOL     OW31393   0.857   1.705   3.667
10165SOL    HW131394   0.916   1.754   3.603
10165SOL    HW231395   0.908   1.627   3.706
10166SOL     OW31396   3.353   1.138   2.271
10166SOL    HW131397   3.319   1.232   2.284
10166SOL    HW231398   3.327   1.083   2.350
10167SOL     OW31399   3.877   2.325   6.556
10167SOL    HW131400   3.951   2.308   6.492
10167SOL    HW231401   3.789   2.314   6.509
10168SOL     OW31402   6.199   4.133   5.528
10168SOL    HW131403   6.114   4.185   5.526
10168SOL    HW231404   6.255   4.158   5.449
10169SOL     OW31405   5.919   3.977   3.181
10169SOL    HW131406   5.865   4.062   3.173
10169SOL    HW231407   5.873   3.914   3.243
10170SOL     OW31408   0.945   4.348   5.856
10170SOL    HW131409   0.859   4.382   5.893
10170SOL    HW231410   0.953   4.250   5.873
10171SOL     OW31411   6.300   3.631   5.514
10171SOL    HW131412   6.359   3.586   5.581
10171SOL    HW231413   6.206   3.597   5.524
10172SOL     OW31414   6.130   6.984   4.116
10172SOL    HW131415   6.201   0.021   4.146
10172SOL    HW231416   6.169   6.918   4.052
10173SOL     OW31417   0.706   3.025   0.753
10173SOL    HW131418   0.701   2.968   0.835
10173SOL    HW231419   0.653   2.983   0.679
10174SOL     OW31420   5.384   5.410   2.623
10174SOL    HW131421   5.298   5.423   2.572
10174SOL    HW231422   5.427   5.325   2.595
10175SOL     OW31423   6.672   2.277   3.564
10175SOL    HW131424   6.607   2.218   3.515
10175SOL    HW231425   6.762   2.233   3.567
10176SOL     OW31426   1.525   3.703   5.923
10176SOL    HW131427   1.510   3.709   6.022
10176SOL    HW231428   1.593   3.632   5.904
10177SOL     OW31429   1.777   1.525   0.365
10177SOL    HW131430   1.810   1.612   0.329
10177SOL    HW231431   1.838   1.451   0.335
10178SOL     OW31432   0.024   2.029   5.121
10178SOL    HW131433   0.052   2.079   5.203
10178SOL    HW231434   0.105   2.000   5.070
10179SOL     OW31435   1.062   1.564   5.992
10179SOL    HW131436   1.096   1.604   5.907
10179SOL    HW231437   0.969   1.598   6.010
10180SOL     OW31438   3.720   0.164   0.080
10180SOL    HW131439   3.761   0.087   0.129
10180SOL    HW231440   3.777   0.187   0.001
10181SOL     OW31441   5.132   3.148   1.999
10181SOL    HW131442   5.071   3.149   2.079
10181SOL    HW231443   5.226   3.138   2.030
10182SOL     OW31444   5.608   1.001   1.987
10182SOL    HW131445   5.650   0.919   2.026
10182SOL    HW231446   5.587   1.066   2.061
10183SOL     OW31447   0.456   1.938   6.473
10183SOL    HW131448   0.392   1.970   6.544
10183SOL    HW231449   0.512   2.015   6.442
10184SOL     OW31450   3.654   0.940   6.355
10184SOL    HW131451   3.655   0.844   6.328
10184SOL    HW231452   3.588   0.990   6.299
10185SOL     OW31453   5.290   5.753   1.773
10185SOL    HW131454   5.247   5.715   1.855
10185SOL    HW231455   5.389   5.751   1.784
10186SOL     OW31456   5.842   3.437   3.068
10186SOL    HW131457   5.840   3.359   3.131
10186SOL    HW231458   5.889   3.514   3.112
10187SOL     OW31459   0.656   2.692   0.783
10187SOL    HW131460   0.561   2.675   0.757
10187SOL    HW231461   0.660   2.761   0.855
10188SOL     OW31462   3.067   5.710   0.798
10188SOL    HW131463   3.133   5.781   0.823
10188SOL    HW231464   3.101   5.660   0.719
10189SOL     OW31465   1.389   0.571   5.713
10189SOL    HW131466   1.475   0.602   5.753
10189SOL    HW231467   1.315   0.582   5.780
10190SOL     OW31468   4.606   3.010   1.546
10190SOL    HW131469   4.669   3.081   1.516
10190SOL    HW231470   4.529   3.052   1.594
10191SOL     OW31471   5.078   4.536   6.238
10191SOL    HW131472   5.003   4.470   6.233
10191SOL    HW231473   5.044   4.622   6.276
10192SOL     OW31474   4.923   1.418   5.781
10192SOL    HW131475   4.844   1.399   5.839
10192SOL    HW231476   4.984   1.339   5.781
10193SOL     OW31477   4.134   3.569   1.840
10193SOL    HW131478   4.127   3.470   1.844
10193SOL    HW231479   4.162   3.605   1.929
10194SOL     OW31480   6.061   4.198   5.238
10194SOL    HW131481   6.031   4.224   5.330
10194SOL    HW231482   5.993   4.136   5.197
10195SOL     OW31483   5.871   4.957   1.335
10195SOL    HW131484   5.947   5.021   1.347
10195SOL    HW231485   5.798   4.979   1.401
10196SOL     OW31486   4.364   1.694   3.989
10196SOL    HW131487   4.281   1.656   4.031
10196SOL    HW231488   4.382   1.784   4.029
10197SOL     OW31489   6.686   1.909   4.824
10197SOL    HW131490   6.632   1.994   4.824
10197SOL    HW231491   6.686   1.870   4.916
10198SOL     OW31492   3.095   0.576   1.400
10198SOL    HW131493   2.999   0.561   1.375
10198SOL    HW231494   3.104   0.576   1.499
10199SOL     OW31495   2.443   2.864   6.086
10199SOL    HW131496   2.456   2.818   6.174
10199SOL    HW231497   2.523   2.848   6.029
10200SOL     OW31498   4.688   1.638   0.983
10200SOL    HW131499   4.612   1.698   1.007
10200SOL    HW231500   4.768   1.660   1.038
10201SOL     OW31501   1.346   4.334   1.158
10201SOL    HW131502   1.314   4.253   1.205
10201SOL    HW231503   1.314   4.416   1.206
10202SOL     OW31504   4.119   2.899   6.795
10202SOL    HW131505   4.202   2.912   6.849
10202SOL    HW231506   4.123   2.812   6.747
10203SOL     OW31507   6.321   2.935   3.891
10203SOL    HW131508   6.230   2.923   3.931
10203SOL    HW231509   6.315   2.924   3.792
10204SOL     OW31510   5.569   6.823   6.596
10204SOL    HW131511   5.485   6.770   6.610
10204SOL    HW231512   5.551   6.919   6.617
10205SOL     OW31513   1.319   1.222   0.741
10205SOL    HW131514   1.256   1.170   0.798
10205SOL    HW231515   1.276   1.308   0.713
10206SOL     OW31516   0.312   0.888   6.306
10206SOL    HW131517   0.259   0.810   6.339
10206SOL    HW231518   0.259   0.972   6.317
10207SOL     OW31519   1.075   1.602   6.557
10207SOL    HW131520   1.079   1.507   6.526
10207SOL    HW231521   0.981   1.635   6.550
10208SOL     OW31522   5.890   4.879   4.103
10208SOL    HW131523   5.920   4.786   4.123
10208SOL    HW231524   5.937   4.943   4.164
10209SOL     OW31525   6.442   6.913   5.950
10209SOL    HW131526   6.531   6.909   5.905
10209SOL    HW231527   6.375   6.954   5.888
10210SOL     OW31528   5.064   6.634   1.461
10210SOL    HW131529   4.988   6.606   1.403
10210SOL    HW231530   5.028   6.667   1.549
10211SOL     OW31531   3.792   6.609   4.125
10211SOL    HW131532   3.801   6.650   4.034
10211SOL    HW231533   3.776   6.511   4.116
10212SOL     OW31534   0.794   0.308   5.404
10212SOL    HW131535   0.741   0.390   5.383
10212SOL    HW231536   0.848   0.281   5.324
10213SOL     OW31537   4.206   2.993   1.305
10213SOL    HW131538   4.199   3.093   1.299
10213SOL    HW231539   4.153   2.960   1.383
10214SOL     OW31540   0.802   2.025   1.498
10214SOL    HW131541   0.822   2.091   1.570
10214SOL    HW231542   0.733   2.062   1.436
10215SOL     OW31543   3.937   3.190   3.390
10215SOL    HW131544   3.991   3.201   3.307
10215SOL    HW231545   3.840   3.192   3.368
10216SOL     OW31546   6.574   0.645   0.896
10216SOL    HW131547   6.487   0.644   0.847
10216SOL    HW231548   6.633   0.717   0.857
10217SOL     OW31549   2.826   1.309   3.351
10217SOL    HW131550   2.763   1.379   3.316
10217SOL    HW231551   2.805   1.221   3.310
10218SOL     OW31552   1.317   2.930   2.087
10218SOL    HW131553   1.391   2.989   2.119
10218SOL    HW231554   1.244   2.929   2.156
10219SOL     OW31555   0.359   1.553   2.657
10219SOL    HW131556   0.339   1.456   2.643
10219SOL    HW231557   0.411   1.565   2.741
10220SOL     OW31558   3.794   2.642   1.200
10220SOL    HW131559   3.757   2.734   1.192
10220SOL    HW231560   3.778   2.592   1.115
10221SOL     OW31561   0.896   5.847   3.108
10221SOL    HW131562   0.932   5.779   3.045
10221SOL    HW231563   0.914   5.939   3.072
10222SOL     OW31564   2.984   3.269   5.244
10222SOL    HW131565   2.895   3.226   5.260
10222SOL    HW231566   2.985   3.312   5.154
10223SOL     OW31567   0.680   4.541   1.269
10223SOL    HW131568   0.724   4.615   1.321
10223SOL    HW231569   0.717   4.453   1.300
10224SOL     OW31570   6.645   2.929   4.122
10224SOL    HW131571   6.589   3.004   4.086
10224SOL    HW231572   6.601   2.842   4.104
10225SOL     OW31573   2.105   4.758   5.562
10225SOL    HW131574   2.124   4.712   5.475
10225SOL    HW231575   2.114   4.857   5.550
10226SOL     OW31576   3.237   0.855   6.759
10226SOL    HW131577   3.141   0.871   6.779
10226SOL    HW231578   3.293   0.887   6.836
10227SOL     OW31579   4.648   4.285   0.213
10227SOL    HW131580   4.617   4.222   0.143
10227SOL    HW231581   4.728   4.247   0.260
10228SOL     OW31582   6.842   7.025   0.815
10228SOL    HW131583   6.819   0.078   0.870
10228SOL    HW231584   6.847   6.944   0.873
10229SOL     OW31585   1.114   2.414   4.957
10229SOL    HW131586   1.199   2.361   4.958
10229SOL    HW231587   1.128   2.502   5.003
10230SOL     OW31588   6.021   5.650   2.913
10230SOL    HW131589   6.085   5.605   2.976
10230SOL    HW231590   6.007   5.592   2.832
10231SOL     OW31591   1.507   5.882   4.979
10231SOL    HW131592   1.553   5.794   4.996
10231SOL    HW231593   1.555   5.954   5.028
10232SOL     OW31594   2.597   0.952   3.087
10232SOL    HW131595   2.606   0.864   3.041
10232SOL    HW231596   2.540   1.013   3.033
10233SOL     OW31597   3.990   4.027   5.313
10233SOL    HW131598   3.957   3.933   5.305
10233SOL    HW231599   3.975   4.075   5.227
10234SOL     OW31600   6.176   6.875   1.114
10234SOL    HW131601   6.118   6.808   1.159
10234SOL    HW231602   6.135   6.901   1.026
10235SOL     OW31603   1.857   1.905   2.156
10235SOL    HW131604   1.850   2.000   2.125
10235SOL    HW231605   1.769   1.876   2.194
10236SOL     OW31606   2.205   6.839   0.188
10236SOL    HW131607   2.302   6.841   0.162
10236SOL    HW231608   2.189   6.762   0.250
10237SOL     OW31609   6.904   3.743   0.192
10237SOL    HW131610   7.002   3.723   0.188
10237SOL    HW231611   6.857   3.670   0.242
10238SOL     OW31612   4.013   4.701   1.672
10238SOL    HW131613   4.019   4.734   1.767
10238SOL    HW231614   4.049   4.608   1.667
10239SOL     OW31615   1.455   2.832   4.692
10239SOL    HW131616   1.444   2.796   4.785
10239SOL    HW231617   1.366   2.833   4.647
10240SOL     OW31618   2.897   5.914   2.480
10240SOL    HW131619   2.920   5.819   2.461
10240SOL    HW231620   2.843   5.919   2.565
10241SOL     OW31621   5.373   1.978   2.200
10241SOL    HW131622   5.360   1.988   2.101
10241SOL    HW231623   5.361   2.066   2.244
10242SOL     OW31624   0.013   1.695   0.425
10242SOL    HW131625   0.018   1.788   0.387
10242SOL    HW231626   6.945   1.665   0.428
10243SOL     OW31627   2.304   4.720   1.564
10243SOL    HW131628   2.339   4.632   1.595
10243SOL    HW231629   2.335   4.792   1.627
10244SOL     OW31630   2.280   4.187   0.507
10244SOL    HW131631   2.204   4.216   0.449
10244SOL    HW231632   2.292   4.088   0.500
10245SOL     OW31633   3.455   4.462   1.470
10245SOL    HW131634   3.378   4.402   1.490
10245SOL    HW231635   3.517   4.417   1.407
10246SOL     OW31636   3.048   3.598   4.562
10246SOL    HW131637   3.036   3.554   4.473
10246SOL    HW231638   3.019   3.693   4.556
10247SOL     OW31639   0.661   4.019   6.161
10247SOL    HW131640   0.734   4.084   6.180
10247SOL    HW231641   0.699   3.938   6.116
10248SOL     OW31642   1.015   0.670   2.556
10248SOL    HW131643   0.974   0.759   2.576
10248SOL    HW231644   0.972   0.631   2.474
10249SOL     OW31645   2.523   4.907   0.004
10249SOL    HW131646   2.567   4.966   0.072
10249SOL    HW231647   2.542   4.811   0.024
10250SOL     OW31648   6.501   3.542   0.657
10250SOL    HW131649   6.452   3.628   0.644
10250SOL    HW231650   6.549   3.545   0.745
10251SOL     OW31651   2.046   1.186   4.299
10251SOL    HW131652   2.013   1.203   4.391
10251SOL    HW231653   2.021   1.263   4.240
10252SOL     OW31654   4.433   3.547   5.975
10252SOL    HW131655   4.333   3.544   5.968
10252SOL    HW231656   4.464   3.474   6.035
10253SOL     OW31657   3.518   6.703   0.781
10253SOL    HW131658   3.527   6.606   0.756
10253SOL    HW231659   3.561   6.718   0.870
10254SOL     OW31660   4.549   1.263   5.570
10254SOL    HW131661   4.532   1.171   5.603
10254SOL    HW231662   4.541   1.328   5.646
10255SOL     OW31663   2.414   6.991   0.920
10255SOL    HW131664   2.513   6.978   0.929
10255SOL    HW231665   2.371   6.985   1.010
10256SOL     OW31666   4.540   0.886   2.099
10256SOL    HW131667   4.635   0.918   2.098
10256SOL    HW231668   4.528   0.813   2.031
10257SOL     OW31669   2.153   4.503   3.868
10257SOL    HW131670   2.218   4.500   3.792
10257SOL    HW231671   2.128   4.598   3.886
10258SOL     OW31672   3.768   1.977   3.485
10258SOL    HW131673   3.702   2.009   3.417
10258SOL    HW231674   3.740   1.888   3.520
10259SOL     OW31675   0.734   3.937   3.547
10259SOL    HW131676   0.773   4.009   3.604
10259SOL    HW231677   0.693   3.867   3.604
10260SOL     OW31678   0.942   1.215   3.498
10260SOL    HW131679   1.039   1.205   3.477
10260SOL    HW231680   0.900   1.277   3.432
10261SOL     OW31681   7.006   4.786   0.610
10261SOL    HW131682   6.982   4.721   0.682
10261SOL    HW231683   6.924   4.836   0.581
10262SOL     OW31684   3.455   6.901   6.358
10262SOL    HW131685   3.514   6.940   6.288
10262SOL    HW231686   3.379   6.853   6.314
10263SOL     OW31687   5.969   0.653   0.425
10263SOL    HW131688   6.039   0.582   0.431
10263SOL    HW231689   5.930   0.655   0.333
10264SOL     OW31690   5.788   5.461   6.305
10264SOL    HW131691   5.760   5.528   6.373
10264SOL    HW231692   5.725   5.464   6.227
10265SOL     OW31693   3.018   2.686   0.166
10265SOL    HW131694   2.945   2.668   0.232
10265SOL    HW231695   3.101   2.714   0.215
10266SOL     OW31696   3.377   2.884   2.852
10266SOL    HW131697   3.468   2.885   2.894
10266SOL    HW231698   3.308   2.900   2.923
10267SOL     OW31699   5.391   1.448   0.977
10267SOL    HW131700   5.338   1.399   0.908
10267SOL    HW231701   5.474   1.484   0.936
10268SOL     OW31702   5.705   6.340   2.188
10268SOL    HW131703   5.702   6.393   2.103
10268SOL    HW231704   5.737   6.399   2.263
10269SOL     OW31705   1.132   2.617   6.405
10269SOL    HW131706   1.142   2.710   6.370
10269SOL    HW231707   1.130   2.620   6.505
10270SOL     OW31708   3.321   5.830   2.643
10270SOL    HW131709   3.275   5.768   2.579
10270SOL    HW231710   3.280   5.921   2.638
10271SOL     OW31711   2.734   3.171   0.126
10271SOL    HW131712   2.660   3.113   0.159
10271SOL    HW231713   2.802   3.115   0.077
10272SOL     OW31714   1.061   0.584   4.014
10272SOL    HW131715   0.986   0.650   4.004
10272SOL    HW231716   1.148   0.633   4.020
10273SOL     OW31717   2.876   4.796   4.231
10273SOL    HW131718   2.868   4.770   4.327
10273SOL    HW231719   2.847   4.892   4.221
10274SOL     OW31720   0.575   4.400   6.099
10274SOL    HW131721   0.590   4.343   6.018
10274SOL    HW231722   0.477   4.402   6.121
10275SOL     OW31723   0.136   0.671   2.010
10275SOL    HW131724   0.218   0.687   1.955
10275SOL    HW231725   0.137   0.579   2.048
10276SOL     OW31726   4.437   5.938   5.713
10276SOL    HW131727   4.378   5.867   5.674
10276SOL    HW231728   4.386   5.991   5.781
10277SOL     OW31729   1.271   6.975   4.634
10277SOL    HW131730   1.339   6.934   4.695
10277SOL    HW231731   1.302   0.039   4.606
10278SOL     OW31732   0.841   0.775   4.032
10278SOL    HW131733   0.854   0.863   4.077
10278SOL    HW231734   0.815   0.706   4.100
10279SOL     OW31735   2.711   5.362   4.300
10279SOL    HW131736   2.684   5.267   4.283
10279SOL    HW231737   2.722   5.409   4.212
10280SOL     OW31738   5.207   3.848   0.020
10280SOL    HW131739   5.212   3.750   0.004
10280SOL    HW231740   5.298   3.884   0.038
10281SOL     OW31741   0.027   2.349   3.224
10281SOL    HW131742   0.019   2.313   3.131
10281SOL    HW231743   6.963   2.352   3.267
10282SOL     OW31744   5.577   3.453   3.556
10282SOL    HW131745   5.504   3.388   3.535
10282SOL    HW231746   5.577   3.526   3.488
10283SOL     OW31747   1.153   2.890   0.836
10283SOL    HW131748   1.200   2.804   0.820
10283SOL    HW231749   1.067   2.873   0.886
10284SOL     OW31750   6.069   2.280   3.918
10284SOL    HW131751   6.059   2.363   3.972
10284SOL    HW231752   6.158   2.238   3.938
10285SOL     OW31753   3.906   6.401   3.090
10285SOL    HW131754   3.987   6.448   3.055
10285SOL    HW231755   3.837   6.468   3.116
10286SOL     OW31756   3.013   0.659   3.686
10286SOL    HW131757   2.990   0.565   3.661
10286SOL    HW231758   3.110   0.676   3.668
10287SOL     OW31759   1.741   5.820   2.045
10287SOL    HW131760   1.714   5.830   2.141
10287SOL    HW231761   1.660   5.804   1.989
10288SOL     OW31762   3.879   0.063   4.228
10288SOL    HW131763   3.827   7.004   4.227
10288SOL    HW231764   3.852   0.117   4.308
10289SOL     OW31765   2.423   5.864   0.839
10289SOL    HW131766   2.428   5.919   0.756
10289SOL    HW231767   2.479   5.906   0.911
10290SOL     OW31768   3.085   3.060   2.923
10290SOL    HW131769   3.027   2.981   2.905
10290SOL    HW231770   3.124   3.093   2.837
10291SOL     OW31771   3.507   1.521   3.018
10291SOL    HW131772   3.586   1.572   3.051
10291SOL    HW231773   3.481   1.451   3.085
10292SOL     OW31774   0.601   1.301   5.933
10292SOL    HW131775   0.643   1.364   5.868
10292SOL    HW231776   0.636   1.320   6.025
10293SOL     OW31777   0.662   3.228   3.641
10293SOL    HW131778   0.594   3.186   3.701
10293SOL    HW231779   0.665   3.327   3.658
10294SOL     OW31780   4.378   1.641   2.866
10294SOL    HW131781   4.281   1.658   2.884
10294SOL    HW231782   4.401   1.677   2.775
10295SOL     OW31783   1.137   2.821   5.317
10295SOL    HW131784   1.058   2.824   5.378
10295SOL    HW231785   1.173   2.913   5.305
10296SOL     OW31786   5.901   1.563   6.100
10296SOL    HW131787   5.910   1.486   6.162
10296SOL    HW231788   5.964   1.636   6.128
10297SOL     OW31789   2.334   1.405   0.053
10297SOL    HW131790   2.328   1.305   0.049
10297SOL    HW231791   2.260   1.440   0.111
10298SOL     OW31792   1.351   4.615   1.889
10298SOL    HW131793   1.413   4.652   1.820
10298SOL    HW231794   1.352   4.673   1.970
10299SOL     OW31795   3.933   5.678   2.435
10299SOL    HW131796   3.879   5.756   2.403
10299SOL    HW231797   4.025   5.683   2.397
10300SOL     OW31798   1.899   4.324   1.932
10300SOL    HW131799   1.828   4.358   1.993
10300SOL    HW231800   1.988   4.329   1.978
10301SOL     OW31801   4.859   1.717   5.239
10301SOL    HW131802   4.795   1.742   5.311
10301SOL    HW231803   4.944   1.770   5.251
10302SOL     OW31804   2.284   5.935   4.180
10302SOL    HW131805   2.214   5.970   4.117
10302SOL    HW231806   2.319   6.010   4.237
10303SOL     OW31807   1.079   5.349   3.597
10303SOL    HW131808   1.002   5.316   3.543
10303SOL    HW231809   1.050   5.364   3.692
10304SOL     OW31810   5.964   0.253   0.783
10304SOL    HW131811   6.010   0.227   0.868
10304SOL    HW231812   5.871   0.216   0.784
10305SOL     OW31813   2.774   4.146   5.599
10305SOL    HW131814   2.691   4.201   5.592
10305SOL    HW231815   2.750   4.049   5.602
10306SOL     OW31816   5.556   5.914   0.352
10306SOL    HW131817   5.622   5.865   0.295
10306SOL    HW231818   5.499   5.847   0.400
10307SOL     OW31819   2.996   1.477   4.802
10307SOL    HW131820   2.964   1.405   4.740
10307SOL    HW231821   3.094   1.490   4.789
10308SOL     OW31822   2.329   4.230   2.157
10308SOL    HW131823   2.378   4.291   2.219
10308SOL    HW231824   2.273   4.167   2.209
10309SOL     OW31825   6.737   1.485   6.604
10309SOL    HW131826   6.791   1.441   6.532
10309SOL    HW231827   6.789   1.482   6.690
10310SOL     OW31828   3.159   3.625   0.327
10310SOL    HW131829   3.096   3.573   0.269
10310SOL    HW231830   3.117   3.641   0.416
10311SOL     OW31831   6.388   5.858   0.293
10311SOL    HW131832   6.457   5.904   0.236
10311SOL    HW231833   6.347   5.783   0.241
10312SOL     OW31834   5.052   6.892   2.528
10312SOL    HW131835   5.044   6.893   2.428
10312SOL    HW231836   4.961   6.887   2.569
10313SOL     OW31837   3.795   5.869   2.083
10313SOL    HW131838   3.707   5.859   2.036
10313SOL    HW231839   3.780   5.864   2.182
10314SOL     OW31840   6.692   0.310   0.280
10314SOL    HW131841   6.610   0.364   0.301
10314SOL    HW231842   6.693   0.288   0.183
10315SOL     OW31843   6.005   6.142   4.082
10315SOL    HW131844   5.931   6.119   4.145
10315SOL    HW231845   5.969   6.194   4.005
10316SOL     OW31846   6.717   2.457   6.120
10316SOL    HW131847   6.704   2.421   6.213
10316SOL    HW231848   6.773   2.539   6.124
10317SOL     OW31849   3.896   6.421   6.338
10317SOL    HW131850   3.875   6.487   6.266
10317SOL    HW231851   3.870   6.458   6.426
10318SOL     OW31852   4.719   1.153   6.549
10318SOL    HW131853   4.736   1.081   6.616
10318SOL    HW231854   4.774   1.234   6.572
10319SOL     OW31855   0.939   3.757   5.627
10319SOL    HW131856   0.848   3.723   5.653
10319SOL    HW231857   0.930   3.847   5.584
10320SOL     OW31858   0.652   6.271   2.726
10320SOL    HW131859   0.615   6.276   2.633
10320SOL    HW231860   0.578   6.280   2.792
10321SOL     OW31861   5.892   1.749   1.933
10321SOL    HW131862   5.947   1.700   2.001
10321SOL    HW231863   5.810   1.696   1.911
10322SOL     OW31864   4.403   4.773   4.441
10322SOL    HW131865   4.427   4.733   4.530
10322SOL    HW231866   4.376   4.869   4.454
10323SOL     OW31867   6.062   4.890   5.109
10323SOL    HW131868   6.005   4.927   5.182
10323SOL    HW231869   6.156   4.879   5.143
10324SOL     OW31870   3.517   3.102   2.689
10324SOL    HW131871   3.599   3.094   2.746
10324SOL    HW231872   3.447   3.040   2.722
10325SOL     OW31873   6.781   4.861   2.234
10325SOL    HW131874   6.751   4.889   2.325
10325SOL    HW231875   6.714   4.798   2.195
10326SOL     OW31876   6.010   3.881   6.452
10326SOL    HW131877   5.961   3.968   6.450
10326SOL    HW231878   6.102   3.893   6.415
10327SOL     OW31879   2.511   3.023   1.417
10327SOL    HW131880   2.519   3.006   1.319
10327SOL    HW231881   2.598   3.058   1.452
10328SOL     OW31882   6.195   3.014   0.946
10328SOL    HW131883   6.288   3.019   0.908
10328SOL    HW231884   6.198   3.026   1.045
10329SOL     OW31885   2.521   1.201   2.983
10329SOL    HW131886   2.565   1.289   2.965
10329SOL    HW231887   2.513   1.149   2.898
10330SOL     OW31888   3.973   0.984   1.927
10330SOL    HW131889   4.048   1.048   1.911
10330SOL    HW231890   4.003   0.914   1.993
10331SOL     OW31891   6.794   6.146   6.283
10331SOL    HW131892   6.854   6.071   6.256
10331SOL    HW231893   6.722   6.157   6.214
10332SOL     OW31894   6.792   6.972   0.230
10332SOL    HW131895   6.834   6.928   0.309
10332SOL    HW231896   6.808   6.917   0.149
10333SOL     OW31897   0.572   5.349   5.037
10333SOL    HW131898   0.543   5.318   4.947
10333SOL    HW231899   0.531   5.437   5.057
10334SOL     OW31900   3.390   0.813   4.400
10334SOL    HW131901   3.338   0.871   4.338
10334SOL    HW231902   3.448   0.750   4.348
10335SOL     OW31903   1.724   3.818   6.948
10335SOL    HW131904   1.646   3.852   6.897
10335SOL    HW231905   1.770   3.894   6.994
10336SOL     OW31906   6.200   0.107   1.844
10336SOL    HW131907   6.156   0.057   1.919
10336SOL    HW231908   6.285   0.147   1.877
10337SOL     OW31909   0.443   5.715   6.663
10337SOL    HW131910   0.537   5.703   6.694
10337SOL    HW231911   0.444   5.749   6.569
10338SOL     OW31912   1.689   6.109   2.303
10338SOL    HW131913   1.682   6.208   2.310
10338SOL    HW231914   1.753   6.085   2.229
10339SOL     OW31915   5.518   3.612   6.044
10339SOL    HW131916   5.555   3.565   6.125
10339SOL    HW231917   5.515   3.710   6.061
10340SOL     OW31918   1.421   3.176   6.991
10340SOL    HW131919   1.403   3.091   6.941
10340SOL    HW231920   1.456   3.246   6.929
10341SOL     OW31921   2.088   3.640   2.161
10341SOL    HW131922   2.116   3.609   2.070
10341SOL    HW231923   2.110   3.570   2.229
10342SOL     OW31924   1.938   0.559   4.193
10342SOL    HW131925   1.944   0.509   4.107
10342SOL    HW231926   1.858   0.620   4.191
10343SOL     OW31927   3.223   5.100   6.833
10343SOL    HW131928   3.237   5.049   6.748
10343SOL    HW231929   3.311   5.109   6.881
10344SOL     OW31930   4.200   3.589   0.250
10344SOL    HW131931   4.112   3.586   0.297
10344SOL    HW231932   4.186   3.606   0.153
10345SOL     OW31933   1.976   2.437   5.880
10345SOL    HW131934   1.946   2.527   5.848
10345SOL    HW231935   2.045   2.400   5.817
10346SOL     OW31936   0.032   5.531   1.460
10346SOL    HW131937   0.052   5.606   1.396
10346SOL    HW231938   6.964   5.538   1.491
10347SOL     OW31939   4.433   1.057   3.156
10347SOL    HW131940   4.409   1.149   3.123
10347SOL    HW231941   4.528   1.057   3.185
10348SOL     OW31942   6.291   2.505   0.501
10348SOL    HW131943   6.326   2.599   0.502
10348SOL    HW231944   6.246   2.485   0.588
10349SOL     OW31945   1.110   0.669   6.662
10349SOL    HW131946   1.034   0.700   6.719
10349SOL    HW231947   1.178   0.623   6.719
10350SOL     OW31948   3.093   5.467   5.269
10350SOL    HW131949   3.146   5.427   5.344
10350SOL    HW231950   3.143   5.458   5.183
10351SOL     OW31951   4.530   5.267   6.878
10351SOL    HW131952   4.446   5.233   6.835
10351SOL    HW231953   4.507   5.311   6.965
10352SOL     OW31954   3.314   0.865   6.512
10352SOL    HW131955   3.308   0.766   6.503
10352SOL    HW231956   3.317   0.890   6.609
10353SOL     OW31957   6.943   3.003   4.991
10353SOL    HW131958   0.003   3.012   4.940
10353SOL    HW231959   6.889   2.929   4.951
10354SOL     OW31960   5.907   1.768   2.283
10354SOL    HW131961   5.996   1.736   2.317
10354SOL    HW231962   5.836   1.746   2.350
10355SOL     OW31963   2.579   6.724   1.566
10355SOL    HW131964   2.561   6.628   1.541
10355SOL    HW231965   2.547   6.740   1.659
10356SOL     OW31966   0.299   4.936   5.826
10356SOL    HW131967   0.227   5.006   5.826
10356SOL    HW231968   0.360   4.951   5.904
10357SOL     OW31969   1.756   2.986   6.424
10357SOL    HW131970   1.739   2.941   6.512
10357SOL    HW231971   1.738   2.922   6.350
10358SOL     OW31972   0.423   2.686   3.257
10358SOL    HW131973   0.421   2.739   3.172
10358SOL    HW231974   0.453   2.744   3.332
10359SOL     OW31975   1.133   1.431   0.793
10359SOL    HW131976   1.105   1.430   0.889
10359SOL    HW231977   1.135   1.525   0.760
10360SOL     OW31978   5.075   5.230   3.377
10360SOL    HW131979   5.018   5.151   3.397
10360SOL    HW231980   5.037   5.280   3.298
10361SOL     OW31981   2.608   6.487   2.595
10361SOL    HW131982   2.587   6.476   2.692
10361SOL    HW231983   2.608   6.584   2.572
10362SOL     OW31984   1.705   4.839   4.718
10362SOL    HW131985   1.756   4.816   4.635
10362SOL    HW231986   1.694   4.938   4.725
10363SOL     OW31987   5.237   0.853   2.766
10363SOL    HW131988   5.181   0.922   2.721
10363SOL    HW231989   5.180   0.778   2.798
10364SOL     OW31990   3.116   3.615   1.704
10364SOL    HW131991   3.073   3.608   1.795
10364SOL    HW231992   3.075   3.690   1.654
10365SOL     OW31993   3.717   5.521   0.420
10365SOL    HW131994   3.676   5.433   0.441
10365SOL    HW231995   3.804   5.530   0.469
10366SOL     OW31996   2.408   0.275   4.036
10366SOL    HW131997   2.422   0.188   3.989
10366SOL    HW231998   2.494   0.304   4.079
10367SOL     OW31999   5.539   2.394   2.442
10367SOL    HW132000   5.538   2.473   2.380
10367SOL    HW232001   5.607   2.328   2.410
10368SOL     OW32002   2.467   0.946   1.004
10368SOL    HW132003   2.506   0.871   0.952
10368SOL    HW232004   2.403   0.997   0.946
10369SOL     OW32005   4.052   1.153   6.650
10369SOL    HW132006   4.025   1.196   6.564
10369SOL    HW232007   3.987   1.178   6.722
10370SOL     OW32008   4.731   1.207   4.922
10370SOL    HW132009   4.679   1.126   4.892
10370SOL    HW232010   4.780   1.245   4.844
10371SOL     OW32011   3.719   5.830   5.334
10371SOL    HW132012   3.642   5.893   5.321
10371SOL    HW232013   3.723   5.801   5.430
10372SOL     OW32014   2.159   0.814   5.505
10372SOL    HW132015   2.232   0.857   5.558
10372SOL    HW232016   2.140   0.870   5.424
10373SOL     OW32017   1.954   6.489   4.970
10373SOL    HW132018   2.032   6.436   5.004
10373SOL    HW232019   1.908   6.533   5.047
10374SOL     OW32020   3.005   1.658   3.237
10374SOL    HW132021   3.071   1.595   3.198
10374SOL    HW232022   2.994   1.639   3.335
10375SOL     OW32023   4.767   2.117   6.900
10375SOL    HW132024   4.746   2.019   6.900
10375SOL    HW232025   4.860   2.131   6.867
10376SOL     OW32026   1.065   6.799   3.816
10376SOL    HW132027   1.032   6.793   3.911
10376SOL    HW232028   1.102   6.711   3.788
10377SOL     OW32029   6.854   0.916   3.552
10377SOL    HW132030   6.946   0.950   3.571
10377SOL    HW232031   6.847   0.820   3.581
10378SOL     OW32032   6.981   0.877   6.299
10378SOL    HW132033   6.966   0.823   6.382
10378SOL    HW232034   7.002   0.971   6.323
10379SOL     OW32035   4.913   0.229   5.168
10379SOL    HW132036   4.841   0.160   5.182
10379SOL    HW232037   4.908   0.298   5.240
10380SOL     OW32038   5.545   0.746   2.794
10380SOL    HW132039   5.584   0.836   2.812
10380SOL    HW232040   5.471   0.728   2.857
10381SOL     OW32041   4.868   5.641   5.787
10381SOL    HW132042   4.888   5.575   5.859
10381SOL    HW232043   4.777   5.680   5.801
10382SOL     OW32044   2.730   5.016   6.063
10382SOL    HW132045   2.727   5.042   5.967
10382SOL    HW232046   2.678   4.931   6.076
10383SOL     OW32047   0.819   3.610   1.006
10383SOL    HW132048   0.853   3.696   0.967
10383SOL    HW232049   0.783   3.627   1.098
10384SOL     OW32050   0.079   0.125   0.954
10384SOL    HW132051   0.140   0.047   0.970
10384SOL    HW232052   0.088   0.155   0.859
10385SOL     OW32053   5.568   6.901   6.332
10385SOL    HW132054   5.581   6.858   6.422
10385SOL    HW232055   5.525   6.991   6.345
10386SOL     OW32056   6.615   3.748   5.173
10386SOL    HW132057   6.585   3.658   5.205
10386SOL    HW232058   6.643   3.803   5.252
10387SOL     OW32059   3.067   2.111   2.783
10387SOL    HW132060   3.056   2.105   2.684
10387SOL    HW232061   2.982   2.081   2.828
10388SOL     OW32062   1.472   5.455   4.090
10388SOL    HW132063   1.473   5.522   4.017
10388SOL    HW232064   1.516   5.370   4.059
10389SOL     OW32065   0.355   5.154   2.996
10389SOL    HW132066   0.425   5.124   2.931
10389SOL    HW232067   0.385   5.132   3.089
10390SOL     OW32068   1.537   4.127   2.763
10390SOL    HW132069   1.461   4.177   2.719
10390SOL    HW232070   1.543   4.036   2.724
10391SOL     OW32071   1.493   6.016   6.637
10391SOL    HW132072   1.520   5.983   6.546
10391SOL    HW232073   1.429   6.092   6.627
10392SOL     OW32074   6.139   4.186   0.546
10392SOL    HW132075   6.065   4.248   0.571
10392SOL    HW232076   6.215   4.238   0.506
10393SOL     OW32077   0.859   1.380   4.182
10393SOL    HW132078   0.792   1.430   4.128
10393SOL    HW232079   0.822   1.362   4.273
10394SOL     OW32080   1.741   6.868   6.880
10394SOL    HW132081   1.684   6.799   6.925
10394SOL    HW232082   1.685   6.948   6.858
10395SOL     OW32083   6.946   0.793   3.847
10395SOL    HW132084   6.867   0.794   3.909
10395SOL    HW232085   6.919   0.750   3.760
10396SOL     OW32086   1.051   0.572   3.138
10396SOL    HW132087   1.111   0.549   3.214
10396SOL    HW232088   1.039   0.493   3.078
10397SOL     OW32089   3.976   0.378   3.135
10397SOL    HW132090   3.911   0.453   3.119
10397SOL    HW232091   4.018   0.352   3.048
10398SOL     OW32092   6.495   3.064   1.100
10398SOL    HW132093   6.490   2.969   1.069
10398SOL    HW232094   6.591   3.091   1.109
10399SOL     OW32095   4.610   2.164   5.522
10399SOL    HW132096   4.568   2.253   5.503
10399SOL    HW232097   4.688   2.151   5.461
10400SOL     OW32098   2.605   5.595   3.014
10400SOL    HW132099   2.599   5.572   3.111
10400SOL    HW232100   2.700   5.592   2.985
10401SOL     OW32101   6.765   5.687   2.469
10401SOL    HW132102   6.855   5.692   2.511
10401SOL    HW232103   6.753   5.763   2.406
10402SOL     OW32104   0.525   3.003   5.163
10402SOL    HW132105   0.484   3.068   5.228
10402SOL    HW232106   0.463   2.925   5.151
10403SOL     OW32107   5.138   1.615   2.409
10403SOL    HW132108   5.063   1.550   2.419
10403SOL    HW232109   5.198   1.611   2.489
10404SOL     OW32110   0.930   6.815   4.137
10404SOL    HW132111   0.878   6.900   4.143
10404SOL    HW232112   0.886   6.744   4.192
10405SOL     OW32113   1.421   5.948   5.667
10405SOL    HW132114   1.414   6.022   5.734
10405SOL    HW232115   1.415   5.986   5.575
10406SOL     OW32116   1.784   4.909   5.873
10406SOL    HW132117   1.778   4.814   5.841
10406SOL    HW232118   1.795   4.909   5.973
10407SOL     OW32119   1.333   1.444   5.753
10407SOL    HW132120   1.415   1.407   5.798
10407SOL    HW232121   1.264   1.372   5.745
10408SOL     OW32122   4.461   5.019   3.368
10408SOL    HW132123   4.455   5.073   3.452
10408SOL    HW232124   4.388   5.047   3.306
10409SOL     OW32125   0.212   3.468   1.887
10409SOL    HW132126   0.125   3.454   1.840
10409SOL    HW232127   0.226   3.565   1.905
10410SOL     OW32128   4.324   0.950   0.978
10410SOL    HW132129   4.320   1.040   0.935
10410SOL    HW232130   4.239   0.933   1.029
10411SOL     OW32131   2.093   4.578   3.321
10411SOL    HW132132   2.077   4.514   3.245
10411SOL    HW232133   2.036   4.659   3.309
10412SOL     OW32134   0.764   2.598   0.030
10412SOL    HW132135   0.741   2.619   0.126
10412SOL    HW232136   0.750   2.501   0.013
10413SOL     OW32137   0.179   1.848   6.975
10413SOL    HW132138   0.117   1.787   6.925
10413SOL    HW232139   0.223   1.797   0.022
10414SOL     OW32140   5.157   6.519   6.693
10414SOL    HW132141   5.127   6.496   6.786
10414SOL    HW232142   5.095   6.478   6.626
10415SOL     OW32143   0.465   5.637   3.620
10415SOL    HW132144   0.473   5.696   3.700
10415SOL    HW232145   0.549   5.642   3.566
10416SOL     OW32146   6.506   2.370   5.089
10416SOL    HW132147   6.511   2.315   5.006
10416SOL    HW232148   6.428   2.432   5.083
10417SOL     OW32149   4.221   5.072   2.820
10417SOL    HW132150   4.168   4.988   2.808
10417SOL    HW232151   4.299   5.055   2.881
10418SOL     OW32152   6.814   3.945   6.087
10418SOL    HW132153   6.829   3.979   5.994
10418SOL    HW232154   6.881   3.874   6.108
10419SOL     OW32155   3.388   0.905   5.147
10419SOL    HW132156   3.318   0.972   5.168
10419SOL    HW232157   3.364   0.817   5.188
10420SOL     OW32158   6.427   3.219   3.073
10420SOL    HW132159   6.411   3.309   3.032
10420SOL    HW232160   6.376   3.211   3.158
10421SOL     OW32161   0.917   4.429   3.543
10421SOL    HW132162   0.921   4.446   3.641
10421SOL    HW232163   1.006   4.448   3.501
10422SOL     OW32164   7.018   3.740   4.398
10422SOL    HW132165   6.979   3.693   4.478
10422SOL    HW232166   6.946   3.754   4.330
10423SOL     OW32167   3.293   4.920   3.915
10423SOL    HW132168   3.210   4.938   3.968
10423SOL    HW232169   3.269   4.907   3.818
10424SOL     OW32170   3.710   0.666   6.280
10424SOL    HW132171   3.809   0.670   6.267
10424SOL    HW232172   3.678   0.572   6.268
10425SOL     OW32173   2.184   0.682   0.786
10425SOL    HW132174   2.252   0.635   0.731
10425SOL    HW232175   2.179   0.639   0.876
10426SOL     OW32176   5.681   2.680   5.744
10426SOL    HW132177   5.622   2.632   5.679
10426SOL    HW232178   5.674   2.779   5.729
10427SOL     OW32179   5.019   5.961   4.900
10427SOL    HW132180   5.050   5.936   4.809
10427SOL    HW232181   5.098   5.968   4.962
10428SOL     OW32182   1.702   1.366   3.297
10428SOL    HW132183   1.691   1.344   3.394
10428SOL    HW232184   1.641   1.308   3.243
10429SOL     OW32185   0.973   3.638   2.677
10429SOL    HW132186   1.052   3.654   2.618
10429SOL    HW232187   0.992   3.560   2.737
10430SOL     OW32188   3.665   7.026   3.608
10430SOL    HW132189   3.750   0.050   3.619
10430SOL    HW232190   3.600   0.052   3.553
10431SOL     OW32191   3.232   2.118   3.867
10431SOL    HW132192   3.222   2.194   3.803
10431SOL    HW232193   3.215   2.032   3.820
10432SOL     OW32194   6.843   6.566   5.850
10432SOL    HW132195   6.883   6.514   5.926
10432SOL    HW232196   6.863   6.663   5.863
10433SOL     OW32197   2.015   6.680   1.960
10433SOL    HW132198   2.034   6.695   1.863
10433SOL    HW232199   1.946   6.608   1.970
10434SOL     OW32200   4.961   6.442   5.794
10434SOL    HW132201   4.941   6.439   5.892
10434SOL    HW232202   5.049   6.398   5.776
10435SOL     OW32203   0.868   2.216   6.380
10435SOL    HW132204   0.772   2.210   6.409
10435SOL    HW232205   0.913   2.290   6.430
10436SOL     OW32206   0.694   4.259   5.278
10436SOL    HW132207   0.617   4.287   5.220
10436SOL    HW232208   0.728   4.170   5.248
10437SOL     OW32209   5.754   4.787   5.365
10437SOL    HW132210   5.784   4.720   5.298
10437SOL    HW232211   5.812   4.869   5.359
10438SOL     OW32212   6.855   6.378   6.440
10438SOL    HW132213   6.809   6.313   6.380
10438SOL    HW232214   6.902   6.447   6.386
10439SOL     OW32215   0.051   6.900   4.464
10439SOL    HW132216   0.118   6.842   4.510
10439SOL    HW232217   0.064   6.995   4.493
10440SOL     OW32218   0.077   1.740   6.542
10440SOL    HW132219   0.155   1.702   6.491
10440SOL    HW232220   7.023   1.742   6.483
10441SOL     OW32221   3.696   2.125   0.766
10441SOL    HW132222   3.730   2.039   0.728
10441SOL    HW232223   3.717   2.128   0.864
10442SOL     OW32224   2.710   1.411   5.522
10442SOL    HW132225   2.705   1.312   5.507
10442SOL    HW232226   2.792   1.433   5.576
10443SOL     OW32227   6.885   0.811   3.011
10443SOL    HW132228   6.911   0.870   2.934
10443SOL    HW232229   6.888   0.863   3.096
10444SOL     OW32230   3.689   5.872   4.344
10444SOL    HW132231   3.694   5.778   4.311
10444SOL    HW232232   3.674   5.871   4.443
10445SOL     OW32233   1.773   4.239   2.524
10445SOL    HW132234   1.848   4.235   2.458
10445SOL    HW232235   1.773   4.156   2.579
10446SOL     OW32236   1.835   4.099   5.012
10446SOL    HW132237   1.921   4.060   5.046
10446SOL    HW232238   1.827   4.194   5.041
10447SOL     OW32239   0.136   1.582   2.841
10447SOL    HW132240   0.189   1.578   2.756
10447SOL    HW232241   0.194   1.618   2.914
10448SOL     OW32242   2.262   6.323   2.829
10448SOL    HW132243   2.195   6.362   2.766
10448SOL    HW232244   2.231   6.336   2.923
10449SOL     OW32245   3.342   6.040   6.586
10449SOL    HW132246   3.411   6.095   6.540
10449SOL    HW232247   3.351   5.944   6.558
10450SOL     OW32248   6.742   0.230   6.208
10450SOL    HW132249   6.661   0.282   6.179
10450SOL    HW232250   6.749   0.147   6.153
10451SOL     OW32251   1.912   0.848   3.946
10451SOL    HW132252   1.913   0.918   3.874
10451SOL    HW232253   1.990   0.787   3.935
10452SOL     OW32254   6.932   3.961   4.173
10452SOL    HW132255   7.013   3.944   4.117
10452SOL    HW232256   6.850   3.934   4.122
10453SOL     OW32257   4.472   5.647   3.228
10453SOL    HW132258   4.379   5.626   3.199
10453SOL    HW232259   4.470   5.708   3.307
10454SOL     OW32260   6.615   1.476   5.848
10454SOL    HW132261   6.563   1.513   5.771
10454SOL    HW232262   6.711   1.506   5.841
10455SOL     OW32263   6.165   6.578   4.394
10455SOL    HW132264   6.185   6.675   4.379
10455SOL    HW232265   6.083   6.553   4.342
10456SOL     OW32266   7.006   5.131   0.036
10456SOL    HW132267   6.956   5.184   6.994
10456SOL    HW232268   6.942   5.092   0.102
10457SOL     OW32269   4.075   2.404   0.218
10457SOL    HW132270   4.096   2.499   0.200
10457SOL    HW232271   4.126   2.345   0.155
10458SOL     OW32272   6.376   6.802   6.488
10458SOL    HW132273   6.364   6.727   6.554
10458SOL    HW232274   6.472   6.805   6.459
10459SOL     OW32275   0.172   5.688   0.609
10459SOL    HW132276   0.180   5.590   0.627
10459SOL    HW232277   0.081   5.720   0.635
10460SOL     OW32278   6.962   3.759   0.679
10460SOL    HW132279   0.009   3.826   0.664
10460SOL    HW232280   6.874   3.804   0.665
10461SOL     OW32281   0.466   5.321   4.783
10461SOL    HW132282   0.504   5.346   4.694
10461SOL    HW232283   0.386   5.378   4.803
10462SOL     OW32284   4.219   1.695   1.076
10462SOL    HW132285   4.168   1.775   1.107
10462SOL    HW232286   4.253   1.710   0.984
10463SOL     OW32287   4.683   2.653   6.083
10463SOL    HW132288   4.638   2.742   6.087
10463SOL    HW232289   4.763   2.653   6.143
10464SOL     OW32290   5.819   5.218   2.801
10464SOL    HW132291   5.868   5.211   2.887
10464SOL    HW232292   5.728   5.178   2.811
10465SOL     OW32293   6.039   3.265   1.954
10465SOL    HW132294   6.073   3.177   1.919
10465SOL    HW232295   6.032   3.330   1.879
10466SOL     OW32296   5.573   4.898   6.480
10466SOL    HW132297   5.668   4.925   6.463
10466SOL    HW232298   5.512   4.975   6.459
10467SOL     OW32299   2.021   2.794   6.616
10467SOL    HW132300   2.010   2.882   6.661
10467SOL    HW232301   1.935   2.769   6.571
10468SOL     OW32302   2.571   4.536   3.782
10468SOL    HW132303   2.627   4.576   3.855
10468SOL    HW232304   2.628   4.476   3.725
10469SOL     OW32305   5.905   1.714   5.298
10469SOL    HW132306   5.900   1.714   5.199
10469SOL    HW232307   5.883   1.623   5.333
10470SOL     OW32308   2.286   2.578   4.129
10470SOL    HW132309   2.344   2.507   4.169
10470SOL    HW232310   2.205   2.590   4.186
10471SOL     OW32311   2.610   0.818   0.281
10471SOL    HW132312   2.612   0.902   0.336
10471SOL    HW232313   2.631   0.739   0.339
10472SOL     OW32314   3.803   5.050   0.710
10472SOL    HW132315   3.779   5.144   0.732
10472SOL    HW232316   3.765   5.026   0.621
10473SOL     OW32317   5.290   4.904   6.770
10473SOL    HW132318   5.348   4.971   6.725
10473SOL    HW232319   5.225   4.951   6.831
10474SOL     OW32320   5.232   0.869   3.950
10474SOL    HW132321   5.169   0.891   3.876
10474SOL    HW232322   5.301   0.804   3.918
10475SOL     OW32323   1.638   6.284   1.880
10475SOL    HW132324   1.541   6.288   1.901
10475SOL    HW232325   1.683   6.367   1.914
10476SOL     OW32326   3.782   6.410   0.568
10476SOL    HW132327   3.855   6.342   0.562
10476SOL    HW232328   3.777   6.462   0.483
10477SOL     OW32329   6.628   6.498   4.101
10477SOL    HW132330   6.560   6.436   4.139
10477SOL    HW232331   6.708   6.500   4.161
10478SOL     OW32332   5.848   6.521   0.295
10478SOL    HW132333   5.768   6.565   0.336
10478SOL    HW232334   5.931   6.555   0.340
10479SOL     OW32335   6.981   1.994   2.739
10479SOL    HW132336   6.900   2.046   2.713
10479SOL    HW232337   6.979   1.976   2.837
10480SOL     OW32338   1.221   6.946   2.301
10480SOL    HW132339   1.245   0.013   2.328
10480SOL    HW232340   1.301   6.903   2.258
10481SOL     OW32341   0.813   0.198   3.331
10481SOL    HW132342   0.802   0.278   3.272
10481SOL    HW232343   0.752   0.207   3.410
10482SOL     OW32344   5.723   4.375   4.116
10482SOL    HW132345   5.803   4.364   4.057
10482SOL    HW232346   5.641   4.379   4.059
10483SOL     OW32347   5.837   5.258   0.227
10483SOL    HW132348   5.801   5.330   0.287
10483SOL    HW232349   5.817   5.169   0.267
10484SOL     OW32350   6.149   1.352   1.315
10484SOL    HW132351   6.084   1.279   1.295
10484SOL    HW232352   6.222   1.351   1.247
10485SOL     OW32353   4.475   4.050   5.998
10485SOL    HW132354   4.388   4.035   6.045
10485SOL    HW232355   4.527   3.965   5.997
10486SOL     OW32356   6.396   2.781   0.574
10486SOL    HW132357   6.325   2.851   0.569
10486SOL    HW232358   6.379   2.721   0.652
10487SOL     OW32359   5.759   6.332   1.545
10487SOL    HW132360   5.742   6.253   1.486
10487SOL    HW232361   5.804   6.302   1.629
10488SOL     OW32362   2.558   2.812   6.309
10488SOL    HW132363   2.635   2.834   6.249
10488SOL    HW232364   2.594   2.776   6.396
10489SOL     OW32365   0.520   5.971   6.269
10489SOL    HW132366   0.608   5.974   6.317
10489SOL    HW232367   0.522   6.034   6.192
10490SOL     OW32368   6.569   1.393   3.285
10490SOL    HW132369   6.609   1.330   3.218
10490SOL    HW232370   6.483   1.354   3.319
10491SOL     OW32371   2.132   4.216   6.302
10491SOL    HW132372   2.061   4.240   6.236
10491SOL    HW232373   2.091   4.205   6.392
10492SOL     OW32374   4.866   3.619   5.350
10492SOL    HW132375   4.796   3.605   5.279
10492SOL    HW232376   4.948   3.568   5.326
10493SOL     OW32377   3.612   0.497   1.241
10493SOL    HW132378   3.711   0.488   1.230
10493SOL    HW232379   3.590   0.526   1.334
10494SOL     OW32380   5.618   1.858   4.312
10494SOL    HW132381   5.539   1.897   4.266
10494SOL    HW232382   5.696   1.921   4.303
10495SOL     OW32383   1.746   0.240   0.636
10495SOL    HW132384   1.689   0.243   0.718
10495SOL    HW232385   1.840   0.219   0.661
10496SOL     OW32386   6.719   6.610   0.174
10496SOL    HW132387   6.783   6.630   0.248
10496SOL    HW232388   6.746   6.662   0.092
10497SOL     OW32389   1.285   0.135   0.946
10497SOL    HW132390   1.273   0.230   0.975
10497SOL    HW232391   1.321   0.081   1.022
10498SOL     OW32392   2.410   0.095   6.937
10498SOL    HW132393   2.315   0.119   6.914
10498SOL    HW232394   2.472   0.134   6.868
10499SOL     OW32395   2.699   6.434   3.261
10499SOL    HW132396   2.748   6.493   3.197
10499SOL    HW232397   2.665   6.489   3.337
10500SOL     OW32398   0.455   2.132   5.777
10500SOL    HW132399   0.520   2.144   5.852
10500SOL    HW232400   0.427   2.222   5.743
10501SOL     OW32401   2.304   4.919   2.749
10501SOL    HW132402   2.222   4.924   2.692
10501SOL    HW232403   2.383   4.954   2.697
10502SOL     OW32404   2.866   0.053   0.669
10502SOL    HW132405   2.834   0.080   0.759
10502SOL    HW232406   2.930   0.121   0.634
10503SOL     OW32407   4.123   3.049   0.180
10503SOL    HW132408   4.064   3.128   0.191
10503SOL    HW232409   4.095   2.977   0.244
10504SOL     OW32410   1.697   3.076   0.308
10504SOL    HW132411   1.619   3.111   0.257
10504SOL    HW232412   1.686   3.099   0.405
10505SOL     OW32413   6.099   6.043   0.902
10505SOL    HW132414   6.124   6.045   0.998
10505SOL    HW232415   6.095   6.137   0.867
10506SOL     OW32416   0.067   4.459   6.210
10506SOL    HW132417   0.018   4.373   6.194
10506SOL    HW232418   0.041   4.495   6.300
10507SOL     OW32419   1.712   0.575   6.482
10507SOL    HW132420   1.613   0.575   6.467
10507SOL    HW232421   1.755   0.644   6.424
10508SOL     OW32422   6.034   5.396   3.266
10508SOL    HW132423   6.043   5.317   3.326
10508SOL    HW232424   5.937   5.419   3.254
10509SOL     OW32425   0.938   6.581   6.761
10509SOL    HW132426   0.975   6.650   6.823
10509SOL    HW232427   0.916   6.623   6.673
10510SOL     OW32428   5.681   5.239   6.456
10510SOL    HW132429   5.671   5.227   6.555
10510SOL    HW232430   5.748   5.310   6.438
10511SOL     OW32431   4.384   2.907   0.867
10511SOL    HW132432   4.465   2.851   0.847
10511SOL    HW232433   4.327   2.914   0.785
10512SOL     OW32434   4.638   0.660   6.542
10512SOL    HW132435   4.573   0.688   6.612
10512SOL    HW232436   4.639   0.560   6.534
10513SOL     OW32437   0.292   1.909   6.160
10513SOL    HW132438   0.382   1.933   6.123
10513SOL    HW232439   0.254   1.987   6.210
10514SOL     OW32440   6.274   4.383   0.934
10514SOL    HW132441   6.271   4.479   0.962
10514SOL    HW232442   6.295   4.378   0.836
10515SOL     OW32443   6.515   1.606   2.636
10515SOL    HW132444   6.571   1.548   2.695
10515SOL    HW232445   6.464   1.671   2.692
10516SOL     OW32446   4.468   1.051   6.551
10516SOL    HW132447   4.379   1.048   6.506
10516SOL    HW232448   4.533   1.102   6.494
10517SOL     OW32449   6.553   2.008   2.386
10517SOL    HW132450   6.643   1.992   2.345
10517SOL    HW232451   6.498   1.925   2.377
10518SOL     OW32452   1.177   5.042   0.205
10518SOL    HW132453   1.093   4.988   0.206
10518SOL    HW232454   1.256   4.980   0.204
10519SOL     OW32455   3.482   2.967   5.823
10519SOL    HW132456   3.480   2.919   5.735
10519SOL    HW232457   3.410   2.931   5.882
10520SOL     OW32458   2.748   2.954   6.624
10520SOL    HW132459   2.766   2.990   6.715
10520SOL    HW232460   2.698   2.868   6.631
10521SOL     OW32461   6.372   6.363   1.096
10521SOL    HW132462   6.401   6.451   1.059
10521SOL    HW232463   6.436   6.335   1.168
10522SOL     OW32464   6.701   0.728   0.431
10522SOL    HW132465   6.758   0.795   0.478
10522SOL    HW232466   6.605   0.754   0.439
10523SOL     OW32467   0.620   5.601   5.289
10523SOL    HW132468   0.641   5.688   5.334
10523SOL    HW232469   0.589   5.534   5.357
10524SOL     OW32470   1.973   6.986   4.316
10524SOL    HW132471   1.985   0.022   4.393
10524SOL    HW232472   1.880   6.992   4.281
10525SOL     OW32473   2.878   6.137   5.537
10525SOL    HW132474   2.936   6.192   5.597
10525SOL    HW232475   2.935   6.088   5.471
10526SOL     OW32476   0.375   0.824   2.249
10526SOL    HW132477   0.449   0.888   2.269
10526SOL    HW232478   0.346   0.835   2.153
10527SOL     OW32479   1.259   2.433   4.590
10527SOL    HW132480   1.285   2.491   4.512
10527SOL    HW232481   1.298   2.341   4.577
10528SOL     OW32482   0.936   4.562   4.952
10528SOL    HW132483   0.883   4.520   5.025
10528SOL    HW232484   0.898   4.535   4.864
10529SOL     OW32485   0.624   5.818   3.164
10529SOL    HW132486   0.611   5.868   3.250
10529SOL    HW232487   0.719   5.828   3.135
10530SOL     OW32488   2.566   1.898   5.950
10530SOL    HW132489   2.633   1.935   6.015
10530SOL    HW232490   2.496   1.848   6.000
10531SOL     OW32491   2.134   3.658   4.264
10531SOL    HW132492   2.171   3.588   4.324
10531SOL    HW232493   2.051   3.625   4.220
10532SOL     OW32494   2.354   2.578   7.010
10532SOL    HW132495   2.359   2.518   6.930
10532SOL    HW232496   2.376   2.525   0.066
10533SOL     OW32497   3.350   1.209   4.641
10533SOL    HW132498   3.308   1.183   4.554
10533SOL    HW232499   3.322   1.302   4.665
10534SOL     OW32500   0.179   5.741   1.313
10534SOL    HW132501   0.151   5.830   1.349
10534SOL    HW232502   0.183   5.745   1.213
10535SOL     OW32503   6.955   1.122   2.264
10535SOL    HW132504   7.026   1.085   2.204
10535SOL    HW232505   6.924   1.210   2.229
10536SOL     OW32506   4.556   0.498   2.930
10536SOL    HW132507   4.575   0.403   2.956
10536SOL    HW232508   4.530   0.502   2.834
10537SOL     OW32509   3.045   5.186   3.172
10537SOL    HW132510   3.031   5.146   3.081
10537SOL    HW232511   3.084   5.277   3.162
10538SOL     OW32512   4.275   3.400   6.603
10538SOL    HW132513   4.251   3.311   6.565
10538SOL    HW232514   4.365   3.394   6.647
10539SOL     OW32515   0.580   3.894   6.404
10539SOL    HW132516   0.625   3.947   6.332
10539SOL    HW232517   0.546   3.957   6.475
10540SOL     OW32518   1.610   0.587   5.493
10540SOL    HW132519   1.519   0.624   5.474
10540SOL    HW232520   1.634   0.605   5.589
10541SOL     OW32521   3.931   3.778   1.418
10541SOL    HW132522   3.845   3.743   1.381
10541SOL    HW232523   3.916   3.870   1.455
10542SOL     OW32524   0.419   1.483   0.646
10542SOL    HW132525   0.372   1.396   0.656
10542SOL    HW232526   0.502   1.470   0.592
10543SOL     OW32527   0.168   1.408   5.756
10543SOL    HW132528   0.151   1.425   5.853
10543SOL    HW232529   0.189   1.311   5.743
10544SOL     OW32530   2.414   2.083   2.567
10544SOL    HW132531   2.487   2.028   2.526
10544SOL    HW232532   2.335   2.085   2.505
10545SOL     OW32533   6.994   6.848   2.267
10545SOL    HW132534   6.982   6.875   2.171
10545SOL    HW232535   6.933   6.902   2.325
10546SOL     OW32536   1.617   6.749   5.053
10546SOL    HW132537   1.645   6.682   4.984
10546SOL    HW232538   1.526   6.724   5.088
10547SOL     OW32539   4.897   1.279   2.175
10547SOL    HW132540   4.824   1.320   2.120
10547SOL    HW232541   4.861   1.199   2.222
10548SOL     OW32542   5.481   3.586   4.630
10548SOL    HW132543   5.397   3.571   4.578
10548SOL    HW232544   5.554   3.613   4.567
10549SOL     OW32545   0.055   0.360   2.440
10549SOL    HW132546   0.008   0.425   2.500
10549SOL    HW232547   0.146   0.339   2.477
10550SOL     OW32548   4.825   6.633   4.224
10550SOL    HW132549   4.802   6.563   4.157
10550SOL    HW232550   4.787   6.721   4.194
10551SOL     OW32551   1.383   2.763   5.198
10551SOL    HW132552   1.349   2.786   5.290
10551SOL    HW232553   1.381   2.664   5.186
10552SOL     OW32554   4.240   1.606   5.149
10552SOL    HW132555   4.224   1.519   5.195
10552SOL    HW232556   4.311   1.657   5.198
10553SOL     OW32557   0.503   5.188   0.795
10553SOL    HW132558   0.457   5.165   0.881
10553SOL    HW232559   0.590   5.139   0.790
10554SOL     OW32560   5.993   4.977   6.972
10554SOL    HW132561   5.896   4.952   6.970
10554SOL    HW232562   6.033   4.948   0.031
10555SOL     OW32563   2.915   2.040   1.606
10555SOL    HW132564   2.897   1.952   1.651
10555SOL    HW232565   2.985   2.027   1.535
10556SOL     OW32566   2.126   3.343   4.928
10556SOL    HW132567   2.122   3.256   4.879
10556SOL    HW232568   2.128   3.418   4.861
10557SOL     OW32569   0.585   2.480   3.187
10557SOL    HW132570   0.557   2.428   3.267
10557SOL    HW232571   0.526   2.559   3.175
10558SOL     OW32572   4.828   6.932   5.292
10558SOL    HW132573   4.911   6.984   5.316
10558SOL    HW232574   4.827   6.846   5.342
10559SOL     OW32575   4.095   1.460   0.972
10559SOL    HW132576   4.085   1.487   0.877
10559SOL    HW232577   4.131   1.536   1.026
10560SOL     OW32578   1.885   4.960   5.143
10560SOL    HW132579   1.847   5.048   5.118
10560SOL    HW232580   1.841   4.888   5.089
10561SOL     OW32581   1.800   5.088   0.404
10561SOL    HW132582   1.739   5.039   0.466
10561SOL    HW232583   1.835   5.025   0.335
10562SOL     OW32584   4.948   0.149   0.852
10562SOL    HW132585   4.956   0.133   0.950
10562SOL    HW232586   4.967   0.064   0.802
10563SOL     OW32587   1.888   0.954   4.591
10563SOL    HW132588   1.958   0.883   4.581
10563SOL    HW232589   1.932   1.043   4.596
10564SOL     OW32590   5.809   0.352   1.487
10564SOL    HW132591   5.882   0.298   1.447
10564SOL    HW232592   5.841   0.394   1.573
10565SOL     OW32593   6.788   1.542   5.275
10565SOL    HW132594   6.872   1.595   5.269
10565SOL    HW232595   6.792   1.465   5.212
10566SOL     OW32596   3.794   3.747   6.642
10566SOL    HW132597   3.698   3.749   6.615
10566SOL    HW232598   3.825   3.840   6.660
10567SOL     OW32599   1.901   3.508   4.409
10567SOL    HW132600   1.848   3.525   4.492
10567SOL    HW232601   1.996   3.489   4.433
10568SOL     OW32602   5.517   1.344   2.375
10568SOL    HW132603   5.516   1.436   2.413
10568SOL    HW232604   5.595   1.293   2.413
10569SOL     OW32605   6.675   3.589   2.296
10569SOL    HW132606   6.661   3.688   2.283
10569SOL    HW232607   6.636   3.539   2.219
10570SOL     OW32608   1.715   4.514   2.593
10570SOL    HW132609   1.788   4.582   2.588
10570SOL    HW232610   1.754   4.422   2.587
10571SOL     OW32611   6.573   5.518   3.433
10571SOL    HW132612   6.533   5.557   3.517
10571SOL    HW232613   6.659   5.564   3.413
10572SOL     OW32614   5.556   3.599   3.055
10572SOL    HW132615   5.541   3.692   3.019
10572SOL    HW232616   5.651   3.589   3.082
10573SOL     OW32617   5.976   6.203   3.353
10573SOL    HW132618   5.946   6.297   3.338
10573SOL    HW232619   5.930   6.142   3.288
10574SOL     OW32620   1.721   2.013   3.751
10574SOL    HW132621   1.768   1.926   3.766
10574SOL    HW232622   1.718   2.033   3.652
10575SOL     OW32623   0.694   0.689   3.815
10575SOL    HW132624   0.612   0.746   3.825
10575SOL    HW232625   0.746   0.690   3.900
10576SOL     OW32626   0.885   6.126   5.032
10576SOL    HW132627   0.830   6.077   4.965
10576SOL    HW232628   0.923   6.209   4.991
10577SOL     OW32629   1.462   3.205   6.460
10577SOL    HW132630   1.516   3.233   6.540
10577SOL    HW232631   1.513   3.226   6.376
10578SOL     OW32632   6.253   0.871   5.053
10578SOL    HW132633   6.213   0.953   5.013
10578SOL    HW232634   6.349   0.863   5.026
10579SOL     OW32635   3.790   1.119   0.768
10579SOL    HW132636   3.811   1.166   0.853
10579SOL    HW232637   3.701   1.151   0.733
10580SOL     OW32638   6.619   6.822   6.667
10580SOL    HW132639   6.701   6.836   6.723
10580SOL    HW232640   6.545   6.879   6.701
10581SOL     OW32641   6.063   0.123   3.177
10581SOL    HW132642   6.004   0.115   3.096
10581SOL    HW232643   6.074   0.219   3.201
10582SOL     OW32644   3.830   4.793   6.965
10582SOL    HW132645   3.743   4.760   7.001
10582SOL    HW232646   3.893   4.716   6.955
10583SOL     OW32647   4.044   0.759   6.552
10583SOL    HW132648   3.993   0.685   6.509
10583SOL    HW232649   4.029   0.844   6.501
10584SOL     OW32650   5.115   6.144   1.556
10584SOL    HW132651   5.132   6.186   1.467
10584SOL    HW232652   5.201   6.112   1.595
10585SOL     OW32653   1.367   3.313   5.983
10585SOL    HW132654   1.383   3.334   5.886
10585SOL    HW232655   1.310   3.231   5.991
10586SOL     OW32656   2.443   5.940   5.940
10586SOL    HW132657   2.362   5.929   5.997
10586SOL    HW232658   2.420   5.921   5.844
10587SOL     OW32659   5.988   3.522   0.573
10587SOL    HW132660   5.891   3.505   0.591
10587SOL    HW232661   6.039   3.436   0.583
10588SOL     OW32662   1.139   4.516   2.050
10588SOL    HW132663   1.173   4.478   2.136
10588SOL    HW232664   1.216   4.545   1.994
10589SOL     OW32665   5.920   2.270   4.232
10589SOL    HW132666   6.016   2.251   4.212
10589SOL    HW232667   5.893   2.356   4.188
10590SOL     OW32668   1.011   6.850   2.638
10590SOL    HW132669   0.991   6.933   2.586
10590SOL    HW232670   1.089   6.866   2.698
10591SOL     OW32671   1.698   2.024   5.719
10591SOL    HW132672   1.742   2.055   5.634
10591SOL    HW232673   1.690   1.924   5.718
10592SOL     OW32674   6.051   1.485   7.009
10592SOL    HW132675   6.098   1.415   6.956
10592SOL    HW232676   6.102   1.571   7.003
10593SOL     OW32677   2.518   6.508   0.992
10593SOL    HW132678   2.544   6.592   1.040
10593SOL    HW232679   2.420   6.493   1.003
10594SOL     OW32680   6.467   1.490   3.820
10594SOL    HW132681   6.376   1.533   3.821
10594SOL    HW232682   6.508   1.501   3.730
10595SOL     OW32683   3.295   6.833   5.842
10595SOL    HW132684   3.288   6.930   5.816
10595SOL    HW232685   3.371   6.822   5.906
10596SOL     OW32686   3.999   6.721   1.790
10596SOL    HW132687   4.017   6.818   1.779
10596SOL    HW232688   3.916   6.696   1.738
10597SOL     OW32689   2.861   1.021   4.499
10597SOL    HW132690   2.917   0.939   4.487
10597SOL    HW232691   2.765   0.997   4.484
10598SOL     OW32692   2.109   2.521   6.613
10598SOL    HW132693   2.204   2.529   6.582
10598SOL    HW232694   2.066   2.611   6.612
10599SOL     OW32695   6.127   1.354   0.243
10599SOL    HW132696   6.173   1.428   0.292
10599SOL    HW232697   6.077   1.391   0.165
10600SOL     OW32698   2.412   3.344   6.528
10600SOL    HW132699   2.322   3.347   6.572
10600SOL    HW232700   2.444   3.250   6.525
10601SOL     OW32701   3.207   5.998   6.247
10601SOL    HW132702   3.136   5.930   6.265
10601SOL    HW232703   3.226   6.001   6.149
10602SOL     OW32704   4.946   1.226   1.727
10602SOL    HW132705   4.856   1.252   1.764
10602SOL    HW232706   4.966   1.283   1.647
10603SOL     OW32707   1.234   6.434   3.524
10603SOL    HW132708   1.268   6.342   3.545
10603SOL    HW232709   1.197   6.476   3.607
10604SOL     OW32710   6.298   4.336   4.705
10604SOL    HW132711   6.290   4.254   4.761
10604SOL    HW232712   6.321   4.414   4.764
10605SOL     OW32713   0.867   4.930   0.456
10605SOL    HW132714   0.808   4.861   0.415
10605SOL    HW232715   0.944   4.886   0.502
10606SOL     OW32716   6.893   0.808   1.458
10606SOL    HW132717   6.882   0.890   1.402
10606SOL    HW232718   6.892   0.727   1.398
10607SOL     OW32719   4.140   4.978   6.035
10607SOL    HW132720   4.050   5.002   5.998
10607SOL    HW232721   4.211   5.022   5.981
10608SOL     OW32722   5.905   1.713   4.637
10608SOL    HW132723   5.941   1.805   4.652
10608SOL    HW232724   5.971   1.659   4.585
10609SOL     OW32725   3.730   6.136   1.209
10609SOL    HW132726   3.766   6.047   1.181
10609SOL    HW232727   3.633   6.126   1.234
10610SOL     OW32728   1.073   4.132   6.510
10610SOL    HW132729   1.101   4.162   6.419
10610SOL    HW232730   1.071   4.032   6.513
10611SOL     OW32731   5.564   3.195   6.771
10611SOL    HW132732   5.644   3.167   6.717
10611SOL    HW232733   5.553   3.294   6.764
10612SOL     OW32734   2.502   0.058   6.648
10612SOL    HW132735   2.532   0.142   6.603
10612SOL    HW232736   2.510   7.008   6.584
10613SOL     OW32737   0.039   0.238   5.817
10613SOL    HW132738   0.065   0.193   5.902
10613SOL    HW232739   7.001   0.311   5.836
10614SOL     OW32740   6.860   0.675   4.451
10614SOL    HW132741   6.838   0.653   4.356
10614SOL    HW232742   6.781   0.716   4.495
10615SOL     OW32743   4.430   5.500   5.468
10615SOL    HW132744   4.386   5.533   5.384
10615SOL    HW232745   4.529   5.511   5.460
10616SOL     OW32746   2.984   6.416   0.316
10616SOL    HW132747   2.968   6.323   0.350
10616SOL    HW232748   3.035   6.468   0.384
10617SOL     OW32749   2.213   2.681   0.274
10617SOL    HW132750   2.256   2.755   0.224
10617SOL    HW232751   2.124   2.711   0.308
10618SOL     OW32752   6.159   2.456   0.246
10618SOL    HW132753   6.196   2.439   0.337
10618SOL    HW232754   6.125   2.550   0.241
10619SOL     OW32755   0.828   3.823   3.140
10619SOL    HW132756   0.798   3.744   3.194
10619SOL    HW232757   0.881   3.791   3.062
10620SOL     OW32758   1.703   6.276   5.635
10620SOL    HW132759   1.634   6.313   5.573
10620SOL    HW232760   1.703   6.327   5.721
10621SOL     OW32761   1.454   5.869   6.855
10621SOL    HW132762   1.473   5.942   6.789
10621SOL    HW232763   1.469   5.780   6.811
10622SOL     OW32764   4.477   1.133   1.931
10622SOL    HW132765   4.533   1.155   1.852
10622SOL    HW232766   4.505   1.044   1.969
10623SOL     OW32767   5.271   2.787   3.914
10623SOL    HW132768   5.216   2.860   3.873
10623SOL    HW232769   5.349   2.766   3.854
10624SOL     OW32770   1.430   1.271   4.800
10624SOL    HW132771   1.444   1.356   4.850
10624SOL    HW232772   1.348   1.280   4.742
10625SOL     OW32773   0.657   4.373   6.880
10625SOL    HW132774   0.649   4.360   6.979
10625SOL    HW232775   0.727   4.311   6.844
10626SOL     OW32776   1.118   2.277   1.441
10626SOL    HW132777   1.131   2.180   1.463
10626SOL    HW232778   1.025   2.291   1.409
10627SOL     OW32779   6.646   6.112   2.616
10627SOL    HW132780   6.711   6.065   2.557
10627SOL    HW232781   6.587   6.045   2.662
10628SOL     OW32782   6.243   5.279   5.130
10628SOL    HW132783   6.252   5.189   5.089
10628SOL    HW232784   6.286   5.347   5.070
10629SOL     OW32785   2.410   4.827   5.786
10629SOL    HW132786   2.488   4.809   5.847
10629SOL    HW232787   2.400   4.925   5.774
10630SOL     OW32788   6.369   0.352   3.382
10630SOL    HW132789   6.430   0.429   3.402
10630SOL    HW232790   6.421   0.280   3.336
10631SOL     OW32791   0.887   0.088   3.848
10631SOL    HW132792   0.927   0.045   3.768
10631SOL    HW232793   0.917   0.183   3.854
10632SOL     OW32794   6.294   2.407   4.479
10632SOL    HW132795   6.276   2.505   4.466
10632SOL    HW232796   6.358   2.395   4.555
10633SOL     OW32797   2.690   4.941   1.395
10633SOL    HW132798   2.622   5.014   1.387
10633SOL    HW232799   2.645   4.856   1.424
10634SOL     OW32800   2.718   5.759   0.649
10634SOL    HW132801   2.765   5.671   0.644
10634SOL    HW232802   2.725   5.796   0.742
10635SOL     OW32803   3.253   1.227   0.836
10635SOL    HW132804   3.156   1.223   0.814
10635SOL    HW232805   3.269   1.302   0.901
10636SOL     OW32806   0.309   1.989   1.089
10636SOL    HW132807   0.350   1.994   0.997
10636SOL    HW232808   0.346   2.063   1.145
10637SOL     OW32809   3.525   4.206   5.286
10637SOL    HW132810   3.554   4.125   5.336
10637SOL    HW232811   3.563   4.204   5.193
10638SOL     OW32812   0.469   6.879   3.984
10638SOL    HW132813   0.419   6.944   4.042
10638SOL    HW232814   0.407   6.806   3.956
10639SOL     OW32815   0.808   1.366   4.845
10639SOL    HW132816   0.741   1.299   4.813
10639SOL    HW232817   0.890   1.319   4.879
10640SOL     OW32818   4.856   0.474   6.818
10640SOL    HW132819   4.761   0.456   6.842
10640SOL    HW232820   4.910   0.488   6.901
10641SOL     OW32821   5.126   1.783   0.075
10641SOL    HW132822   5.081   1.861   0.118
10641SOL    HW232823   5.212   1.813   0.032
10642SOL     OW32824   0.035   2.172   1.135
10642SOL    HW132825   6.986   2.157   1.199
10642SOL    HW232826   0.093   2.090   1.133
10643SOL     OW32827   2.360   3.936   5.467
10643SOL    HW132828   2.404   3.964   5.381
10643SOL    HW232829   2.328   3.842   5.458
10644SOL     OW32830   4.808   1.443   3.811
10644SOL    HW132831   4.785   1.346   3.802
10644SOL    HW232832   4.725   1.494   3.835
10645SOL     OW32833   1.094   0.963   4.798
10645SOL    HW132834   1.184   0.935   4.831
10645SOL    HW232835   1.075   0.916   4.711
10646SOL     OW32836   0.317   2.690   5.586
10646SOL    HW132837   0.247   2.664   5.519
10646SOL    HW232838   0.276   2.692   5.678
10647SOL     OW32839   6.533   5.114   0.317
10647SOL    HW132840   6.591   5.191   0.292
10647SOL    HW232841   6.582   5.029   0.298
10648SOL     OW32842   5.109   2.921   6.258
10648SOL    HW132843   5.118   2.821   6.257
10648SOL    HW232844   5.147   2.959   6.174
10649SOL     OW32845   0.347   5.215   5.159
10649SOL    HW132846   0.435   5.251   5.129
10649SOL    HW232847   0.334   5.235   5.256
10650SOL     OW32848   2.185   6.573   3.869
10650SOL    HW132849   2.122   6.633   3.819
10650SOL    HW232850   2.154   6.479   3.862
10651SOL     OW32851   4.460   6.631   5.759
10651SOL    HW132852   4.537   6.656   5.818
10651SOL    HW232853   4.381   6.608   5.816
10652SOL     OW32854   3.252   0.085   5.845
10652SOL    HW132855   3.326   0.118   5.905
10652SOL    HW232856   3.179   0.046   5.901
10653SOL     OW32857   4.683   4.473   4.562
10653SOL    HW132858   4.690   4.397   4.497
10653SOL    HW232859   4.768   4.526   4.560
10654SOL     OW32860   2.645   0.718   1.191
10654SOL    HW132861   2.645   0.794   1.256
10654SOL    HW232862   2.629   0.752   1.099
10655SOL     OW32863   2.921   5.863   1.764
10655SOL    HW132864   3.001   5.807   1.745
10655SOL    HW232865   2.950   5.956   1.788
10656SOL     OW32866   6.047   2.249   0.097
10656SOL    HW132867   6.097   2.310   0.158
10656SOL    HW232868   6.005   2.301   0.023
10657SOL     OW32869   5.865   6.604   1.149
10657SOL    HW132870   5.896   6.661   1.225
10657SOL    HW232871   5.766   6.588   1.157
10658SOL     OW32872   1.196   4.655   4.498
10658SOL    HW132873   1.216   4.722   4.569
10658SOL    HW232874   1.281   4.628   4.452
10659SOL     OW32875   5.718   0.110   0.790
10659SOL    HW132876   5.632   0.152   0.761
10659SOL    HW232877   5.700   0.042   0.862
10660SOL     OW32878   4.169   3.943   6.078
10660SOL    HW132879   4.160   3.993   5.993
10660SOL    HW232880   4.221   3.997   6.144
10661SOL     OW32881   0.511   6.750   1.704
10661SOL    HW132882   0.473   6.679   1.763
10661SOL    HW232883   0.602   6.776   1.737
10662SOL     OW32884   6.962   1.368   0.561
10662SOL    HW132885   7.018   1.444   0.593
10662SOL    HW232886   6.889   1.351   0.627
10663SOL     OW32887   0.537   0.666   1.212
10663SOL    HW132888   0.459   0.707   1.258
10663SOL    HW232889   0.537   0.568   1.228
10664SOL     OW32890   2.081   4.836   0.522
10664SOL    HW132891   2.091   4.755   0.581
10664SOL    HW232892   2.000   4.825   0.465
10665SOL     OW32893   0.299   1.847   0.316
10665SOL    HW132894   0.270   1.780   0.247
10665SOL    HW232895   0.220   1.899   0.347
10666SOL     OW32896   2.986   5.879   6.995
10666SOL    HW132897   2.930   5.960   6.980
10666SOL    HW232898   3.051   5.897   0.042
10667SOL     OW32899   4.026   1.698   5.308
10667SOL    HW132900   4.104   1.663   5.256
10667SOL    HW232901   3.979   1.622   5.352
10668SOL     OW32902   1.663   1.705   6.417
10668SOL    HW132903   1.755   1.743   6.406
10668SOL    HW232904   1.658   1.656   6.504
10669SOL     OW32905   1.350   0.338   0.495
10669SOL    HW132906   1.439   0.295   0.478
10669SOL    HW232907   1.303   0.291   0.570
10670SOL     OW32908   5.535   4.492   5.992
10670SOL    HW132909   5.448   4.509   6.038
10670SOL    HW232910   5.591   4.575   5.997
10671SOL     OW32911   2.420   2.560   2.815
10671SOL    HW132912   2.397   2.480   2.870
10671SOL    HW232913   2.385   2.643   2.859
10672SOL     OW32914   0.338   2.540   0.499
10672SOL    HW132915   0.367   2.631   0.472
10672SOL    HW232916   0.405   2.500   0.561
10673SOL     OW32917   2.751   3.147   5.310
10673SOL    HW132918   2.768   3.059   5.356
10673SOL    HW232919   2.694   3.131   5.230
10674SOL     OW32920   3.786   4.015   1.033
10674SOL    HW132921   3.852   3.953   1.077
10674SOL    HW232922   3.754   3.974   0.948
10675SOL     OW32923   6.924   6.927   5.439
10675SOL    HW132924   6.866   7.001   5.472
10675SOL    HW232925   7.020   6.955   5.445
10676SOL     OW32926   6.082   0.304   6.209
10676SOL    HW132927   6.110   0.384   6.156
10676SOL    HW232928   5.988   0.316   6.242
10677SOL     OW32929   0.323   0.602   1.507
10677SOL    HW132930   0.289   0.522   1.457
10677SOL    HW232931   0.339   0.677   1.444
10678SOL     OW32932   2.248   5.721   2.437
10678SOL    HW132933   2.313   5.795   2.421
10678SOL    HW232934   2.252   5.693   2.533
10679SOL     OW32935   5.997   5.314   4.061
10679SOL    HW132936   5.903   5.296   4.031
10679SOL    HW232937   6.060   5.296   3.986
10680SOL     OW32938   0.975   3.186   2.184
10680SOL    HW132939   1.002   3.247   2.109
10680SOL    HW232940   0.987   3.233   2.271
10681SOL     OW32941   6.402   2.556   6.220
10681SOL    HW132942   6.389   2.515   6.311
10681SOL    HW232943   6.488   2.522   6.181
10682SOL     OW32944   0.611   1.891   2.484
10682SOL    HW132945   0.513   1.911   2.498
10682SOL    HW232946   0.647   1.951   2.413
10683SOL     OW32947   1.670   2.249   4.484
10683SOL    HW132948   1.748   2.308   4.506
10683SOL    HW232949   1.625   2.282   4.401
10684SOL     OW32950   6.038   4.461   0.295
10684SOL    HW132951   6.018   4.370   0.259
10684SOL    HW232952   5.955   4.517   0.291
10685SOL     OW32953   0.520   3.645   3.364
10685SOL    HW132954   0.559   3.661   3.455
10685SOL    HW232955   0.464   3.562   3.366
10686SOL     OW32956   2.911   6.163   0.312
10686SOL    HW132957   2.881   6.081   0.361
10686SOL    HW232958   2.886   6.155   0.215
10687SOL     OW32959   6.788   4.943   2.496
10687SOL    HW132960   6.835   4.887   2.564
10687SOL    HW232961   6.725   5.006   2.542
10688SOL     OW32962   6.728   5.226   2.207
10688SOL    HW132963   6.802   5.161   2.185
10688SOL    HW232964   6.698   5.271   2.123
10689SOL     OW32965   7.012   0.535   2.622
10689SOL    HW132966   0.020   0.533   2.716
10689SOL    HW232967   6.912   0.531   2.624
10690SOL     OW32968   4.600   5.114   2.310
10690SOL    HW132969   4.698   5.097   2.308
10690SOL    HW232970   4.550   5.028   2.306
10691SOL     OW32971   6.760   1.315   1.204
10691SOL    HW132972   6.856   1.303   1.229
10691SOL    HW232973   6.730   1.239   1.147
10692SOL     OW32974   3.894   5.853   4.065
10692SOL    HW132975   3.862   5.759   4.053
10692SOL    HW232976   3.918   5.868   4.161
10693SOL     OW32977   0.049   1.495   1.527
10693SOL    HW132978   6.980   1.523   1.515
10693SOL    HW232979   0.067   1.481   1.624
10694SOL     OW32980   4.237   5.999   1.533
10694SOL    HW132981   4.231   6.089   1.490
10694SOL    HW232982   4.146   5.956   1.533
10695SOL     OW32983   6.863   2.272   4.330
10695SOL    HW132984   6.869   2.372   4.327
10695SOL    HW232985   6.824   2.239   4.245
10696SOL     OW32986   0.142   6.026   1.347
10696SOL    HW132987   0.115   6.111   1.391
10696SOL    HW232988   0.218   6.044   1.284
10697SOL     OW32989   1.109   6.260   4.676
10697SOL    HW132990   1.198   6.223   4.649
10697SOL    HW232991   1.045   6.185   4.690
10698SOL     OW32992   2.849   0.247   3.403
10698SOL    HW132993   2.859   0.221   3.307
10698SOL    HW232994   2.753   0.271   3.421
10699SOL     OW32995   3.780   1.787   2.847
10699SOL    HW132996   3.844   1.728   2.798
10699SOL    HW232997   3.763   1.870   2.794
10700SOL     OW32998   6.881   6.393   1.263
10700SOL    HW132999   6.825   6.472   1.236
10700SOL    HW233000   6.967   6.396   1.212
10701SOL     OW33001   3.279   6.633   0.497
10701SOL    HW133002   3.250   6.673   0.584
10701SOL    HW233003   3.330   6.548   0.515
10702SOL     OW33004   6.062   2.698   0.180
10702SOL    HW133005   6.096   2.792   0.178
10702SOL    HW233006   6.068   2.658   0.088
10703SOL     OW33007   3.630   4.110   3.458
10703SOL    HW133008   3.727   4.091   3.448
10703SOL    HW233009   3.580   4.025   3.474
10704SOL     OW33010   4.984   0.104   1.935
10704SOL    HW133011   5.072   0.084   1.892
10704SOL    HW233012   4.969   0.203   1.936
10705SOL     OW33013   1.025   2.952   5.860
10705SOL    HW133014   0.960   2.924   5.789
10705SOL    HW233015   1.054   2.872   5.912
10706SOL     OW33016   3.441   0.529   1.727
10706SOL    HW133017   3.423   0.455   1.792
10706SOL    HW233018   3.486   0.604   1.776
10707SOL     OW33019   6.097   7.014   5.661
10707SOL    HW133020   6.115   6.918   5.684
10707SOL    HW233021   6.074   0.037   5.744
10708SOL     OW33022   4.735   0.981   0.906
10708SOL    HW133023   4.773   1.070   0.932
10708SOL    HW233024   4.686   0.941   0.984
10709SOL     OW33025   6.500   6.775   5.625
10709SOL    HW133026   6.484   6.747   5.530
10709SOL    HW233027   6.529   6.695   5.678
10710SOL     OW33028   5.948   5.464   3.719
10710SOL    HW133029   5.987   5.497   3.633
10710SOL    HW233030   5.886   5.532   3.757
10711SOL     OW33031   1.500   7.025   4.214
10711SOL    HW133032   1.547   0.081   4.246
10711SOL    HW233033   1.477   0.009   4.118
10712SOL     OW33034   3.574   1.391   5.306
10712SOL    HW133035   3.638   1.434   5.242
10712SOL    HW233036   3.618   1.380   5.395
10713SOL     OW33037   1.608   5.896   1.672
10713SOL    HW133038   1.569   5.836   1.601
10713SOL    HW233039   1.604   5.849   1.760
10714SOL     OW33040   0.754   5.388   5.666
10714SOL    HW133041   0.770   5.477   5.707
10714SOL    HW233042   0.839   5.354   5.626
10715SOL     OW33043   4.629   2.139   3.963
10715SOL    HW133044   4.726   2.138   3.990
10715SOL    HW233045   4.607   2.226   3.921
10716SOL     OW33046   6.464   0.509   4.217
10716SOL    HW133047   6.372   0.486   4.248
10716SOL    HW233048   6.527   0.512   4.295
10717SOL     OW33049   6.745   0.611   1.604
10717SOL    HW133050   6.794   0.693   1.577
10717SOL    HW233051   6.778   0.579   1.693
10718SOL     OW33052   6.246   5.092   6.443
10718SOL    HW133053   6.308   5.075   6.520
10718SOL    HW233054   6.268   5.030   6.368
10719SOL     OW33055   5.798   0.896   1.812
10719SOL    HW133056   5.723   0.937   1.863
10719SOL    HW233057   5.762   0.829   1.747
10720SOL     OW33058   0.418   3.653   6.434
10720SOL    HW133059   0.477   3.734   6.431
10720SOL    HW233060   0.456   3.586   6.498
10721SOL     OW33061   5.462   2.756   4.555
10721SOL    HW133062   5.488   2.661   4.567
10721SOL    HW233063   5.365   2.767   4.579
10722SOL     OW33064   6.683   3.816   0.371
10722SOL    HW133065   6.628   3.893   0.338
10722SOL    HW233066   6.777   3.826   0.340
10723SOL     OW33067   5.680   4.021   6.935
10723SOL    HW133068   5.657   3.998   6.841
10723SOL    HW233069   5.779   4.031   6.943
10724SOL     OW33070   4.115   0.076   6.757
10724SOL    HW133071   4.048   0.106   6.824
10724SOL    HW233072   4.168   7.026   6.794
10725SOL     OW33073   0.526   6.031   4.963
10725SOL    HW133074   0.521   5.933   4.945
10725SOL    HW233075   0.510   6.048   5.060
10726SOL     OW33076   5.485   0.578   4.473
10726SOL    HW133077   5.525   0.646   4.536
10726SOL    HW233078   5.439   0.625   4.398
10727SOL     OW33079   2.609   5.791   6.194
10727SOL    HW133080   2.587   5.885   6.168
10727SOL    HW233081   2.633   5.789   6.291
10728SOL     OW33082   4.624   6.837   3.073
10728SOL    HW133083   4.686   6.764   3.044
10728SOL    HW233084   4.607   6.899   2.997
10729SOL     OW33085   6.124   2.419   2.853
10729SOL    HW133086   6.088   2.498   2.903
10729SOL    HW233087   6.052   2.351   2.842
10730SOL     OW33088   1.607   0.041   2.727
10730SOL    HW133089   1.623   6.973   2.703
10730SOL    HW233090   1.693   0.092   2.722
10731SOL     OW33091   3.451   6.720   7.004
10731SOL    HW133092   3.384   6.733   6.931
10731SOL    HW233093   3.507   6.803   7.013
10732SOL     OW33094   6.190   6.002   3.288
10732SOL    HW133095   6.128   6.079   3.299
10732SOL    HW233096   6.139   5.921   3.260
10733SOL     OW33097   6.600   0.920   5.721
10733SOL    HW133098   6.652   1.001   5.694
10733SOL    HW233099   6.508   0.948   5.749
10734SOL     OW33100   1.775   0.973   5.567
10734SOL    HW133101   1.728   1.049   5.612
10734SOL    HW233102   1.865   0.960   5.609
10735SOL     OW33103   1.005   5.366   1.885
10735SOL    HW133104   1.017   5.277   1.843
10735SOL    HW233105   1.086   5.423   1.868
10736SOL     OW33106   6.673   0.077   3.843
10736SOL    HW133107   6.697   0.174   3.851
10736SOL    HW233108   6.688   0.047   3.749
10737SOL     OW33109   6.760   1.395   1.476
10737SOL    HW133110   6.741   1.374   1.380
10737SOL    HW233111   6.758   1.494   1.490
10738SOL     OW33112   2.883   0.922   2.265
10738SOL    HW133113   2.892   0.993   2.194
10738SOL    HW233114   2.972   0.909   2.310
10739SOL     OW33115   5.991   2.027   2.537
10739SOL    HW133116   6.016   1.930   2.541
10739SOL    HW233117   6.062   2.078   2.489
10740SOL     OW33118   1.841   6.916   6.270
10740SOL    HW133119   1.914   6.984   6.261
10740SOL    HW233120   1.792   6.930   6.356
10741SOL     OW33121   1.941   2.478   3.163
10741SOL    HW133122   1.935   2.577   3.169
10741SOL    HW233123   1.895   2.437   3.242
10742SOL     OW33124   5.952   5.910   2.838
10742SOL    HW133125   5.964   5.812   2.855
10742SOL    HW233126   6.040   5.956   2.846
10743SOL     OW33127   3.624   0.724   5.364
10743SOL    HW133128   3.647   0.736   5.267
10743SOL    HW233129   3.681   0.785   5.419
10744SOL     OW33130   1.497   0.555   0.442
10744SOL    HW133131   1.421   0.494   0.463
10744SOL    HW233132   1.576   0.532   0.499
10745SOL     OW33133   2.139   4.984   1.222
10745SOL    HW133134   2.128   4.899   1.273
10745SOL    HW233135   2.218   5.034   1.257
10746SOL     OW33136   1.666   6.203   6.773
10746SOL    HW133137   1.721   6.136   6.823
10746SOL    HW233138   1.602   6.155   6.713
10747SOL     OW33139   6.578   1.744   4.077
10747SOL    HW133140   6.501   1.773   4.021
10747SOL    HW233141   6.544   1.692   4.155
10748SOL     OW33142   4.048   6.133   1.206
10748SOL    HW133143   4.141   6.169   1.197
10748SOL    HW233144   3.983   6.199   1.166
10749SOL     OW33145   6.475   4.819   3.103
10749SOL    HW133146   6.540   4.890   3.130
10749SOL    HW233147   6.486   4.739   3.161
10750SOL     OW33148   5.050   2.794   4.339
10750SOL    HW133149   5.070   2.848   4.421
10750SOL    HW233150   5.058   2.852   4.258
10751SOL     OW33151   1.084   4.196   5.199
10751SOL    HW133152   0.985   4.212   5.203
10751SOL    HW233153   1.104   4.107   5.240
10752SOL     OW33154   6.068   5.616   1.000
10752SOL    HW133155   6.012   5.695   0.978
10752SOL    HW233156   6.158   5.625   0.957
10753SOL     OW33157   4.844   6.222   4.027
10753SOL    HW133158   4.922   6.248   4.084
10753SOL    HW233159   4.771   6.289   4.039
10754SOL     OW33160   1.681   2.991   1.920
10754SOL    HW133161   1.664   3.079   1.965
10754SOL    HW233162   1.653   2.917   1.981
10755SOL     OW33163   6.403   3.313   1.218
10755SOL    HW133164   6.356   3.364   1.145
10755SOL    HW233165   6.414   3.218   1.189
10756SOL     OW33166   0.085   2.752   0.715
10756SOL    HW133167   0.027   2.799   0.648
10756SOL    HW233168   0.049   2.660   0.732
10757SOL     OW33169   6.616   4.366   1.194
10757SOL    HW133170   6.572   4.454   1.175
10757SOL    HW233171   6.549   4.293   1.182
10758SOL     OW33172   0.578   6.847   6.884
10758SOL    HW133173   0.530   6.876   6.802
10758SOL    HW233174   0.522   6.867   6.965
10759SOL     OW33175   2.258   2.053   6.095
10759SOL    HW133176   2.247   2.083   6.189
10759SOL    HW233177   2.279   1.955   6.093
10760SOL     OW33178   0.227   5.267   0.047
10760SOL    HW133179   0.205   5.352   0.095
10760SOL    HW233180   0.149   5.205   0.052
10761SOL     OW33181   0.624   1.793   6.223
10761SOL    HW133182   0.529   1.821   6.237
10761SOL    HW233183   0.645   1.715   6.282
10762SOL     OW33184   3.732   6.616   5.675
10762SOL    HW133185   3.637   6.605   5.645
10762SOL    HW233186   3.794   6.593   5.599
10763SOL     OW33187   5.349   0.164   3.121
10763SOL    HW133188   5.285   0.112   3.064
10763SOL    HW233189   5.424   0.198   3.064
10764SOL     OW33190   4.466   0.965   5.319
10764SOL    HW133191   4.401   0.890   5.329
10764SOL    HW233192   4.467   0.995   5.223
10765SOL     OW33193   6.800   1.762   2.629
10765SOL    HW133194   6.700   1.759   2.624
10765SOL    HW233195   6.829   1.777   2.724
10766SOL     OW33196   1.644   4.533   6.712
10766SOL    HW133197   1.609   4.480   6.635
10766SOL    HW233198   1.583   4.611   6.729
10767SOL     OW33199   1.657   5.686   0.867
10767SOL    HW133200   1.600   5.658   0.944
10767SOL    HW233201   1.700   5.775   0.888
10768SOL     OW33202   5.821   6.051   0.393
10768SOL    HW133203   5.837   6.141   0.433
10768SOL    HW233204   5.722   6.033   0.390
10769SOL     OW33205   2.914   3.294   4.954
10769SOL    HW133206   2.876   3.223   4.895
10769SOL    HW233207   2.878   3.383   4.925
10770SOL     OW33208   5.028   0.017   4.253
10770SOL    HW133209   4.959   0.068   4.304
10770SOL    HW233210   5.078   0.080   4.193
10771SOL     OW33211   5.278   5.850   5.653
10771SOL    HW133212   5.298   5.944   5.625
10771SOL    HW233213   5.198   5.817   5.604
10772SOL     OW33214   6.053   4.631   2.969
10772SOL    HW133215   6.099   4.675   3.046
10772SOL    HW233216   6.050   4.693   2.891
10773SOL     OW33217   6.533   4.615   1.119
10773SOL    HW133218   6.514   4.654   1.029
10773SOL    HW233219   6.519   4.685   1.189
10774SOL     OW33220   1.292   2.661   0.785
10774SOL    HW133221   1.322   2.566   0.799
10774SOL    HW233222   1.343   2.700   0.708
10775SOL     OW33223   1.466   4.443   1.519
10775SOL    HW133224   1.488   4.349   1.496
10775SOL    HW233225   1.537   4.480   1.579
10776SOL     OW33226   0.783   1.708   2.827
10776SOL    HW133227   0.758   1.804   2.840
10776SOL    HW233228   0.872   1.691   2.868
10777SOL     OW33229   3.183   1.171   2.521
10777SOL    HW133230   3.157   1.090   2.468
10777SOL    HW233231   3.191   1.146   2.618
10778SOL     OW33232   6.467   6.317   3.894
10778SOL    HW133233   6.482   6.386   3.965
10778SOL    HW233234   6.506   6.348   3.808
10779SOL     OW33235   5.701   3.862   4.554
10779SOL    HW133236   5.678   3.787   4.491
10779SOL    HW233237   5.790   3.901   4.528
10780SOL     OW33238   1.259   5.889   5.093
10780SOL    HW133239   1.340   5.891   5.034
10780SOL    HW233240   1.276   5.828   5.171
10781SOL     OW33241   5.668   2.427   4.811
10781SOL    HW133242   5.634   2.426   4.904
10781SOL    HW233243   5.649   2.339   4.767
10782SOL     OW33244   0.803   2.927   5.202
10782SOL    HW133245   0.850   2.977   5.130
10782SOL    HW233246   0.704   2.933   5.187
10783SOL     OW33247   1.153   2.440   2.677
10783SOL    HW133248   1.119   2.527   2.640
10783SOL    HW233249   1.108   2.421   2.764
10784SOL     OW33250   3.592   6.203   2.293
10784SOL    HW133251   3.500   6.241   2.294
10784SOL    HW233252   3.588   6.104   2.311
10785SOL     OW33253   1.795   5.942   2.580
10785SOL    HW133254   1.814   6.039   2.591
10785SOL    HW233255   1.824   5.913   2.488
10786SOL     OW33256   4.735   1.655   2.063
10786SOL    HW133257   4.687   1.569   2.046
10786SOL    HW233258   4.832   1.644   2.041
10787SOL     OW33259   3.559   1.414   3.301
10787SOL    HW133260   3.543   1.321   3.268
10787SOL    HW233261   3.545   1.416   3.400
10788SOL     OW33262   0.982   4.502   0.795
10788SOL    HW133263   0.926   4.496   0.877
10788SOL    HW233264   0.928   4.541   0.720
10789SOL     OW33265   6.418   1.328   0.124
10789SOL    HW133266   6.503   1.368   0.158
10789SOL    HW233267   6.341   1.368   0.173
10790SOL     OW33268   0.124   2.492   4.469
10790SOL    HW133269   0.178   2.445   4.539
10790SOL    HW233270   0.131   2.591   4.482
10791SOL     OW33271   2.144   1.790   3.061
10791SOL    HW133272   2.080   1.754   2.994
10791SOL    HW233273   2.227   1.734   3.061
10792SOL     OW33274   3.774   2.156   1.050
10792SOL    HW133275   3.819   2.199   1.128
10792SOL    HW233276   3.703   2.094   1.083
10793SOL     OW33277   5.065   1.553   5.150
10793SOL    HW133278   4.988   1.598   5.196
10793SOL    HW233279   5.135   1.621   5.130
10794SOL     OW33280   4.256   3.340   0.930
10794SOL    HW133281   4.316   3.266   0.900
10794SOL    HW233282   4.245   3.335   1.029
10795SOL     OW33283   6.701   3.196   3.412
10795SOL    HW133284   6.620   3.183   3.470
10795SOL    HW233285   6.767   3.255   3.459
10796SOL     OW33286   6.713   6.847   7.013
10796SOL    HW133287   6.771   6.839   6.931
10796SOL    HW233288   6.622   6.876   6.986
10797SOL     OW33289   4.317   3.751   0.458
10797SOL    HW133290   4.307   3.691   0.378
10797SOL    HW233291   4.407   3.795   0.456
10798SOL     OW33292   2.580   0.046   6.152
10798SOL    HW133293   2.576   0.020   6.249
10798SOL    HW233294   2.615   0.140   6.145
10799SOL     OW33295   3.080   1.601   2.556
10799SOL    HW133296   3.101   1.693   2.590
10799SOL    HW233297   3.157   1.540   2.576
10800SOL     OW33298   1.457   0.106   5.700
10800SOL    HW133299   1.396   0.183   5.678
10800SOL    HW233300   1.518   0.090   5.623
10801SOL     OW33301   2.794   6.249   5.928
10801SOL    HW133302   2.827   6.312   5.998
10801SOL    HW233303   2.695   6.250   5.925
10802SOL     OW33304   0.564   4.063   5.044
10802SOL    HW133305   0.522   4.151   5.066
10802SOL    HW233306   0.515   3.990   5.092
10803SOL     OW33307   6.327   4.834   5.227
10803SOL    HW133308   6.404   4.772   5.209
10803SOL    HW233309   6.362   4.922   5.259
10804SOL     OW33310   5.255   4.781   2.294
10804SOL    HW133311   5.192   4.719   2.341
10804SOL    HW233312   5.216   4.807   2.206
10805SOL     OW33313   4.435   6.663   0.798
10805SOL    HW133314   4.386   6.653   0.712
10805SOL    HW233315   4.514   6.724   0.785
10806SOL     OW33316   5.009   4.214   0.063
10806SOL    HW133317   4.994   4.135   0.005
10806SOL    HW233318   5.105   4.242   0.058
10807SOL     OW33319   4.237   5.930   3.784
10807SOL    HW133320   4.149   5.974   3.804
10807SOL    HW233321   4.252   5.931   3.686
10808SOL     OW33322   0.036   2.690   6.362
10808SOL    HW133323   0.070   2.740   6.441
10808SOL    HW233324   7.013   2.609   6.392
10809SOL     OW33325   2.012   1.023   3.325
10809SOL    HW133326   2.105   1.037   3.360
10809SOL    HW233327   2.016   1.010   3.226
10810SOL     OW33328   6.786   1.834   5.092
10810SOL    HW133329   6.840   1.750   5.084
10810SOL    HW233330   6.827   1.893   5.161
10811SOL     OW33331   4.899   4.302   5.327
10811SOL    HW133332   4.962   4.325   5.252
10811SOL    HW233333   4.805   4.304   5.294
10812SOL     OW33334   6.390   2.549   2.422
10812SOL    HW133335   6.308   2.507   2.385
10812SOL    HW233336   6.468   2.531   2.362
10813SOL     OW33337   2.879   6.255   1.638
10813SOL    HW133338   2.896   6.206   1.723
10813SOL    HW233339   2.801   6.214   1.591
10814SOL     OW33340   1.784   6.998   5.070
10814SOL    HW133341   1.712   6.928   5.077
10814SOL    HW233342   1.787   0.007   4.977
10815SOL     OW33343   5.425   3.406   2.931
10815SOL    HW133344   5.466   3.320   2.961
10815SOL    HW233345   5.475   3.483   2.971
10816SOL     OW33346   1.328   1.454   2.021
10816SOL    HW133347   1.354   1.469   2.117
10816SOL    HW233348   1.321   1.542   1.974
10817SOL     OW33349   4.523   6.764   2.061
10817SOL    HW133350   4.533   6.859   2.032
10817SOL    HW233351   4.548   6.755   2.158
10818SOL     OW33352   4.616   3.105   6.638
10818SOL    HW133353   4.574   3.016   6.651
10818SOL    HW233354   4.568   3.155   6.565
10819SOL     OW33355   6.846   4.296   6.586
10819SOL    HW133356   6.854   4.263   6.680
10819SOL    HW233357   6.892   4.233   6.524
10820SOL     OW33358   0.462   6.658   4.679
10820SOL    HW133359   0.549   6.651   4.630
10820SOL    HW233360   0.428   6.566   4.698
10821SOL     OW33361   6.768   0.439   0.830
10821SOL    HW133362   6.763   0.341   0.850
10821SOL    HW233363   6.692   0.486   0.875
10822SOL     OW33364   0.472   3.927   2.027
10822SOL    HW133365   0.479   3.996   2.100
10822SOL    HW233366   0.531   3.850   2.049
10823SOL     OW33367   1.862   6.788   1.010
10823SOL    HW133368   1.793   6.758   1.076
10823SOL    HW233369   1.944   6.817   1.059
10824SOL     OW33370   5.496   0.743   2.491
10824SOL    HW133371   5.448   0.778   2.411
10824SOL    HW233372   5.441   0.759   2.573
10825SOL     OW33373   3.628   1.636   0.935
10825SOL    HW133374   3.557   1.595   0.992
10825SOL    HW233375   3.701   1.673   0.993
10826SOL     OW33376   6.970   2.964   2.471
10826SOL    HW133377   6.905   3.030   2.433
10826SOL    HW233378   6.928   2.918   2.549
10827SOL     OW33379   6.937   2.913   4.030
10827SOL    HW133380   6.841   2.931   4.053
10827SOL    HW233381   6.996   2.947   4.104
10828SOL     OW33382   1.104   5.820   0.716
10828SOL    HW133383   1.088   5.869   0.630
10828SOL    HW233384   1.201   5.795   0.723
10829SOL     OW33385   3.369   3.992   1.920
10829SOL    HW133386   3.465   4.016   1.928
10829SOL    HW233387   3.343   3.931   1.995
10830SOL     OW33388   4.875   2.987   4.552
10830SOL    HW133389   4.825   3.036   4.480
10830SOL    HW233390   4.851   3.025   4.641
10831SOL     OW33391   5.533   1.466   2.977
10831SOL    HW133392   5.449   1.483   3.030
10831SOL    HW233393   5.529   1.516   2.891
10832SOL     OW33394   0.937   1.808   0.436
10832SOL    HW133395   0.896   1.742   0.498
10832SOL    HW233396   0.868   1.875   0.407
10833SOL     OW33397   3.272   0.137   4.221
10833SOL    HW133398   3.294   0.112   4.315
10833SOL    HW233399   3.356   0.165   4.174
10834SOL     OW33400   1.147   1.811   4.887
10834SOL    HW133401   1.142   1.907   4.913
10834SOL    HW233402   1.110   1.799   4.794
10835SOL     OW33403   6.263   1.381   2.263
10835SOL    HW133404   6.323   1.367   2.341
10835SOL    HW233405   6.317   1.378   2.179
10836SOL     OW33406   1.948   2.124   6.349
10836SOL    HW133407   1.939   2.223   6.335
10836SOL    HW233408   2.044   2.102   6.365
10837SOL     OW33409   6.957   4.580   0.776
10837SOL    HW133410   6.894   4.583   0.854
10837SOL    HW233411   0.021   4.611   0.805
10838SOL     OW33412   5.919   6.899   6.458
10838SOL    HW133413   5.893   6.817   6.509
10838SOL    HW233414   5.850   6.970   6.472
10839SOL     OW33415   1.743   2.542   0.188
10839SOL    HW133416   1.738   2.641   0.180
10839SOL    HW233417   1.740   2.515   0.284
10840SOL     OW33418   4.010   5.502   1.675
10840SOL    HW133419   3.942   5.529   1.607
10840SOL    HW233420   3.964   5.483   1.762
10841SOL     OW33421   3.759   5.281   6.195
10841SOL    HW133422   3.723   5.374   6.182
10841SOL    HW233423   3.859   5.284   6.198
10842SOL     OW33424   6.629   2.977   1.684
10842SOL    HW133425   6.703   2.910   1.692
10842SOL    HW233426   6.559   2.941   1.622
10843SOL     OW33427   0.590   1.630   1.857
10843SOL    HW133428   0.681   1.630   1.815
10843SOL    HW233429   0.562   1.725   1.874
10844SOL     OW33430   4.676   0.284   3.938
10844SOL    HW133431   4.694   0.354   3.869
10844SOL    HW233432   4.693   0.194   3.898
10845SOL     OW33433   1.642   1.834   1.189
10845SOL    HW133434   1.710   1.825   1.116
10845SOL    HW233435   1.669   1.909   1.250
10846SOL     OW33436   3.926   1.994   1.444
10846SOL    HW133437   3.861   2.068   1.426
10846SOL    HW233438   4.019   2.030   1.438
10847SOL     OW33439   4.148   2.677   6.314
10847SOL    HW133440   4.177   2.761   6.269
10847SOL    HW233441   4.182   2.598   6.263
10848SOL     OW33442   1.097   0.571   6.421
10848SOL    HW133443   1.146   0.627   6.354
10848SOL    HW233444   1.115   0.604   6.513
10849SOL     OW33445   3.152   5.081   4.290
10849SOL    HW133446   3.104   5.071   4.203
10849SOL    HW233447   3.103   5.146   4.348
10850SOL     OW33448   5.201   6.272   0.812
10850SOL    HW133449   5.195   6.251   0.714
10850SOL    HW233450   5.112   6.304   0.845
10851SOL     OW33451   3.613   2.140   6.423
10851SOL    HW133452   3.539   2.194   6.465
10851SOL    HW233453   3.614   2.048   6.462
10852SOL     OW33454   0.552   0.537   6.568
10852SOL    HW133455   0.555   0.462   6.502
10852SOL    HW233456   0.602   0.511   6.650
10853SOL     OW33457   2.495   1.608   4.573
10853SOL    HW133458   2.505   1.689   4.631
10853SOL    HW233459   2.407   1.565   4.591
10854SOL     OW33460   6.578   6.605   6.850
10854SOL    HW133461   6.502   6.631   6.909
10854SOL    HW233462   6.571   6.654   6.763
10855SOL     OW33463   1.177   6.121   1.516
10855SOL    HW133464   1.127   6.201   1.551
10855SOL    HW233465   1.274   6.142   1.511
10856SOL     OW33466   6.197   0.159   6.921
10856SOL    HW133467   6.212   0.128   6.827
10856SOL    HW233468   6.279   0.204   6.955
10857SOL     OW33469   5.954   1.636   4.195
10857SOL    HW133470   6.041   1.629   4.147
10857SOL    HW233471   5.885   1.677   4.135
10858SOL     OW33472   2.340   2.891   0.131
10858SOL    HW133473   2.281   2.959   0.087
10858SOL    HW233474   2.373   2.826   0.062
10859SOL     OW33475   0.873   4.553   2.300
10859SOL    HW133476   0.842   4.558   2.395
10859SOL    HW233477   0.795   4.531   2.241
10860SOL     OW33478   6.372   2.194   6.990
10860SOL    HW133479   6.366   2.277   6.935
10860SOL    HW233480   6.283   2.149   6.994
10861SOL     OW33481   3.516   3.070   1.867
10861SOL    HW133482   3.420   3.047   1.883
10861SOL    HW233483   3.573   3.018   1.931
10862SOL     OW33484   3.616   3.182   5.666
10862SOL    HW133485   3.633   3.117   5.592
10862SOL    HW233486   3.612   3.133   5.753
10863SOL     OW33487   2.231   1.568   2.731
10863SOL    HW133488   2.317   1.587   2.779
10863SOL    HW233489   2.250   1.548   2.635
10864SOL     OW33490   2.855   4.892   2.020
10864SOL    HW133491   2.836   4.799   2.052
10864SOL    HW233492   2.884   4.949   2.096
10865SOL     OW33493   4.179   1.581   3.211
10865SOL    HW133494   4.161   1.497   3.160
10865SOL    HW233495   4.136   1.659   3.165
10866SOL     OW33496   0.066   3.709   3.279
10866SOL    HW133497   0.143   3.705   3.215
10866SOL    HW233498   0.025   3.618   3.288
10867SOL     OW33499   4.118   3.392   0.484
10867SOL    HW133500   4.206   3.438   0.500
10867SOL    HW233501   4.068   3.384   0.571
10868SOL     OW33502   1.013   1.726   4.164
10868SOL    HW133503   1.067   1.678   4.233
10868SOL    HW233504   1.035   1.690   4.073
10869NA      NA33505   0.047   2.331   5.887
10870NA      NA33506   4.368   4.634   5.235
10871NA      NA33507   1.031   5.013   2.780
10872NA      NA33508   5.657   4.300   3.628
10873NA      NA33509   4.331   2.287   5.209
10874NA      NA33510   2.474   5.139   0.608
10875NA      NA33511   1.117   5.209   6.538
10876NA      NA33512   3.409   4.581   1.086
10877NA      NA33513   4.451   5.158   0.950
10878NA      NA33514   3.315   1.048   6.381
10879NA      NA33515   5.630   6.124   2.247
10880NA      NA33516   1.642   6.833   5.602
10881NA      NA33517   4.150   5.153   1.989
10882NA      NA33518   3.405   3.238   6.644
   7.02691   7.02691   7.02691
